<event>
 4    1  0.5985962E-005  0.6323962E+03  0.7818608E-02  0.9840384E-01
         -2   -1    0    0    0  501 -0.00000000000E+00  0.00000000000E+00  0.59442873116E+02  0.59442873171E+02  0.25500000000E-02 0. -1.
          2   -1    0    0  501    0  0.00000000000E+00 -0.00000000000E+00 -0.16819720518E+04  0.16819720518E+04  0.25500000000E-02 0.  1.
    5000001    1    1    2    0    0 -0.94006632254E+02 -0.22452921546E+03 -0.60916204105E+03  0.68240237965E+03  0.18800000000E+03 0.  0.
   -5000001    1    1    2    0    0  0.94006632254E+02  0.22452921546E+03 -0.10133671376E+04  0.10590125453E+04  0.18800000000E+03 0.  0.
<mgrwt>
<rscale>  0 0.63239624E+03</rscale>
<asrwt>0</asrwt>
<pdfrwt beam="1">  1        2 0.24028169E+00 0.63239624E+03</pdfrwt>
<pdfrwt beam="2">  1       -2 0.84918400E-02 0.63239624E+03</pdfrwt>
<totfact> 0.10670124E+03</totfact>
</mgrwt>
</event>
<event>
 4    1  0.5985962E-005  0.5589236E+03  0.7818608E-02  0.9994493E-01
          2   -1    0    0  501    0  0.00000000000E+00  0.00000000000E+00  0.30176854246E+03  0.30176854247E+03  0.25500000000E-02 0.  1.
         -2   -1    0    0    0  501 -0.00000000000E+00 -0.00000000000E+00 -0.25880394639E+03  0.25880394641E+03  0.25500000000E-02 0. -1.
    5000001    1    1    2    0    0 -0.15743648945E+03  0.12643632488E+03  0.66138897524E+02  0.28370891108E+03  0.18800000000E+03 0.  0.
   -5000001    1    1    2    0    0  0.15743648945E+03 -0.12643632488E+03 -0.23174301458E+02  0.27686357779E+03  0.18800000000E+03 0.  0.
<mgrwt>
<rscale>  0 0.55892357E+03</rscale>
<asrwt>0</asrwt>
<pdfrwt beam="1">  1        2 0.43109792E-01 0.55892357E+03</pdfrwt>
<pdfrwt beam="2">  1       -2 0.36971992E-01 0.55892357E+03</pdfrwt>
<totfact> 0.81998070E+02</totfact>
</mgrwt>
</event>
<event>
 4    1  0.5985962E-005  0.7645214E+03  0.7818608E-02  0.9612840E-01
          2   -1    0    0  501    0  0.00000000000E+00  0.00000000000E+00  0.62369672985E+03  0.62369672985E+03  0.25500000000E-02 0.  1.
         -2   -1    0    0    0  501 -0.00000000000E+00 -0.00000000000E+00 -0.23428570455E+03  0.23428570457E+03  0.25500000000E-02 0. -1.
    5000001    1    1    2    0    0  0.15236781985E+03  0.28953442713E+03  0.12613726555E+03  0.39787026376E+03  0.18800000000E+03 0.  0.
   -5000001    1    1    2    0    0 -0.15236781985E+03 -0.28953442713E+03  0.26327375975E+03  0.46011217066E+03  0.18800000000E+03 0.  0.
<mgrwt>
<rscale>  0 0.76452136E+03</rscale>
<asrwt>0</asrwt>
<pdfrwt beam="1">  1        2 0.89099535E-01 0.76452136E+03</pdfrwt>
<pdfrwt beam="2">  1       -2 0.33469386E-01 0.76452136E+03</pdfrwt>
<totfact> 0.43405371E+02</totfact>
</mgrwt>
</event>
<event>
 4    1  0.5985962E-005  0.4519620E+03  0.7818608E-02  0.1027139E+00
          2   -1    0    0  501    0  0.00000000000E+00  0.00000000000E+00  0.22119247175E+04  0.22119247175E+04  0.25500000000E-02 0.  1.
         -2   -1    0    0    0  501 -0.00000000000E+00 -0.00000000000E+00 -0.23087317726E+02  0.23087317866E+02  0.25500000000E-02 0. -1.
    5000001    1    1    2    0    0 -0.44961261871E+02  0.28884659043E+02  0.16553713885E+04  0.16668696027E+04  0.18800000000E+03 0.  0.
   -5000001    1    1    2    0    0  0.44961261871E+02 -0.28884659043E+02  0.53346601133E+03  0.56814243270E+03  0.18800000000E+03 0.  0.
<mgrwt>
<rscale>  0 0.45196198E+03</rscale>
<asrwt>0</asrwt>
<pdfrwt beam="1">  1        2 0.31598933E+00 0.45196198E+03</pdfrwt>
<pdfrwt beam="2">  1       -2 0.32981874E-02 0.45196198E+03</pdfrwt>
<totfact> 0.25352410E+03</totfact>
</mgrwt>
</event>
<event>
 4    1  0.5985962E-005  0.9286990E+03  0.7818608E-02  0.9390401E-01
          2   -1    0    0  501    0  0.00000000000E+00  0.00000000000E+00  0.26082991062E+04  0.26082991062E+04  0.25500000000E-02 0.  1.
         -2   -1    0    0    0  501 -0.00000000000E+00 -0.00000000000E+00 -0.82667076535E+02  0.82667076575E+02  0.25500000000E-02 0. -1.
    5000001    1    1    2    0    0 -0.23179720737E+03  0.14052256876E+03  0.31588415097E+03  0.45673114029E+03  0.18800000000E+03 0.  0.
   -5000001    1    1    2    0    0  0.23179720737E+03 -0.14052256876E+03  0.22097478787E+04  0.22342350425E+04  0.18800000000E+03 0.  0.
<mgrwt>
<rscale>  0 0.92869901E+03</rscale>
<asrwt>0</asrwt>
<pdfrwt beam="1">  1        2 0.37261413E+00 0.92869901E+03</pdfrwt>
<pdfrwt beam="2">  1       -2 0.11809583E-01 0.92869901E+03</pdfrwt>
<totfact> 0.20566349E+02</totfact>
</mgrwt>
</event>
<event>
 4    1  0.5985962E-005  0.5419607E+03  0.7818608E-02  0.1003372E+00
         -2   -1    0    0    0  501 -0.00000000000E+00  0.00000000000E+00  0.20142997035E+03  0.20142997037E+03  0.25500000000E-02 0. -1.
          2   -1    0    0  501    0  0.00000000000E+00 -0.00000000000E+00 -0.36454527729E+03  0.36454527730E+03  0.25500000000E-02 0.  1.
    5000001    1    1    2    0    0  0.11808302633E+03  0.15531784871E+03 -0.86122756018E+02  0.28430329639E+03  0.18800000000E+03 0.  0.
   -5000001    1    1    2    0    0 -0.11808302633E+03 -0.15531784871E+03 -0.76992550915E+02  0.28167195127E+03  0.18800000000E+03 0.  0.
<mgrwt>
<rscale>  0 0.54196068E+03</rscale>
<asrwt>0</asrwt>
<pdfrwt beam="1">  1        2 0.52077896E-01 0.54196068E+03</pdfrwt>
<pdfrwt beam="2">  1       -2 0.28775710E-01 0.54196068E+03</pdfrwt>
<totfact> 0.10640861E+03</totfact>
</mgrwt>
</event>
<event>
 4    1  0.5985962E-005  0.6446007E+03  0.7818608E-02  0.9816964E-01
          2   -1    0    0  501    0  0.00000000000E+00  0.00000000000E+00  0.23776477483E+03  0.23776477484E+03  0.25500000000E-02 0.  1.
         -2   -1    0    0    0  501 -0.00000000000E+00 -0.00000000000E+00 -0.43689193727E+03  0.43689193728E+03  0.25500000000E-02 0. -1.
    5000001    1    1    2    0    0 -0.83391076892E+02 -0.24553663381E+03 -0.61954795133E+02  0.32622799832E+03  0.18800000000E+03 0.  0.
   -5000001    1    1    2    0    0  0.83391076892E+02  0.24553663381E+03 -0.13717236731E+03  0.34842871380E+03  0.18800000000E+03 0.  0.
<mgrwt>
<rscale>  0 0.64460069E+03</rscale>
<asrwt>0</asrwt>
<pdfrwt beam="1">  1        2 0.33966397E-01 0.64460069E+03</pdfrwt>
<pdfrwt beam="2">  1       -2 0.62413134E-01 0.64460069E+03</pdfrwt>
<totfact> 0.37182361E+02</totfact>
</mgrwt>
</event>
<event>
 4    1  0.5985962E-005  0.7352739E+03  0.7818608E-02  0.9658741E-01
          2   -1    0    0  501    0  0.00000000000E+00  0.00000000000E+00  0.20486401734E+04  0.20486401734E+04  0.25500000000E-02 0.  1.
         -2   -1    0    0    0  501 -0.00000000000E+00 -0.00000000000E+00 -0.65973963434E+02  0.65973963483E+02  0.25500000000E-02 0. -1.
    5000001    1    1    2    0    0  0.22836292597E+03 -0.51983480682E+02  0.38151543487E+03  0.48554086879E+03  0.18800000000E+03 0.  0.
   -5000001    1    1    2    0    0 -0.22836292597E+03  0.51983480682E+02  0.16011507751E+04  0.16290732681E+04  0.18800000000E+03 0.  0.
<mgrwt>
<rscale>  0 0.73527386E+03</rscale>
<asrwt>0</asrwt>
<pdfrwt beam="1">  1        2 0.29266287E+00 0.73527386E+03</pdfrwt>
<pdfrwt beam="2">  1       -2 0.94248523E-02 0.73527386E+03</pdfrwt>
<totfact> 0.58483024E+02</totfact>
</mgrwt>
</event>
<event>
 4    1  0.5985962E-005  0.4497754E+03  0.7818608E-02  0.1027789E+00
         -2   -1    0    0    0  501 -0.00000000000E+00  0.00000000000E+00  0.15818898186E+03  0.15818898188E+03  0.25500000000E-02 0. -1.
          2   -1    0    0  501    0  0.00000000000E+00 -0.00000000000E+00 -0.31970921378E+03  0.31970921379E+03  0.25500000000E-02 0.  1.
    5000001    1    1    2    0    0 -0.10615400213E+03 -0.53437140742E+02 -0.45419735327E+02  0.22700474122E+03  0.18800000000E+03 0.  0.
   -5000001    1    1    2    0    0  0.10615400213E+03  0.53437140742E+02 -0.11610049659E+03  0.25089345445E+03  0.18800000000E+03 0.  0.
<mgrwt>
<rscale>  0 0.44977539E+03</rscale>
<asrwt>0</asrwt>
<pdfrwt beam="1">  1        2 0.45672744E-01 0.44977539E+03</pdfrwt>
<pdfrwt beam="2">  1       -2 0.22598426E-01 0.44977539E+03</pdfrwt>
<totfact> 0.18946942E+03</totfact>
</mgrwt>
</event>
<event>
 4    1  0.5985962E-005  0.4870673E+03  0.7818608E-02  0.1017211E+00
          2   -1    0    0  501    0  0.00000000000E+00  0.00000000000E+00  0.22577468295E+03  0.22577468296E+03  0.25500000000E-02 0.  1.
         -2   -1    0    0    0  501 -0.00000000000E+00 -0.00000000000E+00 -0.26268944682E+03  0.26268944683E+03  0.25500000000E-02 0. -1.
    5000001    1    1    2    0    0 -0.58395193652E+02 -0.79176345323E+02  0.10140834722E+03  0.23517343640E+03  0.18800000000E+03 0.  0.
   -5000001    1    1    2    0    0  0.58395193652E+02  0.79176345323E+02 -0.13832311109E+03  0.25329069340E+03  0.18800000000E+03 0.  0.
<mgrwt>
<rscale>  0 0.48706725E+03</rscale>
<asrwt>0</asrwt>
<pdfrwt beam="1">  1        2 0.32253526E-01 0.48706725E+03</pdfrwt>
<pdfrwt beam="2">  1       -2 0.37527063E-01 0.48706725E+03</pdfrwt>
<totfact> 0.10984086E+03</totfact>
</mgrwt>
</event>
<event>
 4    1  0.5985962E-005  0.1015457E+04  0.7818608E-02  0.9291752E-01
         -2   -1    0    0    0  501 -0.00000000000E+00  0.00000000000E+00  0.29121886248E+03  0.29121886249E+03  0.25500000000E-02 0. -1.
          2   -1    0    0  501    0  0.00000000000E+00 -0.00000000000E+00 -0.88520519479E+03  0.88520519480E+03  0.25500000000E-02 0.  1.
    5000001    1    1    2    0    0 -0.22024315446E+03  0.41386063516E+03 -0.35670766119E+03  0.61836237593E+03  0.18800000000E+03 0.  0.
   -5000001    1    1    2    0    0  0.22024315446E+03 -0.41386063516E+03 -0.23727867113E+03  0.55806168135E+03  0.18800000000E+03 0.  0.
<mgrwt>
<rscale>  0 0.10154574E+04</rscale>
<asrwt>0</asrwt>
<pdfrwt beam="1">  1        2 0.12645788E+00 0.10154574E+04</pdfrwt>
<pdfrwt beam="2">  1       -2 0.41602695E-01 0.10154574E+04</pdfrwt>
<totfact> 0.18137768E+02</totfact>
</mgrwt>
</event>
<event>
 4    1  0.5985962E-005  0.4953123E+03  0.7818608E-02  0.1015010E+00
          2   -1    0    0  501    0  0.00000000000E+00  0.00000000000E+00  0.92856531851E+03  0.92856531852E+03  0.25500000000E-02 0.  1.
         -2   -1    0    0    0  501 -0.00000000000E+00 -0.00000000000E+00 -0.66051979656E+02  0.66051979705E+02  0.25500000000E-02 0. -1.
    5000001    1    1    2    0    0 -0.13838650675E+03 -0.57503563670E+02  0.55059855519E+03  0.60079967882E+03  0.18800000000E+03 0.  0.
   -5000001    1    1    2    0    0  0.13838650675E+03  0.57503563670E+02  0.31191478366E+03  0.39381761940E+03  0.18800000000E+03 0.  0.
<mgrwt>
<rscale>  0 0.49531234E+03</rscale>
<asrwt>0</asrwt>
<pdfrwt beam="1">  1        2 0.13265217E+00 0.49531234E+03</pdfrwt>
<pdfrwt beam="2">  1       -2 0.94359981E-02 0.49531234E+03</pdfrwt>
<totfact> 0.23509711E+03</totfact>
</mgrwt>
</event>
<event>
 4    1  0.5985962E-005  0.6781260E+03  0.7818608E-02  0.9755389E-01
          2   -1    0    0  501    0  0.00000000000E+00  0.00000000000E+00  0.26790977107E+03  0.26790977109E+03  0.25500000000E-02 0.  1.
         -2   -1    0    0    0  501 -0.00000000000E+00 -0.00000000000E+00 -0.42911360022E+03  0.42911360023E+03  0.25500000000E-02 0. -1.
    5000001    1    1    2    0    0 -0.15720614389E+03  0.23400695352E+03 -0.93051435181E+02  0.35139094405E+03  0.18800000000E+03 0.  0.
   -5000001    1    1    2    0    0  0.15720614389E+03 -0.23400695352E+03 -0.68152393970E+02  0.34563242727E+03  0.18800000000E+03 0.  0.
<mgrwt>
<rscale>  0 0.67812602E+03</rscale>
<asrwt>0</asrwt>
<pdfrwt beam="1">  1        2 0.38272824E-01 0.67812602E+03</pdfrwt>
<pdfrwt beam="2">  1       -2 0.61301943E-01 0.67812602E+03</pdfrwt>
<totfact> 0.33788463E+02</totfact>
</mgrwt>
</event>
<event>
 4    1  0.5985962E-005  0.4544482E+03  0.7818608E-02  0.1026404E+00
          2   -1    0    0  501    0  0.00000000000E+00  0.00000000000E+00  0.62070580006E+03  0.62070580007E+03  0.25500000000E-02 0.  1.
         -2   -1    0    0    0  501 -0.00000000000E+00 -0.00000000000E+00 -0.83180788545E+02  0.83180788584E+02  0.25500000000E-02 0. -1.
    5000001    1    1    2    0    0  0.53915845336E+02  0.11562630033E+03  0.26375834359E+03  0.34812185154E+03  0.18800000000E+03 0.  0.
   -5000001    1    1    2    0    0 -0.53915845336E+02 -0.11562630033E+03  0.27376666793E+03  0.35576473712E+03  0.18800000000E+03 0.  0.
<mgrwt>
<rscale>  0 0.45444823E+03</rscale>
<asrwt>0</asrwt>
<pdfrwt beam="1">  1        2 0.88672252E-01 0.45444823E+03</pdfrwt>
<pdfrwt beam="2">  1       -2 0.11882971E-01 0.45444823E+03</pdfrwt>
<totfact> 0.26754271E+03</totfact>
</mgrwt>
</event>
<event>
 4    1  0.5985962E-005  0.8042158E+03  0.7818608E-02  0.9553935E-01
          2   -1    0    0  501    0  0.00000000000E+00  0.00000000000E+00  0.34240699115E+03  0.34240699116E+03  0.25500000000E-02 0.  1.
         -2   -1    0    0    0  501 -0.00000000000E+00 -0.00000000000E+00 -0.47221799679E+03  0.47221799680E+03  0.25500000000E-02 0. -1.
    5000001    1    1    2    0    0 -0.16869313362E+03  0.27208535017E+03 -0.22136814353E+03  0.43224491446E+03  0.18800000000E+03 0.  0.
   -5000001    1    1    2    0    0  0.16869313362E+03 -0.27208535017E+03  0.91557137892E+02  0.38238007349E+03  0.18800000000E+03 0.  0.
<mgrwt>
<rscale>  0 0.80421575E+03</rscale>
<asrwt>0</asrwt>
<pdfrwt beam="1">  1        2 0.48915285E-01 0.80421575E+03</pdfrwt>
<pdfrwt beam="2">  1       -2 0.67459714E-01 0.80421575E+03</pdfrwt>
<totfact> 0.20883046E+02</totfact>
</mgrwt>
</event>
<event>
 4    1  0.5985962E-005  0.6486096E+03  0.7818608E-02  0.9809392E-01
         -2   -1    0    0    0  501 -0.00000000000E+00  0.00000000000E+00  0.58173312482E+03  0.58173312483E+03  0.25500000000E-02 0. -1.
          2   -1    0    0  501    0  0.00000000000E+00 -0.00000000000E+00 -0.18079353744E+03  0.18079353746E+03  0.25500000000E-02 0.  1.
    5000001    1    1    2    0    0 -0.15662969093E+03  0.17171087988E+03  0.34830113221E+03  0.45899364380E+03  0.18800000000E+03 0.  0.
   -5000001    1    1    2    0    0  0.15662969093E+03 -0.17171087988E+03  0.52638455178E+02  0.30353301849E+03  0.18800000000E+03 0.  0.
<mgrwt>
<rscale>  0 0.64860956E+03</rscale>
<asrwt>0</asrwt>
<pdfrwt beam="1">  1        2 0.25827649E-01 0.64860956E+03</pdfrwt>
<pdfrwt beam="2">  1       -2 0.83104731E-01 0.64860956E+03</pdfrwt>
<totfact> 0.27047429E+02</totfact>
</mgrwt>
</event>
<event>
 4    1  0.5985962E-005  0.4808387E+03  0.7818608E-02  0.1018905E+00
          2   -1    0    0  501    0  0.00000000000E+00  0.00000000000E+00  0.19674215119E+04  0.19674215119E+04  0.25500000000E-02 0.  1.
         -2   -1    0    0    0  501 -0.00000000000E+00 -0.00000000000E+00 -0.29379292701E+02  0.29379292811E+02  0.25500000000E-02 0. -1.
    5000001    1    1    2    0    0  0.13683207341E+03 -0.59808895934E+02  0.91693232552E+03  0.94784440175E+03  0.18800000000E+03 0.  0.
   -5000001    1    1    2    0    0 -0.13683207341E+03  0.59808895934E+02  0.10211098937E+04  0.10489564030E+04  0.18800000000E+03 0.  0.
<mgrwt>
<rscale>  0 0.48083865E+03</rscale>
<asrwt>0</asrwt>
<pdfrwt beam="1">  1        2 0.28106021E+00 0.48083865E+03</pdfrwt>
<pdfrwt beam="2">  1       -2 0.41970419E-02 0.48083865E+03</pdfrwt>
<totfact> 0.23224026E+03</totfact>
</mgrwt>
</event>
<event>
 4    1  0.5985962E-005  0.4157970E+03  0.7818608E-02  0.1038443E+00
          2   -1    0    0  501    0  0.00000000000E+00  0.00000000000E+00  0.36081438804E+04  0.36081438804E+04  0.25500000000E-02 0.  1.
         -2   -1    0    0    0  501 -0.00000000000E+00 -0.00000000000E+00 -0.11978953670E+02  0.11978953941E+02  0.25500000000E-02 0. -1.
    5000001    1    1    2    0    0  0.56025652388E+02  0.39620994170E+02  0.22882102940E+04  0.22969455906E+04  0.18800000000E+03 0.  0.
   -5000001    1    1    2    0    0 -0.56025652388E+02 -0.39620994170E+02  0.13079546327E+04  0.13231772437E+04  0.18800000000E+03 0.  0.
<mgrwt>
<rscale>  0 0.41579701E+03</rscale>
<asrwt>0</asrwt>
<pdfrwt beam="1">  1        2 0.51544866E+00 0.41579701E+03</pdfrwt>
<pdfrwt beam="2">  1       -2 0.17112807E-02 0.41579701E+03</pdfrwt>
<totfact> 0.12068169E+03</totfact>
</mgrwt>
</event>
<event>
 4    1  0.5985962E-005  0.5626810E+03  0.7818608E-02  0.9986007E-01
         -2   -1    0    0    0  501 -0.00000000000E+00  0.00000000000E+00  0.13105074927E+03  0.13105074929E+03  0.25500000000E-02 0. -1.
          2   -1    0    0  501    0  0.00000000000E+00 -0.00000000000E+00 -0.60398335020E+03  0.60398335020E+03  0.25500000000E-02 0.  1.
    5000001    1    1    2    0    0  0.10763659452E+03 -0.16901416004E+03 -0.31546329594E+03  0.41834496992E+03  0.18800000000E+03 0.  0.
   -5000001    1    1    2    0    0 -0.10763659452E+03  0.16901416004E+03 -0.15746930499E+03  0.31668912957E+03  0.18800000000E+03 0.  0.
<mgrwt>
<rscale>  0 0.56268098E+03</rscale>
<asrwt>0</asrwt>
<pdfrwt beam="1">  1        2 0.86283334E-01 0.56268098E+03</pdfrwt>
<pdfrwt beam="2">  1       -2 0.18721536E-01 0.56268098E+03</pdfrwt>
<totfact> 0.12897667E+03</totfact>
</mgrwt>
</event>
<event>
 4    1  0.5985962E-005  0.5165851E+03  0.7818608E-02  0.1009538E+00
         -2   -1    0    0    0  501 -0.00000000000E+00  0.00000000000E+00  0.33534441625E+02  0.33534441722E+02  0.25500000000E-02 0. -1.
          2   -1    0    0  501    0  0.00000000000E+00 -0.00000000000E+00 -0.19894486506E+04  0.19894486506E+04  0.25500000000E-02 0.  1.
    5000001    1    1    2    0    0  0.11370791549E+03 -0.13563531814E+03 -0.95179841766E+03  0.98620011024E+03  0.18800000000E+03 0.  0.
   -5000001    1    1    2    0    0 -0.11370791549E+03  0.13563531814E+03 -0.10041157913E+04  0.10367829820E+04  0.18800000000E+03 0.  0.
<mgrwt>
<rscale>  0 0.51658513E+03</rscale>
<asrwt>0</asrwt>
<pdfrwt beam="1">  1        2 0.28420688E+00 0.51658513E+03</pdfrwt>
<pdfrwt beam="2">  1       -2 0.47906358E-02 0.51658513E+03</pdfrwt>
<totfact> 0.18450675E+03</totfact>
</mgrwt>
</event>
<event>
 4    1  0.5985962E-005  0.7314790E+03  0.7818608E-02  0.9664863E-01
         -2   -1    0    0    0  501 -0.00000000000E+00  0.00000000000E+00  0.62578682508E+02  0.62578682560E+02  0.25500000000E-02 0. -1.
          2   -1    0    0  501    0  0.00000000000E+00 -0.00000000000E+00 -0.21375551909E+04  0.21375551909E+04  0.25500000000E-02 0.  1.
    5000001    1    1    2    0    0  0.32182184456E+02 -0.30776990489E+03 -0.11927140269E+04  0.12464624973E+04  0.18800000000E+03 0.  0.
   -5000001    1    1    2    0    0 -0.32182184456E+02  0.30776990489E+03 -0.88226248153E+03  0.95367137614E+03  0.18800000000E+03 0.  0.
<mgrwt>
<rscale>  0 0.73147902E+03</rscale>
<asrwt>0</asrwt>
<pdfrwt beam="1">  1        2 0.30536498E+00 0.73147902E+03</pdfrwt>
<pdfrwt beam="2">  1       -2 0.89398131E-02 0.73147902E+03</pdfrwt>
<totfact> 0.57445938E+02</totfact>
</mgrwt>
</event>
<event>
 4    1  0.5985962E-005  0.4623701E+03  0.7818608E-02  0.1024096E+00
          2   -1    0    0  501    0  0.00000000000E+00  0.00000000000E+00  0.25732089768E+03  0.25732089769E+03  0.25500000000E-02 0.  1.
         -2   -1    0    0    0  501 -0.00000000000E+00 -0.00000000000E+00 -0.20770379074E+03  0.20770379076E+03  0.25500000000E-02 0. -1.
    5000001    1    1    2    0    0 -0.70264435152E+02 -0.11473859357E+03  0.24104398333E+02  0.23243721243E+03  0.18800000000E+03 0.  0.
   -5000001    1    1    2    0    0  0.70264435152E+02  0.11473859357E+03  0.25512708599E+02  0.23258747602E+03  0.18800000000E+03 0.  0.
<mgrwt>
<rscale>  0 0.46237009E+03</rscale>
<asrwt>0</asrwt>
<pdfrwt beam="1">  1        2 0.36760128E-01 0.46237009E+03</pdfrwt>
<pdfrwt beam="2">  1       -2 0.29671970E-01 0.46237009E+03</pdfrwt>
<totfact> 0.14746772E+03</totfact>
</mgrwt>
</event>
<event>
 4    1  0.5985962E-005  0.4878057E+03  0.7818608E-02  0.1017012E+00
         -2   -1    0    0    0  501 -0.00000000000E+00  0.00000000000E+00  0.12058016977E+02  0.12058017246E+02  0.25500000000E-02 0. -1.
          2   -1    0    0  501    0  0.00000000000E+00 -0.00000000000E+00 -0.49335317602E+04  0.49335317602E+04  0.25500000000E-02 0.  1.
    5000001    1    1    2    0    0 -0.29460274273E+02 -0.78992747759E+02 -0.37840597231E+04  0.37896648598E+04  0.18800000000E+03 0.  0.
   -5000001    1    1    2    0    0  0.29460274273E+02  0.78992747759E+02 -0.11374140201E+04  0.11559249176E+04  0.18800000000E+03 0.  0.
<mgrwt>
<rscale>  0 0.48780574E+03</rscale>
<asrwt>0</asrwt>
<pdfrwt beam="1">  1        2 0.70478896E+00 0.48780574E+03</pdfrwt>
<pdfrwt beam="2">  1       -2 0.17225770E-02 0.48780574E+03</pdfrwt>
<totfact> 0.12817969E+02</totfact>
</mgrwt>
</event>
<event>
 4    1  0.5985962E-005  0.6609148E+03  0.7818608E-02  0.9786511E-01
         -2   -1    0    0    0  501 -0.00000000000E+00  0.00000000000E+00  0.79403099817E+02  0.79403099858E+02  0.25500000000E-02 0. -1.
          2   -1    0    0  501    0  0.00000000000E+00 -0.00000000000E+00 -0.13752877046E+04  0.13752877046E+04  0.25500000000E-02 0.  1.
    5000001    1    1    2    0    0 -0.17925634202E+03 -0.64399829121E+02 -0.22127277023E+03  0.34725468030E+03  0.18800000000E+03 0.  0.
   -5000001    1    1    2    0    0  0.17925634202E+03  0.64399829121E+02 -0.10746118346E+04  0.11074361242E+04  0.18800000000E+03 0.  0.
<mgrwt>
<rscale>  0 0.66091484E+03</rscale>
<asrwt>0</asrwt>
<pdfrwt beam="1">  1        2 0.19646966E+00 0.66091484E+03</pdfrwt>
<pdfrwt beam="2">  1       -2 0.11343301E-01 0.66091484E+03</pdfrwt>
<totfact> 0.96305389E+02</totfact>
</mgrwt>
</event>
<event>
 4    1  0.5985962E-005  0.4496479E+03  0.7818608E-02  0.1027827E+00
         -2   -1    0    0    0  501 -0.00000000000E+00  0.00000000000E+00  0.11582554607E+03  0.11582554610E+03  0.25500000000E-02 0. -1.
          2   -1    0    0  501    0  0.00000000000E+00 -0.00000000000E+00 -0.43639609083E+03  0.43639609084E+03  0.25500000000E-02 0.  1.
    5000001    1    1    2    0    0  0.95214555932E+02  0.73839391046E+02 -0.12817167795E+03  0.25746853470E+03  0.18800000000E+03 0.  0.
   -5000001    1    1    2    0    0 -0.95214555932E+02 -0.73839391046E+02 -0.19239886680E+03  0.29475310224E+03  0.18800000000E+03 0.  0.
<mgrwt>
<rscale>  0 0.44964793E+03</rscale>
<asrwt>0</asrwt>
<pdfrwt beam="1">  1        2 0.62342298E-01 0.44964793E+03</pdfrwt>
<pdfrwt beam="2">  1       -2 0.16546507E-01 0.44964793E+03</pdfrwt>
<totfact> 0.23033800E+03</totfact>
</mgrwt>
</event>
<event>
 4    1  0.5985962E-005  0.8108798E+03  0.7818608E-02  0.9544401E-01
          2   -1    0    0  501    0  0.00000000000E+00  0.00000000000E+00  0.14706225255E+04  0.14706225255E+04  0.25500000000E-02 0. -1.
         -2   -1    0    0    0  501 -0.00000000000E+00 -0.00000000000E+00 -0.11177683517E+03  0.11177683519E+03  0.25500000000E-02 0.  1.
    5000001    1    1    2    0    0 -0.31450918854E+03  0.15067286228E+03  0.51133440218E+03  0.64685795346E+03  0.18800000000E+03 0.  0.
   -5000001    1    1    2    0    0  0.31450918854E+03 -0.15067286228E+03  0.84751128815E+03  0.93554140723E+03  0.18800000000E+03 0.  0.
<mgrwt>
<rscale>  0 0.81087985E+03</rscale>
<asrwt>0</asrwt>
<pdfrwt beam="1">  1        2 0.21008893E+00 0.81087985E+03</pdfrwt>
<pdfrwt beam="2">  1       -2 0.15968119E-01 0.81087985E+03</pdfrwt>
<totfact> 0.48049001E+02</totfact>
</mgrwt>
</event>
<event>
 4    1  0.5985962E-005  0.5629264E+03  0.7818608E-02  0.9985455E-01
         -2   -1    0    0    0  501 -0.00000000000E+00  0.00000000000E+00  0.25022304663E+03  0.25022304664E+03  0.25500000000E-02 0. -1.
          2   -1    0    0  501    0  0.00000000000E+00 -0.00000000000E+00 -0.31660360838E+03  0.31660360839E+03  0.25500000000E-02 0.  1.
    5000001    1    1    2    0    0  0.16142978910E+03 -0.34815051959E+02  0.96566273174E+02  0.26821765372E+03  0.18800000000E+03 0.  0.
   -5000001    1    1    2    0    0 -0.16142978910E+03  0.34815051959E+02 -0.16294683492E+03  0.29860900131E+03  0.18800000000E+03 0.  0.
<mgrwt>
<rscale>  0 0.56292635E+03</rscale>
<asrwt>0</asrwt>
<pdfrwt beam="1">  1        2 0.45229087E-01 0.56292635E+03</pdfrwt>
<pdfrwt beam="2">  1       -2 0.35746150E-01 0.56292635E+03</pdfrwt>
<totfact> 0.82935135E+02</totfact>
</mgrwt>
</event>
<event>
 4    1  0.5985962E-005  0.5517837E+03  0.7818608E-02  0.1001082E+00
          2   -1    0    0  501    0  0.00000000000E+00  0.00000000000E+00  0.74625308474E+03  0.74625308474E+03  0.25500000000E-02 0.  1.
         -2   -1    0    0    0  501 -0.00000000000E+00 -0.00000000000E+00 -0.10199798217E+03  0.10199798221E+03  0.25500000000E-02 0. -1.
    5000001    1    1    2    0    0 -0.90335298620E+02  0.13077895792E+03  0.51357225333E+03  0.56952968439E+03  0.18800000000E+03 0.  0.
   -5000001    1    1    2    0    0  0.90335298620E+02 -0.13077895792E+03  0.13068284924E+03  0.27872138256E+03  0.18800000000E+03 0.  0.
<mgrwt>
<rscale>  0 0.55178369E+03</rscale>
<asrwt>0</asrwt>
<pdfrwt beam="1">  1        2 0.10660758E+00 0.55178369E+03</pdfrwt>
<pdfrwt beam="2">  1       -2 0.14571141E-01 0.55178369E+03</pdfrwt>
<totfact> 0.15294283E+03</totfact>
</mgrwt>
</event>
<event>
 4    1  0.5985962E-005  0.4310801E+03  0.7818608E-02  0.1033519E+00
          2   -1    0    0  501    0  0.00000000000E+00  0.00000000000E+00  0.16690817648E+04  0.16690817648E+04  0.25500000000E-02 0.  1.
         -2   -1    0    0    0  501 -0.00000000000E+00 -0.00000000000E+00 -0.27834168815E+02  0.27834168931E+02  0.25500000000E-02 0. -1.
    5000001    1    1    2    0    0  0.73075167901E+02  0.57594443504E+02  0.10157215482E+04  0.10371554192E+04  0.18800000000E+03 0.  0.
   -5000001    1    1    2    0    0 -0.73075167901E+02 -0.57594443504E+02  0.62552604777E+03  0.65976051453E+03  0.18800000000E+03 0.  0.
<mgrwt>
<rscale>  0 0.43108006E+03</rscale>
<asrwt>0</asrwt>
<pdfrwt beam="1">  1        2 0.23844030E+00 0.43108006E+03</pdfrwt>
<pdfrwt beam="2">  1       -2 0.39763090E-02 0.43108006E+03</pdfrwt>
<totfact> 0.35600711E+03</totfact>
</mgrwt>
</event>
<event>
 4    1  0.5985962E-005  0.8677375E+03  0.7818608E-02  0.9466835E-01
         -2   -1    0    0    0  501 -0.00000000000E+00  0.00000000000E+00  0.12135536447E+03  0.12135536449E+03  0.25500000000E-02 0. -1.
          2   -1    0    0  501    0  0.00000000000E+00 -0.00000000000E+00 -0.15511642292E+04  0.15511642292E+04  0.25500000000E-02 0.  1.
    5000001    1    1    2    0    0 -0.38200868466E+02 -0.38428356395E+03 -0.83317091161E+03  0.93736382041E+03  0.18800000000E+03 0.  0.
   -5000001    1    1    2    0    0  0.38200868466E+02  0.38428356395E+03 -0.59663795313E+03  0.73515577328E+03  0.18800000000E+03 0.  0.
<mgrwt>
<rscale>  0 0.86773752E+03</rscale>
<asrwt>0</asrwt>
<pdfrwt beam="1">  1        2 0.22159488E+00 0.86773752E+03</pdfrwt>
<pdfrwt beam="2">  1       -2 0.17336482E-01 0.86773752E+03</pdfrwt>
<totfact> 0.37741323E+02</totfact>
</mgrwt>
</event>
<event>
 4    1  0.5985962E-005  0.9337861E+03  0.7818608E-02  0.9384305E-01
          2   -1    0    0  501    0  0.00000000000E+00  0.00000000000E+00  0.59013487321E+03  0.59013487321E+03  0.25500000000E-02 0.  1.
         -2   -1    0    0    0  501 -0.00000000000E+00 -0.00000000000E+00 -0.36938865995E+03  0.36938865996E+03  0.25500000000E-02 0. -1.
    5000001    1    1    2    0    0 -0.28181171963E+03  0.17221221080E+03 -0.16834122428E+03  0.41564126198E+03  0.18800000000E+03 0.  0.
   -5000001    1    1    2    0    0  0.28181171963E+03 -0.17221221080E+03  0.38908743753E+03  0.54388227119E+03  0.18800000000E+03 0.  0.
<mgrwt>
<rscale>  0 0.93378612E+03</rscale>
<asrwt>0</asrwt>
<pdfrwt beam="1">  1        2 0.84304981E-01 0.93378612E+03</pdfrwt>
<pdfrwt beam="2">  1       -2 0.52769809E-01 0.93378612E+03</pdfrwt>
<totfact> 0.18776498E+02</totfact>
</mgrwt>
</event>
<event>
 4    1  0.5985962E-005  0.6637749E+03  0.7818608E-02  0.9781269E-01
         -2   -1    0    0    0  501 -0.00000000000E+00  0.00000000000E+00  0.17409069012E+03  0.17409069014E+03  0.25500000000E-02 0. -1.
          2   -1    0    0  501    0  0.00000000000E+00 -0.00000000000E+00 -0.63271212408E+03  0.63271212409E+03  0.25500000000E-02 0.  1.
    5000001    1    1    2    0    0  0.26250987162E+03  0.61851956884E+02 -0.17403401848E+03  0.37197975329E+03  0.18800000000E+03 0.  0.
   -5000001    1    1    2    0    0 -0.26250987162E+03 -0.61851956884E+02 -0.28458741548E+03  0.43482306093E+03  0.18800000000E+03 0.  0.
<mgrwt>
<rscale>  0 0.66377493E+03</rscale>
<asrwt>0</asrwt>
<pdfrwt beam="1">  1        2 0.90387445E-01 0.66377493E+03</pdfrwt>
<pdfrwt beam="2">  1       -2 0.24870099E-01 0.66377493E+03</pdfrwt>
<totfact> 0.73931751E+02</totfact>
</mgrwt>
</event>
<event>
 4    1  0.5985962E-005  0.6383162E+03  0.7818608E-02  0.9828953E-01
         -2   -1    0    0    0  501 -0.00000000000E+00  0.00000000000E+00  0.15412232767E+03  0.15412232769E+03  0.25500000000E-02 0. -1.
          2   -1    0    0  501    0  0.00000000000E+00 -0.00000000000E+00 -0.66091585199E+03  0.66091585199E+03  0.25500000000E-02 0.  1.
    5000001    1    1    2    0    0  0.97302183481E+01  0.24925066956E+03 -0.33709970811E+03  0.45956586757E+03  0.18800000000E+03 0.  0.
   -5000001    1    1    2    0    0 -0.97302183481E+01 -0.24925066956E+03 -0.16969381620E+03  0.35547231212E+03  0.18800000000E+03 0.  0.
<mgrwt>
<rscale>  0 0.63831619E+03</rscale>
<asrwt>0</asrwt>
<pdfrwt beam="1">  1        2 0.94416549E-01 0.63831619E+03</pdfrwt>
<pdfrwt beam="2">  1       -2 0.22017476E-01 0.63831619E+03</pdfrwt>
<totfact> 0.87211977E+02</totfact>
</mgrwt>
</event>
<event>
 4    1  0.5985962E-005  0.1575478E+04  0.7818608E-02  0.8835756E-01
          2   -1    0    0  501    0  0.00000000000E+00  0.00000000000E+00  0.70287538746E+03  0.70287538746E+03  0.25500000000E-02 0.  1.
         -2   -1    0    0    0  501 -0.00000000000E+00 -0.00000000000E+00 -0.88284855399E+03  0.88284855400E+03  0.25500000000E-02 0. -1.
    5000001    1    1    2    0    0 -0.68886655799E+03 -0.25252399598E+03  0.12794646160E+03  0.76812746357E+03  0.18800000000E+03 0.  0.
   -5000001    1    1    2    0    0  0.68886655799E+03  0.25252399598E+03 -0.30791962814E+03  0.81759647789E+03  0.18800000000E+03 0.  0.
<mgrwt>
<rscale>  0 0.15754777E+04</rscale>
<asrwt>0</asrwt>
<pdfrwt beam="1">  1        2 0.10041077E+00 0.15754777E+04</pdfrwt>
<pdfrwt beam="2">  1       -2 0.12612122E+00 0.15754777E+04</pdfrwt>
<totfact> 0.20212386E+01</totfact>
</mgrwt>
</event>
<event>
 4    1  0.5985962E-005  0.9977557E+03  0.7818608E-02  0.9311010E-01
          2   -1    0    0  501    0  0.00000000000E+00  0.00000000000E+00  0.95723269415E+03  0.95723269415E+03  0.25500000000E-02 0.  1.
         -2   -1    0    0    0  501 -0.00000000000E+00 -0.00000000000E+00 -0.25999857254E+03  0.25999857255E+03  0.25500000000E-02 0. -1.
    5000001    1    1    2    0    0  0.27098404440E+03 -0.34145403939E+03  0.53568222297E+03  0.71576718097E+03  0.18800000000E+03 0.  0.
   -5000001    1    1    2    0    0 -0.27098404440E+03  0.34145403939E+03  0.16155189863E+03  0.50146408574E+03  0.18800000000E+03 0.  0.
<mgrwt>
<rscale>  0 0.99775575E+03</rscale>
<asrwt>0</asrwt>
<pdfrwt beam="1">  1        2 0.13674753E+00 0.99775575E+03</pdfrwt>
<pdfrwt beam="2">  1       -2 0.37142653E-01 0.99775575E+03</pdfrwt>
<totfact> 0.20339705E+02</totfact>
</mgrwt>
</event>
<event>
 4    1  0.5985962E-005  0.7545046E+03  0.7818608E-02  0.9628310E-01
         -2   -1    0    0    0  501 -0.00000000000E+00  0.00000000000E+00  0.28654393686E+03  0.28654393687E+03  0.25500000000E-02 0. -1.
          2   -1    0    0  501    0  0.00000000000E+00 -0.00000000000E+00 -0.49667524166E+03  0.49667524167E+03  0.25500000000E-02 0.  1.
    5000001    1    1    2    0    0  0.43448242696E+02  0.32232432499E+03 -0.14094340412E+03  0.40123529685E+03  0.18800000000E+03 0.  0.
   -5000001    1    1    2    0    0 -0.43448242696E+02 -0.32232432499E+03 -0.69187900682E+02  0.38198388169E+03  0.18800000000E+03 0.  0.
<mgrwt>
<rscale>  0 0.75450455E+03</rscale>
<asrwt>0</asrwt>
<pdfrwt beam="1">  1        2 0.70953606E-01 0.75450455E+03</pdfrwt>
<pdfrwt beam="2">  1       -2 0.40934848E-01 0.75450455E+03</pdfrwt>
<totfact> 0.38470502E+02</totfact>
</mgrwt>
</event>
<event>
 4    1  0.5985962E-005  0.5636394E+03  0.7818608E-02  0.9983853E-01
         -2   -1    0    0    0  501 -0.00000000000E+00  0.00000000000E+00  0.78937170699E+02  0.78937170740E+02  0.25500000000E-02 0. -1.
          2   -1    0    0  501    0  0.00000000000E+00 -0.00000000000E+00 -0.10061462642E+04  0.10061462643E+04  0.25500000000E-02 0.  1.
    5000001    1    1    2    0    0  0.12850403479E+03 -0.12867137000E+03 -0.26161428573E+03  0.36994005313E+03  0.18800000000E+03 0.  0.
   -5000001    1    1    2    0    0 -0.12850403479E+03  0.12867137000E+03 -0.66559480782E+03  0.71514338186E+03  0.18800000000E+03 0.  0.
<mgrwt>
<rscale>  0 0.56363939E+03</rscale>
<asrwt>0</asrwt>
<pdfrwt beam="1">  1        2 0.14373517E+00 0.56363939E+03</pdfrwt>
<pdfrwt beam="2">  1       -2 0.11276739E-01 0.56363939E+03</pdfrwt>
<totfact> 0.15765196E+03</totfact>
</mgrwt>
</event>
<event>
 4    1  0.5985962E-005  0.3913943E+03  0.7818608E-02  0.1046801E+00
         -2   -1    0    0    0  501 -0.00000000000E+00  0.00000000000E+00  0.47392322992E+02  0.47392323061E+02  0.25500000000E-02 0. -1.
          2   -1    0    0  501    0  0.00000000000E+00 -0.00000000000E+00 -0.80809254658E+03  0.80809254659E+03  0.25500000000E-02 0.  1.
    5000001    1    1    2    0    0  0.36566603745E+02 -0.10512647185E+02 -0.46516543701E+03  0.50316052712E+03  0.18800000000E+03 0.  0.
   -5000001    1    1    2    0    0 -0.36566603745E+02  0.10512647185E+02 -0.29553478658E+03  0.35232434253E+03  0.18800000000E+03 0.  0.
<mgrwt>
<rscale>  0 0.39139434E+03</rscale>
<asrwt>0</asrwt>
<pdfrwt beam="1">  1        2 0.11544178E+00 0.39139434E+03</pdfrwt>
<pdfrwt beam="2">  1       -2 0.67703324E-02 0.39139434E+03</pdfrwt>
<totfact> 0.47544031E+03</totfact>
</mgrwt>
</event>
<event>
 4    1  0.5985962E-005  0.5066827E+03  0.7818608E-02  0.1012049E+00
          2   -1    0    0  501    0  0.00000000000E+00  0.00000000000E+00  0.27441419222E+04  0.27441419222E+04  0.25500000000E-02 0.  1.
         -2   -1    0    0    0  501 -0.00000000000E+00 -0.00000000000E+00 -0.23388671531E+02  0.23388671670E+02  0.25500000000E-02 0. -1.
    5000001    1    1    2    0    0  0.31472788992E+02  0.16550925189E+03  0.14767563399E+04  0.14981779388E+04  0.18800000000E+03 0.  0.
   -5000001    1    1    2    0    0 -0.31472788992E+02 -0.16550925189E+03  0.12439969108E+04  0.12693526551E+04  0.18800000000E+03 0.  0.
<mgrwt>
<rscale>  0 0.50668268E+03</rscale>
<asrwt>0</asrwt>
<pdfrwt beam="1">  1        2 0.39202032E+00 0.50668268E+03</pdfrwt>
<pdfrwt beam="2">  1       -2 0.33412385E-02 0.50668268E+03</pdfrwt>
<totfact> 0.13272589E+03</totfact>
</mgrwt>
</event>
<event>
 4    1  0.5985962E-005  0.4189826E+03  0.7818608E-02  0.1037398E+00
         -2   -1    0    0    0  501 -0.00000000000E+00  0.00000000000E+00  0.17343175541E+02  0.17343175728E+02  0.25500000000E-02 0. -1.
          2   -1    0    0  501    0  0.00000000000E+00 -0.00000000000E+00 -0.25304829931E+04  0.25304829931E+04  0.25500000000E-02 0.  1.
    5000001    1    1    2    0    0 -0.78523156357E+02 -0.48467586415E+02 -0.12885271807E+04  0.13054352869E+04  0.18800000000E+03 0.  0.
   -5000001    1    1    2    0    0  0.78523156357E+02  0.48467586415E+02 -0.12246126369E+04  0.12423908819E+04  0.18800000000E+03 0.  0.
<mgrwt>
<rscale>  0 0.41898263E+03</rscale>
<asrwt>0</asrwt>
<pdfrwt beam="1">  1        2 0.36149734E+00 0.41898263E+03</pdfrwt>
<pdfrwt beam="2">  1       -2 0.24775981E-02 0.41898263E+03</pdfrwt>
<totfact> 0.27015251E+03</totfact>
</mgrwt>
</event>
<event>
 4    1  0.5985962E-005  0.1556145E+04  0.7818608E-02  0.8847952E-01
          2   -1    0    0  501    0  0.00000000000E+00  0.00000000000E+00  0.27430961713E+04  0.27430961713E+04  0.25500000000E-02 0.  1.
         -2   -1    0    0    0  501 -0.00000000000E+00 -0.00000000000E+00 -0.22069840528E+03  0.22069840530E+03  0.25500000000E-02 0. -1.
    5000001    1    1    2    0    0  0.84307098089E+02  0.68834857304E+03  0.18297758292E+04  0.19657962840E+04  0.18800000000E+03 0.  0.
   -5000001    1    1    2    0    0 -0.84307098089E+02 -0.68834857304E+03  0.69262193679E+03  0.99799829264E+03  0.18800000000E+03 0.  0.
<mgrwt>
<rscale>  0 0.15561452E+04</rscale>
<asrwt>0</asrwt>
<pdfrwt beam="1">  1        2 0.39187085E+00 0.15561452E+04</pdfrwt>
<pdfrwt beam="2">  1       -2 0.31528346E-01 0.15561452E+04</pdfrwt>
<totfact> 0.29494378E+01</totfact>
</mgrwt>
</event>
<event>
 4    1  0.5985962E-005  0.4414749E+03  0.7818608E-02  0.1030295E+00
          2   -1    0    0  501    0  0.00000000000E+00  0.00000000000E+00  0.30056191469E+04  0.30056191469E+04  0.25500000000E-02 0.  1.
         -2   -1    0    0    0  501 -0.00000000000E+00 -0.00000000000E+00 -0.16211312586E+02  0.16211312787E+02  0.25500000000E-02 0. -1.
    5000001    1    1    2    0    0  0.59293759248E+02  0.91702725885E+02  0.12335307165E+04  0.12525442780E+04  0.18800000000E+03 0.  0.
   -5000001    1    1    2    0    0 -0.59293759248E+02 -0.91702725885E+02  0.17558771178E+04  0.17692861817E+04  0.18800000000E+03 0.  0.
<mgrwt>
<rscale>  0 0.44147495E+03</rscale>
<asrwt>0</asrwt>
<pdfrwt beam="1">  1        2 0.42937422E+00 0.44147495E+03</pdfrwt>
<pdfrwt beam="2">  1       -2 0.23159015E-02 0.44147495E+03</pdfrwt>
<totfact> 0.16850539E+03</totfact>
</mgrwt>
</event>
<event>
 4    1  0.5985962E-005  0.1591327E+04  0.7818608E-02  0.8825894E-01
          2   -1    0    0  501    0  0.00000000000E+00  0.00000000000E+00  0.90899634140E+03  0.90899634141E+03  0.25500000000E-02 0.  1.
         -2   -1    0    0    0  501 -0.00000000000E+00 -0.00000000000E+00 -0.69646098448E+03  0.69646098448E+03  0.25500000000E-02 0. -1.
    5000001    1    1    2    0    0 -0.67647142631E+03 -0.12008513991E+03  0.46396129294E+03  0.85008123893E+03  0.18800000000E+03 0.  0.
   -5000001    1    1    2    0    0  0.67647142631E+03  0.12008513991E+03 -0.25142593602E+03  0.75537608695E+03  0.18800000000E+03 0.  0.
<mgrwt>
<rscale>  0 0.15913271E+04</rscale>
<asrwt>0</asrwt>
<pdfrwt beam="1">  1        2 0.12985662E+00 0.15913271E+04</pdfrwt>
<pdfrwt beam="2">  1       -2 0.99494426E-01 0.15913271E+04</pdfrwt>
<totfact> 0.25799012E+01</totfact>
</mgrwt>
</event>
<event>
 4    1  0.5985962E-005  0.7101616E+03  0.7818608E-02  0.9700011E-01
         -2   -1    0    0    0  501 -0.00000000000E+00  0.00000000000E+00  0.70883084563E+02  0.70883084609E+02  0.25500000000E-02 0. -1.
          2   -1    0    0  501    0  0.00000000000E+00 -0.00000000000E+00 -0.17787369979E+04  0.17787369979E+04  0.25500000000E-02 0.  1.
    5000001    1    1    2    0    0  0.26551261323E+02  0.17227283895E+03 -0.21406887203E+03  0.33399458452E+03  0.18800000000E+03 0.  0.
   -5000001    1    1    2    0    0 -0.26551261323E+02 -0.17227283895E+03 -0.14937850414E+04  0.15156254980E+04  0.18800000000E+03 0.  0.
<mgrwt>
<rscale>  0 0.71016157E+03</rscale>
<asrwt>0</asrwt>
<pdfrwt beam="1">  1        2 0.25410526E+00 0.71016157E+03</pdfrwt>
<pdfrwt beam="2">  1       -2 0.10126156E-01 0.71016157E+03</pdfrwt>
<totfact> 0.71403295E+02</totfact>
</mgrwt>
</event>
<event>
 4    1  0.5985962E-005  0.8552728E+03  0.7818608E-02  0.9483287E-01
         -2   -1    0    0    0  501 -0.00000000000E+00  0.00000000000E+00  0.12790515207E+03  0.12790515209E+03  0.25500000000E-02 0. -1.
          2   -1    0    0  501    0  0.00000000000E+00 -0.00000000000E+00 -0.14297538468E+04  0.14297538468E+04  0.25500000000E-02 0.  1.
    5000001    1    1    2    0    0 -0.43826033313E+02  0.37205172466E+03 -0.80530808747E+03  0.90785919766E+03  0.18800000000E+03 0.  0.
   -5000001    1    1    2    0    0  0.43826033313E+02 -0.37205172466E+03 -0.49654060722E+03  0.64979980120E+03  0.18800000000E+03 0.  0.
<mgrwt>
<rscale>  0 0.85527278E+03</rscale>
<asrwt>0</asrwt>
<pdfrwt beam="1">  1        2 0.20425054E+00 0.85527278E+03</pdfrwt>
<pdfrwt beam="2">  1       -2 0.18272165E-01 0.85527278E+03</pdfrwt>
<totfact> 0.39981756E+02</totfact>
</mgrwt>
</event>
<event>
 4    1  0.5985962E-005  0.4240056E+03  0.7818608E-02  0.1035770E+00
          2   -1    0    0  501    0  0.00000000000E+00  0.00000000000E+00  0.72088321602E+03  0.72088321602E+03  0.25500000000E-02 0.  1.
         -2   -1    0    0    0  501 -0.00000000000E+00 -0.00000000000E+00 -0.62347398701E+02  0.62347398753E+02  0.25500000000E-02 0. -1.
    5000001    1    1    2    0    0 -0.61064534578E+02  0.68128920617E+02  0.39407250289E+03  0.44610263924E+03  0.18800000000E+03 0.  0.
   -5000001    1    1    2    0    0  0.61064534578E+02 -0.68128920617E+02  0.26446331443E+03  0.33712797553E+03  0.18800000000E+03 0.  0.
<mgrwt>
<rscale>  0 0.42400563E+03</rscale>
<asrwt>0</asrwt>
<pdfrwt beam="1">  1        2 0.10298331E+00 0.42400563E+03</pdfrwt>
<pdfrwt beam="2">  1       -2 0.89067722E-02 0.42400563E+03</pdfrwt>
<totfact> 0.35592286E+03</totfact>
</mgrwt>
</event>
<event>
 4    1  0.5985962E-005  0.4155629E+03  0.7818608E-02  0.1038520E+00
          2   -1    0    0  501    0  0.00000000000E+00  0.00000000000E+00  0.17743009300E+03  0.17743009302E+03  0.25500000000E-02 0.  1.
         -2   -1    0    0    0  501 -0.00000000000E+00 -0.00000000000E+00 -0.24332479240E+03  0.24332479241E+03  0.25500000000E-02 0. -1.
    5000001    1    1    2    0    0  0.30087828881E+02  0.66939887437E+02  0.17096013727E+02  0.20254011865E+03  0.18800000000E+03 0.  0.
   -5000001    1    1    2    0    0 -0.30087828881E+02 -0.66939887437E+02 -0.82990713129E+02  0.21821476678E+03  0.18800000000E+03 0.  0.
<mgrwt>
<rscale>  0 0.41556295E+03</rscale>
<asrwt>0</asrwt>
<pdfrwt beam="1">  1        2 0.25347156E-01 0.41556295E+03</pdfrwt>
<pdfrwt beam="2">  1       -2 0.34760684E-01 0.41556295E+03</pdfrwt>
<totfact> 0.16615376E+03</totfact>
</mgrwt>
</event>
<event>
 4    1  0.5985962E-005  0.6269785E+03  0.7818608E-02  0.9850963E-01
         -2   -1    0    0    0  501 -0.00000000000E+00  0.00000000000E+00  0.39746386686E+02  0.39746386767E+02  0.25500000000E-02 0. -1.
          2   -1    0    0  501    0  0.00000000000E+00 -0.00000000000E+00 -0.24725647625E+04  0.24725647625E+04  0.25500000000E-02 0.  1.
    5000001    1    1    2    0    0 -0.12718085301E+03  0.20777086377E+03 -0.14564227204E+04  0.14885747686E+04  0.18800000000E+03 0.  0.
   -5000001    1    1    2    0    0  0.12718085301E+03 -0.20777086377E+03 -0.97639565544E+03  0.10237363807E+04  0.18800000000E+03 0.  0.
<mgrwt>
<rscale>  0 0.62697852E+03</rscale>
<asrwt>0</asrwt>
<pdfrwt beam="1">  1        2 0.35322344E+00 0.62697852E+03</pdfrwt>
<pdfrwt beam="2">  1       -2 0.56780568E-02 0.62697852E+03</pdfrwt>
<totfact> 0.80319372E+02</totfact>
</mgrwt>
</event>
<event>
 4    1  0.5985962E-005  0.6213674E+03  0.7818608E-02  0.9862041E-01
         -2   -1    0    0    0  501 -0.00000000000E+00  0.00000000000E+00  0.12598972031E+04  0.12598972031E+04  0.25500000000E-02 0. -1.
          2   -1    0    0  501    0  0.00000000000E+00 -0.00000000000E+00 -0.76612891924E+02  0.76612891966E+02  0.25500000000E-02 0.  1.
    5000001    1    1    2    0    0  0.24716937808E+02  0.99920217065E+02  0.10787506455E+03  0.23995000801E+03  0.18800000000E+03 0.  0.
   -5000001    1    1    2    0    0 -0.24716937808E+02 -0.99920217065E+02  0.10754092466E+04  0.10965600870E+04  0.18800000000E+03 0.  0.
<mgrwt>
<rscale>  0 0.62136742E+03</rscale>
<asrwt>0</asrwt>
<pdfrwt beam="1">  1        2 0.10944699E-01 0.62136742E+03</pdfrwt>
<pdfrwt beam="2">  1       -2 0.17998532E+00 0.62136742E+03</pdfrwt>
<totfact> 0.10971277E+02</totfact>
</mgrwt>
</event>
<event>
 4    1  0.5985962E-005  0.4439638E+03  0.7818608E-02  0.1029538E+00
          2   -1    0    0  501    0  0.00000000000E+00  0.00000000000E+00  0.57859421961E+03  0.57859421962E+03  0.25500000000E-02 0.  1.
         -2   -1    0    0    0  501 -0.00000000000E+00 -0.00000000000E+00 -0.85164969250E+02  0.85164969288E+02  0.25500000000E-02 0. -1.
    5000001    1    1    2    0    0  0.10836677109E+03  0.22964101741E+02  0.30765158070E+03  0.37717927057E+03  0.18800000000E+03 0.  0.
   -5000001    1    1    2    0    0 -0.10836677109E+03 -0.22964101741E+02  0.18577766966E+03  0.28657991833E+03  0.18800000000E+03 0.  0.
<mgrwt>
<rscale>  0 0.44396378E+03</rscale>
<asrwt>0</asrwt>
<pdfrwt beam="1">  1        2 0.82656318E-01 0.44396378E+03</pdfrwt>
<pdfrwt beam="2">  1       -2 0.12166424E-01 0.44396378E+03</pdfrwt>
<totfact> 0.27929916E+03</totfact>
</mgrwt>
</event>
<event>
 4    1  0.5985962E-005  0.4263213E+03  0.7818608E-02  0.1035028E+00
         -2   -1    0    0    0  501 -0.00000000000E+00  0.00000000000E+00  0.50771651247E+02  0.50771651311E+02  0.25500000000E-02 0. -1.
          2   -1    0    0  501    0  0.00000000000E+00 -0.00000000000E+00 -0.89493769323E+03  0.89493769323E+03  0.25500000000E-02 0.  1.
    5000001    1    1    2    0    0 -0.38942025052E+02 -0.40052784142E+02 -0.60731796809E+03  0.63820045534E+03  0.18800000000E+03 0.  0.
   -5000001    1    1    2    0    0  0.38942025052E+02  0.40052784142E+02 -0.23684807389E+03  0.30750888920E+03  0.18800000000E+03 0.  0.
<mgrwt>
<rscale>  0 0.42632131E+03</rscale>
<asrwt>0</asrwt>
<pdfrwt beam="1">  1        2 0.12784823E+00 0.42632131E+03</pdfrwt>
<pdfrwt beam="2">  1       -2 0.72530936E-02 0.42632131E+03</pdfrwt>
<totfact> 0.37467096E+03</totfact>
</mgrwt>
</event>
<event>
 4    1  0.5985962E-005  0.5790584E+03  0.7818608E-02  0.9949832E-01
          2   -1    0    0  501    0  0.00000000000E+00  0.00000000000E+00  0.56035877863E+03  0.56035877864E+03  0.25500000000E-02 0.  1.
         -2   -1    0    0    0  501 -0.00000000000E+00 -0.00000000000E+00 -0.14959552975E+03  0.14959552977E+03  0.25500000000E-02 0. -1.
    5000001    1    1    2    0    0 -0.82589713749E+02  0.19953027744E+03  0.25811281365E+03  0.38548620858E+03  0.18800000000E+03 0.  0.
   -5000001    1    1    2    0    0  0.82589713749E+02 -0.19953027744E+03  0.15265043523E+03  0.32446809983E+03  0.18800000000E+03 0.  0.
<mgrwt>
<rscale>  0 0.57905844E+03</rscale>
<asrwt>0</asrwt>
<pdfrwt beam="1">  1        2 0.80051254E-01 0.57905844E+03</pdfrwt>
<pdfrwt beam="2">  1       -2 0.21370790E-01 0.57905844E+03</pdfrwt>
<totfact> 0.11180007E+03</totfact>
</mgrwt>
</event>
<event>
 4    1  0.5985962E-005  0.4181854E+03  0.7818608E-02  0.1037659E+00
         -2   -1    0    0    0  501 -0.00000000000E+00  0.00000000000E+00  0.62936209603E+02  0.62936209655E+02  0.25500000000E-02 0. -1.
          2   -1    0    0  501    0  0.00000000000E+00 -0.00000000000E+00 -0.69466767093E+03  0.69466767093E+03  0.25500000000E-02 0.  1.
    5000001    1    1    2    0    0  0.51120030120E+02 -0.26018473650E+02 -0.44505949203E+03  0.48653074918E+03  0.18800000000E+03 0.  0.
   -5000001    1    1    2    0    0 -0.51120030120E+02  0.26018473650E+02 -0.18667196929E+03  0.27107313140E+03  0.18800000000E+03 0.  0.
<mgrwt>
<rscale>  0 0.41818537E+03</rscale>
<asrwt>0</asrwt>
<pdfrwt beam="1">  1        2 0.99238234E-01 0.41818537E+03</pdfrwt>
<pdfrwt beam="2">  1       -2 0.89908875E-02 0.41818537E+03</pdfrwt>
<totfact> 0.36666437E+03</totfact>
</mgrwt>
</event>
<event>
 4    1  0.5985962E-005  0.7834736E+03  0.7818608E-02  0.9584251E-01
          2   -1    0    0  501    0  0.00000000000E+00  0.00000000000E+00  0.17178797570E+04  0.17178797570E+04  0.25500000000E-02 0.  1.
         -2   -1    0    0    0  501 -0.00000000000E+00 -0.00000000000E+00 -0.89329727389E+02  0.89329727425E+02  0.25500000000E-02 0. -1.
    5000001    1    1    2    0    0 -0.31067647773E+03  0.12633113530E+03  0.64113233593E+03  0.74757882643E+03  0.18800000000E+03 0.  0.
   -5000001    1    1    2    0    0  0.31067647773E+03 -0.12633113530E+03  0.98741769368E+03  0.10596306580E+04  0.18800000000E+03 0.  0.
<mgrwt>
<rscale>  0 0.78347363E+03</rscale>
<asrwt>0</asrwt>
<pdfrwt beam="1">  1        2 0.24541136E+00 0.78347363E+03</pdfrwt>
<pdfrwt beam="2">  1       -2 0.12761391E-01 0.78347363E+03</pdfrwt>
<totfact> 0.52207636E+02</totfact>
</mgrwt>
</event>
<event>
 4    1  0.5985962E-005  0.6973827E+03  0.7818608E-02  0.9721719E-01
         -2   -1    0    0    0  501 -0.00000000000E+00  0.00000000000E+00  0.19270137590E+03  0.19270137592E+03  0.25500000000E-02 0. -1.
          2   -1    0    0  501    0  0.00000000000E+00 -0.00000000000E+00 -0.63095376800E+03  0.63095376800E+03  0.25500000000E-02 0.  1.
    5000001    1    1    2    0    0  0.14087506143E+03 -0.16471605617E+03 -0.45315766704E+03  0.53635159484E+03  0.18800000000E+03 0.  0.
   -5000001    1    1    2    0    0 -0.14087506143E+03  0.16471605617E+03  0.14905274945E+02  0.28730354908E+03  0.18800000000E+03 0.  0.
<mgrwt>
<rscale>  0 0.69738270E+03</rscale>
<asrwt>0</asrwt>
<pdfrwt beam="1">  1        2 0.90136252E-01 0.69738270E+03</pdfrwt>
<pdfrwt beam="2">  1       -2 0.27528768E-01 0.69738270E+03</pdfrwt>
<totfact> 0.61660438E+02</totfact>
</mgrwt>
</event>
<event>
 4    1  0.5985962E-005  0.1200395E+04  0.7818608E-02  0.9112510E-01
          2   -1    0    0  501    0  0.00000000000E+00  0.00000000000E+00  0.16277850325E+03  0.16277850327E+03  0.25500000000E-02 0.  1.
         -2   -1    0    0    0  501 -0.00000000000E+00 -0.00000000000E+00 -0.22130521433E+04  0.22130521433E+04  0.25500000000E-02 0. -1.
    5000001    1    1    2    0    0 -0.46514582403E+03  0.32427328141E+03 -0.91007838941E+03  0.10886232009E+04  0.18800000000E+03 0.  0.
   -5000001    1    1    2    0    0  0.46514582403E+03 -0.32427328141E+03 -0.11401952506E+04  0.12872074457E+04  0.18800000000E+03 0.  0.
<mgrwt>
<rscale>  0 0.12003955E+04</rscale>
<asrwt>0</asrwt>
<pdfrwt beam="1">  1        2 0.23254073E-01 0.12003955E+04</pdfrwt>
<pdfrwt beam="2">  1       -2 0.31615029E+00 0.12003955E+04</pdfrwt>
<totfact> 0.60238409E+00</totfact>
</mgrwt>
</event>
<event>
 4    1  0.5985962E-005  0.5486170E+03  0.7818608E-02  0.1001815E+00
         -2   -1    0    0    0  501 -0.00000000000E+00  0.00000000000E+00  0.64950770963E+02  0.64950771013E+02  0.25500000000E-02 0.  1.
          2   -1    0    0  501    0  0.00000000000E+00 -0.00000000000E+00 -0.11584953213E+04  0.11584953213E+04  0.25500000000E-02 0. -1.
    5000001    1    1    2    0    0  0.52074005354E+02  0.14636008815E+03 -0.82680347686E+03  0.86202144218E+03  0.18800000000E+03 0.  0.
   -5000001    1    1    2    0    0 -0.52074005354E+02 -0.14636008815E+03 -0.26674107344E+03  0.36142465010E+03  0.18800000000E+03 0.  0.
<mgrwt>
<rscale>  0 0.54861704E+03</rscale>
<asrwt>0</asrwt>
<pdfrwt beam="1">  1        2 0.16549932E+00 0.54861704E+03</pdfrwt>
<pdfrwt beam="2">  1       -2 0.92786823E-02 0.54861704E+03</pdfrwt>
<totfact> 0.17618762E+03</totfact>
</mgrwt>
</event>
<event>
 4    1  0.5985962E-005  0.4402437E+03  0.7818608E-02  0.1030672E+00
          2   -1    0    0  501    0  0.00000000000E+00  0.00000000000E+00  0.19194067912E+04  0.19194067912E+04  0.25500000000E-02 0.  1.
         -2   -1    0    0    0  501 -0.00000000000E+00 -0.00000000000E+00 -0.25244068145E+02  0.25244068274E+02  0.25500000000E-02 0. -1.
    5000001    1    1    2    0    0 -0.28554992756E+02  0.11070412259E+03  0.97461219377E+03  0.99914149079E+03  0.18800000000E+03 0.  0.
   -5000001    1    1    2    0    0  0.28554992756E+02 -0.11070412259E+03  0.91955052929E+03  0.94550936869E+03  0.18800000000E+03 0.  0.
<mgrwt>
<rscale>  0 0.44024373E+03</rscale>
<asrwt>0</asrwt>
<pdfrwt beam="1">  1        2 0.27420102E+00 0.44024373E+03</pdfrwt>
<pdfrwt beam="2">  1       -2 0.36062948E-02 0.44024373E+03</pdfrwt>
<totfact> 0.30962413E+03</totfact>
</mgrwt>
</event>
<event>
 4    1  0.5985962E-005  0.1104017E+04  0.7818608E-02  0.9201285E-01
         -2   -1    0    0    0  501 -0.00000000000E+00  0.00000000000E+00  0.20288627071E+03  0.20288627072E+03  0.25500000000E-02 0. -1.
          2   -1    0    0  501    0  0.00000000000E+00 -0.00000000000E+00 -0.15018938726E+04  0.15018938726E+04  0.25500000000E-02 0.  1.
    5000001    1    1    2    0    0 -0.13734439425E+03 -0.23106418935E+03  0.36067806420E+02  0.32999852862E+03  0.18800000000E+03 0.  0.
   -5000001    1    1    2    0    0  0.13734439425E+03  0.23106418935E+03 -0.13350754083E+04  0.13747816147E+04  0.18800000000E+03 0.  0.
<mgrwt>
<rscale>  0 0.11040175E+04</rscale>
<asrwt>0</asrwt>
<pdfrwt beam="1">  1        2 0.21455626E+00 0.11040175E+04</pdfrwt>
<pdfrwt beam="2">  1       -2 0.28983754E-01 0.11040175E+04</pdfrwt>
<totfact> 0.15802665E+02</totfact>
</mgrwt>
</event>
<event>
 4    1  0.5985962E-005  0.8943591E+03  0.7818608E-02  0.9432660E-01
          2   -1    0    0  501    0  0.00000000000E+00  0.00000000000E+00  0.27630197525E+04  0.27630197525E+04  0.25500000000E-02 0.  1.
         -2   -1    0    0    0  501 -0.00000000000E+00 -0.00000000000E+00 -0.72373556032E+02  0.72373556077E+02  0.25500000000E-02 0. -1.
    5000001    1    1    2    0    0  0.39856257755E+03 -0.28045381376E+02  0.11214425294E+04  0.12052452109E+04  0.18800000000E+03 0.  0.
   -5000001    1    1    2    0    0 -0.39856257755E+03  0.28045381376E+02  0.15692036671E+04  0.16301480977E+04  0.18800000000E+03 0.  0.
<mgrwt>
<rscale>  0 0.89435913E+03</rscale>
<asrwt>0</asrwt>
<pdfrwt beam="1">  1        2 0.39471717E+00 0.89435913E+03</pdfrwt>
<pdfrwt beam="2">  1       -2 0.10339078E-01 0.89435913E+03</pdfrwt>
<totfact> 0.21264053E+02</totfact>
</mgrwt>
</event>
<event>
 4    1  0.5985962E-005  0.1104402E+04  0.7818608E-02  0.9200912E-01
         -2   -1    0    0    0  501 -0.00000000000E+00  0.00000000000E+00  0.34674466009E+03  0.34674466010E+03  0.25500000000E-02 0. -1.
          2   -1    0    0  501    0  0.00000000000E+00 -0.00000000000E+00 -0.87939668735E+03  0.87939668735E+03  0.25500000000E-02 0.  1.
    5000001    1    1    2    0    0 -0.11455427197E+03  0.48385905508E+03 -0.43226684379E+03  0.68515756629E+03  0.18800000000E+03 0.  0.
   -5000001    1    1    2    0    0  0.11455427197E+03 -0.48385905508E+03 -0.10038518348E+03  0.54098378116E+03  0.18800000000E+03 0.  0.
<mgrwt>
<rscale>  0 0.11044023E+04</rscale>
<asrwt>0</asrwt>
<pdfrwt beam="1">  1        2 0.12562810E+00 0.11044023E+04</pdfrwt>
<pdfrwt beam="2">  1       -2 0.49534952E-01 0.11044023E+04</pdfrwt>
<totfact> 0.12843058E+02</totfact>
</mgrwt>
</event>
<event>
 4    1  0.5985962E-005  0.1068956E+04  0.7818608E-02  0.9235989E-01
         -2   -1    0    0    0  501 -0.00000000000E+00  0.00000000000E+00  0.17386056734E+03  0.17386056736E+03  0.25500000000E-02 0. -1.
          2   -1    0    0  501    0  0.00000000000E+00 -0.00000000000E+00 -0.16430791372E+04  0.16430791372E+04  0.25500000000E-02 0.  1.
    5000001    1    1    2    0    0  0.11662035697E+03  0.47633776670E+03 -0.90308615246E+03  0.10447040607E+04  0.18800000000E+03 0.  0.
   -5000001    1    1    2    0    0 -0.11662035697E+03 -0.47633776670E+03 -0.56613241742E+03  0.77223564389E+03  0.18800000000E+03 0.  0.
<mgrwt>
<rscale>  0 0.10689559E+04</rscale>
<asrwt>0</asrwt>
<pdfrwt beam="1">  1        2 0.23472558E+00 0.10689559E+04</pdfrwt>
<pdfrwt beam="2">  1       -2 0.24837225E-01 0.10689559E+04</pdfrwt>
<totfact> 0.17709894E+02</totfact>
</mgrwt>
</event>
<event>
 4    1  0.5985962E-005  0.6352863E+03  0.7818608E-02  0.9834787E-01
         -2   -1    0    0    0  501 -0.00000000000E+00  0.00000000000E+00  0.72416999323E+02  0.72416999368E+02  0.25500000000E-02 0. -1.
          2   -1    0    0  501    0  0.00000000000E+00 -0.00000000000E+00 -0.13932803205E+04  0.13932803205E+04  0.25500000000E-02 0.  1.
    5000001    1    1    2    0    0  0.19667944507E+03  0.13856028821E+03 -0.45835659229E+03  0.55074179365E+03  0.18800000000E+03 0.  0.
   -5000001    1    1    2    0    0 -0.19667944507E+03 -0.13856028821E+03 -0.86250672892E+03  0.91495552625E+03  0.18800000000E+03 0.  0.
<mgrwt>
<rscale>  0 0.63528633E+03</rscale>
<asrwt>0</asrwt>
<pdfrwt beam="1">  1        2 0.19904003E+00 0.63528633E+03</pdfrwt>
<pdfrwt beam="2">  1       -2 0.10345286E-01 0.63528633E+03</pdfrwt>
<totfact> 0.10960136E+03</totfact>
</mgrwt>
</event>
<event>
 4    1  0.5985962E-005  0.4431158E+03  0.7818608E-02  0.1029795E+00
          2   -1    0    0  501    0  0.00000000000E+00  0.00000000000E+00  0.26836134181E+04  0.26836134181E+04  0.25500000000E-02 0. -1.
         -2   -1    0    0    0  501 -0.00000000000E+00 -0.00000000000E+00 -0.18291718289E+02  0.18291718467E+02  0.25500000000E-02 0.  1.
    5000001    1    1    2    0    0  0.95637592425E+02 -0.47199466715E+02  0.10358451139E+04  0.10581556780E+04  0.18800000000E+03 0.  0.
   -5000001    1    1    2    0    0 -0.95637592425E+02  0.47199466715E+02  0.16294765858E+04  0.16437494586E+04  0.18800000000E+03 0.  0.
<mgrwt>
<rscale>  0 0.44311579E+03</rscale>
<asrwt>0</asrwt>
<pdfrwt beam="1">  1        2 0.38337307E+00 0.44311579E+03</pdfrwt>
<pdfrwt beam="2">  1       -2 0.26131045E-02 0.44311579E+03</pdfrwt>
<totfact> 0.20787077E+03</totfact>
</mgrwt>
</event>
<event>
 4    1  0.5985962E-005  0.9845515E+03  0.7818608E-02  0.9325653E-01
         -2   -1    0    0    0  501 -0.00000000000E+00  0.00000000000E+00  0.27982213263E+03  0.27982213264E+03  0.25500000000E-02 0. -1.
          2   -1    0    0  501    0  0.00000000000E+00 -0.00000000000E+00 -0.86603376965E+03  0.86603376965E+03  0.25500000000E-02 0.  1.
    5000001    1    1    2    0    0 -0.37779555061E+03  0.11984328716E+03 -0.33125919408E+02  0.43992410490E+03  0.18800000000E+03 0.  0.
   -5000001    1    1    2    0    0  0.37779555061E+03 -0.11984328716E+03 -0.55308571761E+03  0.70593179739E+03  0.18800000000E+03 0.  0.
<mgrwt>
<rscale>  0 0.98455150E+03</rscale>
<asrwt>0</asrwt>
<pdfrwt beam="1">  1        2 0.12371911E+00 0.98455150E+03</pdfrwt>
<pdfrwt beam="2">  1       -2 0.39974591E-01 0.98455150E+03</pdfrwt>
<totfact> 0.20230785E+02</totfact>
</mgrwt>
</event>
<event>
 4    1  0.5985962E-005  0.6176036E+03  0.7818608E-02  0.9869543E-01
         -2   -1    0    0    0  501 -0.00000000000E+00  0.00000000000E+00  0.39383751879E+02  0.39383751961E+02  0.25500000000E-02 0. -1.
          2   -1    0    0  501    0  0.00000000000E+00 -0.00000000000E+00 -0.24212663767E+04  0.24212663767E+04  0.25500000000E-02 0.  1.
    5000001    1    1    2    0    0 -0.21321151830E+03 -0.74982486375E+02 -0.81437676751E+03  0.86581467085E+03  0.18800000000E+03 0.  0.
   -5000001    1    1    2    0    0  0.21321151830E+03  0.74982486375E+02 -0.15675058573E+04  0.15948354578E+04  0.18800000000E+03 0.  0.
<mgrwt>
<rscale>  0 0.61760361E+03</rscale>
<asrwt>0</asrwt>
<pdfrwt beam="1">  1        2 0.34589510E+00 0.61760361E+03</pdfrwt>
<pdfrwt beam="2">  1       -2 0.56262518E-02 0.61760361E+03</pdfrwt>
<totfact> 0.86611485E+02</totfact>
</mgrwt>
</event>
<event>
 4    1  0.5985962E-005  0.6864147E+03  0.7818608E-02  0.9740751E-01
          2   -1    0    0  501    0  0.00000000000E+00  0.00000000000E+00  0.17550791796E+04  0.17550791796E+04  0.25500000000E-02 0.  1.
         -2   -1    0    0    0  501 -0.00000000000E+00 -0.00000000000E+00 -0.67114513242E+02  0.67114513291E+02  0.25500000000E-02 0. -1.
    5000001    1    1    2    0    0  0.15480922536E+03  0.17916876149E+03  0.12751487182E+04  0.13105020393E+04  0.18800000000E+03 0.  0.
   -5000001    1    1    2    0    0 -0.15480922536E+03 -0.17916876149E+03  0.41281594813E+03  0.51169165362E+03  0.18800000000E+03 0.  0.
<mgrwt>
<rscale>  0 0.68641470E+03</rscale>
<asrwt>0</asrwt>
<pdfrwt beam="1">  1        2 0.25072562E+00 0.68641470E+03</pdfrwt>
<pdfrwt beam="2">  1       -2 0.95877868E-02 0.68641470E+03</pdfrwt>
<totfact> 0.80322308E+02</totfact>
</mgrwt>
</event>
<event>
 4    1  0.5985962E-005  0.1165827E+04  0.7818608E-02  0.9143306E-01
          2   -1    0    0  501    0  0.00000000000E+00  0.00000000000E+00  0.23777583714E+04  0.23777583714E+04  0.25500000000E-02 0.  1.
         -2   -1    0    0    0  501 -0.00000000000E+00 -0.00000000000E+00 -0.14290263417E+03  0.14290263419E+03  0.25500000000E-02 0. -1.
    5000001    1    1    2    0    0 -0.38013787586E+03 -0.39845863506E+03  0.10434767319E+04  0.11947643192E+04  0.18800000000E+03 0.  0.
   -5000001    1    1    2    0    0  0.38013787586E+03  0.39845863506E+03  0.11913790053E+04  0.13258966863E+04  0.18800000000E+03 0.  0.
<mgrwt>
<rscale>  0 0.11658266E+04</rscale>
<asrwt>0</asrwt>
<pdfrwt beam="1">  1        2 0.33967976E+00 0.11658266E+04</pdfrwt>
<pdfrwt beam="2">  1       -2 0.20414663E-01 0.11658266E+04</pdfrwt>
<totfact> 0.10460474E+02</totfact>
</mgrwt>
</event>
<event>
 4    1  0.5985962E-005  0.6116072E+03  0.7818608E-02  0.9881613E-01
          2   -1    0    0  501    0  0.00000000000E+00  0.00000000000E+00  0.18018721406E+04  0.18018721406E+04  0.25500000000E-02 0.  1.
         -2   -1    0    0    0  501 -0.00000000000E+00 -0.00000000000E+00 -0.51899262484E+02  0.51899262546E+02  0.25500000000E-02 0. -1.
    5000001    1    1    2    0    0  0.60467728184E+01 -0.14760597258E+03  0.29712679980E+03  0.38138225150E+03  0.18800000000E+03 0.  0.
   -5000001    1    1    2    0    0 -0.60467728184E+01  0.14760597258E+03  0.14528460783E+04  0.14723891517E+04  0.18800000000E+03 0.  0.
<mgrwt>
<rscale>  0 0.61160718E+03</rscale>
<asrwt>0</asrwt>
<pdfrwt beam="1">  1        2 0.25741028E+00 0.61160718E+03</pdfrwt>
<pdfrwt beam="2">  1       -2 0.74141811E-02 0.61160718E+03</pdfrwt>
<totfact> 0.11526167E+03</totfact>
</mgrwt>
</event>
<event>
 4    1  0.5985962E-005  0.6360893E+03  0.7818608E-02  0.9833237E-01
          2   -1    0    0  501    0  0.00000000000E+00  0.00000000000E+00  0.35393744428E+04  0.35393744428E+04  0.25500000000E-02 0.  1.
         -2   -1    0    0    0  501 -0.00000000000E+00 -0.00000000000E+00 -0.28579175625E+02  0.28579175739E+02  0.25500000000E-02 0. -1.
    5000001    1    1    2    0    0 -0.61534449768E+02 -0.12094484510E+03  0.29765334606E+04  0.29855501312E+04  0.18800000000E+03 0.  0.
   -5000001    1    1    2    0    0  0.61534449768E+02  0.12094484510E+03  0.53426180665E+03  0.58240348737E+03  0.18800000000E+03 0.  0.
<mgrwt>
<rscale>  0 0.63608931E+03</rscale>
<asrwt>0</asrwt>
<pdfrwt beam="1">  1        2 0.50562543E+00 0.63608931E+03</pdfrwt>
<pdfrwt beam="2">  1       -2 0.40827352E-02 0.63608931E+03</pdfrwt>
<totfact> 0.34751674E+02</totfact>
</mgrwt>
</event>
<event>
 4    1  0.5985962E-005  0.7423816E+03  0.7818608E-02  0.9647379E-01
         -2   -1    0    0    0  501 -0.00000000000E+00  0.00000000000E+00  0.11381031820E+03  0.11381031823E+03  0.25500000000E-02 0. -1.
          2   -1    0    0  501    0  0.00000000000E+00 -0.00000000000E+00 -0.12106338831E+04  0.12106338831E+04  0.25500000000E-02 0.  1.
    5000001    1    1    2    0    0 -0.20055609493E+03 -0.12021480742E+03 -0.93831611299E+03  0.98511698546E+03  0.18800000000E+03 0.  0.
   -5000001    1    1    2    0    0  0.20055609493E+03  0.12021480742E+03 -0.15850745195E+03  0.33932721591E+03  0.18800000000E+03 0.  0.
<mgrwt>
<rscale>  0 0.74238165E+03</rscale>
<asrwt>0</asrwt>
<pdfrwt beam="1">  1        2 0.17294769E+00 0.74238165E+03</pdfrwt>
<pdfrwt beam="2">  1       -2 0.16258618E-01 0.74238165E+03</pdfrwt>
<totfact> 0.64735333E+02</totfact>
</mgrwt>
</event>
<event>
 4    1  0.5985962E-005  0.5351419E+03  0.7818608E-02  0.1004993E+00
         -2   -1    0    0    0  501 -0.00000000000E+00  0.00000000000E+00  0.25197974573E+02  0.25197974702E+02  0.25500000000E-02 0. -1.
          2   -1    0    0  501    0  0.00000000000E+00 -0.00000000000E+00 -0.28412690909E+04  0.28412690909E+04  0.25500000000E-02 0.  1.
    5000001    1    1    2    0    0 -0.30524753715E+02  0.11747312747E+03 -0.21937853275E+04  0.22051688732E+04  0.18800000000E+03 0.  0.
   -5000001    1    1    2    0    0  0.30524753715E+02 -0.11747312747E+03 -0.62228578877E+03  0.66129819232E+03  0.18800000000E+03 0.  0.
<mgrwt>
<rscale>  0 0.53514195E+03</rscale>
<asrwt>0</asrwt>
<pdfrwt beam="1">  1        2 0.40589538E+00 0.53514195E+03</pdfrwt>
<pdfrwt beam="2">  1       -2 0.35997125E-02 0.53514195E+03</pdfrwt>
<totfact> 0.10507964E+03</totfact>
</mgrwt>
</event>
<event>
 4    1  0.5985962E-005  0.5112902E+03  0.7818608E-02  0.1010873E+00
          2   -1    0    0  501    0  0.00000000000E+00  0.00000000000E+00  0.43714807376E+04  0.43714807376E+04  0.25500000000E-02 0.  1.
         -2   -1    0    0    0  501 -0.00000000000E+00 -0.00000000000E+00 -0.14950176461E+02  0.14950176679E+02  0.25500000000E-02 0. -1.
    5000001    1    1    2    0    0  0.46084081269E+00  0.13722834794E+03  0.30853275762E+04  0.30940947116E+04  0.18800000000E+03 0.  0.
   -5000001    1    1    2    0    0 -0.46084081269E+00 -0.13722834794E+03  0.12712029849E+04  0.12923362026E+04  0.18800000000E+03 0.  0.
<mgrwt>
<rscale>  0 0.51129017E+03</rscale>
<asrwt>0</asrwt>
<pdfrwt beam="1">  1        2 0.62449743E+00 0.51129017E+03</pdfrwt>
<pdfrwt beam="2">  1       -2 0.21357389E-02 0.51129017E+03</pdfrwt>
<totfact> 0.26618080E+02</totfact>
</mgrwt>
</event>
<event>
 4    1  0.5985962E-005  0.4423435E+03  0.7818608E-02  0.1030030E+00
         -2   -1    0    0    0  501 -0.00000000000E+00  0.00000000000E+00  0.26075463132E+02  0.26075463257E+02  0.25500000000E-02 0. -1.
          2   -1    0    0  501    0  0.00000000000E+00 -0.00000000000E+00 -0.18759763177E+04  0.18759763177E+04  0.25500000000E-02 0.  1.
    5000001    1    1    2    0    0  0.45839246213E+02 -0.98523889470E+02 -0.11055868174E+04  0.11267095473E+04  0.18800000000E+03 0.  0.
   -5000001    1    1    2    0    0 -0.45839246213E+02  0.98523889470E+02 -0.74431403724E+03  0.77534223367E+03  0.18800000000E+03 0.  0.
<mgrwt>
<rscale>  0 0.44234354E+03</rscale>
<asrwt>0</asrwt>
<pdfrwt beam="1">  1        2 0.26799653E+00 0.44234354E+03</pdfrwt>
<pdfrwt beam="2">  1       -2 0.37250674E-02 0.44234354E+03</pdfrwt>
<totfact> 0.30976281E+03</totfact>
</mgrwt>
</event>
<event>
 4    1  0.5985962E-005  0.6030504E+03  0.7818608E-02  0.9899098E-01
         -2   -1    0    0    0  501 -0.00000000000E+00  0.00000000000E+00  0.14485549802E+03  0.14485549804E+03  0.25500000000E-02 0. -1.
          2   -1    0    0  501    0  0.00000000000E+00 -0.00000000000E+00 -0.62764241828E+03  0.62764241829E+03  0.25500000000E-02 0.  1.
    5000001    1    1    2    0    0  0.12822854610E+03  0.16951314314E+03 -0.11078215287E+03  0.30462099587E+03  0.18800000000E+03 0.  0.
   -5000001    1    1    2    0    0 -0.12822854610E+03 -0.16951314314E+03 -0.37200476739E+03  0.46787692045E+03  0.18800000000E+03 0.  0.
<mgrwt>
<rscale>  0 0.60305043E+03</rscale>
<asrwt>0</asrwt>
<pdfrwt beam="1">  1        2 0.89663201E-01 0.60305043E+03</pdfrwt>
<pdfrwt beam="2">  1       -2 0.20693643E-01 0.60305043E+03</pdfrwt>
<totfact> 0.10352587E+03</totfact>
</mgrwt>
</event>
<event>
 4    1  0.5985962E-005  0.7673489E+03  0.7818608E-02  0.9608519E-01
         -2   -1    0    0    0  501 -0.00000000000E+00  0.00000000000E+00  0.14327798400E+03  0.14327798403E+03  0.25500000000E-02 0. -1.
          2   -1    0    0  501    0  0.00000000000E+00 -0.00000000000E+00 -0.10274160400E+04  0.10274160400E+04  0.25500000000E-02 0.  1.
    5000001    1    1    2    0    0 -0.26202494624E+03 -0.45067686898E+02 -0.13249703341E+03  0.35155032743E+03  0.18800000000E+03 0.  0.
   -5000001    1    1    2    0    0  0.26202494624E+03  0.45067686898E+02 -0.75164102260E+03  0.81914369661E+03  0.18800000000E+03 0.  0.
<mgrwt>
<rscale>  0 0.76734894E+03</rscale>
<asrwt>0</asrwt>
<pdfrwt beam="1">  1        2 0.14677372E+00 0.76734894E+03</pdfrwt>
<pdfrwt beam="2">  1       -2 0.20468284E-01 0.76734894E+03</pdfrwt>
<totfact> 0.55534692E+02</totfact>
</mgrwt>
</event>
<event>
 4    1  0.5985962E-005  0.9151778E+03  0.7818608E-02  0.9406805E-01
         -2   -1    0    0    0  501 -0.00000000000E+00  0.00000000000E+00  0.14433397938E+03  0.14433397940E+03  0.25500000000E-02 0. -1.
          2   -1    0    0  501    0  0.00000000000E+00 -0.00000000000E+00 -0.14507159265E+04  0.14507159265E+04  0.25500000000E-02 0.  1.
    5000001    1    1    2    0    0  0.30201850499E+03 -0.96256996703E+02 -0.18047686896E+03  0.41036141022E+03  0.18800000000E+03 0.  0.
   -5000001    1    1    2    0    0 -0.30201850499E+03  0.96256996703E+02 -0.11259050782E+04  0.11846884957E+04  0.18800000000E+03 0.  0.
<mgrwt>
<rscale>  0 0.91517780E+03</rscale>
<asrwt>0</asrwt>
<pdfrwt beam="1">  1        2 0.20724512E+00 0.91517780E+03</pdfrwt>
<pdfrwt beam="2">  1       -2 0.20619141E-01 0.91517780E+03</pdfrwt>
<totfact> 0.31450441E+02</totfact>
</mgrwt>
</event>
<event>
 4    1  0.5985962E-005  0.4406393E+03  0.7818608E-02  0.1030551E+00
         -2   -1    0    0    0  501 -0.00000000000E+00  0.00000000000E+00  0.25729785334E+02  0.25729785460E+02  0.25500000000E-02 0. -1.
          2   -1    0    0  501    0  0.00000000000E+00 -0.00000000000E+00 -0.18865585361E+04  0.18865585361E+04  0.25500000000E-02 0.  1.
    5000001    1    1    2    0    0 -0.10852183420E+03 -0.37542318252E+02 -0.91646467494E+03  0.94256984599E+03  0.18800000000E+03 0.  0.
   -5000001    1    1    2    0    0  0.10852183420E+03  0.37542318252E+02 -0.94436407587E+03  0.96971847562E+03  0.18800000000E+03 0.  0.
<mgrwt>
<rscale>  0 0.44063929E+03</rscale>
<asrwt>0</asrwt>
<pdfrwt beam="1">  1        2 0.26950827E+00 0.44063929E+03</pdfrwt>
<pdfrwt beam="2">  1       -2 0.36756848E-02 0.44063929E+03</pdfrwt>
<totfact> 0.31231380E+03</totfact>
</mgrwt>
</event>
<event>
 4    1  0.5985962E-005  0.5004918E+03  0.7818608E-02  0.1013651E+00
          2   -1    0    0  501    0  0.00000000000E+00  0.00000000000E+00  0.97618967835E+03  0.97618967835E+03  0.25500000000E-02 0.  1.
         -2   -1    0    0    0  501 -0.00000000000E+00 -0.00000000000E+00 -0.64150443255E+02  0.64150443305E+02  0.25500000000E-02 0. -1.
    5000001    1    1    2    0    0 -0.14015272124E+03 -0.78170837185E+02  0.37483204058E+03  0.44899501523E+03  0.18800000000E+03 0.  0.
   -5000001    1    1    2    0    0  0.14015272124E+03  0.78170837185E+02  0.53720719452E+03  0.59134510643E+03  0.18800000000E+03 0.  0.
<mgrwt>
<rscale>  0 0.50049176E+03</rscale>
<asrwt>0</asrwt>
<pdfrwt beam="1">  1        2 0.13945567E+00 0.50049176E+03</pdfrwt>
<pdfrwt beam="2">  1       -2 0.91643490E-02 0.50049176E+03</pdfrwt>
<totfact> 0.23015672E+03</totfact>
</mgrwt>
</event>
<event>
 4    1  0.5985962E-005  0.7927610E+03  0.7818608E-02  0.9570555E-01
         -2   -1    0    0    0  501 -0.00000000000E+00  0.00000000000E+00  0.39634227884E+03  0.39634227884E+03  0.25500000000E-02 0. -1.
          2   -1    0    0  501    0  0.00000000000E+00 -0.00000000000E+00 -0.39641875511E+03  0.39641875512E+03  0.25500000000E-02 0.  1.
    5000001    1    1    2    0    0 -0.77117259678E+02 -0.25929856393E+03 -0.22047121260E+03  0.39640178176E+03  0.18800000000E+03 0.  0.
   -5000001    1    1    2    0    0  0.77117259678E+02  0.25929856393E+03  0.22039473633E+03  0.39635925220E+03  0.18800000000E+03 0.  0.
<mgrwt>
<rscale>  0 0.79276103E+03</rscale>
<asrwt>0</asrwt>
<pdfrwt beam="1">  1        2 0.56631251E-01 0.79276103E+03</pdfrwt>
<pdfrwt beam="2">  1       -2 0.56620325E-01 0.79276103E+03</pdfrwt>
<totfact> 0.25741600E+02</totfact>
</mgrwt>
</event>
<event>
 4    1  0.5985962E-005  0.7894717E+03  0.7818608E-02  0.9575383E-01
         -2   -1    0    0    0  501 -0.00000000000E+00  0.00000000000E+00  0.34392650885E+03  0.34392650886E+03  0.25500000000E-02 0. -1.
          2   -1    0    0  501    0  0.00000000000E+00 -0.00000000000E+00 -0.45305140053E+03  0.45305140054E+03  0.25500000000E-02 0.  1.
    5000001    1    1    2    0    0  0.26890372185E+03 -0.18097470266E+03  0.70760273663E+02  0.38132934710E+03  0.18800000000E+03 0.  0.
   -5000001    1    1    2    0    0 -0.26890372185E+03  0.18097470266E+03 -0.17988516535E+03  0.41564856230E+03  0.18800000000E+03 0.  0.
<mgrwt>
<rscale>  0 0.78947169E+03</rscale>
<asrwt>0</asrwt>
<pdfrwt beam="1">  1        2 0.64721628E-01 0.78947169E+03</pdfrwt>
<pdfrwt beam="2">  1       -2 0.49132359E-01 0.78947169E+03</pdfrwt>
<totfact> 0.29660700E+02</totfact>
</mgrwt>
</event>
<event>
 4    1  0.5985962E-005  0.4337380E+03  0.7818608E-02  0.1032686E+00
          2   -1    0    0  501    0  0.00000000000E+00  0.00000000000E+00  0.38268657533E+03  0.38268657534E+03  0.25500000000E-02 0.  1.
         -2   -1    0    0    0  501 -0.00000000000E+00 -0.00000000000E+00 -0.12289996823E+03  0.12289996826E+03  0.25500000000E-02 0. -1.
    5000001    1    1    2    0    0 -0.13403297911E+02 -0.95663053814E+02  0.73301050036E+02  0.22371435402E+03  0.18800000000E+03 0.  0.
   -5000001    1    1    2    0    0  0.13403297911E+02  0.95663053814E+02  0.18648555707E+03  0.28187218957E+03  0.18800000000E+03 0.  0.
<mgrwt>
<rscale>  0 0.43373802E+03</rscale>
<asrwt>0</asrwt>
<pdfrwt beam="1">  1        2 0.54669511E-01 0.43373802E+03</pdfrwt>
<pdfrwt beam="2">  1       -2 0.17557138E-01 0.43373802E+03</pdfrwt>
<totfact> 0.24066773E+03</totfact>
</mgrwt>
</event>
<event>
 4    1  0.5985962E-005  0.1669421E+04  0.7818608E-02  0.8778999E-01
         -2   -1    0    0    0  501 -0.00000000000E+00  0.00000000000E+00  0.26342310658E+03  0.26342310659E+03  0.25500000000E-02 0.  1.
          2   -1    0    0  501    0  0.00000000000E+00 -0.00000000000E+00 -0.26449530890E+04  0.26449530890E+04  0.25500000000E-02 0. -1.
    5000001    1    1    2    0    0 -0.37237420756E+03  0.71698402531E+03 -0.13529729218E+04  0.15870124039E+04  0.18800000000E+03 0.  0.
   -5000001    1    1    2    0    0  0.37237420756E+03 -0.71698402531E+03 -0.10285570606E+04  0.13213637916E+04  0.18800000000E+03 0.  0.
<mgrwt>
<rscale>  0 0.16694212E+04</rscale>
<asrwt>0</asrwt>
<pdfrwt beam="1">  1        2 0.37785043E+00 0.16694212E+04</pdfrwt>
<pdfrwt beam="2">  1       -2 0.37631874E-01 0.16694212E+04</pdfrwt>
<totfact> 0.23535518E+01</totfact>
</mgrwt>
</event>
<event>
 4    1  0.5985962E-005  0.8160420E+03  0.7818608E-02  0.9537083E-01
          2   -1    0    0  501    0  0.00000000000E+00  0.00000000000E+00  0.95067406416E+03  0.95067406416E+03  0.25500000000E-02 0.  1.
         -2   -1    0    0    0  501 -0.00000000000E+00 -0.00000000000E+00 -0.17511906536E+03  0.17511906537E+03  0.25500000000E-02 0. -1.
    5000001    1    1    2    0    0  0.15614850613E+03  0.31708776458E+03  0.49649438587E+03  0.63779125238E+03  0.18800000000E+03 0.  0.
   -5000001    1    1    2    0    0 -0.15614850613E+03 -0.31708776458E+03  0.27906061294E+03  0.48800187716E+03  0.18800000000E+03 0.  0.
<mgrwt>
<rscale>  0 0.81604204E+03</rscale>
<asrwt>0</asrwt>
<pdfrwt beam="1">  1        2 0.13581058E+00 0.81604204E+03</pdfrwt>
<pdfrwt beam="2">  1       -2 0.25017010E-01 0.81604204E+03</pdfrwt>
<totfact> 0.43265213E+02</totfact>
</mgrwt>
</event>
<event>
 4    1  0.5985962E-005  0.6957698E+03  0.7818608E-02  0.9724494E-01
          2   -1    0    0  501    0  0.00000000000E+00  0.00000000000E+00  0.14587104189E+04  0.14587104189E+04  0.25500000000E-02 0.  1.
         -2   -1    0    0    0  501 -0.00000000000E+00 -0.00000000000E+00 -0.82966359809E+02  0.82966359848E+02  0.25500000000E-02 0. -1.
    5000001    1    1    2    0    0  0.18776245318E+03 -0.21795362632E+03  0.80763461579E+03  0.87771076937E+03  0.18800000000E+03 0.  0.
   -5000001    1    1    2    0    0 -0.18776245318E+03  0.21795362632E+03  0.56810944334E+03  0.66396600941E+03  0.18800000000E+03 0.  0.
<mgrwt>
<rscale>  0 0.69576977E+03</rscale>
<asrwt>0</asrwt>
<pdfrwt beam="1">  1        2 0.20838719E+00 0.69576977E+03</pdfrwt>
<pdfrwt beam="2">  1       -2 0.11852338E-01 0.69576977E+03</pdfrwt>
<totfact> 0.80782199E+02</totfact>
</mgrwt>
</event>
<event>
 4    1  0.5985962E-005  0.8154174E+03  0.7818608E-02  0.9537965E-01
         -2   -1    0    0    0  501 -0.00000000000E+00  0.00000000000E+00  0.63729712773E+02  0.63729712824E+02  0.25500000000E-02 0. -1.
          2   -1    0    0  501    0  0.00000000000E+00 -0.00000000000E+00 -0.26083029001E+04  0.26083029001E+04  0.25500000000E-02 0.  1.
    5000001    1    1    2    0    0 -0.70385984635E+02  0.16435661070E+03 -0.24167958753E+03  0.35457059289E+03  0.18800000000E+03 0.  0.
   -5000001    1    1    2    0    0  0.70385984635E+02 -0.16435661070E+03 -0.23028935998E+04  0.23174620201E+04  0.18800000000E+03 0.  0.
<mgrwt>
<rscale>  0 0.81541743E+03</rscale>
<asrwt>0</asrwt>
<pdfrwt beam="1">  1        2 0.37261463E+00 0.81541743E+03</pdfrwt>
<pdfrwt beam="2">  1       -2 0.91042463E-02 0.81541743E+03</pdfrwt>
<totfact> 0.31782508E+02</totfact>
</mgrwt>
</event>
<event>
 4    1  0.5985962E-005  0.5571700E+03  0.7818608E-02  0.9998478E-01
         -2   -1    0    0    0  501 -0.00000000000E+00  0.00000000000E+00  0.22132518485E+02  0.22132518632E+02  0.25500000000E-02 0. -1.
          2   -1    0    0  501    0  0.00000000000E+00 -0.00000000000E+00 -0.35065876073E+04  0.35065876073E+04  0.25500000000E-02 0.  1.
    5000001    1    1    2    0    0  0.14856710567E+03 -0.86194918458E+02 -0.24577455699E+04  0.24709024738E+04  0.18800000000E+03 0.  0.
   -5000001    1    1    2    0    0 -0.14856710567E+03  0.86194918458E+02 -0.10267095189E+04  0.10578176521E+04  0.18800000000E+03 0.  0.
<mgrwt>
<rscale>  0 0.55717005E+03</rscale>
<asrwt>0</asrwt>
<pdfrwt beam="1">  1        2 0.50094073E+00 0.55717005E+03</pdfrwt>
<pdfrwt beam="2">  1       -2 0.31617906E-02 0.55717005E+03</pdfrwt>
<totfact> 0.54258305E+02</totfact>
</mgrwt>
</event>
<event>
 4    1  0.5985962E-005  0.1022519E+04  0.7818608E-02  0.9284185E-01
          2   -1    0    0  501    0  0.00000000000E+00  0.00000000000E+00  0.96929806588E+03  0.96929806589E+03  0.25500000000E-02 0.  1.
         -2   -1    0    0    0  501 -0.00000000000E+00 -0.00000000000E+00 -0.26966577286E+03  0.26966577287E+03  0.25500000000E-02 0. -1.
    5000001    1    1    2    0    0 -0.38219659419E+03  0.23641345914E+03  0.53782911232E+03  0.72565123464E+03  0.18800000000E+03 0.  0.
   -5000001    1    1    2    0    0  0.38219659419E+03 -0.23641345914E+03  0.16180318070E+03  0.51331260413E+03  0.18800000000E+03 0.  0.
<mgrwt>
<rscale>  0 0.10225195E+04</rscale>
<asrwt>0</asrwt>
<pdfrwt beam="1">  1        2 0.13847115E+00 0.10225195E+04</pdfrwt>
<pdfrwt beam="2">  1       -2 0.38523682E-01 0.10225195E+04</pdfrwt>
<totfact> 0.18599751E+02</totfact>
</mgrwt>
</event>
<event>
 4    1  0.5985962E-005  0.6541014E+03  0.7818608E-02  0.9799113E-01
         -2   -1    0    0    0  501 -0.00000000000E+00  0.00000000000E+00  0.21466574994E+03  0.21466574995E+03  0.25500000000E-02 0. -1.
          2   -1    0    0  501    0  0.00000000000E+00 -0.00000000000E+00 -0.49827309879E+03  0.49827309880E+03  0.25500000000E-02 0.  1.
    5000001    1    1    2    0    0 -0.20800434050E+03  0.16827798654E+03 -0.13536631193E+03  0.35390863909E+03  0.18800000000E+03 0.  0.
   -5000001    1    1    2    0    0  0.20800434050E+03 -0.16827798654E+03 -0.14824103693E+03  0.35903020966E+03  0.18800000000E+03 0.  0.
<mgrwt>
<rscale>  0 0.65410142E+03</rscale>
<asrwt>0</asrwt>
<pdfrwt beam="1">  1        2 0.71181871E-01 0.65410142E+03</pdfrwt>
<pdfrwt beam="2">  1       -2 0.30666536E-01 0.65410142E+03</pdfrwt>
<totfact> 0.66622944E+02</totfact>
</mgrwt>
</event>
<event>
 4    1  0.5985962E-005  0.7185075E+03  0.7818608E-02  0.9686095E-01
         -2   -1    0    0    0  501 -0.00000000000E+00  0.00000000000E+00  0.10946178987E+03  0.10946178990E+03  0.25500000000E-02 0. -1.
          2   -1    0    0  501    0  0.00000000000E+00 -0.00000000000E+00 -0.11790712947E+04  0.11790712947E+04  0.25500000000E-02 0.  1.
    5000001    1    1    2    0    0  0.48601842439E+02  0.19770233010E+03 -0.12479491424E+03  0.30391795116E+03  0.18800000000E+03 0.  0.
   -5000001    1    1    2    0    0 -0.48601842439E+02 -0.19770233010E+03 -0.94481459061E+03  0.98461513347E+03  0.18800000000E+03 0.  0.
<mgrwt>
<rscale>  0 0.71850749E+03</rscale>
<asrwt>0</asrwt>
<pdfrwt beam="1">  1        2 0.16843875E+00 0.71850749E+03</pdfrwt>
<pdfrwt beam="2">  1       -2 0.15637399E-01 0.71850749E+03</pdfrwt>
<totfact> 0.72139359E+02</totfact>
</mgrwt>
</event>
<event>
 4    1  0.5985962E-005  0.7143788E+03  0.7818608E-02  0.9692954E-01
          2   -1    0    0  501    0  0.00000000000E+00  0.00000000000E+00  0.14617752897E+04  0.14617752897E+04  0.25500000000E-02 0.  1.
         -2   -1    0    0    0  501 -0.00000000000E+00 -0.00000000000E+00 -0.87280356264E+02  0.87280356301E+02  0.25500000000E-02 0. -1.
    5000001    1    1    2    0    0  0.29979613853E+03 -0.48194487396E+02  0.67356168026E+03  0.76238426690E+03  0.18800000000E+03 0.  0.
   -5000001    1    1    2    0    0 -0.29979613853E+03  0.48194487396E+02  0.70093325315E+03  0.78667137908E+03  0.18800000000E+03 0.  0.
<mgrwt>
<rscale>  0 0.71437880E+03</rscale>
<asrwt>0</asrwt>
<pdfrwt beam="1">  1        2 0.20882503E+00 0.71437880E+03</pdfrwt>
<pdfrwt beam="2">  1       -2 0.12468623E-01 0.71437880E+03</pdfrwt>
<totfact> 0.73950144E+02</totfact>
</mgrwt>
</event>
<event>
 4    1  0.5985962E-005  0.4543469E+03  0.7818608E-02  0.1026434E+00
         -2   -1    0    0    0  501 -0.00000000000E+00  0.00000000000E+00  0.13506603223E+03  0.13506603226E+03  0.25500000000E-02 0.  1.
          2   -1    0    0  501    0  0.00000000000E+00 -0.00000000000E+00 -0.38209292089E+03  0.38209292090E+03  0.25500000000E-02 0. -1.
    5000001    1    1    2    0    0 -0.73808369457E+02  0.37341870709E+02 -0.23399779148E+03  0.31135358859E+03  0.18800000000E+03 0.  0.
   -5000001    1    1    2    0    0  0.73808369457E+02 -0.37341870709E+02 -0.13029097177E+02  0.20580536456E+03  0.18800000000E+03 0.  0.
<mgrwt>
<rscale>  0 0.45434689E+03</rscale>
<asrwt>0</asrwt>
<pdfrwt beam="1">  1        2 0.54584702E-01 0.45434689E+03</pdfrwt>
<pdfrwt beam="2">  1       -2 0.19295148E-01 0.45434689E+03</pdfrwt>
<totfact> 0.20521438E+03</totfact>
</mgrwt>
</event>
<event>
 4    1  0.5985962E-005  0.9727281E+03  0.7818608E-02  0.9338972E-01
          2   -1    0    0  501    0  0.00000000000E+00  0.00000000000E+00  0.20677994051E+03  0.20677994053E+03  0.25500000000E-02 0.  1.
         -2   -1    0    0    0  501 -0.00000000000E+00 -0.00000000000E+00 -0.11439697463E+04  0.11439697463E+04  0.25500000000E-02 0. -1.
    5000001    1    1    2    0    0  0.43491744813E+03  0.10154726243E+03 -0.41065494623E+03  0.63517439971E+03  0.18800000000E+03 0.  0.
   -5000001    1    1    2    0    0 -0.43491744813E+03 -0.10154726243E+03 -0.52653485955E+03  0.71557528710E+03  0.18800000000E+03 0.  0.
<mgrwt>
<rscale>  0 0.97272811E+03</rscale>
<asrwt>0</asrwt>
<pdfrwt beam="1">  1        2 0.29539992E-01 0.97272811E+03</pdfrwt>
<pdfrwt beam="2">  1       -2 0.16342424E+00 0.97272811E+03</pdfrwt>
<totfact> 0.43064097E+01</totfact>
</mgrwt>
</event>
<event>
 4    1  0.5985962E-005  0.5780756E+03  0.7818608E-02  0.9951966E-01
         -2   -1    0    0    0  501 -0.00000000000E+00  0.00000000000E+00  0.30119089173E+02  0.30119089281E+02  0.25500000000E-02 0. -1.
          2   -1    0    0  501    0  0.00000000000E+00 -0.00000000000E+00 -0.27737504624E+04  0.27737504624E+04  0.25500000000E-02 0.  1.
    5000001    1    1    2    0    0 -0.29370952667E+02 -0.19721260055E+03 -0.18175039899E+04  0.18380479363E+04  0.18800000000E+03 0.  0.
   -5000001    1    1    2    0    0  0.29370952667E+02  0.19721260055E+03 -0.92612738336E+03  0.96582161546E+03  0.18800000000E+03 0.  0.
<mgrwt>
<rscale>  0 0.57807556E+03</rscale>
<asrwt>0</asrwt>
<pdfrwt beam="1">  1        2 0.39624990E+00 0.57807556E+03</pdfrwt>
<pdfrwt beam="2">  1       -2 0.43027288E-02 0.57807556E+03</pdfrwt>
<totfact> 0.86473070E+02</totfact>
</mgrwt>
</event>
<event>
 4    1  0.5985962E-005  0.6217527E+03  0.7818608E-02  0.9861276E-01
         -2   -1    0    0    0  501 -0.00000000000E+00  0.00000000000E+00  0.57024854003E+02  0.57024854060E+02  0.25500000000E-02 0. -1.
          2   -1    0    0  501    0  0.00000000000E+00 -0.00000000000E+00 -0.16947713645E+04  0.16947713645E+04  0.25500000000E-02 0.  1.
    5000001    1    1    2    0    0 -0.16816861625E+03  0.12272945746E+03 -0.44131718479E+03  0.52292261455E+03  0.18800000000E+03 0.  0.
   -5000001    1    1    2    0    0  0.16816861625E+03 -0.12272945746E+03 -0.11964293257E+04  0.12288736040E+04  0.18800000000E+03 0.  0.
<mgrwt>
<rscale>  0 0.62175265E+03</rscale>
<asrwt>0</asrwt>
<pdfrwt beam="1">  1        2 0.24211016E+00 0.62175265E+03</pdfrwt>
<pdfrwt beam="2">  1       -2 0.81464088E-02 0.62175265E+03</pdfrwt>
<totfact> 0.11238334E+03</totfact>
</mgrwt>
</event>
<event>
 4    1  0.5985962E-005  0.4817362E+03  0.7818608E-02  0.1018659E+00
          2   -1    0    0  501    0  0.00000000000E+00  0.00000000000E+00  0.11764291998E+04  0.11764291998E+04  0.25500000000E-02 0.  1.
         -2   -1    0    0    0  501 -0.00000000000E+00 -0.00000000000E+00 -0.49316560276E+02  0.49316560342E+02  0.25500000000E-02 0. -1.
    5000001    1    1    2    0    0 -0.80319555083E+02  0.11335542128E+03  0.41578716810E+03  0.47699439369E+03  0.18800000000E+03 0.  0.
   -5000001    1    1    2    0    0  0.80319555083E+02 -0.11335542128E+03  0.71132547147E+03  0.74875136650E+03  0.18800000000E+03 0.  0.
<mgrwt>
<rscale>  0 0.48173620E+03</rscale>
<asrwt>0</asrwt>
<pdfrwt beam="1">  1        2 0.16806129E+00 0.48173620E+03</pdfrwt>
<pdfrwt beam="2">  1       -2 0.70452239E-02 0.48173620E+03</pdfrwt>
<totfact> 0.26687465E+03</totfact>
</mgrwt>
</event>
<event>
 4    1  0.5985962E-005  0.4499897E+03  0.7818608E-02  0.1027725E+00
          2   -1    0    0  501    0  0.00000000000E+00  0.00000000000E+00  0.12677257280E+03  0.12677257283E+03  0.25500000000E-02 0.  1.
         -2   -1    0    0    0  501 -0.00000000000E+00 -0.00000000000E+00 -0.39931887147E+03  0.39931887148E+03  0.25500000000E-02 0. -1.
    5000001    1    1    2    0    0  0.62281715819E+02 -0.60802215585E+02 -0.23888129367E+03  0.31620277357E+03  0.18800000000E+03 0.  0.
   -5000001    1    1    2    0    0 -0.62281715819E+02  0.60802215585E+02 -0.33665004996E+02  0.20988867074E+03  0.18800000000E+03 0.  0.
<mgrwt>
<rscale>  0 0.44998969E+03</rscale>
<asrwt>0</asrwt>
<pdfrwt beam="1">  1        2 0.18110368E-01 0.44998969E+03</pdfrwt>
<pdfrwt beam="2">  1       -2 0.57045553E-01 0.44998969E+03</pdfrwt>
<totfact> 0.92277747E+02</totfact>
</mgrwt>
</event>
<event>
 4    1  0.5985962E-005  0.4307461E+03  0.7818608E-02  0.1033625E+00
         -2   -1    0    0    0  501 -0.00000000000E+00  0.00000000000E+00  0.60760688531E+02  0.60760688584E+02  0.25500000000E-02 0. -1.
          2   -1    0    0  501    0  0.00000000000E+00 -0.00000000000E+00 -0.76341369049E+03  0.76341369050E+03  0.25500000000E-02 0.  1.
    5000001    1    1    2    0    0 -0.17346982505E+02 -0.98666186565E+02 -0.29065118996E+03  0.36035822233E+03  0.18800000000E+03 0.  0.
   -5000001    1    1    2    0    0  0.17346982505E+02  0.98666186565E+02 -0.41200181200E+03  0.46381615675E+03  0.18800000000E+03 0.  0.
<mgrwt>
<rscale>  0 0.43074606E+03</rscale>
<asrwt>0</asrwt>
<pdfrwt beam="1">  1        2 0.10905909E+00 0.43074606E+03</pdfrwt>
<pdfrwt beam="2">  1       -2 0.86800988E-02 0.43074606E+03</pdfrwt>
<totfact> 0.34564671E+03</totfact>
</mgrwt>
</event>
<event>
 4    1  0.5985962E-005  0.4065561E+03  0.7818608E-02  0.1041533E+00
          2   -1    0    0  501    0  0.00000000000E+00  0.00000000000E+00  0.22390074172E+04  0.22390074172E+04  0.25500000000E-02 0.  1.
         -2   -1    0    0    0  501 -0.00000000000E+00 -0.00000000000E+00 -0.18455486952E+02  0.18455487128E+02  0.25500000000E-02 0. -1.
    5000001    1    1    2    0    0 -0.41253556493E+02  0.62341816083E+02  0.12198777473E+04  0.12365411745E+04  0.18800000000E+03 0.  0.
   -5000001    1    1    2    0    0  0.41253556493E+02 -0.62341816083E+02  0.10006741830E+04  0.10209217298E+04  0.18800000000E+03 0.  0.
<mgrwt>
<rscale>  0 0.40655613E+03</rscale>
<asrwt>0</asrwt>
<pdfrwt beam="1">  1        2 0.31985818E+00 0.40655613E+03</pdfrwt>
<pdfrwt beam="2">  1       -2 0.26364983E-02 0.40655613E+03</pdfrwt>
<totfact> 0.34500011E+03</totfact>
</mgrwt>
</event>
<event>
 4    1  0.5985962E-005  0.4714842E+03  0.7818608E-02  0.1021502E+00
         -2   -1    0    0    0  501 -0.00000000000E+00  0.00000000000E+00  0.14452953377E+03  0.14452953379E+03  0.25500000000E-02 0. -1.
          2   -1    0    0  501    0  0.00000000000E+00 -0.00000000000E+00 -0.38451893014E+03  0.38451893015E+03  0.25500000000E-02 0.  1.
    5000001    1    1    2    0    0  0.35308805045E+02 -0.13199477018E+03 -0.16432811767E+03  0.28463496153E+03  0.18800000000E+03 0.  0.
   -5000001    1    1    2    0    0 -0.35308805045E+02  0.13199477018E+03 -0.75661278702E+02  0.24441350241E+03  0.18800000000E+03 0.  0.
<mgrwt>
<rscale>  0 0.47148422E+03</rscale>
<asrwt>0</asrwt>
<pdfrwt beam="1">  1        2 0.54931275E-01 0.47148422E+03</pdfrwt>
<pdfrwt beam="2">  1       -2 0.20647077E-01 0.47148422E+03</pdfrwt>
<totfact> 0.18130035E+03</totfact>
</mgrwt>
</event>
<event>
 4    1  0.5985962E-005  0.5527733E+03  0.7818608E-02  0.1000854E+00
          2   -1    0    0  501    0  0.00000000000E+00  0.00000000000E+00  0.17648070189E+04  0.17648070189E+04  0.25500000000E-02 0.  1.
         -2   -1    0    0    0  501 -0.00000000000E+00 -0.00000000000E+00 -0.43284944302E+02  0.43284944377E+02  0.25500000000E-02 0. -1.
    5000001    1    1    2    0    0 -0.15129500935E+03  0.13370693775E+03  0.91528375935E+03  0.95595820263E+03  0.18800000000E+03 0.  0.
   -5000001    1    1    2    0    0  0.15129500935E+03 -0.13370693775E+03  0.80623831525E+03  0.85213376065E+03  0.18800000000E+03 0.  0.
<mgrwt>
<rscale>  0 0.55277328E+03</rscale>
<asrwt>0</asrwt>
<pdfrwt beam="1">  1        2 0.25211528E+00 0.55277328E+03</pdfrwt>
<pdfrwt beam="2">  1       -2 0.61835636E-02 0.55277328E+03</pdfrwt>
<totfact> 0.16060867E+03</totfact>
</mgrwt>
</event>
<event>
 4    1  0.5985962E-005  0.5679480E+03  0.7818608E-02  0.9974230E-01
         -2   -1    0    0    0  501 -0.00000000000E+00  0.00000000000E+00  0.53790469983E+02  0.53790470043E+02  0.25500000000E-02 0. -1.
          2   -1    0    0  501    0  0.00000000000E+00 -0.00000000000E+00 -0.14991729879E+04  0.14991729879E+04  0.25500000000E-02 0.  1.
    5000001    1    1    2    0    0 -0.17670653849E+03  0.11734225645E+03 -0.77027301890E+03  0.82076728098E+03  0.18800000000E+03 0.  0.
   -5000001    1    1    2    0    0  0.17670653849E+03 -0.11734225645E+03 -0.67510949905E+03  0.73219617699E+03  0.18800000000E+03 0.  0.
<mgrwt>
<rscale>  0 0.56794795E+03</rscale>
<asrwt>0</asrwt>
<pdfrwt beam="1">  1        2 0.21416754E+00 0.56794795E+03</pdfrwt>
<pdfrwt beam="2">  1       -2 0.76843538E-02 0.56794795E+03</pdfrwt>
<totfact> 0.15580385E+03</totfact>
</mgrwt>
</event>
<event>
 4    1  0.5985962E-005  0.8794527E+03  0.7818608E-02  0.9451637E-01
         -2   -1    0    0    0  501 -0.00000000000E+00  0.00000000000E+00  0.26477295348E+03  0.26477295349E+03  0.25500000000E-02 0. -1.
          2   -1    0    0  501    0  0.00000000000E+00 -0.00000000000E+00 -0.73028334958E+03  0.73028334959E+03  0.25500000000E-02 0.  1.
    5000001    1    1    2    0    0  0.22893621131E+03 -0.25694411050E+03 -0.45786306893E+03  0.60283882976E+03  0.18800000000E+03 0.  0.
   -5000001    1    1    2    0    0 -0.22893621131E+03  0.25694411050E+03 -0.76473271705E+01  0.39221747333E+03  0.18800000000E+03 0.  0.
<mgrwt>
<rscale>  0 0.87945274E+03</rscale>
<asrwt>0</asrwt>
<pdfrwt beam="1">  1        2 0.10432619E+00 0.87945274E+03</pdfrwt>
<pdfrwt beam="2">  1       -2 0.37824708E-01 0.87945274E+03</pdfrwt>
<totfact> 0.28210035E+02</totfact>
</mgrwt>
</event>
<event>
 4    1  0.5985962E-005  0.6445478E+03  0.7818608E-02  0.9817064E-01
         -2   -1    0    0    0  501 -0.00000000000E+00  0.00000000000E+00  0.30561593634E+03  0.30561593635E+03  0.25500000000E-02 0. -1.
          2   -1    0    0  501    0  0.00000000000E+00 -0.00000000000E+00 -0.33983978953E+03  0.33983978954E+03  0.25500000000E-02 0.  1.
    5000001    1    1    2    0    0 -0.23154296541E+03  0.11396209671E+03  0.26732750535E+02  0.32040309653E+03  0.18800000000E+03 0.  0.
   -5000001    1    1    2    0    0  0.23154296541E+03 -0.11396209671E+03 -0.60956603724E+02  0.32505262936E+03  0.18800000000E+03 0.  0.
<mgrwt>
<rscale>  0 0.64454777E+03</rscale>
<asrwt>0</asrwt>
<pdfrwt beam="1">  1        2 0.48548541E-01 0.64454777E+03</pdfrwt>
<pdfrwt beam="2">  1       -2 0.43659420E-01 0.64454777E+03</pdfrwt>
<totfact> 0.52003702E+02</totfact>
</mgrwt>
</event>
<event>
 4    1  0.5985962E-005  0.7240551E+03  0.7818608E-02  0.9676957E-01
          2   -1    0    0  501    0  0.00000000000E+00  0.00000000000E+00  0.99247606251E+03  0.99247606252E+03  0.25500000000E-02 0.  1.
         -2   -1    0    0    0  501 -0.00000000000E+00 -0.00000000000E+00 -0.13205753044E+03  0.13205753047E+03  0.25500000000E-02 0. -1.
    5000001    1    1    2    0    0 -0.16064252785E+02  0.29726096202E+03  0.29936260268E+03  0.46215160677E+03  0.18800000000E+03 0.  0.
   -5000001    1    1    2    0    0  0.16064252785E+02 -0.29726096202E+03  0.56105592939E+03  0.66238198622E+03  0.18800000000E+03 0.  0.
<mgrwt>
<rscale>  0 0.72405507E+03</rscale>
<asrwt>0</asrwt>
<pdfrwt beam="1">  1        2 0.14178230E+00 0.72405507E+03</pdfrwt>
<pdfrwt beam="2">  1       -2 0.18865361E-01 0.72405507E+03</pdfrwt>
<totfact> 0.67358493E+02</totfact>
</mgrwt>
</event>
<event>
 4    1  0.5985962E-005  0.1668467E+04  0.7818608E-02  0.8779556E-01
          2   -1    0    0  501    0  0.00000000000E+00  0.00000000000E+00  0.34190059672E+04  0.34190059673E+04  0.25500000000E-02 0.  1.
         -2   -1    0    0    0  501 -0.00000000000E+00 -0.00000000000E+00 -0.20355193298E+03  0.20355193300E+03  0.25500000000E-02 0. -1.
    5000001    1    1    2    0    0 -0.10060632422E+03  0.77562744622E+03  0.11276941529E+04  0.13851922864E+04  0.18800000000E+03 0.  0.
   -5000001    1    1    2    0    0  0.10060632422E+03 -0.77562744622E+03  0.20877598814E+04  0.22373656139E+04  0.18800000000E+03 0.  0.
<mgrwt>
<rscale>  0 0.16684667E+04</rscale>
<asrwt>0</asrwt>
<pdfrwt beam="1">  1        2 0.48842942E+00 0.16684667E+04</pdfrwt>
<pdfrwt beam="2">  1       -2 0.29078848E-01 0.16684667E+04</pdfrwt>
<totfact> 0.14080114E+01</totfact>
</mgrwt>
</event>
<event>
 4    1  0.5985962E-005  0.6060590E+03  0.7818608E-02  0.9892915E-01
          2   -1    0    0  501    0  0.00000000000E+00  0.00000000000E+00  0.25167983086E+03  0.25167983088E+03  0.25500000000E-02 0.  1.
         -2   -1    0    0    0  501 -0.00000000000E+00 -0.00000000000E+00 -0.36485592981E+03  0.36485592982E+03  0.25500000000E-02 0. -1.
    5000001    1    1    2    0    0  0.91729175346E+02  0.58001541057E+02 -0.27167733826E+03  0.34775134292E+03  0.18800000000E+03 0.  0.
   -5000001    1    1    2    0    0 -0.91729175346E+02 -0.58001541057E+02  0.15850123932E+03  0.26878441778E+03  0.18800000000E+03 0.  0.
<mgrwt>
<rscale>  0 0.60605900E+03</rscale>
<asrwt>0</asrwt>
<pdfrwt beam="1">  1        2 0.35954262E-01 0.60605900E+03</pdfrwt>
<pdfrwt beam="2">  1       -2 0.52122276E-01 0.60605900E+03</pdfrwt>
<totfact> 0.50830460E+02</totfact>
</mgrwt>
</event>
<event>
 4    1  0.5985962E-005  0.5706708E+03  0.7818608E-02  0.9968195E-01
         -2   -1    0    0    0  501 -0.00000000000E+00  0.00000000000E+00  0.89706561926E+02  0.89706561962E+02  0.25500000000E-02 0. -1.
          2   -1    0    0  501    0  0.00000000000E+00 -0.00000000000E+00 -0.90758450859E+03  0.90758450859E+03  0.25500000000E-02 0.  1.
    5000001    1    1    2    0    0  0.19836762779E+03 -0.81833150111E+02 -0.41783373272E+03  0.50594012335E+03  0.18800000000E+03 0.  0.
   -5000001    1    1    2    0    0 -0.19836762779E+03  0.81833150111E+02 -0.40004421394E+03  0.49135094720E+03  0.18800000000E+03 0.  0.
<mgrwt>
<rscale>  0 0.57067078E+03</rscale>
<asrwt>0</asrwt>
<pdfrwt beam="1">  1        2 0.12965492E+00 0.57067078E+03</pdfrwt>
<pdfrwt beam="2">  1       -2 0.12815224E-01 0.57067078E+03</pdfrwt>
<totfact> 0.14713321E+03</totfact>
</mgrwt>
</event>
<event>
 4    1  0.5985962E-005  0.7396919E+03  0.7818608E-02  0.9651662E-01
          2   -1    0    0  501    0  0.00000000000E+00  0.00000000000E+00  0.10904589094E+04  0.10904589094E+04  0.25500000000E-02 0.  1.
         -2   -1    0    0    0  501 -0.00000000000E+00 -0.00000000000E+00 -0.12543896772E+03  0.12543896775E+03  0.25500000000E-02 0. -1.
    5000001    1    1    2    0    0  0.19538259118E+03 -0.19432184758E+03  0.74503660789E+03  0.81630808185E+03  0.18800000000E+03 0.  0.
   -5000001    1    1    2    0    0 -0.19538259118E+03  0.19432184758E+03  0.21998333382E+03  0.39958979534E+03  0.18800000000E+03 0.  0.
<mgrwt>
<rscale>  0 0.73969194E+03</rscale>
<asrwt>0</asrwt>
<pdfrwt beam="1">  1        2 0.15577985E+00 0.73969194E+03</pdfrwt>
<pdfrwt beam="2">  1       -2 0.17919852E-01 0.73969194E+03</pdfrwt>
<totfact> 0.64243403E+02</totfact>
</mgrwt>
</event>
<event>
 4    1  0.5985962E-005  0.7765612E+03  0.7818608E-02  0.9594577E-01
         -2   -1    0    0    0  501 -0.00000000000E+00  0.00000000000E+00  0.12068993452E+04  0.12068993452E+04  0.25500000000E-02 0.  1.
          2   -1    0    0  501    0  0.00000000000E+00 -0.00000000000E+00 -0.12491666330E+03  0.12491666333E+03  0.25500000000E-02 0. -1.
    5000001    1    1    2    0    0  0.32250070305E+03  0.92360244453E+02  0.63304034981E+03  0.74068968044E+03  0.18800000000E+03 0.  0.
   -5000001    1    1    2    0    0 -0.32250070305E+03 -0.92360244453E+02  0.44894233210E+03  0.59112632810E+03  0.18800000000E+03 0.  0.
<mgrwt>
<rscale>  0 0.77656124E+03</rscale>
<asrwt>0</asrwt>
<pdfrwt beam="1">  1        2 0.17845237E-01 0.77656124E+03</pdfrwt>
<pdfrwt beam="2">  1       -2 0.17241420E+00 0.77656124E+03</pdfrwt>
<totfact> 0.67451906E+01</totfact>
</mgrwt>
</event>
<event>
 4    1  0.5985962E-005  0.5525618E+03  0.7818608E-02  0.1000903E+00
         -2   -1    0    0    0  501 -0.00000000000E+00  0.00000000000E+00  0.52635018572E+03  0.52635018573E+03  0.25500000000E-02 0. -1.
          2   -1    0    0  501    0  0.00000000000E+00 -0.00000000000E+00 -0.14501965780E+03  0.14501965782E+03  0.25500000000E-02 0.  1.
    5000001    1    1    2    0    0 -0.18532402099E+03 -0.50959854133E+02  0.26794263009E+03  0.37957759748E+03  0.18800000000E+03 0.  0.
   -5000001    1    1    2    0    0  0.18532402099E+03  0.50959854133E+02  0.11338789784E+03  0.29179224607E+03  0.18800000000E+03 0.  0.
<mgrwt>
<rscale>  0 0.55256176E+03</rscale>
<asrwt>0</asrwt>
<pdfrwt beam="1">  1        2 0.20717093E-01 0.55256176E+03</pdfrwt>
<pdfrwt beam="2">  1       -2 0.75192886E-01 0.55256176E+03</pdfrwt>
<totfact> 0.43691159E+02</totfact>
</mgrwt>
</event>
<event>
 4    1  0.5985962E-005  0.4906077E+03  0.7818608E-02  0.1016260E+00
         -2   -1    0    0    0  501 -0.00000000000E+00  0.00000000000E+00  0.57609161009E+02  0.57609161065E+02  0.25500000000E-02 0.  1.
          2   -1    0    0  501    0  0.00000000000E+00 -0.00000000000E+00 -0.10445209015E+04  0.10445209015E+04  0.25500000000E-02 0. -1.
    5000001    1    1    2    0    0 -0.12420817050E+03 -0.95180973309E+02 -0.45185780928E+03  0.51381569371E+03  0.18800000000E+03 0.  0.
   -5000001    1    1    2    0    0  0.12420817050E+03  0.95180973309E+02 -0.53505393124E+03  0.58831436889E+03  0.18800000000E+03 0.  0.
<mgrwt>
<rscale>  0 0.49060768E+03</rscale>
<asrwt>0</asrwt>
<pdfrwt beam="1">  1        2 0.14921726E+00 0.49060768E+03</pdfrwt>
<pdfrwt beam="2">  1       -2 0.82298808E-02 0.49060768E+03</pdfrwt>
<totfact> 0.24856961E+03</totfact>
</mgrwt>
</event>
<event>
 4    1  0.5985962E-005  0.7545451E+03  0.7818608E-02  0.9628247E-01
          2   -1    0    0  501    0  0.00000000000E+00  0.00000000000E+00  0.15185816989E+03  0.15185816991E+03  0.25500000000E-02 0.  1.
         -2   -1    0    0    0  501 -0.00000000000E+00 -0.00000000000E+00 -0.93728633457E+03  0.93728633457E+03  0.25500000000E-02 0. -1.
    5000001    1    1    2    0    0 -0.31296330877E+03 -0.94395249187E+02 -0.37599927842E+03  0.53251850022E+03  0.18800000000E+03 0.  0.
   -5000001    1    1    2    0    0  0.31296330877E+03  0.94395249187E+02 -0.40942888626E+03  0.55662600425E+03  0.18800000000E+03 0.  0.
<mgrwt>
<rscale>  0 0.75454513E+03</rscale>
<asrwt>0</asrwt>
<pdfrwt beam="1">  1        2 0.21694025E-01 0.75454513E+03</pdfrwt>
<pdfrwt beam="2">  1       -2 0.13389804E+00 0.75454513E+03</pdfrwt>
<totfact> 0.10508464E+02</totfact>
</mgrwt>
</event>
<event>
 4    1  0.5985962E-005  0.5460934E+03  0.7818608E-02  0.1002402E+00
          2   -1    0    0  501    0  0.00000000000E+00  0.00000000000E+00  0.14250812053E+04  0.14250812053E+04  0.25500000000E-02 0.  1.
         -2   -1    0    0    0  501 -0.00000000000E+00 -0.00000000000E+00 -0.52315971690E+02  0.52315971752E+02  0.25500000000E-02 0. -1.
    5000001    1    1    2    0    0  0.13508494967E+03 -0.12094650226E+03  0.47106143273E+03  0.53862684063E+03  0.18800000000E+03 0.  0.
   -5000001    1    1    2    0    0 -0.13508494967E+03  0.12094650226E+03  0.90170380083E+03  0.93877033638E+03  0.18800000000E+03 0.  0.
<mgrwt>
<rscale>  0 0.54609343E+03</rscale>
<asrwt>0</asrwt>
<pdfrwt beam="1">  1        2 0.20358304E+00 0.54609343E+03</pdfrwt>
<pdfrwt beam="2">  1       -2 0.74737098E-02 0.54609343E+03</pdfrwt>
<totfact> 0.17814042E+03</totfact>
</mgrwt>
</event>
<event>
 4    1  0.5985962E-005  0.4605487E+03  0.7818608E-02  0.1024622E+00
          2   -1    0    0  501    0  0.00000000000E+00  0.00000000000E+00  0.24864687099E+03  0.24864687100E+03  0.25500000000E-02 0.  1.
         -2   -1    0    0    0  501 -0.00000000000E+00 -0.00000000000E+00 -0.21325935770E+03  0.21325935771E+03  0.25500000000E-02 0. -1.
    5000001    1    1    2    0    0  0.21485190814E+02  0.13083120724E+03  0.27914664270E+02  0.23173615750E+03  0.18800000000E+03 0.  0.
   -5000001    1    1    2    0    0 -0.21485190814E+02 -0.13083120724E+03  0.74728490241E+01  0.23017007122E+03  0.18800000000E+03 0.  0.
<mgrwt>
<rscale>  0 0.46054868E+03</rscale>
<asrwt>0</asrwt>
<pdfrwt beam="1">  1        2 0.35520982E-01 0.46054868E+03</pdfrwt>
<pdfrwt beam="2">  1       -2 0.30465622E-01 0.46054868E+03</pdfrwt>
<totfact> 0.14589312E+03</totfact>
</mgrwt>
</event>
<event>
 4    1  0.5985962E-005  0.7248286E+03  0.7818608E-02  0.9675690E-01
         -2   -1    0    0    0  501 -0.00000000000E+00  0.00000000000E+00  0.40643284086E+03  0.40643284086E+03  0.25500000000E-02 0. -1.
          2   -1    0    0  501    0  0.00000000000E+00 -0.00000000000E+00 -0.32316312737E+03  0.32316312738E+03  0.25500000000E-02 0.  1.
    5000001    1    1    2    0    0  0.29942392725E+03  0.17685322360E+02  0.11981584644E+03  0.37372087966E+03  0.18800000000E+03 0.  0.
   -5000001    1    1    2    0    0 -0.29942392725E+03 -0.17685322360E+02 -0.36546132951E+02  0.35587508858E+03  0.18800000000E+03 0.  0.
<mgrwt>
<rscale>  0 0.72482855E+03</rscale>
<asrwt>0</asrwt>
<pdfrwt beam="1">  1        2 0.46166161E-01 0.72482855E+03</pdfrwt>
<pdfrwt beam="2">  1       -2 0.58061835E-01 0.72482855E+03</pdfrwt>
<totfact> 0.30729068E+02</totfact>
</mgrwt>
</event>
<event>
 4    1  0.5985962E-005  0.5092599E+03  0.7818608E-02  0.1011390E+00
         -2   -1    0    0    0  501 -0.00000000000E+00  0.00000000000E+00  0.82792474314E+02  0.82792474353E+02  0.25500000000E-02 0. -1.
          2   -1    0    0  501    0  0.00000000000E+00 -0.00000000000E+00 -0.78311958095E+03  0.78311958096E+03  0.25500000000E-02 0.  1.
    5000001    1    1    2    0    0  0.10010776114E+03 -0.90108588025E+02 -0.16900582876E+03  0.28644038059E+03  0.18800000000E+03 0.  0.
   -5000001    1    1    2    0    0 -0.10010776114E+03  0.90108588025E+02 -0.53132127788E+03  0.57947167472E+03  0.18800000000E+03 0.  0.
<mgrwt>
<rscale>  0 0.50925989E+03</rscale>
<asrwt>0</asrwt>
<pdfrwt beam="1">  1        2 0.11187422E+00 0.50925989E+03</pdfrwt>
<pdfrwt beam="2">  1       -2 0.11827497E-01 0.50925989E+03</pdfrwt>
<totfact> 0.20343119E+03</totfact>
</mgrwt>
</event>
<event>
 4    1  0.5985962E-005  0.6612522E+03  0.7818608E-02  0.9785891E-01
         -2   -1    0    0    0  501 -0.00000000000E+00  0.00000000000E+00  0.14127309840E+03  0.14127309843E+03  0.25500000000E-02 0. -1.
          2   -1    0    0  501    0  0.00000000000E+00 -0.00000000000E+00 -0.77377525740E+03  0.77377525741E+03  0.25500000000E-02 0.  1.
    5000001    1    1    2    0    0  0.26167880638E+03 -0.72833058637E+02 -0.33528419415E+03  0.47068029806E+03  0.18800000000E+03 0.  0.
   -5000001    1    1    2    0    0 -0.26167880638E+03  0.72833058637E+02 -0.29721796485E+03  0.44436805777E+03  0.18800000000E+03 0.  0.
<mgrwt>
<rscale>  0 0.66125223E+03</rscale>
<asrwt>0</asrwt>
<pdfrwt beam="1">  1        2 0.11053932E+00 0.66125223E+03</pdfrwt>
<pdfrwt beam="2">  1       -2 0.20181872E-01 0.66125223E+03</pdfrwt>
<totfact> 0.83592583E+02</totfact>
</mgrwt>
</event>
<event>
 4    1  0.5985962E-005  0.7432993E+03  0.7818608E-02  0.9645922E-01
          2   -1    0    0  501    0  0.00000000000E+00  0.00000000000E+00  0.47423371208E+03  0.47423371208E+03  0.25500000000E-02 0.  1.
         -2   -1    0    0    0  501 -0.00000000000E+00 -0.00000000000E+00 -0.29125606988E+03  0.29125606989E+03  0.25500000000E-02 0. -1.
    5000001    1    1    2    0    0 -0.21799794258E+03  0.42270590690E+02  0.32962694482E+03  0.43966786164E+03  0.18800000000E+03 0.  0.
   -5000001    1    1    2    0    0  0.21799794258E+03 -0.42270590690E+02 -0.14664930262E+03  0.32582192033E+03  0.18800000000E+03 0.  0.
<mgrwt>
<rscale>  0 0.74329926E+03</rscale>
<asrwt>0</asrwt>
<pdfrwt beam="1">  1        2 0.67747673E-01 0.74329926E+03</pdfrwt>
<pdfrwt beam="2">  1       -2 0.41608010E-01 0.74329926E+03</pdfrwt>
<totfact> 0.39291103E+02</totfact>
</mgrwt>
</event>
<event>
 4    1  0.5985962E-005  0.4925372E+03  0.7818608E-02  0.1015745E+00
          2   -1    0    0  501    0  0.00000000000E+00  0.00000000000E+00  0.14001631721E+04  0.14001631721E+04  0.25500000000E-02 0.  1.
         -2   -1    0    0    0  501 -0.00000000000E+00 -0.00000000000E+00 -0.43315106761E+02  0.43315106836E+02  0.25500000000E-02 0. -1.
    5000001    1    1    2    0    0 -0.42554595091E+02  0.15118718615E+03  0.75231942034E+03  0.79119970238E+03  0.18800000000E+03 0.  0.
   -5000001    1    1    2    0    0  0.42554595091E+02 -0.15118718615E+03  0.60452864500E+03  0.65227857656E+03  0.18800000000E+03 0.  0.
<mgrwt>
<rscale>  0 0.49253718E+03</rscale>
<asrwt>0</asrwt>
<pdfrwt beam="1">  1        2 0.20002328E+00 0.49253718E+03</pdfrwt>
<pdfrwt beam="2">  1       -2 0.61878733E-02 0.49253718E+03</pdfrwt>
<totfact> 0.24734165E+03</totfact>
</mgrwt>
</event>
<event>
 4    1  0.5985962E-005  0.5014088E+03  0.7818608E-02  0.1013412E+00
         -2   -1    0    0    0  501 -0.00000000000E+00  0.00000000000E+00  0.96016395731E+02  0.96016395765E+02  0.25500000000E-02 0. -1.
          2   -1    0    0  501    0  0.00000000000E+00 -0.00000000000E+00 -0.65460383529E+03  0.65460383529E+03  0.25500000000E-02 0.  1.
    5000001    1    1    2    0    0 -0.11763951531E+03 -0.71541663898E+02 -0.14085811127E+03  0.27229078711E+03  0.18800000000E+03 0.  0.
   -5000001    1    1    2    0    0  0.11763951531E+03  0.71541663898E+02 -0.41772932828E+03  0.47832944394E+03  0.18800000000E+03 0.  0.
<mgrwt>
<rscale>  0 0.50140882E+03</rscale>
<asrwt>0</asrwt>
<pdfrwt beam="1">  1        2 0.93514831E-01 0.50140882E+03</pdfrwt>
<pdfrwt beam="2">  1       -2 0.13716628E-01 0.50140882E+03</pdfrwt>
<totfact> 0.19845357E+03</totfact>
</mgrwt>
</event>
<event>
 4    1  0.5985962E-005  0.8216266E+03  0.7818608E-02  0.9529230E-01
         -2   -1    0    0    0  501 -0.00000000000E+00  0.00000000000E+00  0.15860097203E+03  0.15860097205E+03  0.25500000000E-02 0. -1.
          2   -1    0    0  501    0  0.00000000000E+00 -0.00000000000E+00 -0.10641018171E+04  0.10641018171E+04  0.25500000000E-02 0.  1.
    5000001    1    1    2    0    0  0.14656474027E+03 -0.31969302856E+03 -0.30589246391E+03  0.50259233488E+03  0.18800000000E+03 0.  0.
   -5000001    1    1    2    0    0 -0.14656474027E+03  0.31969302856E+03 -0.59960838121E+03  0.72011045432E+03  0.18800000000E+03 0.  0.
<mgrwt>
<rscale>  0 0.82162664E+03</rscale>
<asrwt>0</asrwt>
<pdfrwt beam="1">  1        2 0.15201454E+00 0.82162664E+03</pdfrwt>
<pdfrwt beam="2">  1       -2 0.22657282E-01 0.82162664E+03</pdfrwt>
<totfact> 0.44009968E+02</totfact>
</mgrwt>
</event>
<event>
 4    1  0.5985962E-005  0.1138492E+04  0.7818608E-02  0.9168466E-01
          2   -1    0    0  501    0  0.00000000000E+00  0.00000000000E+00  0.75441796350E+03  0.75441796351E+03  0.25500000000E-02 0.  1.
         -2   -1    0    0    0  501 -0.00000000000E+00 -0.00000000000E+00 -0.42952440630E+03  0.42952440631E+03  0.25500000000E-02 0. -1.
    5000001    1    1    2    0    0 -0.25041912593E+03  0.44031567605E+03 -0.23897480125E+02  0.54083520851E+03  0.18800000000E+03 0.  0.
   -5000001    1    1    2    0    0  0.25041912593E+03 -0.44031567605E+03  0.34879103733E+03  0.64310716131E+03  0.18800000000E+03 0.  0.
<mgrwt>
<rscale>  0 0.11384919E+04</rscale>
<asrwt>0</asrwt>
<pdfrwt beam="1">  1        2 0.10777399E+00 0.11384919E+04</pdfrwt>
<pdfrwt beam="2">  1       -2 0.61360630E-01 0.11384919E+04</pdfrwt>
<totfact> 0.10031849E+02</totfact>
</mgrwt>
</event>
<event>
 4    1  0.5985962E-005  0.4432851E+03  0.7818608E-02  0.1029744E+00
         -2   -1    0    0    0  501 -0.00000000000E+00  0.00000000000E+00  0.12375311396E+03  0.12375311399E+03  0.25500000000E-02 0. -1.
          2   -1    0    0  501    0  0.00000000000E+00 -0.00000000000E+00 -0.39696311808E+03  0.39696311809E+03  0.25500000000E-02 0.  1.
    5000001    1    1    2    0    0  0.83534669407E+02  0.55565247506E+02 -0.20821094423E+03  0.29792840586E+03  0.18800000000E+03 0.  0.
   -5000001    1    1    2    0    0 -0.83534669407E+02 -0.55565247506E+02 -0.64999059890E+02  0.22278782622E+03  0.18800000000E+03 0.  0.
<mgrwt>
<rscale>  0 0.44328511E+03</rscale>
<asrwt>0</asrwt>
<pdfrwt beam="1">  1        2 0.56709016E-01 0.44328511E+03</pdfrwt>
<pdfrwt beam="2">  1       -2 0.17679017E-01 0.44328511E+03</pdfrwt>
<totfact> 0.22851793E+03</totfact>
</mgrwt>
</event>
<event>
 4    1  0.5985962E-005  0.6588406E+03  0.7818608E-02  0.9790330E-01
         -2   -1    0    0    0  501 -0.00000000000E+00  0.00000000000E+00  0.33565900673E+03  0.33565900674E+03  0.25500000000E-02 0. -1.
          2   -1    0    0  501    0  0.00000000000E+00 -0.00000000000E+00 -0.32329756582E+03  0.32329756583E+03  0.25500000000E-02 0.  1.
    5000001    1    1    2    0    0  0.12229065772E+03  0.23913605387E+03  0.38321755548E+02  0.33008122360E+03  0.18800000000E+03 0.  0.
   -5000001    1    1    2    0    0 -0.12229065772E+03 -0.23913605387E+03 -0.25960314634E+02  0.32887534897E+03  0.18800000000E+03 0.  0.
<mgrwt>
<rscale>  0 0.65884062E+03</rscale>
<asrwt>0</asrwt>
<pdfrwt beam="1">  1        2 0.46185366E-01 0.65884062E+03</pdfrwt>
<pdfrwt beam="2">  1       -2 0.47951287E-01 0.65884062E+03</pdfrwt>
<totfact> 0.45570546E+02</totfact>
</mgrwt>
</event>
<event>
 4    1  0.5985962E-005  0.6922584E+03  0.7818608E-02  0.9730564E-01
         -2   -1    0    0    0  501 -0.00000000000E+00  0.00000000000E+00  0.11906161123E+03  0.11906161126E+03  0.25500000000E-02 0. -1.
          2   -1    0    0  501    0  0.00000000000E+00 -0.00000000000E+00 -0.10062473520E+04  0.10062473520E+04  0.25500000000E-02 0.  1.
    5000001    1    1    2    0    0 -0.23270821250E+03 -0.44004577220E+02 -0.71740196080E+03  0.77852365946E+03  0.18800000000E+03 0.  0.
   -5000001    1    1    2    0    0  0.23270821250E+03  0.44004577220E+02 -0.16978377995E+03  0.34678530378E+03  0.18800000000E+03 0.  0.
<mgrwt>
<rscale>  0 0.69225842E+03</rscale>
<asrwt>0</asrwt>
<pdfrwt beam="1">  1        2 0.14374962E+00 0.69225842E+03</pdfrwt>
<pdfrwt beam="2">  1       -2 0.17008802E-01 0.69225842E+03</pdfrwt>
<totfact> 0.79052020E+02</totfact>
</mgrwt>
</event>
<event>
 4    1  0.5985962E-005  0.7103035E+03  0.7818608E-02  0.9699772E-01
         -2   -1    0    0    0  501 -0.00000000000E+00  0.00000000000E+00  0.44270058058E+03  0.44270058059E+03  0.25500000000E-02 0. -1.
          2   -1    0    0  501    0  0.00000000000E+00 -0.00000000000E+00 -0.28491667969E+03  0.28491667970E+03  0.25500000000E-02 0.  1.
    5000001    1    1    2    0    0  0.27829508862E+03 -0.72390085562E+01 -0.39192419750E+02  0.33820201857E+03  0.18800000000E+03 0.  0.
   -5000001    1    1    2    0    0 -0.27829508862E+03  0.72390085562E+01  0.19697632064E+03  0.38941524173E+03  0.18800000000E+03 0.  0.
<mgrwt>
<rscale>  0 0.71030354E+03</rscale>
<asrwt>0</asrwt>
<pdfrwt beam="1">  1        2 0.40702383E-01 0.71030354E+03</pdfrwt>
<pdfrwt beam="2">  1       -2 0.63242940E-01 0.71030354E+03</pdfrwt>
<totfact> 0.29509432E+02</totfact>
</mgrwt>
</event>
<event>
 4    1  0.5985962E-005  0.4512777E+03  0.7818608E-02  0.1027342E+00
         -2   -1    0    0    0  501 -0.00000000000E+00  0.00000000000E+00  0.26232399618E+03  0.26232399619E+03  0.25500000000E-02 0. -1.
          2   -1    0    0  501    0  0.00000000000E+00 -0.00000000000E+00 -0.19408396669E+03  0.19408396670E+03  0.25500000000E-02 0.  1.
    5000001    1    1    2    0    0 -0.10949825092E+03  0.44071477498E+02  0.75036331026E+02  0.23432160177E+03  0.18800000000E+03 0.  0.
   -5000001    1    1    2    0    0  0.10949825092E+03 -0.44071477498E+02 -0.67963015290E+01  0.22208636112E+03  0.18800000000E+03 0.  0.
<mgrwt>
<rscale>  0 0.45127766E+03</rscale>
<asrwt>0</asrwt>
<pdfrwt beam="1">  1        2 0.27726281E-01 0.45127766E+03</pdfrwt>
<pdfrwt beam="2">  1       -2 0.37474857E-01 0.45127766E+03</pdfrwt>
<totfact> 0.13034726E+03</totfact>
</mgrwt>
</event>
<event>
 4    1  0.5985962E-005  0.4757257E+03  0.7818608E-02  0.1020317E+00
          2   -1    0    0  501    0  0.00000000000E+00  0.00000000000E+00  0.23694616981E+04  0.23694616981E+04  0.25500000000E-02 0.  1.
         -2   -1    0    0    0  501 -0.00000000000E+00 -0.00000000000E+00 -0.23878309393E+02  0.23878309529E+02  0.25500000000E-02 0. -1.
    5000001    1    1    2    0    0 -0.12330804691E+03  0.73931177488E+02  0.12922744218E+04  0.13137685773E+04  0.18800000000E+03 0.  0.
   -5000001    1    1    2    0    0  0.12330804691E+03 -0.73931177488E+02  0.10533089669E+04  0.10795714303E+04  0.18800000000E+03 0.  0.
<mgrwt>
<rscale>  0 0.47572572E+03</rscale>
<asrwt>0</asrwt>
<pdfrwt beam="1">  1        2 0.33849428E+00 0.47572572E+03</pdfrwt>
<pdfrwt beam="2">  1       -2 0.34111896E-02 0.47572572E+03</pdfrwt>
<totfact> 0.20059573E+03</totfact>
</mgrwt>
</event>
<event>
 4    1  0.5985962E-005  0.3992467E+03  0.7818608E-02  0.1044041E+00
          2   -1    0    0  501    0  0.00000000000E+00  0.00000000000E+00  0.11628803189E+04  0.11628803189E+04  0.25500000000E-02 0.  1.
         -2   -1    0    0    0  501 -0.00000000000E+00 -0.00000000000E+00 -0.34267921711E+02  0.34267921806E+02  0.25500000000E-02 0. -1.
    5000001    1    1    2    0    0 -0.65395472405E+01 -0.43864140397E+02  0.71538693549E+03  0.74100559779E+03  0.18800000000E+03 0.  0.
   -5000001    1    1    2    0    0  0.65395472405E+01  0.43864140397E+02  0.41322546171E+03  0.45614264293E+03  0.18800000000E+03 0.  0.
<mgrwt>
<rscale>  0 0.39924675E+03</rscale>
<asrwt>0</asrwt>
<pdfrwt beam="1">  1        2 0.16612577E+00 0.39924675E+03</pdfrwt>
<pdfrwt beam="2">  1       -2 0.48954170E-02 0.39924675E+03</pdfrwt>
<totfact> 0.47755191E+03</totfact>
</mgrwt>
</event>
<event>
 4    1  0.5985962E-005  0.8093970E+03  0.7818608E-02  0.9546514E-01
          2   -1    0    0  501    0  0.00000000000E+00  0.00000000000E+00  0.41318357408E+03  0.41318357409E+03  0.25500000000E-02 0.  1.
         -2   -1    0    0    0  501 -0.00000000000E+00 -0.00000000000E+00 -0.39638763621E+03  0.39638763622E+03  0.25500000000E-02 0. -1.
    5000001    1    1    2    0    0 -0.16722778152E+02  0.35263618894E+03  0.70095340393E+02  0.40606562253E+03  0.18800000000E+03 0.  0.
   -5000001    1    1    2    0    0  0.16722778152E+02 -0.35263618894E+03 -0.53299402520E+02  0.40350558777E+03  0.18800000000E+03 0.  0.
<mgrwt>
<rscale>  0 0.80939696E+03</rscale>
<asrwt>0</asrwt>
<pdfrwt beam="1">  1        2 0.59026225E-01 0.80939696E+03</pdfrwt>
<pdfrwt beam="2">  1       -2 0.56626805E-01 0.80939696E+03</pdfrwt>
<totfact> 0.24554014E+02</totfact>
</mgrwt>
</event>
<event>
 4    1  0.5985962E-005  0.4853434E+03  0.7818608E-02  0.1017677E+00
         -2   -1    0    0    0  501 -0.00000000000E+00  0.00000000000E+00  0.36337092251E+03  0.36337092252E+03  0.25500000000E-02 0. -1.
          2   -1    0    0  501    0  0.00000000000E+00 -0.00000000000E+00 -0.16206454775E+03  0.16206454777E+03  0.25500000000E-02 0.  1.
    5000001    1    1    2    0    0 -0.10252543165E+03 -0.10967735873E+03  0.13497293230E+03  0.27586641624E+03  0.18800000000E+03 0.  0.
   -5000001    1    1    2    0    0  0.10252543165E+03  0.10967735873E+03  0.66333442456E+02  0.24956905405E+03  0.18800000000E+03 0.  0.
<mgrwt>
<rscale>  0 0.48534336E+03</rscale>
<asrwt>0</asrwt>
<pdfrwt beam="1">  1        2 0.23152078E-01 0.48534336E+03</pdfrwt>
<pdfrwt beam="2">  1       -2 0.51910132E-01 0.48534336E+03</pdfrwt>
<totfact> 0.84230477E+02</totfact>
</mgrwt>
</event>
<event>
 4    1  0.5985962E-005  0.1719562E+04  0.7818608E-02  0.8750285E-01
          2   -1    0    0  501    0  0.00000000000E+00  0.00000000000E+00  0.21208207681E+04  0.21208207681E+04  0.25500000000E-02 0. -1.
         -2   -1    0    0    0  501 -0.00000000000E+00 -0.00000000000E+00 -0.34855533262E+03  0.34855533263E+03  0.25500000000E-02 0.  1.
    5000001    1    1    2    0    0  0.66490074320E+03 -0.40562292812E+03  0.13339785714E+04  0.15561059691E+04  0.18800000000E+03 0.  0.
   -5000001    1    1    2    0    0 -0.66490074320E+03  0.40562292812E+03  0.43828686411E+03  0.91327013166E+03  0.18800000000E+03 0.  0.
<mgrwt>
<rscale>  0 0.17195620E+04</rscale>
<asrwt>0</asrwt>
<pdfrwt beam="1">  1        2 0.30297439E+00 0.17195620E+04</pdfrwt>
<pdfrwt beam="2">  1       -2 0.49793619E-01 0.17195620E+04</pdfrwt>
<totfact> 0.25262007E+01</totfact>
</mgrwt>
</event>
<event>
 4    1  0.5985962E-005  0.4799059E+03  0.7818608E-02  0.1019161E+00
         -2   -1    0    0    0  501 -0.00000000000E+00  0.00000000000E+00  0.15651977917E+03  0.15651977919E+03  0.25500000000E-02 0. -1.
          2   -1    0    0  501    0  0.00000000000E+00 -0.00000000000E+00 -0.36786028189E+03  0.36786028190E+03  0.25500000000E-02 0.  1.
    5000001    1    1    2    0    0  0.14845293130E+03  0.10488363156E+02 -0.95588515591E+02  0.25812679614E+03  0.18800000000E+03 0.  0.
   -5000001    1    1    2    0    0 -0.14845293130E+03 -0.10488363156E+02 -0.11575198713E+03  0.26625326495E+03  0.18800000000E+03 0.  0.
<mgrwt>
<rscale>  0 0.47990587E+03</rscale>
<asrwt>0</asrwt>
<pdfrwt beam="1">  1        2 0.52551468E-01 0.47990587E+03</pdfrwt>
<pdfrwt beam="2">  1       -2 0.22359969E-01 0.47990587E+03</pdfrwt>
<totfact> 0.16560527E+03</totfact>
</mgrwt>
</event>
<event>
 4    1  0.5985962E-005  0.4993025E+03  0.7818608E-02  0.1013961E+00
          2   -1    0    0  501    0  0.00000000000E+00  0.00000000000E+00  0.49069346078E+03  0.49069346078E+03  0.25500000000E-02 0.  1.
         -2   -1    0    0    0  501 -0.00000000000E+00 -0.00000000000E+00 -0.12701562314E+03  0.12701562316E+03  0.25500000000E-02 0. -1.
    5000001    1    1    2    0    0 -0.59947188926E+02 -0.15292646342E+03  0.18029025198E+03  0.30794276032E+03  0.18800000000E+03 0.  0.
   -5000001    1    1    2    0    0  0.59947188926E+02  0.15292646342E+03  0.18338758566E+03  0.30976632362E+03  0.18800000000E+03 0.  0.
<mgrwt>
<rscale>  0 0.49930246E+03</rscale>
<asrwt>0</asrwt>
<pdfrwt beam="1">  1        2 0.70099067E-01 0.49930246E+03</pdfrwt>
<pdfrwt beam="2">  1       -2 0.18145089E-01 0.49930246E+03</pdfrwt>
<totfact> 0.17283158E+03</totfact>
</mgrwt>
</event>
<event>
 4    1  0.5985962E-005  0.5564503E+03  0.7818608E-02  0.1000012E+00
         -2   -1    0    0    0  501 -0.00000000000E+00  0.00000000000E+00  0.36378192727E+02  0.36378192817E+02  0.25500000000E-02 0. -1.
          2   -1    0    0  501    0  0.00000000000E+00 -0.00000000000E+00 -0.21279019190E+04  0.21279019190E+04  0.25500000000E-02 0.  1.
    5000001    1    1    2    0    0 -0.19276130067E+03 -0.53344435784E+02 -0.12224074796E+04  0.12528473946E+04  0.18800000000E+03 0.  0.
   -5000001    1    1    2    0    0  0.19276130067E+03  0.53344435784E+02 -0.86911624668E+03  0.91143271727E+03  0.18800000000E+03 0.  0.
<mgrwt>
<rscale>  0 0.55645027E+03</rscale>
<asrwt>0</asrwt>
<pdfrwt beam="1">  1        2 0.30398591E+00 0.55645027E+03</pdfrwt>
<pdfrwt beam="2">  1       -2 0.51968860E-02 0.55645027E+03</pdfrwt>
<totfact> 0.13841585E+03</totfact>
</mgrwt>
</event>
<event>
 4    1  0.5985962E-005  0.4152682E+03  0.7818608E-02  0.1038617E+00
         -2   -1    0    0    0  501 -0.00000000000E+00  0.00000000000E+00  0.63411257021E+02  0.63411257072E+02  0.25500000000E-02 0. -1.
          2   -1    0    0  501    0  0.00000000000E+00 -0.00000000000E+00 -0.67987811859E+03  0.67987811859E+03  0.25500000000E-02 0.  1.
    5000001    1    1    2    0    0 -0.19344151051E+02 -0.84147526142E+02 -0.33989617249E+03  0.39790502687E+03  0.18800000000E+03 0.  0.
   -5000001    1    1    2    0    0  0.19344151051E+02  0.84147526142E+02 -0.27657068908E+03  0.34538434879E+03  0.18800000000E+03 0.  0.
<mgrwt>
<rscale>  0 0.41526823E+03</rscale>
<asrwt>0</asrwt>
<pdfrwt beam="1">  1        2 0.97125441E-01 0.41526823E+03</pdfrwt>
<pdfrwt beam="2">  1       -2 0.90587514E-02 0.41526823E+03</pdfrwt>
<totfact> 0.37174661E+03</totfact>
</mgrwt>
</event>
<event>
 4    1  0.5985962E-005  0.7011317E+03  0.7818608E-02  0.9715299E-01
         -2   -1    0    0    0  501 -0.00000000000E+00  0.00000000000E+00  0.58085442939E+02  0.58085442995E+02  0.25500000000E-02 0. -1.
          2   -1    0    0  501    0  0.00000000000E+00 -0.00000000000E+00 -0.21157865570E+04  0.21157865570E+04  0.25500000000E-02 0.  1.
    5000001    1    1    2    0    0  0.29021718179E+03  0.52120937106E+02 -0.95228627496E+03  0.10144632838E+04  0.18800000000E+03 0.  0.
   -5000001    1    1    2    0    0 -0.29021718179E+03 -0.52120937106E+02 -0.11054148391E+04  0.11594087162E+04  0.18800000000E+03 0.  0.
<mgrwt>
<rscale>  0 0.70113165E+03</rscale>
<asrwt>0</asrwt>
<pdfrwt beam="1">  1        2 0.30225517E+00 0.70113165E+03</pdfrwt>
<pdfrwt beam="2">  1       -2 0.82979217E-02 0.70113165E+03</pdfrwt>
<totfact> 0.66552215E+02</totfact>
</mgrwt>
</event>
<event>
 4    1  0.5985962E-005  0.4564765E+03  0.7818608E-02  0.1025808E+00
          2   -1    0    0  501    0  0.00000000000E+00  0.00000000000E+00  0.81875843651E+03  0.81875843651E+03  0.25500000000E-02 0.  1.
         -2   -1    0    0    0  501 -0.00000000000E+00 -0.00000000000E+00 -0.63624019508E+02  0.63624019559E+02  0.25500000000E-02 0. -1.
    5000001    1    1    2    0    0  0.20056225843E+02  0.98782906919E+02  0.22066538066E+03  0.30691615324E+03  0.18800000000E+03 0.  0.
   -5000001    1    1    2    0    0 -0.20056225843E+02 -0.98782906919E+02  0.53446903633E+03  0.57546630283E+03  0.18800000000E+03 0.  0.
<mgrwt>
<rscale>  0 0.45647652E+03</rscale>
<asrwt>0</asrwt>
<pdfrwt beam="1">  1        2 0.11696549E+00 0.45647652E+03</pdfrwt>
<pdfrwt beam="2">  1       -2 0.90891458E-02 0.45647652E+03</pdfrwt>
<totfact> 0.29426405E+03</totfact>
</mgrwt>
</event>
<event>
 4    1  0.5985962E-005  0.6013505E+03  0.7818608E-02  0.9902608E-01
         -2   -1    0    0    0  501 -0.00000000000E+00  0.00000000000E+00  0.13351123148E+03  0.13351123150E+03  0.25500000000E-02 0. -1.
          2   -1    0    0  501    0  0.00000000000E+00 -0.00000000000E+00 -0.67713852338E+03  0.67713852339E+03  0.25500000000E-02 0.  1.
    5000001    1    1    2    0    0  0.14314803422E+03 -0.12061364122E+03 -0.46256415413E+03  0.53324347800E+03  0.18800000000E+03 0.  0.
   -5000001    1    1    2    0    0 -0.14314803422E+03  0.12061364122E+03 -0.81063137780E+02  0.27740627688E+03  0.18800000000E+03 0.  0.
<mgrwt>
<rscale>  0 0.60135047E+03</rscale>
<asrwt>0</asrwt>
<pdfrwt beam="1">  1        2 0.96734073E-01 0.60135047E+03</pdfrwt>
<pdfrwt beam="2">  1       -2 0.19073033E-01 0.60135047E+03</pdfrwt>
<totfact> 0.10892472E+03</totfact>
</mgrwt>
</event>
<event>
 4    1  0.5985962E-005  0.4411406E+03  0.7818608E-02  0.1030397E+00
         -2   -1    0    0    0  501 -0.00000000000E+00  0.00000000000E+00  0.16627561439E+02  0.16627561634E+02  0.25500000000E-02 0. -1.
          2   -1    0    0  501    0  0.00000000000E+00 -0.00000000000E+00 -0.29259409532E+04  0.29259409532E+04  0.25500000000E-02 0.  1.
    5000001    1    1    2    0    0 -0.76030380377E+02  0.44691268145E+02 -0.19506616125E+04  0.19616836276E+04  0.18800000000E+03 0.  0.
   -5000001    1    1    2    0    0  0.76030380377E+02 -0.44691268145E+02 -0.95865177926E+03  0.98088488727E+03  0.18800000000E+03 0.  0.
<mgrwt>
<rscale>  0 0.44114063E+03</rscale>
<asrwt>0</asrwt>
<pdfrwt beam="1">  1        2 0.41799124E+00 0.44114063E+03</pdfrwt>
<pdfrwt beam="2">  1       -2 0.23753678E-02 0.44114063E+03</pdfrwt>
<totfact> 0.17899898E+03</totfact>
</mgrwt>
</event>
<event>
 4    1  0.5985962E-005  0.7341882E+03  0.7818608E-02  0.9660488E-01
          2   -1    0    0  501    0  0.00000000000E+00  0.00000000000E+00  0.13057015603E+04  0.13057015604E+04  0.25500000000E-02 0.  1.
         -2   -1    0    0    0  501 -0.00000000000E+00 -0.00000000000E+00 -0.10320740519E+03  0.10320740523E+03  0.25500000000E-02 0. -1.
    5000001    1    1    2    0    0 -0.29535193936E+03  0.10455179273E+03  0.66910015697E+03  0.76236662145E+03  0.18800000000E+03 0.  0.
   -5000001    1    1    2    0    0  0.29535193936E+03 -0.10455179273E+03  0.53339399819E+03  0.64654234413E+03  0.18800000000E+03 0.  0.
<mgrwt>
<rscale>  0 0.73418818E+03</rscale>
<asrwt>0</asrwt>
<pdfrwt beam="1">  1        2 0.18652877E+00 0.73418818E+03</pdfrwt>
<pdfrwt beam="2">  1       -2 0.14743917E-01 0.73418818E+03</pdfrwt>
<totfact> 0.67703022E+02</totfact>
</mgrwt>
</event>
<event>
 4    1  0.5985962E-005  0.8477444E+03  0.7818608E-02  0.9493369E-01
          2   -1    0    0  501    0  0.00000000000E+00  0.00000000000E+00  0.68132939922E+03  0.68132939922E+03  0.25500000000E-02 0.  1.
         -2   -1    0    0    0  501 -0.00000000000E+00 -0.00000000000E+00 -0.26370161024E+03  0.26370161026E+03  0.25500000000E-02 0. -1.
    5000001    1    1    2    0    0  0.37200284119E+03  0.68169791520E+02  0.16876896321E+03  0.45481886205E+03  0.18800000000E+03 0.  0.
   -5000001    1    1    2    0    0 -0.37200284119E+03 -0.68169791520E+02  0.24885882576E+03  0.49021214743E+03  0.18800000000E+03 0.  0.
<mgrwt>
<rscale>  0 0.84774444E+03</rscale>
<asrwt>0</asrwt>
<pdfrwt beam="1">  1        2 0.97332772E-01 0.84774444E+03</pdfrwt>
<pdfrwt beam="2">  1       -2 0.37671658E-01 0.84774444E+03</pdfrwt>
<totfact> 0.31025272E+02</totfact>
</mgrwt>
</event>
<event>
 4    1  0.5985962E-005  0.6107916E+03  0.7818608E-02  0.9883267E-01
         -2   -1    0    0    0  501 -0.00000000000E+00  0.00000000000E+00  0.32169961959E+02  0.32169962060E+02  0.25500000000E-02 0. -1.
          2   -1    0    0  501    0  0.00000000000E+00 -0.00000000000E+00 -0.28991822461E+04  0.28991822461E+04  0.25500000000E-02 0.  1.
    5000001    1    1    2    0    0  0.70124977911E+02  0.19665802646E+03 -0.85898166220E+03  0.90376179821E+03  0.18800000000E+03 0.  0.
   -5000001    1    1    2    0    0 -0.70124977911E+02 -0.19665802646E+03 -0.20080306219E+04  0.20275904099E+04  0.18800000000E+03 0.  0.
<mgrwt>
<rscale>  0 0.61079156E+03</rscale>
<asrwt>0</asrwt>
<pdfrwt beam="1">  1        2 0.41416873E+00 0.61079156E+03</pdfrwt>
<pdfrwt beam="2">  1       -2 0.45957107E-02 0.61079156E+03</pdfrwt>
<totfact> 0.66800201E+02</totfact>
</mgrwt>
</event>
<event>
 4    1  0.5985962E-005  0.4756231E+03  0.7818608E-02  0.1020345E+00
          2   -1    0    0  501    0  0.00000000000E+00  0.00000000000E+00  0.28449960682E+04  0.28449960682E+04  0.25500000000E-02 0.  1.
         -2   -1    0    0    0  501 -0.00000000000E+00 -0.00000000000E+00 -0.19878529767E+02  0.19878529930E+02  0.25500000000E-02 0. -1.
    5000001    1    1    2    0    0 -0.73783745870E+02  0.10357922178E+03  0.98503885928E+03  0.10108502612E+04  0.18800000000E+03 0.  0.
   -5000001    1    1    2    0    0  0.73783745870E+02 -0.10357922178E+03  0.18400786791E+04  0.18540243369E+04  0.18800000000E+03 0.  0.
<mgrwt>
<rscale>  0 0.47562313E+03</rscale>
<asrwt>0</asrwt>
<pdfrwt beam="1">  1        2 0.40642827E+00 0.47562313E+03</pdfrwt>
<pdfrwt beam="2">  1       -2 0.28397882E-02 0.47562313E+03</pdfrwt>
<totfact> 0.15064924E+03</totfact>
</mgrwt>
</event>
<event>
 4    1  0.5985962E-005  0.1217175E+04  0.7818608E-02  0.9097955E-01
         -2   -1    0    0    0  501 -0.00000000000E+00  0.00000000000E+00  0.22102887292E+03  0.22102887293E+03  0.25500000000E-02 0. -1.
          2   -1    0    0  501    0  0.00000000000E+00 -0.00000000000E+00 -0.16757036152E+04  0.16757036152E+04  0.25500000000E-02 0.  1.
    5000001    1    1    2    0    0  0.30339816937E+03  0.44312599827E+03 -0.10638154137E+04  0.12064237788E+04  0.18800000000E+03 0.  0.
   -5000001    1    1    2    0    0 -0.30339816937E+03 -0.44312599827E+03 -0.39085932860E+03  0.69030870940E+03  0.18800000000E+03 0.  0.
<mgrwt>
<rscale>  0 0.12171752E+04</rscale>
<asrwt>0</asrwt>
<pdfrwt beam="1">  1        2 0.23938622E+00 0.12171752E+04</pdfrwt>
<pdfrwt beam="2">  1       -2 0.31575554E-01 0.12171752E+04</pdfrwt>
<totfact> 0.10837414E+02</totfact>
</mgrwt>
</event>
<event>
 4    1  0.5985962E-005  0.6401183E+03  0.7818608E-02  0.9825500E-01
         -2   -1    0    0    0  501 -0.00000000000E+00  0.00000000000E+00  0.65477515163E+02  0.65477515213E+02  0.25500000000E-02 0. -1.
          2   -1    0    0  501    0  0.00000000000E+00 -0.00000000000E+00 -0.15644739329E+04  0.15644739329E+04  0.25500000000E-02 0.  1.
    5000001    1    1    2    0    0  0.51899077351E+02 -0.25271407504E+03 -0.80844709980E+03  0.86918848999E+03  0.18800000000E+03 0.  0.
   -5000001    1    1    2    0    0 -0.51899077351E+02  0.25271407504E+03 -0.69054931793E+03  0.76076295812E+03  0.18800000000E+03 0.  0.
<mgrwt>
<rscale>  0 0.64011832E+03</rscale>
<asrwt>0</asrwt>
<pdfrwt beam="1">  1        2 0.22349625E+00 0.64011832E+03</pdfrwt>
<pdfrwt beam="2">  1       -2 0.93539317E-02 0.64011832E+03</pdfrwt>
<totfact> 0.10491605E+03</totfact>
</mgrwt>
</event>
<event>
 4    1  0.5985962E-005  0.8773551E+03  0.7818608E-02  0.9454340E-01
          2   -1    0    0  501    0  0.00000000000E+00  0.00000000000E+00  0.10025638803E+04  0.10025638803E+04  0.25500000000E-02 0.  1.
         -2   -1    0    0    0  501 -0.00000000000E+00 -0.00000000000E+00 -0.19194587367E+03  0.19194587369E+03  0.25500000000E-02 0. -1.
    5000001    1    1    2    0    0  0.32117485765E+03  0.10024867344E+03  0.12007480059E+03  0.40368929072E+03  0.18800000000E+03 0.  0.
   -5000001    1    1    2    0    0 -0.32117485765E+03 -0.10024867344E+03  0.69054320600E+03  0.79082046323E+03  0.18800000000E+03 0.  0.
<mgrwt>
<rscale>  0 0.87735512E+03</rscale>
<asrwt>0</asrwt>
<pdfrwt beam="1">  1        2 0.14322341E+00 0.87735512E+03</pdfrwt>
<pdfrwt beam="2">  1       -2 0.27420839E-01 0.87735512E+03</pdfrwt>
<totfact> 0.33898511E+02</totfact>
</mgrwt>
</event>
<event>
 4    1  0.5985962E-005  0.5788190E+03  0.7818608E-02  0.9950351E-01
          2   -1    0    0  501    0  0.00000000000E+00  0.00000000000E+00  0.46830776871E+03  0.46830776872E+03  0.25500000000E-02 0.  1.
         -2   -1    0    0    0  501 -0.00000000000E+00 -0.00000000000E+00 -0.17885213644E+03  0.17885213646E+03  0.25500000000E-02 0. -1.
    5000001    1    1    2    0    0 -0.66728874466E+02  0.19979795038E+03  0.73645652779E+02  0.29178698709E+03  0.18800000000E+03 0.  0.
   -5000001    1    1    2    0    0  0.66728874466E+02 -0.19979795038E+03  0.21580997949E+03  0.35537291809E+03  0.18800000000E+03 0.  0.
<mgrwt>
<rscale>  0 0.57881895E+03</rscale>
<asrwt>0</asrwt>
<pdfrwt beam="1">  1        2 0.66901110E-01 0.57881895E+03</pdfrwt>
<pdfrwt beam="2">  1       -2 0.25550305E-01 0.57881895E+03</pdfrwt>
<totfact> 0.99895584E+02</totfact>
</mgrwt>
</event>
<event>
 4    1  0.5985962E-005  0.4570277E+03  0.7818608E-02  0.1025647E+00
          2   -1    0    0  501    0  0.00000000000E+00  0.00000000000E+00  0.77164567547E+03  0.77164567547E+03  0.25500000000E-02 0.  1.
         -2   -1    0    0    0  501 -0.00000000000E+00 -0.00000000000E+00 -0.67671718633E+02  0.67671718681E+02  0.25500000000E-02 0. -1.
    5000001    1    1    2    0    0 -0.10887067154E+03  0.70044949501E+02  0.37172120432E+03  0.43621069658E+03  0.18800000000E+03 0.  0.
   -5000001    1    1    2    0    0  0.10887067154E+03 -0.70044949501E+02  0.33225275252E+03  0.40310669758E+03  0.18800000000E+03 0.  0.
<mgrwt>
<rscale>  0 0.45702774E+03</rscale>
<asrwt>0</asrwt>
<pdfrwt beam="1">  1        2 0.11023508E+00 0.45702774E+03</pdfrwt>
<pdfrwt beam="2">  1       -2 0.96673898E-02 0.45702774E+03</pdfrwt>
<totfact> 0.28727373E+03</totfact>
</mgrwt>
</event>
<event>
 4    1  0.5985962E-005  0.5873367E+03  0.7818608E-02  0.9932032E-01
         -2   -1    0    0    0  501 -0.00000000000E+00  0.00000000000E+00  0.27530426527E+02  0.27530426645E+02  0.25500000000E-02 0. -1.
          2   -1    0    0  501    0  0.00000000000E+00 -0.00000000000E+00 -0.31325744150E+04  0.31325744150E+04  0.25500000000E-02 0.  1.
    5000001    1    1    2    0    0 -0.22268352416E+03 -0.31116907334E+02 -0.14531817220E+04  0.14824430280E+04  0.18800000000E+03 0.  0.
   -5000001    1    1    2    0    0  0.22268352416E+03  0.31116907334E+02 -0.16518622664E+04  0.16776618137E+04  0.18800000000E+03 0.  0.
<mgrwt>
<rscale>  0 0.58733673E+03</rscale>
<asrwt>0</asrwt>
<pdfrwt beam="1">  1        2 0.44751040E+00 0.58733673E+03</pdfrwt>
<pdfrwt beam="2">  1       -2 0.39329201E-02 0.58733673E+03</pdfrwt>
<totfact> 0.63476916E+02</totfact>
</mgrwt>
</event>
<event>
 4    1  0.5985962E-005  0.5589362E+03  0.7818608E-02  0.9994465E-01
         -2   -1    0    0    0  501 -0.00000000000E+00  0.00000000000E+00  0.16456938303E+03  0.16456938305E+03  0.25500000000E-02 0. -1.
          2   -1    0    0  501    0  0.00000000000E+00 -0.00000000000E+00 -0.47458651710E+03  0.47458651711E+03  0.25500000000E-02 0.  1.
    5000001    1    1    2    0    0 -0.18439209324E+03 -0.93576970374E+02 -0.15632082490E+03  0.32021444960E+03  0.18800000000E+03 0.  0.
   -5000001    1    1    2    0    0  0.18439209324E+03  0.93576970374E+02 -0.15369630917E+03  0.31894145056E+03  0.18800000000E+03 0.  0.
<mgrwt>
<rscale>  0 0.55893617E+03</rscale>
<asrwt>0</asrwt>
<pdfrwt beam="1">  1        2 0.67798073E-01 0.55893617E+03</pdfrwt>
<pdfrwt beam="2">  1       -2 0.23509912E-01 0.55893617E+03</pdfrwt>
<totfact> 0.11421638E+03</totfact>
</mgrwt>
</event>
<event>
 4    1  0.5985962E-005  0.6787440E+03  0.7818608E-02  0.9754289E-01
         -2   -1    0    0    0  501 -0.00000000000E+00  0.00000000000E+00  0.63716246633E+02  0.63716246684E+02  0.25500000000E-02 0.  1.
          2   -1    0    0  501    0  0.00000000000E+00 -0.00000000000E+00 -0.18075979454E+04  0.18075979454E+04  0.25500000000E-02 0. -1.
    5000001    1    1    2    0    0 -0.10229891319E+03 -0.25817119684E+03 -0.10155160077E+04  0.10694550933E+04  0.18800000000E+03 0.  0.
   -5000001    1    1    2    0    0  0.10229891319E+03  0.25817119684E+03 -0.72836569107E+03  0.80185909887E+03  0.18800000000E+03 0.  0.
<mgrwt>
<rscale>  0 0.67874401E+03</rscale>
<asrwt>0</asrwt>
<pdfrwt beam="1">  1        2 0.25822825E+00 0.67874401E+03</pdfrwt>
<pdfrwt beam="2">  1       -2 0.91023221E-02 0.67874401E+03</pdfrwt>
<totfact> 0.82190140E+02</totfact>
</mgrwt>
</event>
<event>
 4    1  0.5985962E-005  0.5895388E+03  0.7818608E-02  0.9927351E-01
         -2   -1    0    0    0  501 -0.00000000000E+00  0.00000000000E+00  0.13182858248E+03  0.13182858250E+03  0.25500000000E-02 0. -1.
          2   -1    0    0  501    0  0.00000000000E+00 -0.00000000000E+00 -0.65910591235E+03  0.65910591235E+03  0.25500000000E-02 0.  1.
    5000001    1    1    2    0    0 -0.87554284494E+02  0.15005875584E+03 -0.45972402501E+03  0.52618776317E+03  0.18800000000E+03 0.  0.
   -5000001    1    1    2    0    0  0.87554284494E+02 -0.15005875584E+03 -0.67553304853E+02  0.26474673168E+03  0.18800000000E+03 0.  0.
<mgrwt>
<rscale>  0 0.58953880E+03</rscale>
<asrwt>0</asrwt>
<pdfrwt beam="1">  1        2 0.94157986E-01 0.58953880E+03</pdfrwt>
<pdfrwt beam="2">  1       -2 0.18832655E-01 0.58953880E+03</pdfrwt>
<totfact> 0.11504746E+03</totfact>
</mgrwt>
</event>
<event>
 4    1  0.5985962E-005  0.7803922E+03  0.7818608E-02  0.9588840E-01
         -2   -1    0    0    0  501 -0.00000000000E+00  0.00000000000E+00  0.98484670652E+03  0.98484670652E+03  0.25500000000E-02 0. -1.
          2   -1    0    0  501    0  0.00000000000E+00 -0.00000000000E+00 -0.15459563030E+03  0.15459563032E+03  0.25500000000E-02 0.  1.
    5000001    1    1    2    0    0 -0.55438151294E+02 -0.26141548526E+03  0.10368621303E+03  0.34279188340E+03  0.18800000000E+03 0.  0.
   -5000001    1    1    2    0    0  0.55438151294E+02  0.26141548526E+03  0.72656486319E+03  0.79665045344E+03  0.18800000000E+03 0.  0.
<mgrwt>
<rscale>  0 0.78039220E+03</rscale>
<asrwt>0</asrwt>
<pdfrwt beam="1">  1        2 0.22085090E-01 0.78039220E+03</pdfrwt>
<pdfrwt beam="2">  1       -2 0.14069239E+00 0.78039220E+03</pdfrwt>
<totfact> 0.90520246E+01</totfact>
</mgrwt>
</event>
<event>
 4    1  0.5985962E-005  0.4714072E+03  0.7818608E-02  0.1021524E+00
          2   -1    0    0  501    0  0.00000000000E+00  0.00000000000E+00  0.41597528499E+02  0.41597528577E+02  0.25500000000E-02 0.  1.
         -2   -1    0    0    0  501 -0.00000000000E+00 -0.00000000000E+00 -0.13355648691E+04  0.13355648691E+04  0.25500000000E-02 0. -1.
    5000001    1    1    2    0    0  0.49188184066E+02 -0.10588351231E+03 -0.40998379549E+03  0.46589860291E+03  0.18800000000E+03 0.  0.
   -5000001    1    1    2    0    0 -0.49188184066E+02  0.10588351231E+03 -0.88398354514E+03  0.91126379480E+03  0.18800000000E+03 0.  0.
<mgrwt>
<rscale>  0 0.47140725E+03</rscale>
<asrwt>0</asrwt>
<pdfrwt beam="1">  1        2 0.59425049E-02 0.47140725E+03</pdfrwt>
<pdfrwt beam="2">  1       -2 0.19079495E+00 0.47140725E+03</pdfrwt>
<totfact> 0.20599992E+02</totfact>
</mgrwt>
</event>
<event>
 4    1  0.5985962E-005  0.7613854E+03  0.7818608E-02  0.9617656E-01
         -2   -1    0    0    0  501 -0.00000000000E+00  0.00000000000E+00  0.21282281540E+03  0.21282281542E+03  0.25500000000E-02 0. -1.
          2   -1    0    0  501    0  0.00000000000E+00 -0.00000000000E+00 -0.68097455305E+03  0.68097455306E+03  0.25500000000E-02 0.  1.
    5000001    1    1    2    0    0  0.14922527344E+03 -0.18988510208E+03  0.31700896666E+02  0.30769056059E+03  0.18800000000E+03 0.  0.
   -5000001    1    1    2    0    0 -0.14922527344E+03  0.18988510208E+03 -0.49985263432E+03  0.58610680789E+03  0.18800000000E+03 0.  0.
<mgrwt>
<rscale>  0 0.76138537E+03</rscale>
<asrwt>0</asrwt>
<pdfrwt beam="1">  1        2 0.97282078E-01 0.76138537E+03</pdfrwt>
<pdfrwt beam="2">  1       -2 0.30403260E-01 0.76138537E+03</pdfrwt>
<totfact> 0.46733604E+02</totfact>
</mgrwt>
</event>
<event>
 4    1  0.5985962E-005  0.6591735E+03  0.7818608E-02  0.9789716E-01
         -2   -1    0    0    0  501 -0.00000000000E+00  0.00000000000E+00  0.41417999407E+02  0.41417999486E+02  0.25500000000E-02 0. -1.
          2   -1    0    0  501    0  0.00000000000E+00 -0.00000000000E+00 -0.26227106251E+04  0.26227106251E+04  0.25500000000E-02 0.  1.
    5000001    1    1    2    0    0 -0.22777751029E+02 -0.89346912233E+02 -0.26196294267E+03  0.33536588974E+03  0.18800000000E+03 0.  0.
   -5000001    1    1    2    0    0  0.22777751029E+02  0.89346912233E+02 -0.23193296830E+04  0.23287627348E+04  0.18800000000E+03 0.  0.
<mgrwt>
<rscale>  0 0.65917350E+03</rscale>
<asrwt>0</asrwt>
<pdfrwt beam="1">  1        2 0.37467284E+00 0.65917350E+03</pdfrwt>
<pdfrwt beam="2">  1       -2 0.59168587E-02 0.65917350E+03</pdfrwt>
<totfact> 0.62832125E+02</totfact>
</mgrwt>
</event>
<event>
 4    1  0.5985962E-005  0.6013499E+03  0.7818608E-02  0.9902609E-01
         -2   -1    0    0    0  501 -0.00000000000E+00  0.00000000000E+00  0.18445429012E+03  0.18445429014E+03  0.25500000000E-02 0. -1.
          2   -1    0    0  501    0  0.00000000000E+00 -0.00000000000E+00 -0.49012373619E+03  0.49012373619E+03  0.25500000000E-02 0.  1.
    5000001    1    1    2    0    0 -0.12131098710E+03 -0.11512796724E+03 -0.33746989284E+03  0.42095217425E+03  0.18800000000E+03 0.  0.
   -5000001    1    1    2    0    0  0.12131098710E+03  0.11512796724E+03  0.31800446772E+02  0.25362585209E+03  0.18800000000E+03 0.  0.
<mgrwt>
<rscale>  0 0.60134990E+03</rscale>
<asrwt>0</asrwt>
<pdfrwt beam="1">  1        2 0.70017676E-01 0.60134990E+03</pdfrwt>
<pdfrwt beam="2">  1       -2 0.26350613E-01 0.60134990E+03</pdfrwt>
<totfact> 0.89724838E+02</totfact>
</mgrwt>
</event>
<event>
 4    1  0.5985962E-005  0.6588771E+03  0.7818608E-02  0.9790263E-01
          2   -1    0    0  501    0  0.00000000000E+00  0.00000000000E+00  0.90688441784E+03  0.90688441784E+03  0.25500000000E-02 0.  1.
         -2   -1    0    0    0  501 -0.00000000000E+00 -0.00000000000E+00 -0.11967320417E+03  0.11967320420E+03  0.25500000000E-02 0. -1.
    5000001    1    1    2    0    0 -0.19680222890E+03 -0.22039713076E+02  0.10644845654E+03  0.29307360876E+03  0.18800000000E+03 0.  0.
   -5000001    1    1    2    0    0  0.19680222890E+03  0.22039713076E+02  0.68076275713E+03  0.73348401328E+03  0.18800000000E+03 0.  0.
<mgrwt>
<rscale>  0 0.65887712E+03</rscale>
<asrwt>0</asrwt>
<pdfrwt beam="1">  1        2 0.12955492E+00 0.65887712E+03</pdfrwt>
<pdfrwt beam="2">  1       -2 0.17096172E-01 0.65887712E+03</pdfrwt>
<totfact> 0.90533314E+02</totfact>
</mgrwt>
</event>
<event>
 4    1  0.5985962E-005  0.5561503E+03  0.7818608E-02  0.1000080E+00
          2   -1    0    0  501    0  0.00000000000E+00  0.00000000000E+00  0.18783595998E+03  0.18783596000E+03  0.25500000000E-02 0.  1.
         -2   -1    0    0    0  501 -0.00000000000E+00 -0.00000000000E+00 -0.41166655726E+03  0.41166655727E+03  0.25500000000E-02 0. -1.
    5000001    1    1    2    0    0 -0.36229335008E+02 -0.11609436116E+03  0.65836489482E+02  0.23338575097E+03  0.18800000000E+03 0.  0.
   -5000001    1    1    2    0    0  0.36229335008E+02  0.11609436116E+03 -0.28966708676E+03  0.36611676630E+03  0.18800000000E+03 0.  0.
<mgrwt>
<rscale>  0 0.55615028E+03</rscale>
<asrwt>0</asrwt>
<pdfrwt beam="1">  1        2 0.26833709E-01 0.55615028E+03</pdfrwt>
<pdfrwt beam="2">  1       -2 0.58809508E-01 0.55615028E+03</pdfrwt>
<totfact> 0.55014443E+02</totfact>
</mgrwt>
</event>
<event>
 4    1  0.5985962E-005  0.5821066E+03  0.7818608E-02  0.9943241E-01
          2   -1    0    0  501    0  0.00000000000E+00  0.00000000000E+00  0.14737184371E+04  0.14737184371E+04  0.25500000000E-02 0.  1.
         -2   -1    0    0    0  501 -0.00000000000E+00 -0.00000000000E+00 -0.57481815989E+02  0.57481816045E+02  0.25500000000E-02 0. -1.
    5000001    1    1    2    0    0  0.60987525832E+02  0.16161304722E+03  0.34051626892E+03  0.42559791439E+03  0.18800000000E+03 0.  0.
   -5000001    1    1    2    0    0 -0.60987525832E+02 -0.16161304722E+03  0.10757203522E+04  0.11056023388E+04  0.18800000000E+03 0.  0.
<mgrwt>
<rscale>  0 0.58210656E+03</rscale>
<asrwt>0</asrwt>
<pdfrwt beam="1">  1        2 0.21053117E+00 0.58210656E+03</pdfrwt>
<pdfrwt beam="2">  1       -2 0.82116895E-02 0.58210656E+03</pdfrwt>
<totfact> 0.14446983E+03</totfact>
</mgrwt>
</event>
<event>
 4    1  0.5985962E-005  0.4146413E+03  0.7818608E-02  0.1038825E+00
         -2   -1    0    0    0  501 -0.00000000000E+00  0.00000000000E+00  0.33368654323E+02  0.33368654421E+02  0.25500000000E-02 0. -1.
          2   -1    0    0  501    0  0.00000000000E+00 -0.00000000000E+00 -0.12880904418E+04  0.12880904418E+04  0.25500000000E-02 0.  1.
    5000001    1    1    2    0    0 -0.34301787932E+02 -0.72163270639E+02 -0.51451726108E+03  0.55358482840E+03  0.18800000000E+03 0.  0.
   -5000001    1    1    2    0    0  0.34301787932E+02  0.72163270639E+02 -0.74020452636E+03  0.76787426778E+03  0.18800000000E+03 0.  0.
<mgrwt>
<rscale>  0 0.41464127E+03</rscale>
<asrwt>0</asrwt>
<pdfrwt beam="1">  1        2 0.18401289E+00 0.41464127E+03</pdfrwt>
<pdfrwt beam="2">  1       -2 0.47669514E-02 0.41464127E+03</pdfrwt>
<totfact> 0.42490758E+03</totfact>
</mgrwt>
</event>
<event>
 4    1  0.5985962E-005  0.7041535E+03  0.7818608E-02  0.9710155E-01
         -2   -1    0    0    0  501 -0.00000000000E+00  0.00000000000E+00  0.86084733737E+02  0.86084733774E+02  0.25500000000E-02 0. -1.
          2   -1    0    0  501    0  0.00000000000E+00 -0.00000000000E+00 -0.14399536217E+04  0.14399536217E+04  0.25500000000E-02 0.  1.
    5000001    1    1    2    0    0  0.20036902006E+03 -0.18983273022E+03 -0.91855309461E+03  0.97737812400E+03  0.18800000000E+03 0.  0.
   -5000001    1    1    2    0    0 -0.20036902006E+03  0.18983273022E+03 -0.43531579339E+03  0.54866023151E+03  0.18800000000E+03 0.  0.
<mgrwt>
<rscale>  0 0.70415346E+03</rscale>
<asrwt>0</asrwt>
<pdfrwt beam="1">  1        2 0.20570764E+00 0.70415346E+03</pdfrwt>
<pdfrwt beam="2">  1       -2 0.12297820E-01 0.70415346E+03</pdfrwt>
<totfact> 0.77732044E+02</totfact>
</mgrwt>
</event>
<event>
 4    1  0.5985962E-005  0.4476417E+03  0.7818608E-02  0.1028428E+00
          2   -1    0    0  501    0  0.00000000000E+00  0.00000000000E+00  0.66357368240E+03  0.66357368241E+03  0.25500000000E-02 0.  1.
         -2   -1    0    0    0  501 -0.00000000000E+00 -0.00000000000E+00 -0.75493905395E+02  0.75493905438E+02  0.25500000000E-02 0. -1.
    5000001    1    1    2    0    0 -0.41957973218E+02  0.73446915514E+02  0.43794305605E+03  0.48403826425E+03  0.18800000000E+03 0.  0.
   -5000001    1    1    2    0    0  0.41957973218E+02 -0.73446915514E+02  0.15013672096E+03  0.25502932360E+03  0.18800000000E+03 0.  0.
<mgrwt>
<rscale>  0 0.44764168E+03</rscale>
<asrwt>0</asrwt>
<pdfrwt beam="1">  1        2 0.94796248E-01 0.44764168E+03</pdfrwt>
<pdfrwt beam="2">  1       -2 0.10784843E-01 0.44764168E+03</pdfrwt>
<totfact> 0.28941506E+03</totfact>
</mgrwt>
</event>
<event>
 4    1  0.5985962E-005  0.5352245E+03  0.7818608E-02  0.1004973E+00
         -2   -1    0    0    0  501 -0.00000000000E+00  0.00000000000E+00  0.60356441314E+03  0.60356441314E+03  0.25500000000E-02 0. -1.
          2   -1    0    0  501    0  0.00000000000E+00 -0.00000000000E+00 -0.11865562521E+03  0.11865562523E+03  0.25500000000E-02 0.  1.
    5000001    1    1    2    0    0  0.80165523023E+02 -0.10495314488E+03  0.42762245957E+03  0.48543448747E+03  0.18800000000E+03 0.  0.
   -5000001    1    1    2    0    0 -0.80165523023E+02  0.10495314488E+03  0.57286328367E+02  0.23678555091E+03  0.18800000000E+03 0.  0.
<mgrwt>
<rscale>  0 0.53522449E+03</rscale>
<asrwt>0</asrwt>
<pdfrwt beam="1">  1        2 0.16950804E-01 0.53522449E+03</pdfrwt>
<pdfrwt beam="2">  1       -2 0.86223488E-01 0.53522449E+03</pdfrwt>
<totfact> 0.40745608E+02</totfact>
</mgrwt>
</event>
<event>
 4    1  0.5985962E-005  0.1164874E+04  0.7818608E-02  0.9144171E-01
         -2   -1    0    0    0  501 -0.00000000000E+00  0.00000000000E+00  0.43465445983E+03  0.43465445984E+03  0.25500000000E-02 0. -1.
          2   -1    0    0  501    0  0.00000000000E+00 -0.00000000000E+00 -0.78046509284E+03  0.78046509284E+03  0.25500000000E-02 0.  1.
    5000001    1    1    2    0    0  0.25406011956E+03 -0.48561799034E+03 -0.23476991799E+03  0.62516581103E+03  0.18800000000E+03 0.  0.
   -5000001    1    1    2    0    0 -0.25406011956E+03  0.48561799034E+03 -0.11104071501E+03  0.58995374165E+03  0.18800000000E+03 0.  0.
<mgrwt>
<rscale>  0 0.11648736E+04</rscale>
<asrwt>0</asrwt>
<pdfrwt beam="1">  1        2 0.11149501E+00 0.11648736E+04</pdfrwt>
<pdfrwt beam="2">  1       -2 0.62093495E-01 0.11648736E+04</pdfrwt>
<totfact> 0.93522383E+01</totfact>
</mgrwt>
</event>
<event>
 4    1  0.5985962E-005  0.8606327E+03  0.7818608E-02  0.9476176E-01
         -2   -1    0    0    0  501 -0.00000000000E+00  0.00000000000E+00  0.33304733741E+03  0.33304733742E+03  0.25500000000E-02 0. -1.
          2   -1    0    0  501    0  0.00000000000E+00 -0.00000000000E+00 -0.55599346853E+03  0.55599346854E+03  0.25500000000E-02 0.  1.
    5000001    1    1    2    0    0 -0.99727771232E+02  0.34255201960E+03 -0.26656417223E+03  0.48341283848E+03  0.18800000000E+03 0.  0.
   -5000001    1    1    2    0    0  0.99727771232E+02 -0.34255201960E+03  0.43618041108E+02  0.40562796747E+03  0.18800000000E+03 0.  0.
<mgrwt>
<rscale>  0 0.86063266E+03</rscale>
<asrwt>0</asrwt>
<pdfrwt beam="1">  1        2 0.79427638E-01 0.86063266E+03</pdfrwt>
<pdfrwt beam="2">  1       -2 0.47578191E-01 0.86063266E+03</pdfrwt>
<totfact> 0.24951872E+02</totfact>
</mgrwt>
</event>
<event>
 4    1  0.5985962E-005  0.7157610E+03  0.7818608E-02  0.9690652E-01
          2   -1    0    0  501    0  0.00000000000E+00  0.00000000000E+00  0.59106859048E+03  0.59106859049E+03  0.25500000000E-02 0.  1.
         -2   -1    0    0    0  501 -0.00000000000E+00 -0.00000000000E+00 -0.21668965999E+03  0.21668966001E+03  0.25500000000E-02 0. -1.
    5000001    1    1    2    0    0  0.20505557331E+03  0.21542967637E+03  0.26099156105E+03  0.43808484172E+03  0.18800000000E+03 0.  0.
   -5000001    1    1    2    0    0 -0.20505557331E+03 -0.21542967637E+03  0.11338736944E+03  0.36967340877E+03  0.18800000000E+03 0.  0.
<mgrwt>
<rscale>  0 0.71576100E+03</rscale>
<asrwt>0</asrwt>
<pdfrwt beam="1">  1        2 0.84438369E-01 0.71576100E+03</pdfrwt>
<pdfrwt beam="2">  1       -2 0.30955666E-01 0.71576100E+03</pdfrwt>
<totfact> 0.53638596E+02</totfact>
</mgrwt>
</event>
<event>
 4    1  0.5985962E-005  0.5222292E+03  0.7818608E-02  0.1008134E+00
          2   -1    0    0  501    0  0.00000000000E+00  0.00000000000E+00  0.45655813267E+03  0.45655813268E+03  0.25500000000E-02 0.  1.
         -2   -1    0    0    0  501 -0.00000000000E+00 -0.00000000000E+00 -0.14933658481E+03  0.14933658483E+03  0.25500000000E-02 0. -1.
    5000001    1    1    2    0    0 -0.11048049300E+03  0.13969448137E+03  0.11484618280E+03  0.28329160447E+03  0.18800000000E+03 0.  0.
   -5000001    1    1    2    0    0  0.11048049300E+03 -0.13969448137E+03  0.19237536506E+03  0.32260311304E+03  0.18800000000E+03 0.  0.
<mgrwt>
<rscale>  0 0.52222919E+03</rscale>
<asrwt>0</asrwt>
<pdfrwt beam="1">  1        2 0.65222591E-01 0.52222919E+03</pdfrwt>
<pdfrwt beam="2">  1       -2 0.21333798E-01 0.52222919E+03</pdfrwt>
<totfact> 0.14160128E+03</totfact>
</mgrwt>
</event>
<event>
 4    1  0.5985962E-005  0.8975533E+03  0.7818608E-02  0.9428645E-01
          2   -1    0    0  501    0  0.00000000000E+00  0.00000000000E+00  0.14372483311E+04  0.14372483311E+04  0.25500000000E-02 0.  1.
         -2   -1    0    0    0  501 -0.00000000000E+00 -0.00000000000E+00 -0.14012921952E+03  0.14012921955E+03  0.25500000000E-02 0. -1.
    5000001    1    1    2    0    0  0.35890518595E+03  0.18368867368E+03  0.75255996762E+03  0.87421105358E+03  0.18800000000E+03 0.  0.
   -5000001    1    1    2    0    0 -0.35890518595E+03 -0.18368867368E+03  0.54455914397E+03  0.70316649708E+03  0.18800000000E+03 0.  0.
<mgrwt>
<rscale>  0 0.89755331E+03</rscale>
<asrwt>0</asrwt>
<pdfrwt beam="1">  1        2 0.20532120E+00 0.89755331E+03</pdfrwt>
<pdfrwt beam="2">  1       -2 0.20018459E-01 0.89755331E+03</pdfrwt>
<totfact> 0.33712608E+02</totfact>
</mgrwt>
</event>
<event>
 4    1  0.5985962E-005  0.8645471E+03  0.7818608E-02  0.9471018E-01
          2   -1    0    0  501    0  0.00000000000E+00  0.00000000000E+00  0.14326264133E+04  0.14326264133E+04  0.25500000000E-02 0.  1.
         -2   -1    0    0    0  501 -0.00000000000E+00 -0.00000000000E+00 -0.13043205372E+03  0.13043205375E+03  0.25500000000E-02 0. -1.
    5000001    1    1    2    0    0  0.13152125457E+03  0.16964499283E+02  0.13127448207E+04  0.13327522646E+04  0.18800000000E+03 0.  0.
   -5000001    1    1    2    0    0 -0.13152125457E+03 -0.16964499283E+02 -0.10550461108E+02  0.23030620241E+03  0.18800000000E+03 0.  0.
<mgrwt>
<rscale>  0 0.86454706E+03</rscale>
<asrwt>0</asrwt>
<pdfrwt beam="1">  1        2 0.20466093E+00 0.86454706E+03</pdfrwt>
<pdfrwt beam="2">  1       -2 0.18633150E-01 0.86454706E+03</pdfrwt>
<totfact> 0.38493071E+02</totfact>
</mgrwt>
</event>
<event>
 4    1  0.5985962E-005  0.4927788E+03  0.7818608E-02  0.1015681E+00
          2   -1    0    0  501    0  0.00000000000E+00  0.00000000000E+00  0.75167843630E+03  0.75167843631E+03  0.25500000000E-02 0.  1.
         -2   -1    0    0    0  501 -0.00000000000E+00 -0.00000000000E+00 -0.80762894081E+02  0.80762894121E+02  0.25500000000E-02 0. -1.
    5000001    1    1    2    0    0 -0.10858506413E+03 -0.43287233343E+02  0.15274024459E+03  0.26895740004E+03  0.18800000000E+03 0.  0.
   -5000001    1    1    2    0    0  0.10858506413E+03  0.43287233343E+02  0.51817529763E+03  0.56348393038E+03  0.18800000000E+03 0.  0.
<mgrwt>
<rscale>  0 0.49277876E+03</rscale>
<asrwt>0</asrwt>
<pdfrwt beam="1">  1        2 0.10738264E+00 0.49277876E+03</pdfrwt>
<pdfrwt beam="2">  1       -2 0.11537555E-01 0.49277876E+03</pdfrwt>
<totfact> 0.22299233E+03</totfact>
</mgrwt>
</event>
<event>
 4    1  0.5985962E-005  0.5221555E+03  0.7818608E-02  0.1008153E+00
         -2   -1    0    0    0  501 -0.00000000000E+00  0.00000000000E+00  0.37841374995E+02  0.37841375081E+02  0.25500000000E-02 0. -1.
          2   -1    0    0  501    0  0.00000000000E+00 -0.00000000000E+00 -0.18012448711E+04  0.18012448711E+04  0.25500000000E-02 0.  1.
    5000001    1    1    2    0    0 -0.13097739048E+03  0.10213269630E+03 -0.62695304087E+03  0.67527792791E+03  0.18800000000E+03 0.  0.
   -5000001    1    1    2    0    0  0.13097739048E+03 -0.10213269630E+03 -0.11364504552E+04  0.11638083183E+04  0.18800000000E+03 0.  0.
<mgrwt>
<rscale>  0 0.52215547E+03</rscale>
<asrwt>0</asrwt>
<pdfrwt beam="1">  1        2 0.25732064E+00 0.52215547E+03</pdfrwt>
<pdfrwt beam="2">  1       -2 0.54059118E-02 0.52215547E+03</pdfrwt>
<totfact> 0.19007348E+03</totfact>
</mgrwt>
</event>
<event>
 4    1  0.5985962E-005  0.5830100E+03  0.7818608E-02  0.9941296E-01
          2   -1    0    0  501    0  0.00000000000E+00  0.00000000000E+00  0.22088044349E+04  0.22088044349E+04  0.25500000000E-02 0.  1.
         -2   -1    0    0    0  501 -0.00000000000E+00 -0.00000000000E+00 -0.38471113007E+02  0.38471113092E+02  0.25500000000E-02 0. -1.
    5000001    1    1    2    0    0 -0.16897758632E+02 -0.21672512649E+03  0.12730506921E+04  0.13050890312E+04  0.18800000000E+03 0.  0.
   -5000001    1    1    2    0    0  0.16897758632E+02  0.21672512649E+03  0.89728262978E+03  0.94218651678E+03  0.18800000000E+03 0.  0.
<mgrwt>
<rscale>  0 0.58301000E+03</rscale>
<asrwt>0</asrwt>
<pdfrwt beam="1">  1        2 0.31554353E+00 0.58301000E+03</pdfrwt>
<pdfrwt beam="2">  1       -2 0.54958726E-02 0.58301000E+03</pdfrwt>
<totfact> 0.11537100E+03</totfact>
</mgrwt>
</event>
<event>
 4    1  0.5985962E-005  0.5974067E+03  0.7818608E-02  0.9910801E-01
         -2   -1    0    0    0  501 -0.00000000000E+00  0.00000000000E+00  0.12822671636E+03  0.12822671639E+03  0.25500000000E-02 0. -1.
          2   -1    0    0  501    0  0.00000000000E+00 -0.00000000000E+00 -0.69582759462E+03  0.69582759462E+03  0.25500000000E-02 0.  1.
    5000001    1    1    2    0    0 -0.72901785028E+02 -0.21811026663E+03 -0.32726595547E+03  0.44196579537E+03  0.18800000000E+03 0.  0.
   -5000001    1    1    2    0    0  0.72901785028E+02  0.21811026663E+03 -0.24033492279E+03  0.38208851564E+03  0.18800000000E+03 0.  0.
<mgrwt>
<rscale>  0 0.59740669E+03</rscale>
<asrwt>0</asrwt>
<pdfrwt beam="1">  1        2 0.99403940E-01 0.59740669E+03</pdfrwt>
<pdfrwt beam="2">  1       -2 0.18318103E-01 0.59740669E+03</pdfrwt>
<totfact> 0.11299092E+03</totfact>
</mgrwt>
</event>
<event>
 4    1  0.5985962E-005  0.4629098E+03  0.7818608E-02  0.1023941E+00
          2   -1    0    0  501    0  0.00000000000E+00  0.00000000000E+00  0.19074994833E+03  0.19074994835E+03  0.25500000000E-02 0.  1.
         -2   -1    0    0    0  501 -0.00000000000E+00 -0.00000000000E+00 -0.28084608474E+03  0.28084608475E+03  0.25500000000E-02 0. -1.
    5000001    1    1    2    0    0  0.99253407154E+02 -0.67279285902E+02 -0.10825773839E+03  0.24787391768E+03  0.18800000000E+03 0.  0.
   -5000001    1    1    2    0    0 -0.99253407154E+02  0.67279285902E+02  0.18161601975E+02  0.22372211542E+03  0.18800000000E+03 0.  0.
<mgrwt>
<rscale>  0 0.46290982E+03</rscale>
<asrwt>0</asrwt>
<pdfrwt beam="1">  1        2 0.27249993E-01 0.46290982E+03</pdfrwt>
<pdfrwt beam="2">  1       -2 0.40120869E-01 0.46290982E+03</pdfrwt>
<totfact> 0.11661088E+03</totfact>
</mgrwt>
</event>
<event>
 4    1  0.5985962E-005  0.7638230E+03  0.7818608E-02  0.9613910E-01
          2   -1    0    0  501    0  0.00000000000E+00  0.00000000000E+00  0.31769581955E+04  0.31769581955E+04  0.25500000000E-02 0.  1.
         -2   -1    0    0    0  501 -0.00000000000E+00 -0.00000000000E+00 -0.45910700256E+02  0.45910700326E+02  0.25500000000E-02 0. -1.
    5000001    1    1    2    0    0 -0.10517056796E+03 -0.25416963080E+03  0.77784863079E+03  0.84620065116E+03  0.18800000000E+03 0.  0.
   -5000001    1    1    2    0    0  0.10517056796E+03  0.25416963080E+03  0.23531988645E+04  0.23766682447E+04  0.18800000000E+03 0.  0.
<mgrwt>
<rscale>  0 0.76382295E+03</rscale>
<asrwt>0</asrwt>
<pdfrwt beam="1">  1        2 0.45385112E+00 0.76382295E+03</pdfrwt>
<pdfrwt beam="2">  1       -2 0.65586722E-02 0.76382295E+03</pdfrwt>
<totfact> 0.26560735E+02</totfact>
</mgrwt>
</event>
<event>
 4    1  0.5985962E-005  0.5230110E+03  0.7818608E-02  0.1007941E+00
          2   -1    0    0  501    0  0.00000000000E+00  0.00000000000E+00  0.29311874893E+04  0.29311874893E+04  0.25500000000E-02 0.  1.
         -2   -1    0    0    0  501 -0.00000000000E+00 -0.00000000000E+00 -0.23330177342E+02  0.23330177482E+02  0.25500000000E-02 0. -1.
    5000001    1    1    2    0    0  0.94046088593E+02  0.13352543762E+03  0.19047010900E+04  0.19209122707E+04  0.18800000000E+03 0.  0.
   -5000001    1    1    2    0    0 -0.94046088593E+02 -0.13352543762E+03  0.10031562219E+04  0.10336053961E+04  0.18800000000E+03 0.  0.
<mgrwt>
<rscale>  0 0.52301099E+03</rscale>
<asrwt>0</asrwt>
<pdfrwt beam="1">  1        2 0.41874097E+00 0.52301099E+03</pdfrwt>
<pdfrwt beam="2">  1       -2 0.33328833E-02 0.52301099E+03</pdfrwt>
<totfact> 0.10591902E+03</totfact>
</mgrwt>
</event>
<event>
 4    1  0.5985962E-005  0.7044464E+03  0.7818608E-02  0.9709658E-01
          2   -1    0    0  501    0  0.00000000000E+00  0.00000000000E+00  0.11411329204E+04  0.11411329204E+04  0.25500000000E-02 0.  1.
         -2   -1    0    0    0  501 -0.00000000000E+00 -0.00000000000E+00 -0.10871755026E+03  0.10871755029E+03  0.25500000000E-02 0. -1.
    5000001    1    1    2    0    0 -0.18212374395E+03 -0.23310765692E+03  0.57789730553E+03  0.67588278094E+03  0.18800000000E+03 0.  0.
   -5000001    1    1    2    0    0  0.18212374395E+03  0.23310765692E+03  0.45451806463E+03  0.57396768977E+03  0.18800000000E+03 0.  0.
<mgrwt>
<rscale>  0 0.70444638E+03</rscale>
<asrwt>0</asrwt>
<pdfrwt beam="1">  1        2 0.16301898E+00 0.70444638E+03</pdfrwt>
<pdfrwt beam="2">  1       -2 0.15531080E-01 0.70444638E+03</pdfrwt>
<totfact> 0.76756035E+02</totfact>
</mgrwt>
</event>
<event>
 4    1  0.5985962E-005  0.5540274E+03  0.7818608E-02  0.1000566E+00
         -2   -1    0    0    0  501 -0.00000000000E+00  0.00000000000E+00  0.34904442187E+02  0.34904442280E+02  0.25500000000E-02 0. -1.
          2   -1    0    0  501    0  0.00000000000E+00 -0.00000000000E+00 -0.21984766610E+04  0.21984766610E+04  0.25500000000E-02 0.  1.
    5000001    1    1    2    0    0  0.15584157313E+03  0.13078942310E+03 -0.10832535282E+04  0.11181121033E+04  0.18800000000E+03 0.  0.
   -5000001    1    1    2    0    0 -0.15584157313E+03 -0.13078942310E+03 -0.10803186906E+04  0.11152690000E+04  0.18800000000E+03 0.  0.
<mgrwt>
<rscale>  0 0.55402744E+03</rscale>
<asrwt>0</asrwt>
<pdfrwt beam="1">  1        2 0.31406801E+00 0.55402744E+03</pdfrwt>
<pdfrwt beam="2">  1       -2 0.49863503E-02 0.55402744E+03</pdfrwt>
<totfact> 0.13603995E+03</totfact>
</mgrwt>
</event>
<event>
 4    1  0.5985962E-005  0.4487386E+03  0.7818608E-02  0.1028099E+00
          2   -1    0    0  501    0  0.00000000000E+00  0.00000000000E+00  0.52194581696E+02  0.52194581758E+02  0.25500000000E-02 0.  1.
         -2   -1    0    0    0  501 -0.00000000000E+00 -0.00000000000E+00 -0.96449846107E+03  0.96449846107E+03  0.25500000000E-02 0. -1.
    5000001    1    1    2    0    0 -0.97095634667E+02 -0.49381860110E+02 -0.58293757292E+03  0.62211441416E+03  0.18800000000E+03 0.  0.
   -5000001    1    1    2    0    0  0.97095634667E+02  0.49381860110E+02 -0.32936630645E+03  0.39457862867E+03  0.18800000000E+03 0.  0.
<mgrwt>
<rscale>  0 0.44873865E+03</rscale>
<asrwt>0</asrwt>
<pdfrwt beam="1">  1        2 0.74563694E-02 0.44873865E+03</pdfrwt>
<pdfrwt beam="2">  1       -2 0.13778548E+00 0.44873865E+03</pdfrwt>
<totfact> 0.36842916E+02</totfact>
</mgrwt>
</event>
<event>
 4    1  0.5985962E-005  0.5583588E+03  0.7818608E-02  0.9995775E-01
          2   -1    0    0  501    0  0.00000000000E+00  0.00000000000E+00  0.17831115873E+04  0.17831115873E+04  0.25500000000E-02 0.  1.
         -2   -1    0    0    0  501 -0.00000000000E+00 -0.00000000000E+00 -0.43710746297E+02  0.43710746372E+02  0.25500000000E-02 0. -1.
    5000001    1    1    2    0    0 -0.18850626772E+03 -0.65270249072E+02  0.10428979928E+04  0.10783204726E+04  0.18800000000E+03 0.  0.
   -5000001    1    1    2    0    0  0.18850626772E+03  0.65270249072E+02  0.69650284826E+03  0.74850186107E+03  0.18800000000E+03 0.  0.
<mgrwt>
<rscale>  0 0.55835880E+03</rscale>
<asrwt>0</asrwt>
<pdfrwt beam="1">  1        2 0.25473021E+00 0.55835880E+03</pdfrwt>
<pdfrwt beam="2">  1       -2 0.62443929E-02 0.55835880E+03</pdfrwt>
<totfact> 0.15480210E+03</totfact>
</mgrwt>
</event>
<event>
 4    1  0.5985962E-005  0.4752923E+03  0.7818608E-02  0.1020437E+00
          2   -1    0    0  501    0  0.00000000000E+00  0.00000000000E+00  0.34770551644E+04  0.34770551644E+04  0.25500000000E-02 0.  1.
         -2   -1    0    0    0  501 -0.00000000000E+00 -0.00000000000E+00 -0.16242392720E+02  0.16242392921E+02  0.25500000000E-02 0. -1.
    5000001    1    1    2    0    0 -0.85657372278E+02 -0.11735330932E+03  0.17654327373E+04  0.17813494140E+04  0.18800000000E+03 0.  0.
   -5000001    1    1    2    0    0  0.85657372278E+02  0.11735330932E+03  0.16953800344E+04  0.17119481434E+04  0.18800000000E+03 0.  0.
<mgrwt>
<rscale>  0 0.47529231E+03</rscale>
<asrwt>0</asrwt>
<pdfrwt beam="1">  1        2 0.49672204E+00 0.47529231E+03</pdfrwt>
<pdfrwt beam="2">  1       -2 0.23203424E-02 0.47529231E+03</pdfrwt>
<totfact> 0.91003621E+02</totfact>
</mgrwt>
</event>
<event>
 4    1  0.5985962E-005  0.8631692E+03  0.7818608E-02  0.9472830E-01
         -2   -1    0    0    0  501 -0.00000000000E+00  0.00000000000E+00  0.30177283835E+03  0.30177283836E+03  0.25500000000E-02 0. -1.
          2   -1    0    0  501    0  0.00000000000E+00 -0.00000000000E+00 -0.61723671433E+03  0.61723671434E+03  0.25500000000E-02 0.  1.
    5000001    1    1    2    0    0  0.34112363497E+03  0.12019745360E+02  0.39771960335E+02  0.39170858740E+03  0.18800000000E+03 0.  0.
   -5000001    1    1    2    0    0 -0.34112363497E+03 -0.12019745360E+02 -0.35523583631E+03  0.52730096530E+03  0.18800000000E+03 0.  0.
<mgrwt>
<rscale>  0 0.86316922E+03</rscale>
<asrwt>0</asrwt>
<pdfrwt beam="1">  1        2 0.88176673E-01 0.86316922E+03</pdfrwt>
<pdfrwt beam="2">  1       -2 0.43110405E-01 0.86316922E+03</pdfrwt>
<totfact> 0.26850458E+02</totfact>
</mgrwt>
</event>
<event>
 4    1  0.5985962E-005  0.4143519E+03  0.7818608E-02  0.1038920E+00
         -2   -1    0    0    0  501 -0.00000000000E+00  0.00000000000E+00  0.10797220810E+03  0.10797220813E+03  0.25500000000E-02 0. -1.
          2   -1    0    0  501    0  0.00000000000E+00 -0.00000000000E+00 -0.39752696302E+03  0.39752696303E+03  0.25500000000E-02 0.  1.
    5000001    1    1    2    0    0  0.64751790121E+02 -0.56104567760E+02 -0.16357241358E+03  0.26351556184E+03  0.18800000000E+03 0.  0.
   -5000001    1    1    2    0    0 -0.64751790121E+02  0.56104567760E+02 -0.12598234135E+03  0.24198360932E+03  0.18800000000E+03 0.  0.
<mgrwt>
<rscale>  0 0.41435185E+03</rscale>
<asrwt>0</asrwt>
<pdfrwt beam="1">  1        2 0.56789565E-01 0.41435185E+03</pdfrwt>
<pdfrwt beam="2">  1       -2 0.15424601E-01 0.41435185E+03</pdfrwt>
<totfact> 0.28700764E+03</totfact>
</mgrwt>
</event>
<event>
 4    1  0.5985962E-005  0.4945432E+03  0.7818608E-02  0.1015213E+00
          2   -1    0    0  501    0  0.00000000000E+00  0.00000000000E+00  0.14478676450E+04  0.14478676450E+04  0.25500000000E-02 0.  1.
         -2   -1    0    0    0  501 -0.00000000000E+00 -0.00000000000E+00 -0.42229855149E+02  0.42229855226E+02  0.25500000000E-02 0. -1.
    5000001    1    1    2    0    0 -0.12379872106E+03 -0.91989775989E+02  0.56769991308E+03  0.61758840139E+03  0.18800000000E+03 0.  0.
   -5000001    1    1    2    0    0  0.12379872106E+03  0.91989775989E+02  0.83793787673E+03  0.87250909880E+03  0.18800000000E+03 0.  0.
<mgrwt>
<rscale>  0 0.49454319E+03</rscale>
<asrwt>0</asrwt>
<pdfrwt beam="1">  1        2 0.20683816E+00 0.49454319E+03</pdfrwt>
<pdfrwt beam="2">  1       -2 0.60328387E-02 0.49454319E+03</pdfrwt>
<totfact> 0.24291371E+03</totfact>
</mgrwt>
</event>
<event>
 4    1  0.5985962E-005  0.1525855E+04  0.7818608E-02  0.8867439E-01
         -2   -1    0    0    0  501 -0.00000000000E+00  0.00000000000E+00  0.25191136270E+03  0.25191136271E+03  0.25500000000E-02 0. -1.
          2   -1    0    0  501    0  0.00000000000E+00 -0.00000000000E+00 -0.23105694939E+04  0.23105694939E+04  0.25500000000E-02 0.  1.
    5000001    1    1    2    0    0  0.13199867760E+03  0.71229827405E+03 -0.12779797050E+04  0.14810025687E+04  0.18800000000E+03 0.  0.
   -5000001    1    1    2    0    0 -0.13199867760E+03 -0.71229827405E+03 -0.78067842619E+03  0.10814782879E+04  0.18800000000E+03 0.  0.
<mgrwt>
<rscale>  0 0.15258554E+04</rscale>
<asrwt>0</asrwt>
<pdfrwt beam="1">  1        2 0.33008134E+00 0.15258554E+04</pdfrwt>
<pdfrwt beam="2">  1       -2 0.35987339E-01 0.15258554E+04</pdfrwt>
<totfact> 0.38891475E+01</totfact>
</mgrwt>
</event>
<event>
 4    1  0.5985962E-005  0.7898825E+03  0.7818608E-02  0.9574778E-01
         -2   -1    0    0    0  501 -0.00000000000E+00  0.00000000000E+00  0.37658179812E+03  0.37658179812E+03  0.25500000000E-02 0. -1.
          2   -1    0    0  501    0  0.00000000000E+00 -0.00000000000E+00 -0.41419575874E+03  0.41419575875E+03  0.25500000000E-02 0.  1.
    5000001    1    1    2    0    0 -0.24599073016E+03 -0.24236007879E+03 -0.56061195663E+02  0.39716080469E+03  0.18800000000E+03 0.  0.
   -5000001    1    1    2    0    0  0.24599073016E+03  0.24236007879E+03  0.18447235042E+02  0.39361675218E+03  0.18800000000E+03 0.  0.
<mgrwt>
<rscale>  0 0.78988248E+03</rscale>
<asrwt>0</asrwt>
<pdfrwt beam="1">  1        2 0.59170823E-01 0.78988248E+03</pdfrwt>
<pdfrwt beam="2">  1       -2 0.53797399E-01 0.78988248E+03</pdfrwt>
<totfact> 0.27254633E+02</totfact>
</mgrwt>
</event>
<event>
 4    1  0.5985962E-005  0.7488699E+03  0.7818608E-02  0.9637125E-01
         -2   -1    0    0    0  501 -0.00000000000E+00  0.00000000000E+00  0.65620817848E+03  0.65620817848E+03  0.25500000000E-02 0. -1.
          2   -1    0    0  501    0  0.00000000000E+00 -0.00000000000E+00 -0.21365403756E+03  0.21365403758E+03  0.25500000000E-02 0.  1.
    5000001    1    1    2    0    0  0.24448843545E+03 -0.46596487038E+02 -0.19343058568E+02  0.31251237030E+03  0.18800000000E+03 0.  0.
   -5000001    1    1    2    0    0 -0.24448843545E+03  0.46596487038E+02  0.46189719948E+03  0.55734984576E+03  0.18800000000E+03 0.  0.
<mgrwt>
<rscale>  0 0.74886989E+03</rscale>
<asrwt>0</asrwt>
<pdfrwt beam="1">  1        2 0.30522005E-01 0.74886989E+03</pdfrwt>
<pdfrwt beam="2">  1       -2 0.93744026E-01 0.74886989E+03</pdfrwt>
<totfact> 0.16925793E+02</totfact>
</mgrwt>
</event>
<event>
 4    1  0.5985962E-005  0.6423746E+03  0.7818608E-02  0.9821194E-01
         -2   -1    0    0    0  501 -0.00000000000E+00  0.00000000000E+00  0.52683694043E+02  0.52683694105E+02  0.25500000000E-02 0. -1.
          2   -1    0    0  501    0  0.00000000000E+00 -0.00000000000E+00 -0.19581256814E+04  0.19581256814E+04  0.25500000000E-02 0.  1.
    5000001    1    1    2    0    0 -0.13060061295E+03  0.21573855264E+03 -0.74943013838E+03  0.81276637203E+03  0.18800000000E+03 0.  0.
   -5000001    1    1    2    0    0  0.13060061295E+03 -0.21573855264E+03 -0.11560118490E+04  0.11980430035E+04  0.18800000000E+03 0.  0.
<mgrwt>
<rscale>  0 0.64237464E+03</rscale>
<asrwt>0</asrwt>
<pdfrwt beam="1">  1        2 0.27973219E+00 0.64237464E+03</pdfrwt>
<pdfrwt beam="2">  1       -2 0.75262432E-02 0.64237464E+03</pdfrwt>
<totfact> 0.93727420E+02</totfact>
</mgrwt>
</event>
<event>
 4    1  0.5985962E-005  0.4752267E+03  0.7818608E-02  0.1020455E+00
          2   -1    0    0  501    0  0.00000000000E+00  0.00000000000E+00  0.17780153202E+04  0.17780153202E+04  0.25500000000E-02 0.  1.
         -2   -1    0    0    0  501 -0.00000000000E+00 -0.00000000000E+00 -0.31754569700E+02  0.31754569803E+02  0.25500000000E-02 0. -1.
    5000001    1    1    2    0    0 -0.85284116428E+02  0.11454178375E+03  0.97552209649E+03  0.10036834967E+04  0.18800000000E+03 0.  0.
   -5000001    1    1    2    0    0  0.85284116428E+02 -0.11454178375E+03  0.77073865400E+03  0.80608639333E+03  0.18800000000E+03 0.  0.
<mgrwt>
<rscale>  0 0.47522673E+03</rscale>
<asrwt>0</asrwt>
<pdfrwt beam="1">  1        2 0.25400225E+00 0.47522673E+03</pdfrwt>
<pdfrwt beam="2">  1       -2 0.45363660E-02 0.47522673E+03</pdfrwt>
<totfact> 0.25634893E+03</totfact>
</mgrwt>
</event>
<event>
 4    1  0.5985962E-005  0.6299148E+03  0.7818608E-02  0.9845215E-01
         -2   -1    0    0    0  501 -0.00000000000E+00  0.00000000000E+00  0.65681853666E+02  0.65681853716E+02  0.25500000000E-02 0. -1.
          2   -1    0    0  501    0  0.00000000000E+00 -0.00000000000E+00 -0.15102827434E+04  0.15102827434E+04  0.25500000000E-02 0.  1.
    5000001    1    1    2    0    0  0.22441968186E+03 -0.11003107085E+03 -0.62925444530E+03  0.70269209978E+03  0.18800000000E+03 0.  0.
   -5000001    1    1    2    0    0 -0.22441968186E+03  0.11003107085E+03 -0.81534644441E+03  0.87327249732E+03  0.18800000000E+03 0.  0.
<mgrwt>
<rscale>  0 0.62991482E+03</rscale>
<asrwt>0</asrwt>
<pdfrwt beam="1">  1        2 0.21575466E+00 0.62991482E+03</pdfrwt>
<pdfrwt beam="2">  1       -2 0.93831229E-02 0.62991482E+03</pdfrwt>
<totfact> 0.11142493E+03</totfact>
</mgrwt>
</event>
<event>
 4    1  0.5985962E-005  0.6793721E+03  0.7818608E-02  0.9753174E-01
          2   -1    0    0  501    0  0.00000000000E+00  0.00000000000E+00  0.18663555416E+04  0.18663555416E+04  0.25500000000E-02 0.  1.
         -2   -1    0    0    0  501 -0.00000000000E+00 -0.00000000000E+00 -0.61824559793E+02  0.61824559845E+02  0.25500000000E-02 0. -1.
    5000001    1    1    2    0    0  0.27505995064E+02  0.28125138492E+03  0.94073183624E+03  0.10000896505E+04  0.18800000000E+03 0.  0.
   -5000001    1    1    2    0    0 -0.27505995064E+02 -0.28125138492E+03  0.86379914552E+03  0.92809045092E+03  0.18800000000E+03 0.  0.
<mgrwt>
<rscale>  0 0.67937209E+03</rscale>
<asrwt>0</asrwt>
<pdfrwt beam="1">  1        2 0.26662218E+00 0.67937209E+03</pdfrwt>
<pdfrwt beam="2">  1       -2 0.88320814E-02 0.67937209E+03</pdfrwt>
<totfact> 0.80564939E+02</totfact>
</mgrwt>
</event>
<event>
 4    1  0.5985962E-005  0.6133075E+03  0.7818608E-02  0.9878175E-01
          2   -1    0    0  501    0  0.00000000000E+00  0.00000000000E+00  0.45529078590E+04  0.45529078591E+04  0.25500000000E-02 0.  1.
         -2   -1    0    0    0  501 -0.00000000000E+00 -0.00000000000E+00 -0.20654168503E+02  0.20654168661E+02  0.25500000000E-02 0. -1.
    5000001    1    1    2    0    0  0.12152391483E+03  0.20497927933E+03  0.25918591852E+04  0.26095713447E+04  0.18800000000E+03 0.  0.
   -5000001    1    1    2    0    0 -0.12152391483E+03 -0.20497927933E+03  0.19403945053E+04  0.19639906831E+04  0.18800000000E+03 0.  0.
<mgrwt>
<rscale>  0 0.61330751E+03</rscale>
<asrwt>0</asrwt>
<pdfrwt beam="1">  1        2 0.65041689E+00 0.61330751E+03</pdfrwt>
<pdfrwt beam="2">  1       -2 0.29505888E-02 0.61330751E+03</pdfrwt>
<totfact> 0.11664581E+02</totfact>
</mgrwt>
</event>
<event>
 4    1  0.5985962E-005  0.5896198E+03  0.7818608E-02  0.9927179E-01
          2   -1    0    0  501    0  0.00000000000E+00  0.00000000000E+00  0.99641150683E+03  0.99641150683E+03  0.25500000000E-02 0.  1.
         -2   -1    0    0    0  501 -0.00000000000E+00 -0.00000000000E+00 -0.87225873472E+02  0.87225873509E+02  0.25500000000E-02 0. -1.
    5000001    1    1    2    0    0 -0.17974728512E+03  0.13775120773E+03  0.48558578948E+03  0.56782219108E+03  0.18800000000E+03 0.  0.
   -5000001    1    1    2    0    0  0.17974728512E+03 -0.13775120773E+03  0.42359984388E+03  0.51581518926E+03  0.18800000000E+03 0.  0.
<mgrwt>
<rscale>  0 0.58961976E+03</rscale>
<asrwt>0</asrwt>
<pdfrwt beam="1">  1        2 0.14234449E+00 0.58961976E+03</pdfrwt>
<pdfrwt beam="2">  1       -2 0.12460840E-01 0.58961976E+03</pdfrwt>
<totfact> 0.13557687E+03</totfact>
</mgrwt>
</event>
<event>
 4    1  0.5985962E-005  0.5036080E+03  0.7818608E-02  0.1012841E+00
         -2   -1    0    0    0  501 -0.00000000000E+00  0.00000000000E+00  0.26415833647E+02  0.26415833770E+02  0.25500000000E-02 0. -1.
          2   -1    0    0  501    0  0.00000000000E+00 -0.00000000000E+00 -0.24002744855E+04  0.24002744855E+04  0.25500000000E-02 0.  1.
    5000001    1    1    2    0    0 -0.11815798926E+03  0.11483724695E+03 -0.10413827485E+04  0.10709672883E+04  0.18800000000E+03 0.  0.
   -5000001    1    1    2    0    0  0.11815798926E+03 -0.11483724695E+03 -0.13324759034E+04  0.13557230310E+04  0.18800000000E+03 0.  0.
<mgrwt>
<rscale>  0 0.50360799E+03</rscale>
<asrwt>0</asrwt>
<pdfrwt beam="1">  1        2 0.34289622E+00 0.50360799E+03</pdfrwt>
<pdfrwt beam="2">  1       -2 0.37736921E-02 0.50360799E+03</pdfrwt>
<totfact> 0.16567868E+03</totfact>
</mgrwt>
</event>
<event>
 4    1  0.5985962E-005  0.5694688E+03  0.7818608E-02  0.9970855E-01
          2   -1    0    0  501    0  0.00000000000E+00  0.00000000000E+00  0.11167754475E+03  0.11167754478E+03  0.25500000000E-02 0.  1.
         -2   -1    0    0    0  501 -0.00000000000E+00 -0.00000000000E+00 -0.72596219249E+03  0.72596219249E+03  0.25500000000E-02 0. -1.
    5000001    1    1    2    0    0  0.90103022877E+02 -0.18105978494E+03 -0.20493257289E+03  0.34386415906E+03  0.18800000000E+03 0.  0.
   -5000001    1    1    2    0    0 -0.90103022877E+02  0.18105978494E+03 -0.40935207485E+03  0.49377557821E+03  0.18800000000E+03 0.  0.
<mgrwt>
<rscale>  0 0.56946879E+03</rscale>
<asrwt>0</asrwt>
<pdfrwt beam="1">  1        2 0.15953935E-01 0.56946879E+03</pdfrwt>
<pdfrwt beam="2">  1       -2 0.10370888E+00 0.56946879E+03</pdfrwt>
<totfact> 0.28513174E+02</totfact>
</mgrwt>
</event>
<event>
 4    1  0.5985962E-005  0.9996456E+03  0.7818608E-02  0.9308934E-01
         -2   -1    0    0    0  501 -0.00000000000E+00  0.00000000000E+00  0.10758476230E+04  0.10758476230E+04  0.25500000000E-02 0. -1.
          2   -1    0    0  501    0  0.00000000000E+00 -0.00000000000E+00 -0.23221022227E+03  0.23221022228E+03  0.25500000000E-02 0.  1.
    5000001    1    1    2    0    0 -0.40808079846E+02  0.34675233496E+03  0.81995419292E+03  0.91080808059E+03  0.18800000000E+03 0.  0.
   -5000001    1    1    2    0    0  0.40808079846E+02 -0.34675233496E+03  0.23683207763E+02  0.39724976464E+03  0.18800000000E+03 0.  0.
<mgrwt>
<rscale>  0 0.99964557E+03</rscale>
<asrwt>0</asrwt>
<pdfrwt beam="1">  1        2 0.33172888E-01 0.99964557E+03</pdfrwt>
<pdfrwt beam="2">  1       -2 0.15369252E+00 0.99964557E+03</pdfrwt>
<totfact> 0.44542935E+01</totfact>
</mgrwt>
</event>
<event>
 4    1  0.5985962E-005  0.5587930E+03  0.7818608E-02  0.9994789E-01
          2   -1    0    0  501    0  0.00000000000E+00  0.00000000000E+00  0.14971340522E+04  0.14971340522E+04  0.25500000000E-02 0.  1.
         -2   -1    0    0    0  501 -0.00000000000E+00 -0.00000000000E+00 -0.52141225467E+02  0.52141225529E+02  0.25500000000E-02 0. -1.
    5000001    1    1    2    0    0 -0.10849509770E+03  0.17523239138E+03  0.76552233977E+03  0.81476746984E+03  0.18800000000E+03 0.  0.
   -5000001    1    1    2    0    0  0.10849509770E+03 -0.17523239138E+03  0.67947048700E+03  0.73450780794E+03  0.18800000000E+03 0.  0.
<mgrwt>
<rscale>  0 0.55879300E+03</rscale>
<asrwt>0</asrwt>
<pdfrwt beam="1">  1        2 0.21387628E+00 0.55879300E+03</pdfrwt>
<pdfrwt beam="2">  1       -2 0.74487470E-02 0.55879300E+03</pdfrwt>
<totfact> 0.16413807E+03</totfact>
</mgrwt>
</event>
<event>
 4    1  0.5985962E-005  0.5154616E+03  0.7818608E-02  0.1009820E+00
          2   -1    0    0  501    0  0.00000000000E+00  0.00000000000E+00  0.17020254154E+04  0.17020254154E+04  0.25500000000E-02 0.  1.
         -2   -1    0    0    0  501 -0.00000000000E+00 -0.00000000000E+00 -0.39027124894E+02  0.39027124978E+02  0.25500000000E-02 0. -1.
    5000001    1    1    2    0    0 -0.14969306106E+02  0.14869983927E+03  0.11473676466E+04  0.11722338669E+04  0.18800000000E+03 0.  0.
   -5000001    1    1    2    0    0  0.14969306106E+02 -0.14869983927E+03  0.51563064389E+03  0.56881867343E+03  0.18800000000E+03 0.  0.
<mgrwt>
<rscale>  0 0.51546157E+03</rscale>
<asrwt>0</asrwt>
<pdfrwt beam="1">  1        2 0.24314642E+00 0.51546157E+03</pdfrwt>
<pdfrwt beam="2">  1       -2 0.55753051E-02 0.51546157E+03</pdfrwt>
<totfact> 0.20333428E+03</totfact>
</mgrwt>
</event>
<event>
 4    1  0.5985962E-005  0.6499157E+03  0.7818608E-02  0.9806937E-01
          2   -1    0    0  501    0  0.00000000000E+00  0.00000000000E+00  0.13445874371E+04  0.13445874371E+04  0.25500000000E-02 0.  1.
         -2   -1    0    0    0  501 -0.00000000000E+00 -0.00000000000E+00 -0.78535316581E+02  0.78535316623E+02  0.25500000000E-02 0. -1.
    5000001    1    1    2    0    0  0.14337646470E+03 -0.12738656855E+03  0.23242726306E+03  0.35517683073E+03  0.18800000000E+03 0.  0.
   -5000001    1    1    2    0    0 -0.14337646470E+03  0.12738656855E+03  0.10336248575E+04  0.10679459230E+04  0.18800000000E+03 0.  0.
<mgrwt>
<rscale>  0 0.64991569E+03</rscale>
<asrwt>0</asrwt>
<pdfrwt beam="1">  1        2 0.19208390E+00 0.64991569E+03</pdfrwt>
<pdfrwt beam="2">  1       -2 0.11219332E-01 0.64991569E+03</pdfrwt>
<totfact> 0.10189620E+03</totfact>
</mgrwt>
</event>
<event>
 4    1  0.5985962E-005  0.5582881E+03  0.7818608E-02  0.9995936E-01
         -2   -1    0    0    0  501 -0.00000000000E+00  0.00000000000E+00  0.17557959905E+03  0.17557959907E+03  0.25500000000E-02 0. -1.
          2   -1    0    0  501    0  0.00000000000E+00 -0.00000000000E+00 -0.44379532757E+03  0.44379532758E+03  0.25500000000E-02 0.  1.
    5000001    1    1    2    0    0 -0.18810357414E+03 -0.80799121861E+02 -0.10547814954E+03  0.29728957723E+03  0.18800000000E+03 0.  0.
   -5000001    1    1    2    0    0  0.18810357414E+03  0.80799121861E+02 -0.16273757898E+03  0.32208534942E+03  0.18800000000E+03 0.  0.
<mgrwt>
<rscale>  0 0.55828812E+03</rscale>
<asrwt>0</asrwt>
<pdfrwt beam="1">  1        2 0.63399332E-01 0.55828812E+03</pdfrwt>
<pdfrwt beam="2">  1       -2 0.25082800E-01 0.55828812E+03</pdfrwt>
<totfact> 0.10970436E+03</totfact>
</mgrwt>
</event>
<event>
 4    1  0.5985962E-005  0.5426569E+03  0.7818608E-02  0.1003208E+00
         -2   -1    0    0    0  501 -0.00000000000E+00  0.00000000000E+00  0.88813027609E+02  0.88813027646E+02  0.25500000000E-02 0. -1.
          2   -1    0    0  501    0  0.00000000000E+00 -0.00000000000E+00 -0.82892264714E+03  0.82892264714E+03  0.25500000000E-02 0.  1.
    5000001    1    1    2    0    0 -0.78838275931E+02  0.17716758766E+03 -0.32623693803E+03  0.42353083430E+03  0.18800000000E+03 0.  0.
   -5000001    1    1    2    0    0  0.78838275931E+02 -0.17716758766E+03 -0.41387268150E+03  0.49420484049E+03  0.18800000000E+03 0.  0.
<mgrwt>
<rscale>  0 0.54265691E+03</rscale>
<asrwt>0</asrwt>
<pdfrwt beam="1">  1        2 0.11841752E+00 0.54265691E+03</pdfrwt>
<pdfrwt beam="2">  1       -2 0.12687576E-01 0.54265691E+03</pdfrwt>
<totfact> 0.16856603E+03</totfact>
</mgrwt>
</event>
<event>
 4    1  0.5985962E-005  0.5481586E+03  0.7818608E-02  0.1001921E+00
         -2   -1    0    0    0  501 -0.00000000000E+00  0.00000000000E+00  0.20133679835E+03  0.20133679837E+03  0.25500000000E-02 0. -1.
          2   -1    0    0  501    0  0.00000000000E+00 -0.00000000000E+00 -0.37310352442E+03  0.37310352443E+03  0.25500000000E-02 0.  1.
    5000001    1    1    2    0    0 -0.22607004068E+02  0.13776468919E+03 -0.23513847029E+03  0.33184979498E+03  0.18800000000E+03 0.  0.
   -5000001    1    1    2    0    0  0.22607004068E+02 -0.13776468919E+03  0.63371744211E+02  0.24259052782E+03  0.18800000000E+03 0.  0.
<mgrwt>
<rscale>  0 0.54815862E+03</rscale>
<asrwt>0</asrwt>
<pdfrwt beam="1">  1        2 0.53300503E-01 0.54815862E+03</pdfrwt>
<pdfrwt beam="2">  1       -2 0.28762400E-01 0.54815862E+03</pdfrwt>
<totfact> 0.10380191E+03</totfact>
</mgrwt>
</event>
<event>
 4    1  0.5985962E-005  0.5749428E+03  0.7818608E-02  0.9958800E-01
          2   -1    0    0  501    0  0.00000000000E+00  0.00000000000E+00  0.41151236659E+04  0.41151236659E+04  0.25500000000E-02 0.  1.
         -2   -1    0    0    0  501 -0.00000000000E+00 -0.00000000000E+00 -0.20081972610E+02  0.20081972772E+02  0.25500000000E-02 0. -1.
    5000001    1    1    2    0    0  0.20154105948E+03 -0.29027349122E+02  0.14981429798E+04  0.15235608861E+04  0.18800000000E+03 0.  0.
   -5000001    1    1    2    0    0 -0.20154105948E+03  0.29027349122E+02  0.25968987135E+04  0.26116447526E+04  0.18800000000E+03 0.  0.
<mgrwt>
<rscale>  0 0.57494278E+03</rscale>
<asrwt>0</asrwt>
<pdfrwt beam="1">  1        2 0.58787553E+00 0.57494278E+03</pdfrwt>
<pdfrwt beam="2">  1       -2 0.28688497E-02 0.57494278E+03</pdfrwt>
<totfact> 0.25705308E+02</totfact>
</mgrwt>
</event>
<event>
 4    1  0.5985962E-005  0.9269105E+03  0.7818608E-02  0.9392553E-01
         -2   -1    0    0    0  501 -0.00000000000E+00  0.00000000000E+00  0.10775330497E+03  0.10775330500E+03  0.25500000000E-02 0. -1.
          2   -1    0    0  501    0  0.00000000000E+00 -0.00000000000E+00 -0.19933568143E+04  0.19933568143E+04  0.25500000000E-02 0.  1.
    5000001    1    1    2    0    0  0.40132763003E+03  0.95678842800E+02 -0.72504280281E+03  0.85513120250E+03  0.18800000000E+03 0.  0.
   -5000001    1    1    2    0    0 -0.40132763003E+03 -0.95678842800E+02 -0.11605607065E+04  0.12459789168E+04  0.18800000000E+03 0.  0.
<mgrwt>
<rscale>  0 0.92691053E+03</rscale>
<asrwt>0</asrwt>
<pdfrwt beam="1">  1        2 0.28476524E+00 0.92691053E+03</pdfrwt>
<pdfrwt beam="2">  1       -2 0.15393330E-01 0.92691053E+03</pdfrwt>
<totfact> 0.27312745E+02</totfact>
</mgrwt>
</event>
<event>
 4    1  0.5985962E-005  0.6681815E+03  0.7818608E-02  0.9773249E-01
          2   -1    0    0  501    0  0.00000000000E+00  0.00000000000E+00  0.57841455541E+03  0.57841455542E+03  0.25500000000E-02 0. -1.
         -2   -1    0    0    0  501 -0.00000000000E+00 -0.00000000000E+00 -0.19296996962E+03  0.19296996964E+03  0.25500000000E-02 0.  1.
    5000001    1    1    2    0    0  0.28484876213E+02  0.27182634122E+03  0.23849009657E+03  0.40856146921E+03  0.18800000000E+03 0.  0.
   -5000001    1    1    2    0    0 -0.28484876213E+02 -0.27182634122E+03  0.14695448921E+03  0.36282305585E+03  0.18800000000E+03 0.  0.
<mgrwt>
<rscale>  0 0.66818153E+03</rscale>
<asrwt>0</asrwt>
<pdfrwt beam="1">  1        2 0.82630650E-01 0.66818153E+03</pdfrwt>
<pdfrwt beam="2">  1       -2 0.27567139E-01 0.66818153E+03</pdfrwt>
<totfact> 0.68215259E+02</totfact>
</mgrwt>
</event>
<event>
 4    1  0.5985962E-005  0.5101568E+03  0.7818608E-02  0.1011161E+00
         -2   -1    0    0    0  501 -0.00000000000E+00  0.00000000000E+00  0.10089639665E+03  0.10089639668E+03  0.25500000000E-02 0. -1.
          2   -1    0    0  501    0  0.00000000000E+00 -0.00000000000E+00 -0.64486934021E+03  0.64486934022E+03  0.25500000000E-02 0.  1.
    5000001    1    1    2    0    0  0.54373670489E+02  0.15638260278E+03 -0.20174256473E+03  0.32164588746E+03  0.18800000000E+03 0.  0.
   -5000001    1    1    2    0    0 -0.54373670489E+02 -0.15638260278E+03 -0.34223037882E+03  0.42411984944E+03  0.18800000000E+03 0.  0.
<mgrwt>
<rscale>  0 0.51015681E+03</rscale>
<asrwt>0</asrwt>
<pdfrwt beam="1">  1        2 0.92124189E-01 0.51015681E+03</pdfrwt>
<pdfrwt beam="2">  1       -2 0.14413771E-01 0.51015681E+03</pdfrwt>
<totfact> 0.18602109E+03</totfact>
</mgrwt>
</event>
<event>
 4    1  0.5985962E-005  0.4785282E+03  0.7818608E-02  0.1019540E+00
         -2   -1    0    0    0  501 -0.00000000000E+00  0.00000000000E+00  0.25356043691E+02  0.25356043819E+02  0.25500000000E-02 0. -1.
          2   -1    0    0  501    0  0.00000000000E+00 -0.00000000000E+00 -0.22577381253E+04  0.22577381253E+04  0.25500000000E-02 0.  1.
    5000001    1    1    2    0    0  0.10133639790E+03  0.10786193063E+03 -0.11151780761E+04  0.11405566199E+04  0.18800000000E+03 0.  0.
   -5000001    1    1    2    0    0 -0.10133639790E+03 -0.10786193063E+03 -0.11172040054E+04  0.11425375492E+04  0.18800000000E+03 0.  0.
<mgrwt>
<rscale>  0 0.47852819E+03</rscale>
<asrwt>0</asrwt>
<pdfrwt beam="1">  1        2 0.32253389E+00 0.47852819E+03</pdfrwt>
<pdfrwt beam="2">  1       -2 0.36222934E-02 0.47852819E+03</pdfrwt>
<totfact> 0.20833066E+03</totfact>
</mgrwt>
</event>
<event>
 4    1  0.5985962E-005  0.4716984E+03  0.7818608E-02  0.1021442E+00
         -2   -1    0    0    0  501 -0.00000000000E+00  0.00000000000E+00  0.19427189949E+03  0.19427189951E+03  0.25500000000E-02 0. -1.
          2   -1    0    0  501    0  0.00000000000E+00 -0.00000000000E+00 -0.28632475691E+03  0.28632475692E+03  0.25500000000E-02 0.  1.
    5000001    1    1    2    0    0 -0.72023950803E+02 -0.83047154425E+02  0.46216379457E+02  0.22263026092E+03  0.18800000000E+03 0.  0.
   -5000001    1    1    2    0    0  0.72023950803E+02  0.83047154425E+02 -0.13826923688E+03  0.25796639551E+03  0.18800000000E+03 0.  0.
<mgrwt>
<rscale>  0 0.47169844E+03</rscale>
<asrwt>0</asrwt>
<pdfrwt beam="1">  1        2 0.40903537E-01 0.47169844E+03</pdfrwt>
<pdfrwt beam="2">  1       -2 0.27753129E-01 0.47169844E+03</pdfrwt>
<totfact> 0.14816638E+03</totfact>
</mgrwt>
</event>
<event>
 4    1  0.5985962E-005  0.7373657E+03  0.7818608E-02  0.9655383E-01
          2   -1    0    0  501    0  0.00000000000E+00  0.00000000000E+00  0.19990016777E+03  0.19990016779E+03  0.25500000000E-02 0.  1.
         -2   -1    0    0    0  501 -0.00000000000E+00 -0.00000000000E+00 -0.67997458193E+03  0.67997458194E+03  0.25500000000E-02 0. -1.
    5000001    1    1    2    0    0 -0.11906802731E+03  0.23519613100E+03 -0.45043377329E+03  0.55473326859E+03  0.18800000000E+03 0.  0.
   -5000001    1    1    2    0    0  0.11906802731E+03 -0.23519613100E+03 -0.29640640876E+02  0.32514148113E+03  0.18800000000E+03 0.  0.
<mgrwt>
<rscale>  0 0.73736567E+03</rscale>
<asrwt>0</asrwt>
<pdfrwt beam="1">  1        2 0.28557167E-01 0.73736567E+03</pdfrwt>
<pdfrwt beam="2">  1       -2 0.97139225E-01 0.73736567E+03</pdfrwt>
<totfact> 0.16799769E+02</totfact>
</mgrwt>
</event>
<event>
 4    1  0.5985962E-005  0.9878524E+03  0.7818608E-02  0.9321969E-01
         -2   -1    0    0    0  501 -0.00000000000E+00  0.00000000000E+00  0.38786348889E+03  0.38786348890E+03  0.25500000000E-02 0. -1.
          2   -1    0    0  501    0  0.00000000000E+00 -0.00000000000E+00 -0.62899209270E+03  0.62899209271E+03  0.25500000000E-02 0.  1.
    5000001    1    1    2    0    0 -0.38963010614E+03  0.21851860934E+03 -0.21852705649E+03  0.53165785677E+03  0.18800000000E+03 0.  0.
   -5000001    1    1    2    0    0  0.38963010614E+03 -0.21851860934E+03 -0.22601547321E+02  0.48519772483E+03  0.18800000000E+03 0.  0.
<mgrwt>
<rscale>  0 0.98785235E+03</rscale>
<asrwt>0</asrwt>
<pdfrwt beam="1">  1        2 0.89856013E-01 0.98785235E+03</pdfrwt>
<pdfrwt beam="2">  1       -2 0.55409070E-01 0.98785235E+03</pdfrwt>
<totfact> 0.15687654E+02</totfact>
</mgrwt>
</event>
<event>
 4    1  0.5985962E-005  0.6359751E+03  0.7818608E-02  0.9833458E-01
          2   -1    0    0  501    0  0.00000000000E+00  0.00000000000E+00  0.77234373881E+03  0.77234373881E+03  0.25500000000E-02 0.  1.
         -2   -1    0    0    0  501 -0.00000000000E+00 -0.00000000000E+00 -0.13092109215E+03  0.13092109218E+03  0.25500000000E-02 0. -1.
    5000001    1    1    2    0    0  0.21338451588E+03 -0.14043875889E+03  0.28844590003E+03  0.42872022795E+03  0.18800000000E+03 0.  0.
   -5000001    1    1    2    0    0 -0.21338451588E+03  0.14043875889E+03  0.35297674662E+03  0.47454460303E+03  0.18800000000E+03 0.  0.
<mgrwt>
<rscale>  0 0.63597511E+03</rscale>
<asrwt>0</asrwt>
<pdfrwt beam="1">  1        2 0.11033482E+00 0.63597511E+03</pdfrwt>
<pdfrwt beam="2">  1       -2 0.18703014E-01 0.63597511E+03</pdfrwt>
<totfact> 0.95691028E+02</totfact>
</mgrwt>
</event>
<event>
 4    1  0.5985962E-005  0.5365680E+03  0.7818608E-02  0.1004652E+00
          2   -1    0    0  501    0  0.00000000000E+00  0.00000000000E+00  0.13244227929E+04  0.13244227929E+04  0.25500000000E-02 0.  1.
         -2   -1    0    0    0  501 -0.00000000000E+00 -0.00000000000E+00 -0.54345417579E+02  0.54345417639E+02  0.25500000000E-02 0. -1.
    5000001    1    1    2    0    0  0.13392381951E+03 -0.11738467033E+03  0.45484428768E+03  0.52339476144E+03  0.18800000000E+03 0.  0.
   -5000001    1    1    2    0    0 -0.13392381951E+03  0.11738467033E+03  0.81523308766E+03  0.85537344913E+03  0.18800000000E+03 0.  0.
<mgrwt>
<rscale>  0 0.53656802E+03</rscale>
<asrwt>0</asrwt>
<pdfrwt beam="1">  1        2 0.18920325E+00 0.53656802E+03</pdfrwt>
<pdfrwt beam="2">  1       -2 0.77636313E-02 0.53656802E+03</pdfrwt>
<totfact> 0.18976548E+03</totfact>
</mgrwt>
</event>
<event>
 4    1  0.5985962E-005  0.5154897E+03  0.7818608E-02  0.1009813E+00
         -2   -1    0    0    0  501 -0.00000000000E+00  0.00000000000E+00  0.16304713014E+03  0.16304713016E+03  0.25500000000E-02 0. -1.
          2   -1    0    0  501    0  0.00000000000E+00 -0.00000000000E+00 -0.40744294826E+03  0.40744294827E+03  0.25500000000E-02 0.  1.
    5000001    1    1    2    0    0  0.12874355966E+03 -0.22720951746E+02  0.87352347332E+01  0.22915376961E+03  0.18800000000E+03 0.  0.
   -5000001    1    1    2    0    0 -0.12874355966E+03  0.22720951746E+02 -0.25313105285E+03  0.34133630882E+03  0.18800000000E+03 0.  0.
<mgrwt>
<rscale>  0 0.51548968E+03</rscale>
<asrwt>0</asrwt>
<pdfrwt beam="1">  1        2 0.58206135E-01 0.51548968E+03</pdfrwt>
<pdfrwt beam="2">  1       -2 0.23292447E-01 0.51548968E+03</pdfrwt>
<totfact> 0.13768160E+03</totfact>
</mgrwt>
</event>
<event>
 4    1  0.5985962E-005  0.8485898E+03  0.7818608E-02  0.9492232E-01
         -2   -1    0    0    0  501 -0.00000000000E+00  0.00000000000E+00  0.15900302594E+03  0.15900302596E+03  0.25500000000E-02 0. -1.
          2   -1    0    0  501    0  0.00000000000E+00 -0.00000000000E+00 -0.11322184870E+04  0.11322184870E+04  0.25500000000E-02 0.  1.
    5000001    1    1    2    0    0 -0.35992271459E+03 -0.54663021821E+02 -0.31888698879E+03  0.51919680089E+03  0.18800000000E+03 0.  0.
   -5000001    1    1    2    0    0  0.35992271459E+03  0.54663021821E+02 -0.65432847229E+03  0.77202471210E+03  0.18800000000E+03 0.  0.
<mgrwt>
<rscale>  0 0.84858981E+03</rscale>
<asrwt>0</asrwt>
<pdfrwt beam="1">  1        2 0.16174549E+00 0.84858981E+03</pdfrwt>
<pdfrwt beam="2">  1       -2 0.22714719E-01 0.84858981E+03</pdfrwt>
<totfact> 0.39900289E+02</totfact>
</mgrwt>
</event>
<event>
 4    1  0.5985962E-005  0.4513223E+03  0.7818608E-02  0.1027328E+00
          2   -1    0    0  501    0  0.00000000000E+00  0.00000000000E+00  0.44719267994E+03  0.44719267995E+03  0.25500000000E-02 0.  1.
         -2   -1    0    0    0  501 -0.00000000000E+00 -0.00000000000E+00 -0.11387252886E+03  0.11387252889E+03  0.25500000000E-02 0. -1.
    5000001    1    1    2    0    0  0.78531432458E+02 -0.48369316368E+00  0.28726273899E+03  0.35218077894E+03  0.18800000000E+03 0.  0.
   -5000001    1    1    2    0    0 -0.78531432458E+02  0.48369316368E+00  0.46057412091E+02  0.20888442989E+03  0.18800000000E+03 0.  0.
<mgrwt>
<rscale>  0 0.45132233E+03</rscale>
<asrwt>0</asrwt>
<pdfrwt beam="1">  1        2 0.63884668E-01 0.45132233E+03</pdfrwt>
<pdfrwt beam="2">  1       -2 0.16267504E-01 0.45132233E+03</pdfrwt>
<totfact> 0.23071495E+03</totfact>
</mgrwt>
</event>
<event>
 4    1  0.5985962E-005  0.4590383E+03  0.7818608E-02  0.1025061E+00
          2   -1    0    0  501    0  0.00000000000E+00  0.00000000000E+00  0.14687849490E+04  0.14687849490E+04  0.25500000000E-02 0.  1.
         -2   -1    0    0    0  501 -0.00000000000E+00 -0.00000000000E+00 -0.35865724648E+02  0.35865724739E+02  0.25500000000E-02 0. -1.
    5000001    1    1    2    0    0  0.27879738981E+02  0.10489685264E+03  0.96074957819E+03  0.98496922872E+03  0.18800000000E+03 0.  0.
   -5000001    1    1    2    0    0 -0.27879738981E+02 -0.10489685264E+03  0.47216964617E+03  0.51968144503E+03  0.18800000000E+03 0.  0.
<mgrwt>
<rscale>  0 0.45903828E+03</rscale>
<asrwt>0</asrwt>
<pdfrwt beam="1">  1        2 0.20982639E+00 0.45903828E+03</pdfrwt>
<pdfrwt beam="2">  1       -2 0.51236756E-02 0.45903828E+03</pdfrwt>
<totfact> 0.30535016E+03</totfact>
</mgrwt>
</event>
<event>
 4    1  0.5985962E-005  0.5977499E+03  0.7818608E-02  0.9910085E-01
          2   -1    0    0  501    0  0.00000000000E+00  0.00000000000E+00  0.14040388727E+04  0.14040388727E+04  0.25500000000E-02 0.  1.
         -2   -1    0    0    0  501 -0.00000000000E+00 -0.00000000000E+00 -0.63620922918E+02  0.63620922969E+02  0.25500000000E-02 0. -1.
    5000001    1    1    2    0    0  0.84090361081E+02  0.21641300066E+03  0.64873756124E+03  0.71421999345E+03  0.18800000000E+03 0.  0.
   -5000001    1    1    2    0    0 -0.84090361081E+02 -0.21641300066E+03  0.69168038856E+03  0.75343980224E+03  0.18800000000E+03 0.  0.
<mgrwt>
<rscale>  0 0.59774994E+03</rscale>
<asrwt>0</asrwt>
<pdfrwt beam="1">  1        2 0.20057700E+00 0.59774994E+03</pdfrwt>
<pdfrwt beam="2">  1       -2 0.90887024E-02 0.59774994E+03</pdfrwt>
<totfact> 0.13355351E+03</totfact>
</mgrwt>
</event>
<event>
 4    1  0.5985962E-005  0.5553367E+03  0.7818608E-02  0.1000266E+00
         -2   -1    0    0    0  501 -0.00000000000E+00  0.00000000000E+00  0.44855414597E+02  0.44855414669E+02  0.25500000000E-02 0. -1.
          2   -1    0    0  501    0  0.00000000000E+00 -0.00000000000E+00 -0.17188498978E+04  0.17188498978E+04  0.25500000000E-02 0.  1.
    5000001    1    1    2    0    0 -0.17223066897E+03  0.10679647968E+02 -0.11845867038E+04  0.12117619886E+04  0.18800000000E+03 0.  0.
   -5000001    1    1    2    0    0  0.17223066897E+03 -0.10679647968E+02 -0.48940777936E+03  0.55194332383E+03  0.18800000000E+03 0.  0.
<mgrwt>
<rscale>  0 0.55533674E+03</rscale>
<asrwt>0</asrwt>
<pdfrwt beam="1">  1        2 0.24554994E+00 0.55533674E+03</pdfrwt>
<pdfrwt beam="2">  1       -2 0.64079175E-02 0.55533674E+03</pdfrwt>
<totfact> 0.16021088E+03</totfact>
</mgrwt>
</event>
<event>
 4    1  0.5985962E-005  0.5951702E+03  0.7818608E-02  0.9915477E-01
          2   -1    0    0  501    0  0.00000000000E+00  0.00000000000E+00  0.75177469317E+03  0.75177469317E+03  0.25500000000E-02 0.  1.
         -2   -1    0    0    0  501 -0.00000000000E+00 -0.00000000000E+00 -0.11779711908E+03  0.11779711911E+03  0.25500000000E-02 0. -1.
    5000001    1    1    2    0    0  0.14490211269E+03 -0.14935391187E+03  0.17154536535E+03  0.32874766254E+03  0.18800000000E+03 0.  0.
   -5000001    1    1    2    0    0 -0.14490211269E+03  0.14935391187E+03  0.46243220875E+03  0.54082414974E+03  0.18800000000E+03 0.  0.
<mgrwt>
<rscale>  0 0.59517020E+03</rscale>
<asrwt>0</asrwt>
<pdfrwt beam="1">  1        2 0.10739639E+00 0.59517020E+03</pdfrwt>
<pdfrwt beam="2">  1       -2 0.16828160E-01 0.59517020E+03</pdfrwt>
<totfact> 0.11875907E+03</totfact>
</mgrwt>
</event>
<event>
 4    1  0.5985962E-005  0.5191127E+03  0.7818608E-02  0.1008907E+00
         -2   -1    0    0    0  501 -0.00000000000E+00  0.00000000000E+00  0.25143743470E+02  0.25143743599E+02  0.25500000000E-02 0.  1.
          2   -1    0    0  501    0  0.00000000000E+00 -0.00000000000E+00 -0.26793739504E+04  0.26793739504E+04  0.25500000000E-02 0. -1.
    5000001    1    1    2    0    0 -0.17089371296E+03 -0.15725032437E+02 -0.10628165344E+04  0.10928746148E+04  0.18800000000E+03 0.  0.
   -5000001    1    1    2    0    0  0.17089371296E+03  0.15725032437E+02 -0.15914136725E+04  0.16116430792E+04  0.18800000000E+03 0.  0.
<mgrwt>
<rscale>  0 0.51911267E+03</rscale>
<asrwt>0</asrwt>
<pdfrwt beam="1">  1        2 0.38276752E+00 0.51911267E+03</pdfrwt>
<pdfrwt beam="2">  1       -2 0.35919651E-02 0.51911267E+03</pdfrwt>
<totfact> 0.12837420E+03</totfact>
</mgrwt>
</event>
<event>
 4    1  0.5985962E-005  0.9423115E+03  0.7818608E-02  0.9374183E-01
         -2   -1    0    0    0  501 -0.00000000000E+00  0.00000000000E+00  0.19142548616E+03  0.19142548618E+03  0.25500000000E-02 0. -1.
          2   -1    0    0  501    0  0.00000000000E+00 -0.00000000000E+00 -0.11596561874E+04  0.11596561874E+04  0.25500000000E-02 0.  1.
    5000001    1    1    2    0    0  0.18772522379E+03 -0.45546566522E+02  0.69946763470E+02  0.27848123651E+03  0.18800000000E+03 0.  0.
   -5000001    1    1    2    0    0 -0.18772522379E+03  0.45546566522E+02 -0.10381774647E+04  0.10726004371E+04  0.18800000000E+03 0.  0.
<mgrwt>
<rscale>  0 0.94231152E+03</rscale>
<asrwt>0</asrwt>
<pdfrwt beam="1">  1        2 0.16566516E+00 0.94231152E+03</pdfrwt>
<pdfrwt beam="2">  1       -2 0.27346499E-01 0.94231152E+03</pdfrwt>
<totfact> 0.27386565E+02</totfact>
</mgrwt>
</event>
<event>
 4    1  0.5985962E-005  0.4986795E+03  0.7818608E-02  0.1014124E+00
         -2   -1    0    0    0  501 -0.00000000000E+00  0.00000000000E+00  0.41171651507E+02  0.41171651586E+02  0.25500000000E-02 0. -1.
          2   -1    0    0  501    0  0.00000000000E+00 -0.00000000000E+00 -0.15100268530E+04  0.15100268530E+04  0.25500000000E-02 0.  1.
    5000001    1    1    2    0    0 -0.42725913132E+02 -0.86042966943E+02 -0.32178866973E+03  0.38486470841E+03  0.18800000000E+03 0.  0.
   -5000001    1    1    2    0    0  0.42725913132E+02  0.86042966943E+02 -0.11470665318E+04  0.11663337962E+04  0.18800000000E+03 0.  0.
<mgrwt>
<rscale>  0 0.49867945E+03</rscale>
<asrwt>0</asrwt>
<pdfrwt beam="1">  1        2 0.21571809E+00 0.49867945E+03</pdfrwt>
<pdfrwt beam="2">  1       -2 0.58816655E-02 0.49867945E+03</pdfrwt>
<totfact> 0.23458698E+03</totfact>
</mgrwt>
</event>
<event>
 4    1  0.5985962E-005  0.4959621E+03  0.7818608E-02  0.1014838E+00
          2   -1    0    0  501    0  0.00000000000E+00  0.00000000000E+00  0.74725526134E+02  0.74725526178E+02  0.25500000000E-02 0.  1.
         -2   -1    0    0    0  501 -0.00000000000E+00 -0.00000000000E+00 -0.82293952540E+03  0.82293952541E+03  0.25500000000E-02 0. -1.
    5000001    1    1    2    0    0  0.39096552120E+02 -0.14916443373E+03 -0.28595643963E+03  0.37535803448E+03  0.18800000000E+03 0.  0.
   -5000001    1    1    2    0    0 -0.39096552120E+02  0.14916443373E+03 -0.46225755964E+03  0.52230701711E+03  0.18800000000E+03 0.  0.
<mgrwt>
<rscale>  0 0.49596205E+03</rscale>
<asrwt>0</asrwt>
<pdfrwt beam="1">  1        2 0.10675076E-01 0.49596205E+03</pdfrwt>
<pdfrwt beam="2">  1       -2 0.11756278E+00 0.49596205E+03</pdfrwt>
<totfact> 0.34591192E+02</totfact>
</mgrwt>
</event>
<event>
 4    1  0.5985962E-005  0.6360149E+03  0.7818608E-02  0.9833381E-01
         -2   -1    0    0    0  501 -0.00000000000E+00  0.00000000000E+00  0.64517837289E+02  0.64517837339E+02  0.25500000000E-02 0. -1.
          2   -1    0    0  501    0  0.00000000000E+00 -0.00000000000E+00 -0.15674537629E+04  0.15674537629E+04  0.25500000000E-02 0.  1.
    5000001    1    1    2    0    0  0.12713622268E+03 -0.20104729840E+03 -0.99759822115E+03  0.10426551904E+04  0.18800000000E+03 0.  0.
   -5000001    1    1    2    0    0 -0.12713622268E+03  0.20104729840E+03 -0.50533770445E+03  0.58931640979E+03  0.18800000000E+03 0.  0.
<mgrwt>
<rscale>  0 0.63601486E+03</rscale>
<asrwt>0</asrwt>
<pdfrwt beam="1">  1        2 0.22392194E+00 0.63601486E+03</pdfrwt>
<pdfrwt beam="2">  1       -2 0.92168348E-02 0.63601486E+03</pdfrwt>
<totfact> 0.10708365E+03</totfact>
</mgrwt>
</event>
<event>
 4    1  0.5985962E-005  0.5445840E+03  0.7818608E-02  0.1002755E+00
          2   -1    0    0  501    0  0.00000000000E+00  0.00000000000E+00  0.84793638928E+03  0.84793638929E+03  0.25500000000E-02 0.  1.
         -2   -1    0    0    0  501 -0.00000000000E+00 -0.00000000000E+00 -0.87439270225E+02  0.87439270262E+02  0.25500000000E-02 0. -1.
    5000001    1    1    2    0    0  0.16132832794E+03  0.87443107607E+02  0.50321951098E+03  0.56766803917E+03  0.18800000000E+03 0.  0.
   -5000001    1    1    2    0    0 -0.16132832794E+03 -0.87443107607E+02  0.25727760808E+03  0.36770762038E+03  0.18800000000E+03 0.  0.
<mgrwt>
<rscale>  0 0.54458402E+03</rscale>
<asrwt>0</asrwt>
<pdfrwt beam="1">  1        2 0.12113378E+00 0.54458402E+03</pdfrwt>
<pdfrwt beam="2">  1       -2 0.12491324E-01 0.54458402E+03</pdfrwt>
<totfact> 0.16794742E+03</totfact>
</mgrwt>
</event>
<event>
 4    1  0.5985962E-005  0.6441188E+03  0.7818608E-02  0.9817878E-01
          2   -1    0    0  501    0  0.00000000000E+00  0.00000000000E+00  0.23135701646E+04  0.23135701646E+04  0.25500000000E-02 0.  1.
         -2   -1    0    0    0  501 -0.00000000000E+00 -0.00000000000E+00 -0.44832122223E+02  0.44832122296E+02  0.25500000000E-02 0. -1.
    5000001    1    1    2    0    0 -0.26671133573E+02  0.21704834148E+03  0.16593348299E+04  0.16842082442E+04  0.18800000000E+03 0.  0.
   -5000001    1    1    2    0    0  0.26671133573E+02 -0.21704834148E+03  0.60940321243E+03  0.67419404271E+03  0.18800000000E+03 0.  0.
<mgrwt>
<rscale>  0 0.64411881E+03</rscale>
<asrwt>0</asrwt>
<pdfrwt beam="1">  1        2 0.33051000E+00 0.64411881E+03</pdfrwt>
<pdfrwt beam="2">  1       -2 0.64045893E-02 0.64411881E+03</pdfrwt>
<totfact> 0.80050476E+02</totfact>
</mgrwt>
</event>
<event>
 4    1  0.5985962E-005  0.4477082E+03  0.7818608E-02  0.1028408E+00
          2   -1    0    0  501    0  0.00000000000E+00  0.00000000000E+00  0.25410650514E+03  0.25410650515E+03  0.25500000000E-02 0.  1.
         -2   -1    0    0    0  501 -0.00000000000E+00 -0.00000000000E+00 -0.19720337262E+03  0.19720337264E+03  0.25500000000E-02 0. -1.
    5000001    1    1    2    0    0 -0.10535281449E+03  0.31913438770E+02  0.80333822514E+02  0.23219648174E+03  0.18800000000E+03 0.  0.
   -5000001    1    1    2    0    0  0.10535281449E+03 -0.31913438770E+02 -0.23430689998E+02  0.21911339605E+03  0.18800000000E+03 0.  0.
<mgrwt>
<rscale>  0 0.44770821E+03</rscale>
<asrwt>0</asrwt>
<pdfrwt beam="1">  1        2 0.36300929E-01 0.44770821E+03</pdfrwt>
<pdfrwt beam="2">  1       -2 0.28171910E-01 0.44770821E+03</pdfrwt>
<totfact> 0.16433889E+03</totfact>
</mgrwt>
</event>
<event>
 4    1  0.5985962E-005  0.6192892E+03  0.7818608E-02  0.9866176E-01
         -2   -1    0    0    0  501 -0.00000000000E+00  0.00000000000E+00  0.40725163338E+02  0.40725163418E+02  0.25500000000E-02 0. -1.
          2   -1    0    0  501    0  0.00000000000E+00 -0.00000000000E+00 -0.23543125901E+04  0.23543125901E+04  0.25500000000E-02 0.  1.
    5000001    1    1    2    0    0 -0.10595145373E+03 -0.21953386031E+03 -0.10276586009E+04  0.10727753848E+04  0.18800000000E+03 0.  0.
   -5000001    1    1    2    0    0  0.10595145373E+03  0.21953386031E+03 -0.12859288259E+04  0.13222623687E+04  0.18800000000E+03 0.  0.
<mgrwt>
<rscale>  0 0.61928916E+03</rscale>
<asrwt>0</asrwt>
<pdfrwt beam="1">  1        2 0.33633028E+00 0.61928916E+03</pdfrwt>
<pdfrwt beam="2">  1       -2 0.58178820E-02 0.61928916E+03</pdfrwt>
<totfact> 0.88897682E+02</totfact>
</mgrwt>
</event>
<event>
 4    1  0.5985962E-005  0.8090690E+03  0.7818608E-02  0.9546982E-01
         -2   -1    0    0    0  501 -0.00000000000E+00  0.00000000000E+00  0.44073903807E+03  0.44073903808E+03  0.25500000000E-02 0. -1.
          2   -1    0    0  501    0  0.00000000000E+00 -0.00000000000E+00 -0.37130397559E+03  0.37130397560E+03  0.25500000000E-02 0.  1.
    5000001    1    1    2    0    0 -0.19135766517E+03  0.29086572005E+03 -0.49755575760E+02  0.39879849603E+03  0.18800000000E+03 0.  0.
   -5000001    1    1    2    0    0  0.19135766517E+03 -0.29086572005E+03  0.11919063824E+03  0.41324451765E+03  0.18800000000E+03 0.  0.
<mgrwt>
<rscale>  0 0.80906899E+03</rscale>
<asrwt>0</asrwt>
<pdfrwt beam="1">  1        2 0.53043425E-01 0.80906899E+03</pdfrwt>
<pdfrwt beam="2">  1       -2 0.62962720E-01 0.80906899E+03</pdfrwt>
<totfact> 0.22125862E+02</totfact>
</mgrwt>
</event>
<event>
 4    1  0.5985962E-005  0.4991325E+03  0.7818608E-02  0.1014006E+00
          2   -1    0    0  501    0  0.00000000000E+00  0.00000000000E+00  0.24269443610E+04  0.24269443610E+04  0.25500000000E-02 0.  1.
         -2   -1    0    0    0  501 -0.00000000000E+00 -0.00000000000E+00 -0.25663267722E+02  0.25663267848E+02  0.25500000000E-02 0. -1.
    5000001    1    1    2    0    0 -0.24733798419E+02  0.13765524971E+03  0.16227246662E+04  0.16395548392E+04  0.18800000000E+03 0.  0.
   -5000001    1    1    2    0    0  0.24733798419E+02 -0.13765524971E+03  0.77855642708E+03  0.81305278962E+03  0.18800000000E+03 0.  0.
<mgrwt>
<rscale>  0 0.49913254E+03</rscale>
<asrwt>0</asrwt>
<pdfrwt beam="1">  1        2 0.34670642E+00 0.49913254E+03</pdfrwt>
<pdfrwt beam="2">  1       -2 0.36661803E-02 0.49913254E+03</pdfrwt>
<totfact> 0.16788754E+03</totfact>
</mgrwt>
</event>
<event>
 4    1  0.5985962E-005  0.5861368E+03  0.7818608E-02  0.9934593E-01
         -2   -1    0    0    0  501 -0.00000000000E+00  0.00000000000E+00  0.94957066925E+02  0.94957066959E+02  0.25500000000E-02 0. -1.
          2   -1    0    0  501    0  0.00000000000E+00 -0.00000000000E+00 -0.90450430549E+03  0.90450430549E+03  0.25500000000E-02 0.  1.
    5000001    1    1    2    0    0  0.74308584583E+02 -0.38863503385E+02 -0.76046738926E+03  0.78783677736E+03  0.18800000000E+03 0.  0.
   -5000001    1    1    2    0    0 -0.74308584583E+02  0.38863503385E+02 -0.49079849301E+02  0.21162459509E+03  0.18800000000E+03 0.  0.
<mgrwt>
<rscale>  0 0.58613676E+03</rscale>
<asrwt>0</asrwt>
<pdfrwt beam="1">  1        2 0.12921490E+00 0.58613676E+03</pdfrwt>
<pdfrwt beam="2">  1       -2 0.13565296E-01 0.58613676E+03</pdfrwt>
<totfact> 0.13445630E+03</totfact>
</mgrwt>
</event>
<event>
 4    1  0.5985962E-005  0.5442385E+03  0.7818608E-02  0.1002836E+00
         -2   -1    0    0    0  501 -0.00000000000E+00  0.00000000000E+00  0.37754467126E+02  0.37754467212E+02  0.25500000000E-02 0. -1.
          2   -1    0    0  501    0  0.00000000000E+00 -0.00000000000E+00 -0.19613280784E+04  0.19613280784E+04  0.25500000000E-02 0.  1.
    5000001    1    1    2    0    0 -0.10534800619E+03 -0.93123230843E+02 -0.14672287923E+04  0.14858918088E+04  0.18800000000E+03 0.  0.
   -5000001    1    1    2    0    0  0.10534800619E+03  0.93123230843E+02 -0.45634481891E+03  0.51319073674E+03  0.18800000000E+03 0.  0.
<mgrwt>
<rscale>  0 0.54423854E+03</rscale>
<asrwt>0</asrwt>
<pdfrwt beam="1">  1        2 0.28018966E+00 0.54423854E+03</pdfrwt>
<pdfrwt beam="2">  1       -2 0.53934966E-02 0.54423854E+03</pdfrwt>
<totfact> 0.15842679E+03</totfact>
</mgrwt>
</event>
<event>
 4    1  0.5985962E-005  0.4124620E+03  0.7818608E-02  0.1039548E+00
          2   -1    0    0  501    0  0.00000000000E+00  0.00000000000E+00  0.10334467804E+04  0.10334467804E+04  0.25500000000E-02 0.  1.
         -2   -1    0    0    0  501 -0.00000000000E+00 -0.00000000000E+00 -0.41154733367E+02  0.41154733446E+02  0.25500000000E-02 0. -1.
    5000001    1    1    2    0    0 -0.25808874989E+02  0.76056573277E+02  0.56685224825E+03  0.60259121443E+03  0.18800000000E+03 0.  0.
   -5000001    1    1    2    0    0  0.25808874989E+02 -0.76056573277E+02  0.42543979879E+03  0.47201029942E+03  0.18800000000E+03 0.  0.
<mgrwt>
<rscale>  0 0.41246201E+03</rscale>
<asrwt>0</asrwt>
<pdfrwt beam="1">  1        2 0.14763527E+00 0.41246201E+03</pdfrwt>
<pdfrwt beam="2">  1       -2 0.58792469E-02 0.41246201E+03</pdfrwt>
<totfact> 0.42738822E+03</totfact>
</mgrwt>
</event>
<event>
 4    1  0.5985962E-005  0.8671460E+03  0.7818608E-02  0.9467609E-01
          2   -1    0    0  501    0  0.00000000000E+00  0.00000000000E+00  0.59550598921E+03  0.59550598921E+03  0.25500000000E-02 0. -1.
         -2   -1    0    0    0  501 -0.00000000000E+00 -0.00000000000E+00 -0.31567367968E+03  0.31567367969E+03  0.25500000000E-02 0.  1.
    5000001    1    1    2    0    0 -0.18457784598E+03 -0.99905418859E+02 -0.20634970477E+03  0.34924815620E+03  0.18800000000E+03 0.  0.
   -5000001    1    1    2    0    0  0.18457784598E+03  0.99905418859E+02  0.48618201430E+03  0.56193151271E+03  0.18800000000E+03 0.  0.
<mgrwt>
<rscale>  0 0.86714605E+03</rscale>
<asrwt>0</asrwt>
<pdfrwt beam="1">  1        2 0.85072284E-01 0.86714605E+03</pdfrwt>
<pdfrwt beam="2">  1       -2 0.45096240E-01 0.86714605E+03</pdfrwt>
<totfact> 0.25618501E+02</totfact>
</mgrwt>
</event>
<event>
 4    1  0.5985962E-005  0.5639434E+03  0.7818608E-02  0.9983171E-01
         -2   -1    0    0    0  501 -0.00000000000E+00  0.00000000000E+00  0.18094413899E+03  0.18094413901E+03  0.25500000000E-02 0. -1.
          2   -1    0    0  501    0  0.00000000000E+00 -0.00000000000E+00 -0.43940655740E+03  0.43940655741E+03  0.25500000000E-02 0.  1.
    5000001    1    1    2    0    0 -0.19697630788E+03  0.60757433890E+02 -0.84238931091E+02  0.29142980141E+03  0.18800000000E+03 0.  0.
   -5000001    1    1    2    0    0  0.19697630788E+03 -0.60757433890E+02 -0.17422348732E+03  0.32892089501E+03  0.18800000000E+03 0.  0.
<mgrwt>
<rscale>  0 0.56394341E+03</rscale>
<asrwt>0</asrwt>
<pdfrwt beam="1">  1        2 0.62772365E-01 0.56394341E+03</pdfrwt>
<pdfrwt beam="2">  1       -2 0.25849163E-01 0.56394341E+03</pdfrwt>
<totfact> 0.10508427E+03</totfact>
</mgrwt>
</event>
<event>
 4    1  0.5985962E-005  0.4978685E+03  0.7818608E-02  0.1014337E+00
          2   -1    0    0  501    0  0.00000000000E+00  0.00000000000E+00  0.56876666592E+03  0.56876666592E+03  0.25500000000E-02 0.  1.
         -2   -1    0    0    0  501 -0.00000000000E+00 -0.00000000000E+00 -0.10895200030E+03  0.10895200033E+03  0.25500000000E-02 0. -1.
    5000001    1    1    2    0    0 -0.34894139175E+02  0.15310031931E+03  0.29027887082E+03  0.37981986726E+03  0.18800000000E+03 0.  0.
   -5000001    1    1    2    0    0  0.34894139175E+02 -0.15310031931E+03  0.16953579480E+03  0.29789879899E+03  0.18800000000E+03 0.  0.
<mgrwt>
<rscale>  0 0.49786852E+03</rscale>
<asrwt>0</asrwt>
<pdfrwt beam="1">  1        2 0.81252382E-01 0.49786852E+03</pdfrwt>
<pdfrwt beam="2">  1       -2 0.15564571E-01 0.49786852E+03</pdfrwt>
<totfact> 0.18946819E+03</totfact>
</mgrwt>
</event>
<event>
 4    1  0.5985962E-005  0.9714652E+03  0.7818608E-02  0.9340407E-01
          2   -1    0    0  501    0  0.00000000000E+00  0.00000000000E+00  0.13103935310E+04  0.13103935310E+04  0.25500000000E-02 0.  1.
         -2   -1    0    0    0  501 -0.00000000000E+00 -0.00000000000E+00 -0.18004985901E+03  0.18004985903E+03  0.25500000000E-02 0. -1.
    5000001    1    1    2    0    0 -0.43085364142E+03  0.74262678735E+02  0.41608866796E+03  0.63215788011E+03  0.18800000000E+03 0.  0.
   -5000001    1    1    2    0    0  0.43085364142E+03 -0.74262678735E+02  0.71425500406E+03  0.85828550996E+03  0.18800000000E+03 0.  0.
<mgrwt>
<rscale>  0 0.97146522E+03</rscale>
<asrwt>0</asrwt>
<pdfrwt beam="1">  1        2 0.18719907E+00 0.97146522E+03</pdfrwt>
<pdfrwt beam="2">  1       -2 0.25721409E-01 0.97146522E+03</pdfrwt>
<totfact> 0.25152444E+02</totfact>
</mgrwt>
</event>
<event>
 4    1  0.5985962E-005  0.6490052E+03  0.7818608E-02  0.9808648E-01
         -2   -1    0    0    0  501 -0.00000000000E+00  0.00000000000E+00  0.78610200456E+02  0.78610200498E+02  0.25500000000E-02 0. -1.
          2   -1    0    0  501    0  0.00000000000E+00 -0.00000000000E+00 -0.13395454919E+04  0.13395454919E+04  0.25500000000E-02 0.  1.
    5000001    1    1    2    0    0 -0.25887712914E+03  0.53020137374E+02 -0.65532783661E+03  0.73118197215E+03  0.18800000000E+03 0.  0.
   -5000001    1    1    2    0    0  0.25887712914E+03 -0.53020137374E+02 -0.60560745481E+03  0.68697372023E+03  0.18800000000E+03 0.  0.
<mgrwt>
<rscale>  0 0.64900521E+03</rscale>
<asrwt>0</asrwt>
<pdfrwt beam="1">  1        2 0.19136363E+00 0.64900521E+03</pdfrwt>
<pdfrwt beam="2">  1       -2 0.11230029E-01 0.64900521E+03</pdfrwt>
<totfact> 0.10237988E+03</totfact>
</mgrwt>
</event>
<event>
 4    1  0.5985962E-005  0.4914327E+03  0.7818608E-02  0.1016040E+00
         -2   -1    0    0    0  501 -0.00000000000E+00  0.00000000000E+00  0.82901695220E+02  0.82901695259E+02  0.25500000000E-02 0. -1.
          2   -1    0    0  501    0  0.00000000000E+00 -0.00000000000E+00 -0.72829053121E+03  0.72829053122E+03  0.25500000000E-02 0.  1.
    5000001    1    1    2    0    0  0.11700809449E+03 -0.10564938515E+03 -0.30055866341E+03  0.38798478953E+03  0.18800000000E+03 0.  0.
   -5000001    1    1    2    0    0 -0.11700809449E+03  0.10564938515E+03 -0.34483017259E+03  0.42320743694E+03  0.18800000000E+03 0.  0.
<mgrwt>
<rscale>  0 0.49143268E+03</rscale>
<asrwt>0</asrwt>
<pdfrwt beam="1">  1        2 0.10404150E+00 0.49143268E+03</pdfrwt>
<pdfrwt beam="2">  1       -2 0.11843100E-01 0.49143268E+03</pdfrwt>
<totfact> 0.22217174E+03</totfact>
</mgrwt>
</event>
<event>
 4    1  0.5985962E-005  0.6430202E+03  0.7818608E-02  0.9819965E-01
         -2   -1    0    0    0  501 -0.00000000000E+00  0.00000000000E+00  0.87999635589E+02  0.87999635626E+02  0.25500000000E-02 0.  1.
          2   -1    0    0  501    0  0.00000000000E+00 -0.00000000000E+00 -0.11746498366E+04  0.11746498366E+04  0.25500000000E-02 0. -1.
    5000001    1    1    2    0    0 -0.12092073156E+03  0.17088063612E+03 -0.84881049242E+03  0.89422886733E+03  0.18800000000E+03 0.  0.
   -5000001    1    1    2    0    0  0.12092073156E+03 -0.17088063612E+03 -0.23783970854E+03  0.36842060485E+03  0.18800000000E+03 0.  0.
<mgrwt>
<rscale>  0 0.64302024E+03</rscale>
<asrwt>0</asrwt>
<pdfrwt beam="1">  1        2 0.16780711E+00 0.64302024E+03</pdfrwt>
<pdfrwt beam="2">  1       -2 0.12571377E-01 0.64302024E+03</pdfrwt>
<totfact> 0.10487468E+03</totfact>
</mgrwt>
</event>
<event>
 4    1  0.5985962E-005  0.4810792E+03  0.7818608E-02  0.1018839E+00
          2   -1    0    0  501    0  0.00000000000E+00  0.00000000000E+00  0.94710221816E+03  0.94710221816E+03  0.25500000000E-02 0.  1.
         -2   -1    0    0    0  501 -0.00000000000E+00 -0.00000000000E+00 -0.61090879891E+02  0.61090879944E+02  0.25500000000E-02 0. -1.
    5000001    1    1    2    0    0 -0.88660266197E+02 -0.26122420386E+00  0.69670191741E+03  0.72704764133E+03  0.18800000000E+03 0.  0.
   -5000001    1    1    2    0    0  0.88660266197E+02  0.26122420386E+00  0.18930942085E+03  0.28114545677E+03  0.18800000000E+03 0.  0.
<mgrwt>
<rscale>  0 0.48107924E+03</rscale>
<asrwt>0</asrwt>
<pdfrwt beam="1">  1        2 0.13530031E+00 0.48107924E+03</pdfrwt>
<pdfrwt beam="2">  1       -2 0.87272687E-02 0.48107924E+03</pdfrwt>
<totfact> 0.25936523E+03</totfact>
</mgrwt>
</event>
<event>
 4    1  0.5985962E-005  0.6425372E+03  0.7818608E-02  0.9820884E-01
          2   -1    0    0  501    0  0.00000000000E+00  0.00000000000E+00  0.25799412974E+04  0.25799412974E+04  0.25500000000E-02 0.  1.
         -2   -1    0    0    0  501 -0.00000000000E+00 -0.00000000000E+00 -0.40006151735E+02  0.40006151816E+02  0.25500000000E-02 0. -1.
    5000001    1    1    2    0    0 -0.23110377271E+03  0.77998022420E+02  0.89677295231E+03  0.94817634080E+03  0.18800000000E+03 0.  0.
   -5000001    1    1    2    0    0  0.23110377271E+03 -0.77998022420E+02  0.16431621934E+04  0.16717711084E+04  0.18800000000E+03 0.  0.
<mgrwt>
<rscale>  0 0.64253723E+03</rscale>
<asrwt>0</asrwt>
<pdfrwt beam="1">  1        2 0.36856301E+00 0.64253723E+03</pdfrwt>
<pdfrwt beam="2">  1       -2 0.57151650E-02 0.64253723E+03</pdfrwt>
<totfact> 0.69912463E+02</totfact>
</mgrwt>
</event>
<event>
 4    1  0.5985962E-005  0.6099479E+03  0.7818608E-02  0.9884980E-01
          2   -1    0    0  501    0  0.00000000000E+00  0.00000000000E+00  0.37684779446E+03  0.37684779447E+03  0.25500000000E-02 0.  1.
         -2   -1    0    0    0  501 -0.00000000000E+00 -0.00000000000E+00 -0.24680814975E+03  0.24680814976E+03  0.25500000000E-02 0. -1.
    5000001    1    1    2    0    0  0.18915093161E+03  0.11938441717E+03  0.15435851377E+03  0.33045614651E+03  0.18800000000E+03 0.  0.
   -5000001    1    1    2    0    0 -0.18915093161E+03 -0.11938441717E+03 -0.24318869054E+02  0.29319979772E+03  0.18800000000E+03 0.  0.
<mgrwt>
<rscale>  0 0.60994789E+03</rscale>
<asrwt>0</asrwt>
<pdfrwt beam="1">  1        2 0.53835399E-01 0.60994789E+03</pdfrwt>
<pdfrwt beam="2">  1       -2 0.35258307E-01 0.60994789E+03</pdfrwt>
<totfact> 0.70191040E+02</totfact>
</mgrwt>
</event>
<event>
 4    1  0.5985962E-005  0.4992637E+03  0.7818608E-02  0.1013971E+00
          2   -1    0    0  501    0  0.00000000000E+00  0.00000000000E+00  0.63327735463E+03  0.63327735463E+03  0.25500000000E-02 0.  1.
         -2   -1    0    0    0  501 -0.00000000000E+00 -0.00000000000E+00 -0.98402481705E+02  0.98402481738E+02  0.25500000000E-02 0. -1.
    5000001    1    1    2    0    0  0.46918328256E+02  0.15706944668E+03  0.28208694960E+03  0.37654905091E+03  0.18800000000E+03 0.  0.
   -5000001    1    1    2    0    0 -0.46918328256E+02 -0.15706944668E+03  0.25278792332E+03  0.35513078546E+03  0.18800000000E+03 0.  0.
<mgrwt>
<rscale>  0 0.49926371E+03</rscale>
<asrwt>0</asrwt>
<pdfrwt beam="1">  1        2 0.90468194E-01 0.49926371E+03</pdfrwt>
<pdfrwt beam="2">  1       -2 0.14057497E-01 0.49926371E+03</pdfrwt>
<totfact> 0.19816252E+03</totfact>
</mgrwt>
</event>
<event>
 4    1  0.5985962E-005  0.5530917E+03  0.7818608E-02  0.1000781E+00
          2   -1    0    0  501    0  0.00000000000E+00  0.00000000000E+00  0.13106175935E+03  0.13106175937E+03  0.25500000000E-02 0.  1.
         -2   -1    0    0    0  501 -0.00000000000E+00 -0.00000000000E+00 -0.58352340859E+03  0.58352340860E+03  0.25500000000E-02 0. -1.
    5000001    1    1    2    0    0  0.70789513989E+02  0.95751134107E+02 -0.43834507281E+03  0.49159926549E+03  0.18800000000E+03 0.  0.
   -5000001    1    1    2    0    0 -0.70789513989E+02 -0.95751134107E+02 -0.14116576428E+02  0.22298590248E+03  0.18800000000E+03 0.  0.
<mgrwt>
<rscale>  0 0.55309169E+03</rscale>
<asrwt>0</asrwt>
<pdfrwt beam="1">  1        2 0.18723109E-01 0.55309169E+03</pdfrwt>
<pdfrwt beam="2">  1       -2 0.83360486E-01 0.55309169E+03</pdfrwt>
<totfact> 0.39081013E+02</totfact>
</mgrwt>
</event>
<event>
 4    1  0.5985962E-005  0.4721292E+03  0.7818608E-02  0.1021321E+00
          2   -1    0    0  501    0  0.00000000000E+00  0.00000000000E+00  0.36420433261E+03  0.36420433262E+03  0.25500000000E-02 0.  1.
         -2   -1    0    0    0  501 -0.00000000000E+00 -0.00000000000E+00 -0.15300885929E+03  0.15300885931E+03  0.25500000000E-02 0. -1.
    5000001    1    1    2    0    0 -0.12148338886E+03 -0.46960969925E+02  0.41542493138E+02  0.23245069413E+03  0.18800000000E+03 0.  0.
   -5000001    1    1    2    0    0  0.12148338886E+03  0.46960969925E+02  0.16965298019E+03  0.28476249780E+03  0.18800000000E+03 0.  0.
<mgrwt>
<rscale>  0 0.47212918E+03</rscale>
<asrwt>0</asrwt>
<pdfrwt beam="1">  1        2 0.52029190E-01 0.47212918E+03</pdfrwt>
<pdfrwt beam="2">  1       -2 0.21858409E-01 0.47212918E+03</pdfrwt>
<totfact> 0.17421867E+03</totfact>
</mgrwt>
</event>
<event>
 4    1  0.5985962E-005  0.4943309E+03  0.7818608E-02  0.1015269E+00
          2   -1    0    0  501    0  0.00000000000E+00  0.00000000000E+00  0.14685290695E+04  0.14685290695E+04  0.25500000000E-02 0.  1.
         -2   -1    0    0    0  501 -0.00000000000E+00 -0.00000000000E+00 -0.41599968869E+02  0.41599968947E+02  0.25500000000E-02 0. -1.
    5000001    1    1    2    0    0 -0.60881119209E+02 -0.14612834069E+03  0.79352151134E+03  0.83071077493E+03  0.18800000000E+03 0.  0.
   -5000001    1    1    2    0    0  0.60881119209E+02  0.14612834069E+03  0.63340758929E+03  0.67941826351E+03  0.18800000000E+03 0.  0.
<mgrwt>
<rscale>  0 0.49433092E+03</rscale>
<asrwt>0</asrwt>
<pdfrwt beam="1">  1        2 0.20978986E+00 0.49433092E+03</pdfrwt>
<pdfrwt beam="2">  1       -2 0.59428529E-02 0.49433092E+03</pdfrwt>
<totfact> 0.24258046E+03</totfact>
</mgrwt>
</event>
<event>
 4    1  0.5985962E-005  0.7917148E+03  0.7818608E-02  0.9572088E-01
          2   -1    0    0  501    0  0.00000000000E+00  0.00000000000E+00  0.19001503051E+03  0.19001503052E+03  0.25500000000E-02 0.  1.
         -2   -1    0    0    0  501 -0.00000000000E+00 -0.00000000000E+00 -0.82468786494E+03  0.82468786494E+03  0.25500000000E-02 0. -1.
    5000001    1    1    2    0    0 -0.80649731619E+02  0.21202868484E+03 -0.65618384979E+03  0.71929256019E+03  0.18800000000E+03 0.  0.
   -5000001    1    1    2    0    0  0.80649731619E+02 -0.21202868484E+03  0.21511015367E+02  0.29541033528E+03  0.18800000000E+03 0.  0.
<mgrwt>
<rscale>  0 0.79171482E+03</rscale>
<asrwt>0</asrwt>
<pdfrwt beam="1">  1        2 0.27145005E-01 0.79171482E+03</pdfrwt>
<pdfrwt beam="2">  1       -2 0.11781255E+00 0.79171482E+03</pdfrwt>
<totfact> 0.11167395E+02</totfact>
</mgrwt>
</event>
<event>
 4    1  0.5985962E-005  0.6349390E+03  0.7818608E-02  0.9835458E-01
         -2   -1    0    0    0  501 -0.00000000000E+00  0.00000000000E+00  0.67720837663E+02  0.67720837711E+02  0.25500000000E-02 0. -1.
          2   -1    0    0  501    0  0.00000000000E+00 -0.00000000000E+00 -0.14882696981E+04  0.14882696981E+04  0.25500000000E-02 0.  1.
    5000001    1    1    2    0    0 -0.20057010924E+03  0.13691518763E+03 -0.90737351108E+03  0.95793779858E+03  0.18800000000E+03 0.  0.
   -5000001    1    1    2    0    0  0.20057010924E+03 -0.13691518763E+03 -0.51317534930E+03  0.59805273719E+03  0.18800000000E+03 0.  0.
<mgrwt>
<rscale>  0 0.63493896E+03</rscale>
<asrwt>0</asrwt>
<pdfrwt beam="1">  1        2 0.21260994E+00 0.63493896E+03</pdfrwt>
<pdfrwt beam="2">  1       -2 0.96744063E-02 0.63493896E+03</pdfrwt>
<totfact> 0.10887559E+03</totfact>
</mgrwt>
</event>
<event>
 4    1  0.5985962E-005  0.4549064E+03  0.7818608E-02  0.1026269E+00
          2   -1    0    0  501    0  0.00000000000E+00  0.00000000000E+00  0.11396918598E+04  0.11396918598E+04  0.25500000000E-02 0.  1.
         -2   -1    0    0    0  501 -0.00000000000E+00 -0.00000000000E+00 -0.45393820361E+02  0.45393820432E+02  0.25500000000E-02 0. -1.
    5000001    1    1    2    0    0  0.12017657592E+03 -0.14723762813E+02  0.43873819583E+03  0.49243720724E+03  0.18800000000E+03 0.  0.
   -5000001    1    1    2    0    0 -0.12017657592E+03  0.14723762813E+02  0.65555984361E+03  0.69264847300E+03  0.18800000000E+03 0.  0.
<mgrwt>
<rscale>  0 0.45490644E+03</rscale>
<asrwt>0</asrwt>
<pdfrwt beam="1">  1        2 0.16281313E+00 0.45490644E+03</pdfrwt>
<pdfrwt beam="2">  1       -2 0.64848312E-02 0.45490644E+03</pdfrwt>
<totfact> 0.31872708E+03</totfact>
</mgrwt>
</event>
<event>
 4    1  0.5985962E-005  0.5791614E+03  0.7818608E-02  0.9949608E-01
         -2   -1    0    0    0  501 -0.00000000000E+00  0.00000000000E+00  0.31699047416E+02  0.31699047519E+02  0.25500000000E-02 0. -1.
          2   -1    0    0  501    0  0.00000000000E+00 -0.00000000000E+00 -0.26454104913E+04  0.26454104914E+04  0.25500000000E-02 0.  1.
    5000001    1    1    2    0    0 -0.12023029005E+03  0.53037671294E+02 -0.21239167824E+04  0.21362665601E+04  0.18800000000E+03 0.  0.
   -5000001    1    1    2    0    0  0.12023029005E+03 -0.53037671294E+02 -0.48979466153E+03  0.54084297877E+03  0.18800000000E+03 0.  0.
<mgrwt>
<rscale>  0 0.57916144E+03</rscale>
<asrwt>0</asrwt>
<pdfrwt beam="1">  1        2 0.37791564E+00 0.57916144E+03</pdfrwt>
<pdfrwt beam="2">  1       -2 0.45284370E-02 0.57916144E+03</pdfrwt>
<totfact> 0.93277459E+02</totfact>
</mgrwt>
</event>
<event>
 4    1  0.5985962E-005  0.5468484E+03  0.7818608E-02  0.1002226E+00
          2   -1    0    0  501    0  0.00000000000E+00  0.00000000000E+00  0.36509550453E+03  0.36509550454E+03  0.25500000000E-02 0.  1.
         -2   -1    0    0    0  501 -0.00000000000E+00 -0.00000000000E+00 -0.20477051474E+03  0.20477051475E+03  0.25500000000E-02 0. -1.
    5000001    1    1    2    0    0 -0.37780674962E+02 -0.18891383360E+03  0.30174917516E+02  0.27086960253E+03  0.18800000000E+03 0.  0.
   -5000001    1    1    2    0    0  0.37780674962E+02  0.18891383360E+03  0.13015007228E+03  0.29899641677E+03  0.18800000000E+03 0.  0.
<mgrwt>
<rscale>  0 0.54684840E+03</rscale>
<asrwt>0</asrwt>
<pdfrwt beam="1">  1        2 0.52156500E-01 0.54684840E+03</pdfrwt>
<pdfrwt beam="2">  1       -2 0.29252931E-01 0.54684840E+03</pdfrwt>
<totfact> 0.10307336E+03</totfact>
</mgrwt>
</event>
<event>
 4    1  0.5985962E-005  0.4672415E+03  0.7818608E-02  0.1022702E+00
         -2   -1    0    0    0  501 -0.00000000000E+00  0.00000000000E+00  0.69415497805E+02  0.69415497852E+02  0.25500000000E-02 0. -1.
          2   -1    0    0  501    0  0.00000000000E+00 -0.00000000000E+00 -0.78626027369E+03  0.78626027370E+03  0.25500000000E-02 0.  1.
    5000001    1    1    2    0    0 -0.12967613528E+03  0.39699556715E+02 -0.41158455344E+03  0.47237463892E+03  0.18800000000E+03 0.  0.
   -5000001    1    1    2    0    0  0.12967613528E+03 -0.39699556715E+02 -0.30526022245E+03  0.38330113263E+03  0.18800000000E+03 0.  0.
<mgrwt>
<rscale>  0 0.46724147E+03</rscale>
<asrwt>0</asrwt>
<pdfrwt beam="1">  1        2 0.11232289E+00 0.46724147E+03</pdfrwt>
<pdfrwt beam="2">  1       -2 0.99165002E-02 0.46724147E+03</pdfrwt>
<totfact> 0.26938850E+03</totfact>
</mgrwt>
</event>
<event>
 4    1  0.5985962E-005  0.1301850E+04  0.7818608E-02  0.9028100E-01
         -2   -1    0    0    0  501 -0.00000000000E+00  0.00000000000E+00  0.26506684644E+03  0.26506684646E+03  0.25500000000E-02 0. -1.
          2   -1    0    0  501    0  0.00000000000E+00 -0.00000000000E+00 -0.15984761494E+04  0.15984761494E+04  0.25500000000E-02 0.  1.
    5000001    1    1    2    0    0  0.54744027277E+03  0.19034939100E+03 -0.33891859961E+03  0.69723278757E+03  0.18800000000E+03 0.  0.
   -5000001    1    1    2    0    0 -0.54744027277E+03 -0.19034939100E+03 -0.99449070330E+03  0.11663102082E+04  0.18800000000E+03 0.  0.
<mgrwt>
<rscale>  0 0.13018495E+04</rscale>
<asrwt>0</asrwt>
<pdfrwt beam="1">  1        2 0.22835373E+00 0.13018495E+04</pdfrwt>
<pdfrwt beam="2">  1       -2 0.37866693E-01 0.13018495E+04</pdfrwt>
<totfact> 0.83616774E+01</totfact>
</mgrwt>
</event>
<event>
 4    1  0.5985962E-005  0.5271184E+03  0.7818608E-02  0.1006933E+00
         -2   -1    0    0    0  501 -0.00000000000E+00  0.00000000000E+00  0.19919257039E+03  0.19919257041E+03  0.25500000000E-02 0. -1.
          2   -1    0    0  501    0  0.00000000000E+00 -0.00000000000E+00 -0.34872505409E+03  0.34872505410E+03  0.25500000000E-02 0.  1.
    5000001    1    1    2    0    0  0.34231545718E+02 -0.18056487422E+03 -0.94044409500E+02  0.27922002701E+03  0.18800000000E+03 0.  0.
   -5000001    1    1    2    0    0 -0.34231545718E+02  0.18056487422E+03 -0.55488074196E+02  0.26869759750E+03  0.18800000000E+03 0.  0.
<mgrwt>
<rscale>  0 0.52711835E+03</rscale>
<asrwt>0</asrwt>
<pdfrwt beam="1">  1        2 0.49817865E-01 0.52711835E+03</pdfrwt>
<pdfrwt beam="2">  1       -2 0.28456082E-01 0.52711835E+03</pdfrwt>
<totfact> 0.11405141E+03</totfact>
</mgrwt>
</event>
<event>
 4    1  0.5985962E-005  0.7728263E+03  0.7818608E-02  0.9600205E-01
          2   -1    0    0  501    0  0.00000000000E+00  0.00000000000E+00  0.10685659960E+03  0.10685659963E+03  0.25500000000E-02 0.  1.
         -2   -1    0    0    0  501 -0.00000000000E+00 -0.00000000000E+00 -0.13973412090E+04  0.13973412090E+04  0.25500000000E-02 0. -1.
    5000001    1    1    2    0    0 -0.22157150256E+03 -0.24124599383E+03 -0.80429178930E+03  0.88855097919E+03  0.18800000000E+03 0.  0.
   -5000001    1    1    2    0    0  0.22157150256E+03  0.24124599383E+03 -0.48619282009E+03  0.61564682944E+03  0.18800000000E+03 0.  0.
<mgrwt>
<rscale>  0 0.77282632E+03</rscale>
<asrwt>0</asrwt>
<pdfrwt beam="1">  1        2 0.15265229E-01 0.77282632E+03</pdfrwt>
<pdfrwt beam="2">  1       -2 0.19962016E+00 0.77282632E+03</pdfrwt>
<totfact> 0.53360132E+01</totfact>
</mgrwt>
</event>
<event>
 4    1  0.5985962E-005  0.8202279E+03  0.7818608E-02  0.9531191E-01
         -2   -1    0    0    0  501 -0.00000000000E+00  0.00000000000E+00  0.76468001018E+02  0.76468001061E+02  0.25500000000E-02 0. -1.
          2   -1    0    0  501    0  0.00000000000E+00 -0.00000000000E+00 -0.21995270541E+04  0.21995270541E+04  0.25500000000E-02 0.  1.
    5000001    1    1    2    0    0 -0.16650343446E+03  0.22577565790E+03 -0.41581341481E+03  0.53567045590E+03  0.18800000000E+03 0.  0.
   -5000001    1    1    2    0    0  0.16650343446E+03 -0.22577565790E+03 -0.17072456382E+04  0.17403245992E+04  0.18800000000E+03 0.  0.
<mgrwt>
<rscale>  0 0.82022786E+03</rscale>
<asrwt>0</asrwt>
<pdfrwt beam="1">  1        2 0.31421811E+00 0.82022786E+03</pdfrwt>
<pdfrwt beam="2">  1       -2 0.10924002E-01 0.82022786E+03</pdfrwt>
<totfact> 0.38325069E+02</totfact>
</mgrwt>
</event>
<event>
 4    1  0.5985962E-005  0.5854377E+03  0.7818608E-02  0.9936087E-01
          2   -1    0    0  501    0  0.00000000000E+00  0.00000000000E+00  0.10116119307E+04  0.10116119307E+04  0.25500000000E-02 0.  1.
         -2   -1    0    0    0  501 -0.00000000000E+00 -0.00000000000E+00 -0.84700775792E+02  0.84700775830E+02  0.25500000000E-02 0. -1.
    5000001    1    1    2    0    0 -0.53037192797E+02 -0.84982892916E+02  0.87501538526E+02  0.23029449657E+03  0.18800000000E+03 0.  0.
   -5000001    1    1    2    0    0  0.53037192797E+02  0.84982892916E+02  0.83940961641E+03  0.86601820999E+03  0.18800000000E+03 0.  0.
<mgrwt>
<rscale>  0 0.58543767E+03</rscale>
<asrwt>0</asrwt>
<pdfrwt beam="1">  1        2 0.14451599E+00 0.58543767E+03</pdfrwt>
<pdfrwt beam="2">  1       -2 0.12100110E-01 0.58543767E+03</pdfrwt>
<totfact> 0.13932141E+03</totfact>
</mgrwt>
</event>
<event>
 4    1  0.5985962E-005  0.5272380E+03  0.7818608E-02  0.1006904E+00
         -2   -1    0    0    0  501 -0.00000000000E+00  0.00000000000E+00  0.41996435544E+03  0.41996435545E+03  0.25500000000E-02 0. -1.
          2   -1    0    0  501    0  0.00000000000E+00 -0.00000000000E+00 -0.16547826165E+03  0.16547826167E+03  0.25500000000E-02 0.  1.
    5000001    1    1    2    0    0  0.31701426648E+02 -0.65879547063E+02  0.31570261576E+03  0.37464281225E+03  0.18800000000E+03 0.  0.
   -5000001    1    1    2    0    0 -0.31701426648E+02  0.65879547063E+02 -0.61216521971E+02  0.21079980487E+03  0.18800000000E+03 0.  0.
<mgrwt>
<rscale>  0 0.52723798E+03</rscale>
<asrwt>0</asrwt>
<pdfrwt beam="1">  1        2 0.23639752E-01 0.52723798E+03</pdfrwt>
<pdfrwt beam="2">  1       -2 0.59994906E-01 0.52723798E+03</pdfrwt>
<totfact> 0.60979666E+02</totfact>
</mgrwt>
</event>
<event>
 4    1  0.5985962E-005  0.4917677E+03  0.7818608E-02  0.1015950E+00
         -2   -1    0    0    0  501 -0.00000000000E+00  0.00000000000E+00  0.26959408335E+04  0.26959408335E+04  0.25500000000E-02 0. -1.
          2   -1    0    0  501    0  0.00000000000E+00 -0.00000000000E+00 -0.22425887032E+02  0.22425887176E+02  0.25500000000E-02 0.  1.
    5000001    1    1    2    0    0  0.11085250500E+03 -0.11307823898E+03  0.13018412024E+04  0.13248431916E+04  0.18800000000E+03 0.  0.
   -5000001    1    1    2    0    0 -0.11085250500E+03  0.11307823898E+03  0.13716737441E+04  0.13935235291E+04  0.18800000000E+03 0.  0.
<mgrwt>
<rscale>  0 0.49176769E+03</rscale>
<asrwt>0</asrwt>
<pdfrwt beam="1">  1        2 0.32036992E-02 0.49176769E+03</pdfrwt>
<pdfrwt beam="2">  1       -2 0.38513428E+00 0.49176769E+03</pdfrwt>
<totfact> 0.30979261E+01</totfact>
</mgrwt>
</event>
<event>
 4    1  0.5985962E-005  0.5590295E+03  0.7818608E-02  0.9994253E-01
         -2   -1    0    0    0  501 -0.00000000000E+00  0.00000000000E+00  0.37934588021E+03  0.37934588022E+03  0.25500000000E-02 0. -1.
          2   -1    0    0  501    0  0.00000000000E+00 -0.00000000000E+00 -0.20595581328E+03  0.20595581330E+03  0.25500000000E-02 0.  1.
    5000001    1    1    2    0    0 -0.12839476275E+03 -0.16067621467E+03  0.63698550385E+02  0.28583835709E+03  0.18800000000E+03 0.  0.
   -5000001    1    1    2    0    0  0.12839476275E+03  0.16067621467E+03  0.10969151654E+03  0.29946333643E+03  0.18800000000E+03 0.  0.
<mgrwt>
<rscale>  0 0.55902948E+03</rscale>
<asrwt>0</asrwt>
<pdfrwt beam="1">  1        2 0.29422259E-01 0.55902948E+03</pdfrwt>
<pdfrwt beam="2">  1       -2 0.54192268E-01 0.55902948E+03</pdfrwt>
<totfact> 0.58747609E+02</totfact>
</mgrwt>
</event>
<event>
 4    1  0.5985962E-005  0.6769111E+03  0.7818608E-02  0.9757553E-01
          2   -1    0    0  501    0  0.00000000000E+00  0.00000000000E+00  0.23402432254E+04  0.23402432254E+04  0.25500000000E-02 0. -1.
         -2   -1    0    0    0  501 -0.00000000000E+00 -0.00000000000E+00 -0.48948831381E+02  0.48948831447E+02  0.25500000000E-02 0.  1.
    5000001    1    1    2    0    0 -0.24835898229E+03 -0.11772246587E+03  0.93190069236E+03  0.98960783317E+03  0.18800000000E+03 0.  0.
   -5000001    1    1    2    0    0  0.24835898229E+03  0.11772246587E+03  0.13593937017E+04  0.13995842237E+04  0.18800000000E+03 0.  0.
<mgrwt>
<rscale>  0 0.67691113E+03</rscale>
<asrwt>0</asrwt>
<pdfrwt beam="1">  1        2 0.33432039E+00 0.67691113E+03</pdfrwt>
<pdfrwt beam="2">  1       -2 0.69926916E-02 0.67691113E+03</pdfrwt>
<totfact> 0.67382647E+02</totfact>
</mgrwt>
</event>
<event>
 4    1  0.5985962E-005  0.4717803E+03  0.7818608E-02  0.1021419E+00
          2   -1    0    0  501    0  0.00000000000E+00  0.00000000000E+00  0.48037080718E+02  0.48037080786E+02  0.25500000000E-02 0.  1.
         -2   -1    0    0    0  501 -0.00000000000E+00 -0.00000000000E+00 -0.11583585763E+04  0.11583585763E+04  0.25500000000E-02 0. -1.
    5000001    1    1    2    0    0 -0.11984882926E+03  0.61296836230E+02 -0.43579201696E+03  0.49333530794E+03  0.18800000000E+03 0.  0.
   -5000001    1    1    2    0    0  0.11984882926E+03 -0.61296836230E+02 -0.67452947863E+03  0.71306034916E+03  0.18800000000E+03 0.  0.
<mgrwt>
<rscale>  0 0.47178031E+03</rscale>
<asrwt>0</asrwt>
<pdfrwt beam="1">  1        2 0.68624408E-02 0.47178031E+03</pdfrwt>
<pdfrwt beam="2">  1       -2 0.16547978E+00 0.47178031E+03</pdfrwt>
<totfact> 0.25367764E+02</totfact>
</mgrwt>
</event>
<event>
 4    1  0.5985962E-005  0.4113349E+03  0.7818608E-02  0.1039924E+00
          2   -1    0    0  501    0  0.00000000000E+00  0.00000000000E+00  0.16880409359E+04  0.16880409359E+04  0.25500000000E-02 0.  1.
         -2   -1    0    0    0  501 -0.00000000000E+00 -0.00000000000E+00 -0.25058096392E+02  0.25058096522E+02  0.25500000000E-02 0. -1.
    5000001    1    1    2    0    0  0.33605157054E+02  0.13939968318E+02  0.11440256409E+04  0.11599406435E+04  0.18800000000E+03 0.  0.
   -5000001    1    1    2    0    0 -0.33605157054E+02 -0.13939968318E+02  0.51895719854E+03  0.55315838890E+03  0.18800000000E+03 0.  0.
<mgrwt>
<rscale>  0 0.41133486E+03</rscale>
<asrwt>0</asrwt>
<pdfrwt beam="1">  1        2 0.24114879E+00 0.41133486E+03</pdfrwt>
<pdfrwt beam="2">  1       -2 0.35797269E-02 0.41133486E+03</pdfrwt>
<totfact> 0.40861049E+03</totfact>
</mgrwt>
</event>
<event>
 4    1  0.5985962E-005  0.6750624E+03  0.7818608E-02  0.9760856E-01
          2   -1    0    0  501    0  0.00000000000E+00  0.00000000000E+00  0.42542899821E+03  0.42542899822E+03  0.25500000000E-02 0.  1.
         -2   -1    0    0    0  501 -0.00000000000E+00 -0.00000000000E+00 -0.26779392448E+03  0.26779392450E+03  0.25500000000E-02 0. -1.
    5000001    1    1    2    0    0  0.27453028966E+03  0.48734504956E+02  0.49030843310E+02  0.33983813134E+03  0.18800000000E+03 0.  0.
   -5000001    1    1    2    0    0 -0.27453028966E+03 -0.48734504956E+02  0.10860423042E+03  0.35338479138E+03  0.18800000000E+03 0.  0.
<mgrwt>
<rscale>  0 0.67506237E+03</rscale>
<asrwt>0</asrwt>
<pdfrwt beam="1">  1        2 0.60775571E-01 0.67506237E+03</pdfrwt>
<pdfrwt beam="2">  1       -2 0.38256275E-01 0.67506237E+03</pdfrwt>
<totfact> 0.52388738E+02</totfact>
</mgrwt>
</event>
<event>
 4    1  0.5985962E-005  0.6586671E+03  0.7818608E-02  0.9790651E-01
          2   -1    0    0  501    0  0.00000000000E+00  0.00000000000E+00  0.17805514122E+04  0.17805514122E+04  0.25500000000E-02 0.  1.
         -2   -1    0    0    0  501 -0.00000000000E+00 -0.00000000000E+00 -0.60914046187E+02  0.60914046241E+02  0.25500000000E-02 0. -1.
    5000001    1    1    2    0    0 -0.26588591835E+03  0.48354980746E+02  0.88529914698E+03  0.94452745084E+03  0.18800000000E+03 0.  0.
   -5000001    1    1    2    0    0  0.26588591835E+03 -0.48354980746E+02  0.83433821899E+03  0.89693800756E+03  0.18800000000E+03 0.  0.
<mgrwt>
<rscale>  0 0.65866711E+03</rscale>
<asrwt>0</asrwt>
<pdfrwt beam="1">  1        2 0.25436448E+00 0.65866711E+03</pdfrwt>
<pdfrwt beam="2">  1       -2 0.87020068E-02 0.65866711E+03</pdfrwt>
<totfact> 0.91292590E+02</totfact>
</mgrwt>
</event>
<event>
 4    1  0.5985962E-005  0.2572782E+04  0.7818608E-02  0.8377506E-01
         -2   -1    0    0    0  501 -0.00000000000E+00  0.00000000000E+00  0.71623267863E+03  0.71623267863E+03  0.25500000000E-02 0. -1.
          2   -1    0    0  501    0  0.00000000000E+00 -0.00000000000E+00 -0.23104256996E+04  0.23104256996E+04  0.25500000000E-02 0.  1.
    5000001    1    1    2    0    0 -0.62961302467E+03  0.82655138378E+03 -0.16614678658E+04  0.19686084476E+04  0.18800000000E+03 0.  0.
   -5000001    1    1    2    0    0  0.62961302467E+03 -0.82655138378E+03  0.67274844874E+02  0.10580499306E+04  0.18800000000E+03 0.  0.
<mgrwt>
<rscale>  0 0.25727825E+04</rscale>
<asrwt>0</asrwt>
<pdfrwt beam="1">  1        2 0.33006081E+00 0.25727825E+04</pdfrwt>
<pdfrwt beam="2">  1       -2 0.10231896E+00 0.25727825E+04</pdfrwt>
<totfact> 0.38657228E+00</totfact>
</mgrwt>
</event>
<event>
 4    1  0.5985962E-005  0.6121126E+03  0.7818608E-02  0.9880590E-01
         -2   -1    0    0    0  501 -0.00000000000E+00  0.00000000000E+00  0.20102487918E+03  0.20102487919E+03  0.25500000000E-02 0. -1.
          2   -1    0    0  501    0  0.00000000000E+00 -0.00000000000E+00 -0.46596455191E+03  0.46596455192E+03  0.25500000000E-02 0.  1.
    5000001    1    1    2    0    0  0.93901153166E+02 -0.21910177636E+03 -0.90219272528E+02  0.31671206499E+03  0.18800000000E+03 0.  0.
   -5000001    1    1    2    0    0 -0.93901153166E+02  0.21910177636E+03 -0.17472040020E+03  0.35027736613E+03  0.18800000000E+03 0.  0.
<mgrwt>
<rscale>  0 0.61211263E+03</rscale>
<asrwt>0</asrwt>
<pdfrwt beam="1">  1        2 0.66566364E-01 0.61211263E+03</pdfrwt>
<pdfrwt beam="2">  1       -2 0.28717840E-01 0.61211263E+03</pdfrwt>
<totfact> 0.81207537E+02</totfact>
</mgrwt>
</event>
<event>
 4    1  0.5985962E-005  0.7683166E+03  0.7818608E-02  0.9607045E-01
          2   -1    0    0  501    0  0.00000000000E+00  0.00000000000E+00  0.78126648075E+03  0.78126648076E+03  0.25500000000E-02 0.  1.
         -2   -1    0    0    0  501 -0.00000000000E+00 -0.00000000000E+00 -0.18889532807E+03  0.18889532808E+03  0.25500000000E-02 0. -1.
    5000001    1    1    2    0    0 -0.26231800508E+02 -0.29029171966E+03  0.87642443128E+02  0.35774654114E+03  0.18800000000E+03 0.  0.
   -5000001    1    1    2    0    0  0.26231800508E+02  0.29029171966E+03  0.50472870956E+03  0.61241526770E+03  0.18800000000E+03 0.  0.
<mgrwt>
<rscale>  0 0.76831657E+03</rscale>
<asrwt>0</asrwt>
<pdfrwt beam="1">  1        2 0.11160950E+00 0.76831657E+03</pdfrwt>
<pdfrwt beam="2">  1       -2 0.26985047E-01 0.76831657E+03</pdfrwt>
<totfact> 0.49021144E+02</totfact>
</mgrwt>
</event>
<event>
 4    1  0.5985962E-005  0.7132075E+03  0.7818608E-02  0.9694909E-01
         -2   -1    0    0    0  501 -0.00000000000E+00  0.00000000000E+00  0.30175817983E+02  0.30175818090E+02  0.25500000000E-02 0. -1.
          2   -1    0    0  501    0  0.00000000000E+00 -0.00000000000E+00 -0.42141763821E+04  0.42141763821E+04  0.25500000000E-02 0.  1.
    5000001    1    1    2    0    0  0.11906637287E+03 -0.24696545268E+03 -0.13240235059E+04  0.13651194014E+04  0.18800000000E+03 0.  0.
   -5000001    1    1    2    0    0 -0.11906637287E+03  0.24696545268E+03 -0.28599770583E+04  0.28792327989E+04  0.18800000000E+03 0.  0.
<mgrwt>
<rscale>  0 0.71320746E+03</rscale>
<asrwt>0</asrwt>
<pdfrwt beam="1">  1        2 0.60202482E+00 0.71320746E+03</pdfrwt>
<pdfrwt beam="2">  1       -2 0.43108338E-02 0.71320746E+03</pdfrwt>
<totfact> 0.11507110E+02</totfact>
</mgrwt>
</event>
<event>
 4    1  0.5985962E-005  0.6514570E+03  0.7818608E-02  0.9804049E-01
          2   -1    0    0  501    0  0.00000000000E+00  0.00000000000E+00  0.24496951625E+04  0.24496951625E+04  0.25500000000E-02 0.  1.
         -2   -1    0    0    0  501 -0.00000000000E+00 -0.00000000000E+00 -0.43311131932E+02  0.43311132007E+02  0.25500000000E-02 0. -1.
    5000001    1    1    2    0    0  0.13386833048E+03  0.22466954493E+03  0.13890167880E+04  0.14258712325E+04  0.18800000000E+03 0.  0.
   -5000001    1    1    2    0    0 -0.13386833048E+03 -0.22466954493E+03  0.10173672426E+04  0.10671350621E+04  0.18800000000E+03 0.  0.
<mgrwt>
<rscale>  0 0.65145705E+03</rscale>
<asrwt>0</asrwt>
<pdfrwt beam="1">  1        2 0.34995652E+00 0.65145705E+03</pdfrwt>
<pdfrwt beam="2">  1       -2 0.61873033E-02 0.65145705E+03</pdfrwt>
<totfact> 0.71995550E+02</totfact>
</mgrwt>
</event>
<event>
 4    1  0.5985962E-005  0.5182854E+03  0.7818608E-02  0.1009113E+00
         -2   -1    0    0    0  501 -0.00000000000E+00  0.00000000000E+00  0.48531280031E+02  0.48531280098E+02  0.25500000000E-02 0.  1.
          2   -1    0    0  501    0  0.00000000000E+00 -0.00000000000E+00 -0.13837455864E+04  0.13837455864E+04  0.25500000000E-02 0. -1.
    5000001    1    1    2    0    0 -0.13071893078E+03 -0.80594057827E+02 -0.91828032667E+03  0.94982398336E+03  0.18800000000E+03 0.  0.
   -5000001    1    1    2    0    0  0.13071893078E+03  0.80594057827E+02 -0.41693397969E+03  0.48245288313E+03  0.18800000000E+03 0.  0.
<mgrwt>
<rscale>  0 0.51828542E+03</rscale>
<asrwt>0</asrwt>
<pdfrwt beam="1">  1        2 0.19767792E+00 0.51828542E+03</pdfrwt>
<pdfrwt beam="2">  1       -2 0.69330409E-02 0.51828542E+03</pdfrwt>
<totfact> 0.21103668E+03</totfact>
</mgrwt>
</event>
<event>
 4    1  0.5985962E-005  0.8168885E+03  0.7818608E-02  0.9535888E-01
          2   -1    0    0  501    0  0.00000000000E+00  0.00000000000E+00  0.18832443412E+04  0.18832443412E+04  0.25500000000E-02 0.  1.
         -2   -1    0    0    0  501 -0.00000000000E+00 -0.00000000000E+00 -0.88584742401E+02  0.88584742437E+02  0.25500000000E-02 0. -1.
    5000001    1    1    2    0    0  0.56113973547E+02 -0.31673239507E+03  0.49331421417E+03  0.61819988840E+03  0.18800000000E+03 0.  0.
   -5000001    1    1    2    0    0 -0.56113973547E+02  0.31673239507E+03  0.13013453846E+04  0.13536291952E+04  0.18800000000E+03 0.  0.
<mgrwt>
<rscale>  0 0.81688852E+03</rscale>
<asrwt>0</asrwt>
<pdfrwt beam="1">  1        2 0.26903493E+00 0.81688852E+03</pdfrwt>
<pdfrwt beam="2">  1       -2 0.12654962E-01 0.81688852E+03</pdfrwt>
<totfact> 0.43508687E+02</totfact>
</mgrwt>
</event>
<event>
 4    1  0.5985962E-005  0.5898599E+03  0.7818608E-02  0.9926670E-01
         -2   -1    0    0    0  501 -0.00000000000E+00  0.00000000000E+00  0.54690338188E+02  0.54690338248E+02  0.25500000000E-02 0. -1.
          2   -1    0    0  501    0  0.00000000000E+00 -0.00000000000E+00 -0.15904762365E+04  0.15904762365E+04  0.25500000000E-02 0.  1.
    5000001    1    1    2    0    0  0.18049680916E+03 -0.95004829830E+02 -0.48850190678E+03  0.56176786019E+03  0.18800000000E+03 0.  0.
   -5000001    1    1    2    0    0 -0.18049680916E+03  0.95004829830E+02 -0.10472839915E+04  0.10833987146E+04  0.18800000000E+03 0.  0.
<mgrwt>
<rscale>  0 0.58985993E+03</rscale>
<asrwt>0</asrwt>
<pdfrwt beam="1">  1        2 0.22721086E+00 0.58985993E+03</pdfrwt>
<pdfrwt beam="2">  1       -2 0.78129064E-02 0.58985993E+03</pdfrwt>
<totfact> 0.13601319E+03</totfact>
</mgrwt>
</event>
<event>
 4    1  0.5985962E-005  0.5399518E+03  0.7818608E-02  0.1003847E+00
          2   -1    0    0  501    0  0.00000000000E+00  0.00000000000E+00  0.12141038904E+04  0.12141038904E+04  0.25500000000E-02 0.  1.
         -2   -1    0    0    0  501 -0.00000000000E+00 -0.00000000000E+00 -0.60033557519E+02  0.60033557573E+02  0.25500000000E-02 0. -1.
    5000001    1    1    2    0    0  0.81167701244E+02  0.14115612411E+03  0.32921095459E+03  0.41259798802E+03  0.18800000000E+03 0.  0.
   -5000001    1    1    2    0    0 -0.81167701244E+02 -0.14115612411E+03  0.82485937831E+03  0.86153945997E+03  0.18800000000E+03 0.  0.
<mgrwt>
<rscale>  0 0.53995176E+03</rscale>
<asrwt>0</asrwt>
<pdfrwt beam="1">  1        2 0.17344341E+00 0.53995176E+03</pdfrwt>
<pdfrwt beam="2">  1       -2 0.85762228E-02 0.53995176E+03</pdfrwt>
<totfact> 0.18605726E+03</totfact>
</mgrwt>
</event>
<event>
 4    1  0.5985962E-005  0.4549426E+03  0.7818608E-02  0.1026258E+00
          2   -1    0    0  501    0  0.00000000000E+00  0.00000000000E+00  0.26921663917E+03  0.26921663918E+03  0.25500000000E-02 0.  1.
         -2   -1    0    0    0  501 -0.00000000000E+00 -0.00000000000E+00 -0.19219911005E+03  0.19219911006E+03  0.25500000000E-02 0. -1.
    5000001    1    1    2    0    0 -0.24420633898E+02  0.11202939887E+03 -0.19331118092E+02  0.22105349058E+03  0.18800000000E+03 0.  0.
   -5000001    1    1    2    0    0  0.24420633898E+02 -0.11202939887E+03  0.96348647214E+02  0.24036225867E+03  0.18800000000E+03 0.  0.
<mgrwt>
<rscale>  0 0.45494263E+03</rscale>
<asrwt>0</asrwt>
<pdfrwt beam="1">  1        2 0.38459520E-01 0.45494263E+03</pdfrwt>
<pdfrwt beam="2">  1       -2 0.27457016E-01 0.45494263E+03</pdfrwt>
<totfact> 0.16160476E+03</totfact>
</mgrwt>
</event>
<event>
 4    1  0.5985962E-005  0.7292181E+03  0.7818608E-02  0.9668530E-01
          2   -1    0    0  501    0  0.00000000000E+00  0.00000000000E+00  0.22846206170E+03  0.22846206171E+03  0.25500000000E-02 0.  1.
         -2   -1    0    0    0  501 -0.00000000000E+00 -0.00000000000E+00 -0.58188980803E+03  0.58188980803E+03  0.25500000000E-02 0. -1.
    5000001    1    1    2    0    0  0.31079052487E+03  0.23571602390E+02 -0.15315685008E+03  0.39490174919E+03  0.18800000000E+03 0.  0.
   -5000001    1    1    2    0    0 -0.31079052487E+03 -0.23571602390E+02 -0.20027089624E+03  0.41545012056E+03  0.18800000000E+03 0.  0.
<mgrwt>
<rscale>  0 0.72921806E+03</rscale>
<asrwt>0</asrwt>
<pdfrwt beam="1">  1        2 0.32637438E-01 0.72921806E+03</pdfrwt>
<pdfrwt beam="2">  1       -2 0.83127115E-01 0.72921806E+03</pdfrwt>
<totfact> 0.20694760E+02</totfact>
</mgrwt>
</event>
<event>
 4    1  0.5985962E-005  0.9057981E+03  0.7818608E-02  0.9418362E-01
          2   -1    0    0  501    0  0.00000000000E+00  0.00000000000E+00  0.10970627588E+04  0.10970627588E+04  0.25500000000E-02 0.  1.
         -2   -1    0    0    0  501 -0.00000000000E+00 -0.00000000000E+00 -0.18696973412E+03  0.18696973414E+03  0.25500000000E-02 0. -1.
    5000001    1    1    2    0    0  0.38440523570E+03  0.52712067317E+02  0.65161187737E+03  0.78133730617E+03  0.18800000000E+03 0.  0.
   -5000001    1    1    2    0    0 -0.38440523570E+03 -0.52712067317E+02  0.25848114727E+03  0.50269518674E+03  0.18800000000E+03 0.  0.
<mgrwt>
<rscale>  0 0.90579806E+03</rscale>
<asrwt>0</asrwt>
<pdfrwt beam="1">  1        2 0.15672325E+00 0.90579806E+03</pdfrwt>
<pdfrwt beam="2">  1       -2 0.26709962E-01 0.90579806E+03</pdfrwt>
<totfact> 0.31154950E+02</totfact>
</mgrwt>
</event>
<event>
 4    1  0.5985962E-005  0.5771908E+03  0.7818608E-02  0.9953891E-01
          2   -1    0    0  501    0  0.00000000000E+00  0.00000000000E+00  0.26654156000E+03  0.26654156001E+03  0.25500000000E-02 0.  1.
         -2   -1    0    0    0  501 -0.00000000000E+00 -0.00000000000E+00 -0.31247400959E+03  0.31247400960E+03  0.25500000000E-02 0. -1.
    5000001    1    1    2    0    0 -0.67801305670E+02 -0.13200433288E+03  0.13854323074E+03  0.27669547834E+03  0.18800000000E+03 0.  0.
   -5000001    1    1    2    0    0  0.67801305670E+02  0.13200433288E+03 -0.18447568034E+03  0.30232009127E+03  0.18800000000E+03 0.  0.
<mgrwt>
<rscale>  0 0.57719082E+03</rscale>
<asrwt>0</asrwt>
<pdfrwt beam="1">  1        2 0.38077366E-01 0.57719082E+03</pdfrwt>
<pdfrwt beam="2">  1       -2 0.44639144E-01 0.57719082E+03</pdfrwt>
<totfact> 0.65169847E+02</totfact>
</mgrwt>
</event>
<event>
 4    1  0.5985962E-005  0.7497732E+03  0.7818608E-02  0.9635706E-01
          2   -1    0    0  501    0  0.00000000000E+00  0.00000000000E+00  0.16717957266E+04  0.16717957266E+04  0.25500000000E-02 0.  1.
         -2   -1    0    0    0  501 -0.00000000000E+00 -0.00000000000E+00 -0.84065264559E+02  0.84065264597E+02  0.25500000000E-02 0. -1.
    5000001    1    1    2    0    0 -0.11537958641E+03  0.28028996342E+03  0.52357567603E+03  0.63352221830E+03  0.18800000000E+03 0.  0.
   -5000001    1    1    2    0    0  0.11537958641E+03 -0.28028996342E+03  0.10641547860E+04  0.11223387729E+04  0.18800000000E+03 0.  0.
<mgrwt>
<rscale>  0 0.74977317E+03</rscale>
<asrwt>0</asrwt>
<pdfrwt beam="1">  1        2 0.23882794E+00 0.74977317E+03</pdfrwt>
<pdfrwt beam="2">  1       -2 0.12009324E-01 0.74977317E+03</pdfrwt>
<totfact> 0.61085235E+02</totfact>
</mgrwt>
</event>
<event>
 4    1  0.5985962E-005  0.5973437E+03  0.7818608E-02  0.9910932E-01
          2   -1    0    0  501    0  0.00000000000E+00  0.00000000000E+00  0.37568470053E+03  0.37568470054E+03  0.25500000000E-02 0.  1.
         -2   -1    0    0    0  501 -0.00000000000E+00 -0.00000000000E+00 -0.23744614818E+03  0.23744614820E+03  0.25500000000E-02 0. -1.
    5000001    1    1    2    0    0  0.25296033721E+02  0.21433832533E+03  0.15669764873E+03  0.32631114009E+03  0.18800000000E+03 0.  0.
   -5000001    1    1    2    0    0 -0.25296033721E+02 -0.21433832533E+03 -0.18459096383E+02  0.28681970864E+03  0.18800000000E+03 0.  0.
<mgrwt>
<rscale>  0 0.59734374E+03</rscale>
<asrwt>0</asrwt>
<pdfrwt beam="1">  1        2 0.53669243E-01 0.59734374E+03</pdfrwt>
<pdfrwt beam="2">  1       -2 0.33920879E-01 0.59734374E+03</pdfrwt>
<totfact> 0.75791390E+02</totfact>
</mgrwt>
</event>
<event>
 4    1  0.5985962E-005  0.1052998E+04  0.7818608E-02  0.9252254E-01
          2   -1    0    0  501    0  0.00000000000E+00  0.00000000000E+00  0.15221459592E+04  0.15221459592E+04  0.25500000000E-02 0.  1.
         -2   -1    0    0    0  501 -0.00000000000E+00 -0.00000000000E+00 -0.18211218262E+03  0.18211218264E+03  0.25500000000E-02 0. -1.
    5000001    1    1    2    0    0 -0.41418179067E+03  0.18874245784E+03  0.36858345023E+03  0.61511627429E+03  0.18800000000E+03 0.  0.
   -5000001    1    1    2    0    0  0.41418179067E+03 -0.18874245784E+03  0.97145032636E+03  0.10891418676E+04  0.18800000000E+03 0.  0.
<mgrwt>
<rscale>  0 0.10529982E+04</rscale>
<asrwt>0</asrwt>
<pdfrwt beam="1">  1        2 0.21744943E+00 0.10529982E+04</pdfrwt>
<pdfrwt beam="2">  1       -2 0.26016025E-01 0.10529982E+04</pdfrwt>
<totfact> 0.18858462E+02</totfact>
</mgrwt>
</event>
<event>
 4    1  0.5985962E-005  0.9149018E+03  0.7818608E-02  0.9407143E-01
          2   -1    0    0  501    0  0.00000000000E+00  0.00000000000E+00  0.32657904531E+04  0.32657904531E+04  0.25500000000E-02 0.  1.
         -2   -1    0    0    0  501 -0.00000000000E+00 -0.00000000000E+00 -0.64076771773E+02  0.64076771823E+02  0.25500000000E-02 0. -1.
    5000001    1    1    2    0    0 -0.27340671847E+03  0.12644011197E+03  0.55117126053E+03  0.65564631780E+03  0.18800000000E+03 0.  0.
   -5000001    1    1    2    0    0  0.27340671847E+03 -0.12644011197E+03  0.26505424208E+04  0.26742209071E+04  0.18800000000E+03 0.  0.
<mgrwt>
<rscale>  0 0.91490176E+03</rscale>
<asrwt>0</asrwt>
<pdfrwt beam="1">  1        2 0.46654163E+00 0.91490176E+03</pdfrwt>
<pdfrwt beam="2">  1       -2 0.91538218E-02 0.91490176E+03</pdfrwt>
<totfact> 0.13653383E+02</totfact>
</mgrwt>
</event>
<event>
 4    1  0.5985962E-005  0.4843775E+03  0.7818608E-02  0.1017939E+00
         -2   -1    0    0    0  501 -0.00000000000E+00  0.00000000000E+00  0.18595794997E+02  0.18595795171E+02  0.25500000000E-02 0. -1.
          2   -1    0    0  501    0  0.00000000000E+00 -0.00000000000E+00 -0.31542284183E+04  0.31542284183E+04  0.25500000000E-02 0.  1.
    5000001    1    1    2    0    0 -0.59501561262E+02  0.96258104929E+02 -0.89643870403E+03  0.92290433342E+03  0.18800000000E+03 0.  0.
   -5000001    1    1    2    0    0  0.59501561262E+02 -0.96258104929E+02 -0.22391939193E+04  0.22499198801E+04  0.18800000000E+03 0.  0.
<mgrwt>
<rscale>  0 0.48437748E+03</rscale>
<asrwt>0</asrwt>
<pdfrwt beam="1">  1        2 0.45060372E+00 0.48437748E+03</pdfrwt>
<pdfrwt beam="2">  1       -2 0.26565442E-02 0.48437748E+03</pdfrwt>
<totfact> 0.11327942E+03</totfact>
</mgrwt>
</event>
<event>
 4    1  0.5985962E-005  0.4392370E+03  0.7818608E-02  0.1030981E+00
          2   -1    0    0  501    0  0.00000000000E+00  0.00000000000E+00  0.14452164388E+04  0.14452164388E+04  0.25500000000E-02 0.  1.
         -2   -1    0    0    0  501 -0.00000000000E+00 -0.00000000000E+00 -0.33373746442E+02  0.33373746539E+02  0.25500000000E-02 0. -1.
    5000001    1    1    2    0    0 -0.40325052590E+02 -0.10403916859E+03  0.63546824359E+03  0.67202243048E+03  0.18800000000E+03 0.  0.
   -5000001    1    1    2    0    0  0.40325052590E+02  0.10403916859E+03  0.77637444876E+03  0.80656775484E+03  0.18800000000E+03 0.  0.
<mgrwt>
<rscale>  0 0.43923701E+03</rscale>
<asrwt>0</asrwt>
<pdfrwt beam="1">  1        2 0.20645949E+00 0.43923701E+03</pdfrwt>
<pdfrwt beam="2">  1       -2 0.47676781E-02 0.43923701E+03</pdfrwt>
<totfact> 0.35094758E+03</totfact>
</mgrwt>
</event>
<event>
 4    1  0.5985962E-005  0.5062973E+03  0.7818608E-02  0.1012148E+00
         -2   -1    0    0    0  501 -0.00000000000E+00  0.00000000000E+00  0.12738877714E+04  0.12738877714E+04  0.25500000000E-02 0. -1.
          2   -1    0    0  501    0  0.00000000000E+00 -0.00000000000E+00 -0.50306034499E+02  0.50306034564E+02  0.25500000000E-02 0.  1.
    5000001    1    1    2    0    0  0.11865255587E+03 -0.24829896704E+02  0.92175488254E+03  0.94850989255E+03  0.18800000000E+03 0.  0.
   -5000001    1    1    2    0    0 -0.11865255587E+03  0.24829896704E+02  0.30182685436E+03  0.37568391342E+03  0.18800000000E+03 0.  0.
<mgrwt>
<rscale>  0 0.50629731E+03</rscale>
<asrwt>0</asrwt>
<pdfrwt beam="1">  1        2 0.71865776E-02 0.50629731E+03</pdfrwt>
<pdfrwt beam="2">  1       -2 0.18198394E+00 0.50629731E+03</pdfrwt>
<totfact> 0.18335253E+02</totfact>
</mgrwt>
</event>
<event>
 4    1  0.5985962E-005  0.5640323E+03  0.7818608E-02  0.9982972E-01
         -2   -1    0    0    0  501 -0.00000000000E+00  0.00000000000E+00  0.33485203748E+02  0.33485203845E+02  0.25500000000E-02 0. -1.
          2   -1    0    0  501    0  0.00000000000E+00 -0.00000000000E+00 -0.23751717165E+04  0.23751717165E+04  0.25500000000E-02 0.  1.
    5000001    1    1    2    0    0 -0.18226515584E+03  0.81478893010E+02 -0.14518394724E+04  0.14775118445E+04  0.18800000000E+03 0.  0.
   -5000001    1    1    2    0    0  0.18226515584E+03 -0.81478893010E+02 -0.88984704040E+03  0.93114507589E+03  0.18800000000E+03 0.  0.
<mgrwt>
<rscale>  0 0.56403230E+03</rscale>
<asrwt>0</asrwt>
<pdfrwt beam="1">  1        2 0.33931014E+00 0.56403230E+03</pdfrwt>
<pdfrwt beam="2">  1       -2 0.47836020E-02 0.56403230E+03</pdfrwt>
<totfact> 0.11806580E+03</totfact>
</mgrwt>
</event>
<event>
 4    1  0.5985962E-005  0.5106754E+03  0.7818608E-02  0.1011029E+00
         -2   -1    0    0    0  501 -0.00000000000E+00  0.00000000000E+00  0.68153575241E+02  0.68153575289E+02  0.25500000000E-02 0. -1.
          2   -1    0    0  501    0  0.00000000000E+00 -0.00000000000E+00 -0.95662376818E+03  0.95662376818E+03  0.25500000000E-02 0.  1.
    5000001    1    1    2    0    0  0.18999683381E+02 -0.17109034784E+03 -0.47402882031E+03  0.53821948829E+03  0.18800000000E+03 0.  0.
   -5000001    1    1    2    0    0 -0.18999683381E+02  0.17109034784E+03 -0.41444137263E+03  0.48655785518E+03  0.18800000000E+03 0.  0.
<mgrwt>
<rscale>  0 0.51067536E+03</rscale>
<asrwt>0</asrwt>
<pdfrwt beam="1">  1        2 0.13666053E+00 0.51067536E+03</pdfrwt>
<pdfrwt beam="2">  1       -2 0.97362256E-02 0.51067536E+03</pdfrwt>
<totfact> 0.21469197E+03</totfact>
</mgrwt>
</event>
<event>
 4    1  0.5985962E-005  0.6407860E+03  0.7818608E-02  0.9824224E-01
         -2   -1    0    0    0  501 -0.00000000000E+00  0.00000000000E+00  0.27034052191E+02  0.27034052312E+02  0.25500000000E-02 0. -1.
          2   -1    0    0  501    0  0.00000000000E+00 -0.00000000000E+00 -0.37971251067E+04  0.37971251067E+04  0.25500000000E-02 0.  1.
    5000001    1    1    2    0    0 -0.68539122274E+02  0.20364747830E+03 -0.10173796092E+04  0.10566812083E+04  0.18800000000E+03 0.  0.
   -5000001    1    1    2    0    0  0.68539122274E+02 -0.20364747830E+03 -0.27527114453E+04  0.27674779507E+04  0.18800000000E+03 0.  0.
<mgrwt>
<rscale>  0 0.64078601E+03</rscale>
<asrwt>0</asrwt>
<pdfrwt beam="1">  1        2 0.54244610E+00 0.64078601E+03</pdfrwt>
<pdfrwt beam="2">  1       -2 0.38620099E-02 0.64078601E+03</pdfrwt>
<totfact> 0.26234228E+02</totfact>
</mgrwt>
</event>
<event>
 4    1  0.5985962E-005  0.4428317E+03  0.7818608E-02  0.1029882E+00
         -2   -1    0    0    0  501 -0.00000000000E+00  0.00000000000E+00  0.62926031752E+02  0.62926031804E+02  0.25500000000E-02 0. -1.
          2   -1    0    0  501    0  0.00000000000E+00 -0.00000000000E+00 -0.77908881783E+03  0.77908881784E+03  0.25500000000E-02 0.  1.
    5000001    1    1    2    0    0 -0.62774415118E+01 -0.11551219481E+03 -0.32523035396E+03  0.39306647855E+03  0.18800000000E+03 0.  0.
   -5000001    1    1    2    0    0  0.62774415118E+01  0.11551219481E+03 -0.39093243212E+03  0.44894837109E+03  0.18800000000E+03 0.  0.
<mgrwt>
<rscale>  0 0.44283165E+03</rscale>
<asrwt>0</asrwt>
<pdfrwt beam="1">  1        2 0.11129840E+00 0.44283165E+03</pdfrwt>
<pdfrwt beam="2">  1       -2 0.89894335E-02 0.44283165E+03</pdfrwt>
<totfact> 0.31880495E+03</totfact>
</mgrwt>
</event>
<event>
 4    1  0.5985962E-005  0.5489306E+03  0.7818608E-02  0.1001742E+00
          2   -1    0    0  501    0  0.00000000000E+00  0.00000000000E+00  0.82621454637E+02  0.82621454676E+02  0.25500000000E-02 0.  1.
         -2   -1    0    0    0  501 -0.00000000000E+00 -0.00000000000E+00 -0.91176303647E+03  0.91176303647E+03  0.25500000000E-02 0. -1.
    5000001    1    1    2    0    0 -0.17479463671E+03 -0.55143423141E+02 -0.26972797015E+03  0.37641883590E+03  0.18800000000E+03 0.  0.
   -5000001    1    1    2    0    0  0.17479463671E+03  0.55143423141E+02 -0.55941361168E+03  0.61796565525E+03  0.18800000000E+03 0.  0.
<mgrwt>
<rscale>  0 0.54893055E+03</rscale>
<asrwt>0</asrwt>
<pdfrwt beam="1">  1        2 0.11803065E-01 0.54893055E+03</pdfrwt>
<pdfrwt beam="2">  1       -2 0.13025186E+00 0.54893055E+03</pdfrwt>
<totfact> 0.23633075E+02</totfact>
</mgrwt>
</event>
<event>
 4    1  0.5985962E-005  0.3973611E+03  0.7818608E-02  0.1044697E+00
          2   -1    0    0  501    0  0.00000000000E+00  0.00000000000E+00  0.19037707799E+04  0.19037707799E+04  0.25500000000E-02 0.  1.
         -2   -1    0    0    0  501 -0.00000000000E+00 -0.00000000000E+00 -0.20734613276E+02  0.20734613433E+02  0.25500000000E-02 0. -1.
    5000001    1    1    2    0    0  0.33679517016E+02 -0.84601957899E+00  0.12065674947E+04  0.12215908255E+04  0.18800000000E+03 0.  0.
   -5000001    1    1    2    0    0 -0.33679517016E+02  0.84601957899E+00  0.67646867190E+03  0.70291456784E+03  0.18800000000E+03 0.  0.
<mgrwt>
<rscale>  0 0.39736105E+03</rscale>
<asrwt>0</asrwt>
<pdfrwt beam="1">  1        2 0.27196725E+00 0.39736105E+03</pdfrwt>
<pdfrwt beam="2">  1       -2 0.29620876E-02 0.39736105E+03</pdfrwt>
<totfact> 0.42469958E+03</totfact>
</mgrwt>
</event>
<event>
 4    1  0.5985962E-005  0.5350742E+03  0.7818608E-02  0.1005009E+00
         -2   -1    0    0    0  501 -0.00000000000E+00  0.00000000000E+00  0.28008305805E+03  0.28008305806E+03  0.25500000000E-02 0. -1.
          2   -1    0    0  501    0  0.00000000000E+00 -0.00000000000E+00 -0.25555314858E+03  0.25555314859E+03  0.25500000000E-02 0.  1.
    5000001    1    1    2    0    0  0.83789718721E+02 -0.15356947306E+03 -0.62832549273E+02  0.26437895012E+03  0.18800000000E+03 0.  0.
   -5000001    1    1    2    0    0 -0.83789718721E+02  0.15356947306E+03  0.87362458745E+02  0.27125725653E+03  0.18800000000E+03 0.  0.
<mgrwt>
<rscale>  0 0.53507423E+03</rscale>
<asrwt>0</asrwt>
<pdfrwt beam="1">  1        2 0.36507593E-01 0.53507423E+03</pdfrwt>
<pdfrwt beam="2">  1       -2 0.40011866E-01 0.53507423E+03</pdfrwt>
<totfact> 0.84628296E+02</totfact>
</mgrwt>
</event>
<event>
 4    1  0.5985962E-005  0.9801003E+03  0.7818608E-02  0.9330644E-01
          2   -1    0    0  501    0  0.00000000000E+00  0.00000000000E+00  0.26434120498E+03  0.26434120499E+03  0.25500000000E-02 0.  1.
         -2   -1    0    0    0  501 -0.00000000000E+00 -0.00000000000E+00 -0.90848175201E+03  0.90848175201E+03  0.25500000000E-02 0. -1.
    5000001    1    1    2    0    0  0.36886896097E+03  0.63339564102E+02 -0.17623617773E+02  0.41920257949E+03  0.18800000000E+03 0.  0.
   -5000001    1    1    2    0    0 -0.36886896097E+03 -0.63339564102E+02 -0.62651692926E+03  0.75362037751E+03  0.18800000000E+03 0.  0.
<mgrwt>
<rscale>  0 0.98010032E+03</rscale>
<asrwt>0</asrwt>
<pdfrwt beam="1">  1        2 0.37763030E-01 0.98010032E+03</pdfrwt>
<pdfrwt beam="2">  1       -2 0.12978311E+00 0.98010032E+03</pdfrwt>
<totfact> 0.59869319E+01</totfact>
</mgrwt>
</event>
<event>
 4    1  0.5985962E-005  0.5686478E+03  0.7818608E-02  0.9972675E-01
         -2   -1    0    0    0  501 -0.00000000000E+00  0.00000000000E+00  0.75592959399E+02  0.75592959442E+02  0.25500000000E-02 0. -1.
          2   -1    0    0  501    0  0.00000000000E+00 -0.00000000000E+00 -0.10694126862E+04  0.10694126862E+04  0.25500000000E-02 0.  1.
    5000001    1    1    2    0    0 -0.81465792428E+02 -0.12459549769E+03 -0.18932035944E+03  0.30552726864E+03  0.18800000000E+03 0.  0.
   -5000001    1    1    2    0    0  0.81465792428E+02  0.12459549769E+03 -0.80449936733E+03  0.83947837698E+03  0.18800000000E+03 0.  0.
<mgrwt>
<rscale>  0 0.56864776E+03</rscale>
<asrwt>0</asrwt>
<pdfrwt beam="1">  1        2 0.15277323E+00 0.56864776E+03</pdfrwt>
<pdfrwt beam="2">  1       -2 0.10798995E-01 0.56864776E+03</pdfrwt>
<totfact> 0.15508830E+03</totfact>
</mgrwt>
</event>
<event>
 4    1  0.5985962E-005  0.7171235E+03  0.7818608E-02  0.9688389E-01
          2   -1    0    0  501    0  0.00000000000E+00  0.00000000000E+00  0.32712999037E+03  0.32712999038E+03  0.25500000000E-02 0.  1.
         -2   -1    0    0    0  501 -0.00000000000E+00 -0.00000000000E+00 -0.39301356945E+03  0.39301356946E+03  0.25500000000E-02 0. -1.
    5000001    1    1    2    0    0  0.29528162904E+03  0.49937893756E+02  0.26785504008E+02  0.35460752517E+03  0.18800000000E+03 0.  0.
   -5000001    1    1    2    0    0 -0.29528162904E+03 -0.49937893756E+02 -0.92669083086E+02  0.36553603467E+03  0.18800000000E+03 0.  0.
<mgrwt>
<rscale>  0 0.71712349E+03</rscale>
<asrwt>0</asrwt>
<pdfrwt beam="1">  1        2 0.46732856E-01 0.71712349E+03</pdfrwt>
<pdfrwt beam="2">  1       -2 0.56144795E-01 0.71712349E+03</pdfrwt>
<totfact> 0.32524243E+02</totfact>
</mgrwt>
</event>
<event>
 4    1  0.5985962E-005  0.5549805E+03  0.7818608E-02  0.1000348E+00
          2   -1    0    0  501    0  0.00000000000E+00  0.00000000000E+00  0.25432945828E+04  0.25432945828E+04  0.25500000000E-02 0.  1.
         -2   -1    0    0    0  501 -0.00000000000E+00 -0.00000000000E+00 -0.30276024014E+02  0.30276024122E+02  0.25500000000E-02 0. -1.
    5000001    1    1    2    0    0 -0.10764879247E+03 -0.14705008853E+03  0.83036713524E+03  0.87066961033E+03  0.18800000000E+03 0.  0.
   -5000001    1    1    2    0    0  0.10764879247E+03  0.14705008853E+03  0.16826514236E+04  0.17029009966E+04  0.18800000000E+03 0.  0.
<mgrwt>
<rscale>  0 0.55498053E+03</rscale>
<asrwt>0</asrwt>
<pdfrwt beam="1">  1        2 0.36332778E+00 0.55498053E+03</pdfrwt>
<pdfrwt beam="2">  1       -2 0.43251465E-02 0.55498053E+03</pdfrwt>
<totfact> 0.11326158E+03</totfact>
</mgrwt>
</event>
<event>
 4    1  0.5985962E-005  0.5396917E+03  0.7818608E-02  0.1003908E+00
          2   -1    0    0  501    0  0.00000000000E+00  0.00000000000E+00  0.15007247154E+04  0.15007247154E+04  0.25500000000E-02 0.  1.
         -2   -1    0    0    0  501 -0.00000000000E+00 -0.00000000000E+00 -0.48521082822E+02  0.48521082889E+02  0.25500000000E-02 0. -1.
    5000001    1    1    2    0    0  0.16643407899E+03  0.33254714309E+02  0.99334041641E+03  0.10251221203E+04  0.18800000000E+03 0.  0.
   -5000001    1    1    2    0    0 -0.16643407899E+03 -0.33254714309E+02  0.45886321618E+03  0.52412367800E+03  0.18800000000E+03 0.  0.
<mgrwt>
<rscale>  0 0.53969172E+03</rscale>
<asrwt>0</asrwt>
<pdfrwt beam="1">  1        2 0.21438927E+00 0.53969172E+03</pdfrwt>
<pdfrwt beam="2">  1       -2 0.69315824E-02 0.53969172E+03</pdfrwt>
<totfact> 0.18321129E+03</totfact>
</mgrwt>
</event>
<event>
 4    1  0.5985962E-005  0.6279103E+03  0.7818608E-02  0.9849135E-01
         -2   -1    0    0    0  501 -0.00000000000E+00  0.00000000000E+00  0.40217526324E+03  0.40217526325E+03  0.25500000000E-02 0. -1.
          2   -1    0    0  501    0  0.00000000000E+00 -0.00000000000E+00 -0.24508680108E+03  0.24508680110E+03  0.25500000000E-02 0.  1.
    5000001    1    1    2    0    0  0.22111246148E+03  0.15673489687E+02 -0.43804373111E+02  0.29393741171E+03  0.18800000000E+03 0.  0.
   -5000001    1    1    2    0    0 -0.22111246148E+03 -0.15673489687E+02  0.20089283527E+03  0.35332465264E+03  0.18800000000E+03 0.  0.
<mgrwt>
<rscale>  0 0.62791034E+03</rscale>
<asrwt>0</asrwt>
<pdfrwt beam="1">  1        2 0.35012400E-01 0.62791034E+03</pdfrwt>
<pdfrwt beam="2">  1       -2 0.57453609E-01 0.62791034E+03</pdfrwt>
<totfact> 0.42800186E+02</totfact>
</mgrwt>
</event>
<event>
 4    1  0.5985962E-005  0.4358023E+03  0.7818608E-02  0.1032043E+00
          2   -1    0    0  501    0  0.00000000000E+00  0.00000000000E+00  0.14622302502E+04  0.14622302502E+04  0.25500000000E-02 0.  1.
         -2   -1    0    0    0  501 -0.00000000000E+00 -0.00000000000E+00 -0.32471573756E+02  0.32471573856E+02  0.25500000000E-02 0. -1.
    5000001    1    1    2    0    0  0.54394395093E+02  0.82273977949E+02  0.54653526767E+03  0.58632120588E+03  0.18800000000E+03 0.  0.
   -5000001    1    1    2    0    0 -0.54394395093E+02 -0.82273977949E+02  0.88322340881E+03  0.90838061820E+03  0.18800000000E+03 0.  0.
<mgrwt>
<rscale>  0 0.43580233E+03</rscale>
<asrwt>0</asrwt>
<pdfrwt beam="1">  1        2 0.20889004E+00 0.43580233E+03</pdfrwt>
<pdfrwt beam="2">  1       -2 0.46387961E-02 0.43580233E+03</pdfrwt>
<totfact> 0.35866048E+03</totfact>
</mgrwt>
</event>
<event>
 4    1  0.5985962E-005  0.2833613E+04  0.7818608E-02  0.8292908E-01
          2   -1    0    0  501    0  0.00000000000E+00  0.00000000000E+00  0.10481315093E+04  0.10481315093E+04  0.25500000000E-02 0.  1.
         -2   -1    0    0    0  501 -0.00000000000E+00 -0.00000000000E+00 -0.19151604748E+04  0.19151604748E+04  0.25500000000E-02 0. -1.
    5000001    1    1    2    0    0 -0.28579486332E+03  0.10295538961E+04  0.51941538547E+03  0.12028284465E+04  0.18800000000E+03 0.  0.
   -5000001    1    1    2    0    0  0.28579486332E+03 -0.10295538961E+04 -0.13864443510E+04  0.17604635377E+04  0.18800000000E+03 0.  0.
<mgrwt>
<rscale>  0 0.28336126E+04</rscale>
<asrwt>0</asrwt>
<pdfrwt beam="1">  1        2 0.14973307E+00 0.28336126E+04</pdfrwt>
<pdfrwt beam="2">  1       -2 0.27359435E+00 0.28336126E+04</pdfrwt>
<totfact> 0.10557860E+00</totfact>
</mgrwt>
</event>
<event>
 4    1  0.5985962E-005  0.6140339E+03  0.7818608E-02  0.9876710E-01
         -2   -1    0    0    0  501 -0.00000000000E+00  0.00000000000E+00  0.10791123558E+03  0.10791123561E+03  0.25500000000E-02 0. -1.
          2   -1    0    0  501    0  0.00000000000E+00 -0.00000000000E+00 -0.87349032142E+03  0.87349032142E+03  0.25500000000E-02 0.  1.
    5000001    1    1    2    0    0  0.37603546912E+02  0.18514334062E+03 -0.13922353740E+03  0.30069798251E+03  0.18800000000E+03 0.  0.
   -5000001    1    1    2    0    0 -0.37603546912E+02 -0.18514334062E+03 -0.62635554844E+03  0.68070357453E+03  0.18800000000E+03 0.  0.
<mgrwt>
<rscale>  0 0.61403394E+03</rscale>
<asrwt>0</asrwt>
<pdfrwt beam="1">  1        2 0.12478433E+00 0.61403394E+03</pdfrwt>
<pdfrwt beam="2">  1       -2 0.15415891E-01 0.61403394E+03</pdfrwt>
<totfact> 0.11360120E+03</totfact>
</mgrwt>
</event>
<event>
 4    1  0.5985962E-005  0.5798205E+03  0.7818608E-02  0.9948180E-01
         -2   -1    0    0    0  501 -0.00000000000E+00  0.00000000000E+00  0.15648164671E+03  0.15648164673E+03  0.25500000000E-02 0. -1.
          2   -1    0    0  501    0  0.00000000000E+00 -0.00000000000E+00 -0.53711065378E+03  0.53711065379E+03  0.25500000000E-02 0.  1.
    5000001    1    1    2    0    0 -0.34920475169E+02  0.19604915841E+03 -0.76521145611E+02  0.28434872573E+03  0.18800000000E+03 0.  0.
   -5000001    1    1    2    0    0  0.34920475169E+02 -0.19604915841E+03 -0.30410786146E+03  0.40924357478E+03  0.18800000000E+03 0.  0.
<mgrwt>
<rscale>  0 0.57982052E+03</rscale>
<asrwt>0</asrwt>
<pdfrwt beam="1">  1        2 0.76730093E-01 0.57982052E+03</pdfrwt>
<pdfrwt beam="2">  1       -2 0.22354521E-01 0.57982052E+03</pdfrwt>
<totfact> 0.10845998E+03</totfact>
</mgrwt>
</event>
<event>
 4    1  0.5985962E-005  0.5750884E+03  0.7818608E-02  0.9958482E-01
         -2   -1    0    0    0  501 -0.00000000000E+00  0.00000000000E+00  0.33779558817E+02  0.33779558913E+02  0.25500000000E-02 0. -1.
          2   -1    0    0  501    0  0.00000000000E+00 -0.00000000000E+00 -0.24476831450E+04  0.24476831450E+04  0.25500000000E-02 0.  1.
    5000001    1    1    2    0    0 -0.16585195073E+03 -0.13398933418E+03 -0.10199783229E+04  0.10588483321E+04  0.18800000000E+03 0.  0.
   -5000001    1    1    2    0    0  0.16585195073E+03  0.13398933418E+03 -0.13939252634E+04  0.14226143719E+04  0.18800000000E+03 0.  0.
<mgrwt>
<rscale>  0 0.57508836E+03</rscale>
<asrwt>0</asrwt>
<pdfrwt beam="1">  1        2 0.34966891E+00 0.57508836E+03</pdfrwt>
<pdfrwt beam="2">  1       -2 0.48256528E-02 0.57508836E+03</pdfrwt>
<totfact> 0.10691122E+03</totfact>
</mgrwt>
</event>
<event>
 4    1  0.5985962E-005  0.5498554E+03  0.7818608E-02  0.1001527E+00
          2   -1    0    0  501    0  0.00000000000E+00  0.00000000000E+00  0.47566945152E+04  0.47566945152E+04  0.25500000000E-02 0.  1.
         -2   -1    0    0    0  501 -0.00000000000E+00 -0.00000000000E+00 -0.15890286057E+02  0.15890286262E+02  0.25500000000E-02 0. -1.
    5000001    1    1    2    0    0 -0.15268863393E+03 -0.74467739598E+02  0.14443957741E+04  0.14664523230E+04  0.18800000000E+03 0.  0.
   -5000001    1    1    2    0    0  0.15268863393E+03  0.74467739598E+02  0.32964084550E+04  0.33061324785E+04  0.18800000000E+03 0.  0.
<mgrwt>
<rscale>  0 0.54985539E+03</rscale>
<asrwt>0</asrwt>
<pdfrwt beam="1">  1        2 0.67952752E+00 0.54985539E+03</pdfrwt>
<pdfrwt beam="2">  1       -2 0.22700418E-02 0.54985539E+03</pdfrwt>
<totfact> 0.11959894E+02</totfact>
</mgrwt>
</event>
<event>
 4    1  0.5985962E-005  0.5931331E+03  0.7818608E-02  0.9919756E-01
          2   -1    0    0  501    0  0.00000000000E+00  0.00000000000E+00  0.20879168725E+03  0.20879168726E+03  0.25500000000E-02 0.  1.
         -2   -1    0    0    0  501 -0.00000000000E+00 -0.00000000000E+00 -0.42124142643E+03  0.42124142644E+03  0.25500000000E-02 0. -1.
    5000001    1    1    2    0    0  0.21588651283E+03  0.51262093452E+02 -0.44534946228E+02  0.29421446273E+03  0.18800000000E+03 0.  0.
   -5000001    1    1    2    0    0 -0.21588651283E+03 -0.51262093452E+02 -0.16791479296E+03  0.33581865097E+03  0.18800000000E+03 0.  0.
<mgrwt>
<rscale>  0 0.59313306E+03</rscale>
<asrwt>0</asrwt>
<pdfrwt beam="1">  1        2 0.29827384E-01 0.59313306E+03</pdfrwt>
<pdfrwt beam="2">  1       -2 0.60177347E-01 0.59313306E+03</pdfrwt>
<totfact> 0.46503502E+02</totfact>
</mgrwt>
</event>
<event>
 4    1  0.5985962E-005  0.4635140E+03  0.7818608E-02  0.1023767E+00
          2   -1    0    0  501    0  0.00000000000E+00  0.00000000000E+00  0.59449723895E+03  0.59449723895E+03  0.25500000000E-02 0.  1.
         -2   -1    0    0    0  501 -0.00000000000E+00 -0.00000000000E+00 -0.90347456181E+02  0.90347456217E+02  0.25500000000E-02 0. -1.
    5000001    1    1    2    0    0  0.14566719660E+02 -0.13375343355E+03  0.27613343087E+03  0.36013308922E+03  0.18800000000E+03 0.  0.
   -5000001    1    1    2    0    0 -0.14566719660E+02  0.13375343355E+03  0.22801635190E+03  0.32471160595E+03  0.18800000000E+03 0.  0.
<mgrwt>
<rscale>  0 0.46351403E+03</rscale>
<asrwt>0</asrwt>
<pdfrwt beam="1">  1        2 0.84928176E-01 0.46351403E+03</pdfrwt>
<pdfrwt beam="2">  1       -2 0.12906780E-01 0.46351403E+03</pdfrwt>
<totfact> 0.24573802E+03</totfact>
</mgrwt>
</event>
<event>
 4    1  0.5985962E-005  0.1061215E+04  0.7818608E-02  0.9243842E-01
          2   -1    0    0  501    0  0.00000000000E+00  0.00000000000E+00  0.93310901156E+03  0.93310901157E+03  0.25500000000E-02 0.  1.
         -2   -1    0    0    0  501 -0.00000000000E+00 -0.00000000000E+00 -0.30172699578E+03  0.30172699579E+03  0.25500000000E-02 0. -1.
    5000001    1    1    2    0    0 -0.49314098504E+03 -0.53016063719E+02  0.29917580539E+03  0.60897364201E+03  0.18800000000E+03 0.  0.
   -5000001    1    1    2    0    0  0.49314098504E+03  0.53016063719E+02  0.33220621039E+03  0.62586236535E+03  0.18800000000E+03 0.  0.
<mgrwt>
<rscale>  0 0.10612147E+04</rscale>
<asrwt>0</asrwt>
<pdfrwt beam="1">  1        2 0.13330129E+00 0.10612147E+04</pdfrwt>
<pdfrwt beam="2">  1       -2 0.43103857E-01 0.10612147E+04</pdfrwt>
<totfact> 0.15700852E+02</totfact>
</mgrwt>
</event>
<event>
 4    1  0.5985962E-005  0.5241359E+03  0.7818608E-02  0.1007664E+00
          2   -1    0    0  501    0  0.00000000000E+00  0.00000000000E+00  0.10289891485E+03  0.10289891489E+03  0.25500000000E-02 0.  1.
         -2   -1    0    0    0  501 -0.00000000000E+00 -0.00000000000E+00 -0.66744729737E+03  0.66744729738E+03  0.25500000000E-02 0. -1.
    5000001    1    1    2    0    0 -0.17390652432E+03 -0.21920076079E+02 -0.20716411533E+03  0.33012867130E+03  0.18800000000E+03 0.  0.
   -5000001    1    1    2    0    0  0.17390652432E+03  0.21920076079E+02 -0.35738426719E+03  0.44021754096E+03  0.18800000000E+03 0.  0.
<mgrwt>
<rscale>  0 0.52413587E+03</rscale>
<asrwt>0</asrwt>
<pdfrwt beam="1">  1        2 0.14699845E-01 0.52413587E+03</pdfrwt>
<pdfrwt beam="2">  1       -2 0.95349612E-01 0.52413587E+03</pdfrwt>
<totfact> 0.38382614E+02</totfact>
</mgrwt>
</event>
<event>
 4    1  0.5985962E-005  0.4640326E+03  0.7818608E-02  0.1023618E+00
          2   -1    0    0  501    0  0.00000000000E+00  0.00000000000E+00  0.23180231237E+04  0.23180231237E+04  0.25500000000E-02 0.  1.
         -2   -1    0    0    0  501 -0.00000000000E+00 -0.00000000000E+00 -0.23223048770E+02  0.23223048910E+02  0.25500000000E-02 0. -1.
    5000001    1    1    2    0    0 -0.11565224599E+03  0.16766922018E+02  0.79671537792E+03  0.82689537736E+03  0.18800000000E+03 0.  0.
   -5000001    1    1    2    0    0  0.11565224599E+03 -0.16766922018E+02  0.14980846971E+04  0.15143507953E+04  0.18800000000E+03 0.  0.
<mgrwt>
<rscale>  0 0.46403260E+03</rscale>
<asrwt>0</asrwt>
<pdfrwt beam="1">  1        2 0.33114616E+00 0.46403260E+03</pdfrwt>
<pdfrwt beam="2">  1       -2 0.33175784E-02 0.46403260E+03</pdfrwt>
<totfact> 0.22223504E+03</totfact>
</mgrwt>
</event>
<event>
 4    1  0.5985962E-005  0.6546559E+03  0.7818608E-02  0.9798082E-01
         -2   -1    0    0    0  501 -0.00000000000E+00  0.00000000000E+00  0.22983222952E+03  0.22983222954E+03  0.25500000000E-02 0. -1.
          2   -1    0    0  501    0  0.00000000000E+00 -0.00000000000E+00 -0.46618170783E+03  0.46618170784E+03  0.25500000000E-02 0.  1.
    5000001    1    1    2    0    0 -0.16663078050E+03  0.16982680595E+03 -0.24921996468E+03  0.39250675386E+03  0.18800000000E+03 0.  0.
   -5000001    1    1    2    0    0  0.16663078050E+03 -0.16982680595E+03  0.12870486370E+02  0.30350718352E+03  0.18800000000E+03 0.  0.
<mgrwt>
<rscale>  0 0.65465588E+03</rscale>
<asrwt>0</asrwt>
<pdfrwt beam="1">  1        2 0.66597386E-01 0.65465588E+03</pdfrwt>
<pdfrwt beam="2">  1       -2 0.32833176E-01 0.65465588E+03</pdfrwt>
<totfact> 0.63253017E+02</totfact>
</mgrwt>
</event>
<event>
 4    1  0.5985962E-005  0.4975899E+03  0.7818608E-02  0.1014410E+00
         -2   -1    0    0    0  501 -0.00000000000E+00  0.00000000000E+00  0.69711676975E+02  0.69711677022E+02  0.25500000000E-02 0. -1.
          2   -1    0    0  501    0  0.00000000000E+00 -0.00000000000E+00 -0.88792779942E+03  0.88792779943E+03  0.25500000000E-02 0.  1.
    5000001    1    1    2    0    0  0.93354581649E+02  0.13355769889E+03 -0.41196205856E+03  0.48125822023E+03  0.18800000000E+03 0.  0.
   -5000001    1    1    2    0    0 -0.93354581649E+02 -0.13355769889E+03 -0.40625406389E+03  0.47638125622E+03  0.18800000000E+03 0.  0.
<mgrwt>
<rscale>  0 0.49758994E+03</rscale>
<asrwt>0</asrwt>
<pdfrwt beam="1">  1        2 0.12684682E+00 0.49758994E+03</pdfrwt>
<pdfrwt beam="2">  1       -2 0.99588115E-02 0.49758994E+03</pdfrwt>
<totfact> 0.22880227E+03</totfact>
</mgrwt>
</event>
<event>
 4    1  0.5985962E-005  0.4333233E+03  0.7818608E-02  0.1032815E+00
          2   -1    0    0  501    0  0.00000000000E+00  0.00000000000E+00  0.16576812777E+04  0.16576812777E+04  0.25500000000E-02 0.  1.
         -2   -1    0    0    0  501 -0.00000000000E+00 -0.00000000000E+00 -0.28318029780E+02  0.28318029895E+02  0.25500000000E-02 0. -1.
    5000001    1    1    2    0    0  0.73231167175E+02  0.63478053960E+02  0.99742775284E+03  0.10196069779E+04  0.18800000000E+03 0.  0.
   -5000001    1    1    2    0    0 -0.73231167175E+02 -0.63478053960E+02  0.63193549508E+03  0.66639232973E+03  0.18800000000E+03 0.  0.
<mgrwt>
<rscale>  0 0.43332329E+03</rscale>
<asrwt>0</asrwt>
<pdfrwt beam="1">  1        2 0.23681158E+00 0.43332329E+03</pdfrwt>
<pdfrwt beam="2">  1       -2 0.40454334E-02 0.43332329E+03</pdfrwt>
<totfact> 0.35139001E+03</totfact>
</mgrwt>
</event>
<event>
 4    1  0.5985962E-005  0.9296182E+03  0.7818608E-02  0.9389296E-01
          2   -1    0    0  501    0  0.00000000000E+00  0.00000000000E+00  0.15166316026E+04  0.15166316026E+04  0.25500000000E-02 0.  1.
         -2   -1    0    0    0  501 -0.00000000000E+00 -0.00000000000E+00 -0.14245219085E+03  0.14245219087E+03  0.25500000000E-02 0. -1.
    5000001    1    1    2    0    0  0.25310808700E+03 -0.28651990681E+03  0.10188034252E+04  0.11042924340E+04  0.18800000000E+03 0.  0.
   -5000001    1    1    2    0    0 -0.25310808700E+03  0.28651990681E+03  0.35537598663E+03  0.55479135950E+03  0.18800000000E+03 0.  0.
<mgrwt>
<rscale>  0 0.92961819E+03</rscale>
<asrwt>0</asrwt>
<pdfrwt beam="1">  1        2 0.21666166E+00 0.92961819E+03</pdfrwt>
<pdfrwt beam="2">  1       -2 0.20350313E-01 0.92961819E+03</pdfrwt>
<totfact> 0.29673182E+02</totfact>
</mgrwt>
</event>
<event>
 4    1  0.5985962E-005  0.6866430E+03  0.7818608E-02  0.9740351E-01
         -2   -1    0    0    0  501 -0.00000000000E+00  0.00000000000E+00  0.24992610246E+03  0.24992610247E+03  0.25500000000E-02 0. -1.
          2   -1    0    0  501    0  0.00000000000E+00 -0.00000000000E+00 -0.47161797542E+03  0.47161797543E+03  0.25500000000E-02 0.  1.
    5000001    1    1    2    0    0 -0.35746875746E+02  0.27387176929E+03 -0.19386842827E+03  0.38628040672E+03  0.18800000000E+03 0.  0.
   -5000001    1    1    2    0    0  0.35746875746E+02 -0.27387176929E+03 -0.27823444693E+02  0.33526367118E+03  0.18800000000E+03 0.  0.
<mgrwt>
<rscale>  0 0.68664297E+03</rscale>
<asrwt>0</asrwt>
<pdfrwt beam="1">  1        2 0.67373996E-01 0.68664297E+03</pdfrwt>
<pdfrwt beam="2">  1       -2 0.35703729E-01 0.68664297E+03</pdfrwt>
<totfact> 0.53236573E+02</totfact>
</mgrwt>
</event>
<event>
 4    1  0.5985962E-005  0.6757669E+03  0.7818608E-02  0.9759596E-01
          2   -1    0    0  501    0  0.00000000000E+00  0.00000000000E+00  0.41887542672E+03  0.41887542673E+03  0.25500000000E-02 0.  1.
         -2   -1    0    0    0  501 -0.00000000000E+00 -0.00000000000E+00 -0.27255175833E+03  0.27255175834E+03  0.25500000000E-02 0. -1.
    5000001    1    1    2    0    0 -0.19426813696E+03 -0.20268329065E+03  0.72363538189E+02  0.34554465269E+03  0.18800000000E+03 0.  0.
   -5000001    1    1    2    0    0  0.19426813696E+03  0.20268329065E+03  0.73960130203E+02  0.34588253238E+03  0.18800000000E+03 0.  0.
<mgrwt>
<rscale>  0 0.67576692E+03</rscale>
<asrwt>0</asrwt>
<pdfrwt beam="1">  1        2 0.59839347E-01 0.67576692E+03</pdfrwt>
<pdfrwt beam="2">  1       -2 0.38935966E-01 0.67576692E+03</pdfrwt>
<totfact> 0.51522846E+02</totfact>
</mgrwt>
</event>
<event>
 4    1  0.5985962E-005  0.5675235E+03  0.7818608E-02  0.9975174E-01
          2   -1    0    0  501    0  0.00000000000E+00  0.00000000000E+00  0.23720535457E+03  0.23720535459E+03  0.25500000000E-02 0.  1.
         -2   -1    0    0    0  501 -0.00000000000E+00 -0.00000000000E+00 -0.33945580278E+03  0.33945580279E+03  0.25500000000E-02 0. -1.
    5000001    1    1    2    0    0  0.17204145123E+03  0.12449479069E+03 -0.42064234784E+02  0.28672393290E+03  0.18800000000E+03 0.  0.
   -5000001    1    1    2    0    0 -0.17204145123E+03 -0.12449479069E+03 -0.60186213426E+02  0.28993722448E+03  0.18800000000E+03 0.  0.
<mgrwt>
<rscale>  0 0.56752351E+03</rscale>
<asrwt>0</asrwt>
<pdfrwt beam="1">  1        2 0.33886479E-01 0.56752351E+03</pdfrwt>
<pdfrwt beam="2">  1       -2 0.48493686E-01 0.56752351E+03</pdfrwt>
<totfact> 0.62879891E+02</totfact>
</mgrwt>
</event>
<event>
 4    1  0.5985962E-005  0.8008043E+03  0.7818608E-02  0.9558854E-01
          2   -1    0    0  501    0  0.00000000000E+00  0.00000000000E+00  0.14492746947E+04  0.14492746947E+04  0.25500000000E-02 0.  1.
         -2   -1    0    0    0  501 -0.00000000000E+00 -0.00000000000E+00 -0.11062213651E+03  0.11062213654E+03  0.25500000000E-02 0. -1.
    5000001    1    1    2    0    0  0.33091041111E+03 -0.49326123507E+02  0.44686221939E+03  0.58903701901E+03  0.18800000000E+03 0.  0.
   -5000001    1    1    2    0    0 -0.33091041111E+03  0.49326123507E+02  0.89179033876E+03  0.97085981221E+03  0.18800000000E+03 0.  0.
<mgrwt>
<rscale>  0 0.80080425E+03</rscale>
<asrwt>0</asrwt>
<pdfrwt beam="1">  1        2 0.20703924E+00 0.80080425E+03</pdfrwt>
<pdfrwt beam="2">  1       -2 0.15803163E-01 0.80080425E+03</pdfrwt>
<totfact> 0.50223129E+02</totfact>
</mgrwt>
</event>
<event>
 4    1  0.5985962E-005  0.6306382E+03  0.7818608E-02  0.9843804E-01
         -2   -1    0    0    0  501 -0.00000000000E+00  0.00000000000E+00  0.10572869962E+03  0.10572869965E+03  0.25500000000E-02 0. -1.
          2   -1    0    0  501    0  0.00000000000E+00 -0.00000000000E+00 -0.94038936855E+03  0.94038936856E+03  0.25500000000E-02 0.  1.
    5000001    1    1    2    0    0  0.22516180696E+03 -0.10074175005E+03 -0.32297536654E+03  0.44777653680E+03  0.18800000000E+03 0.  0.
   -5000001    1    1    2    0    0 -0.22516180696E+03  0.10074175005E+03 -0.51168530239E+03  0.59834153140E+03  0.18800000000E+03 0.  0.
<mgrwt>
<rscale>  0 0.63063823E+03</rscale>
<asrwt>0</asrwt>
<pdfrwt beam="1">  1        2 0.13434133E+00 0.63063823E+03</pdfrwt>
<pdfrwt beam="2">  1       -2 0.15104101E-01 0.63063823E+03</pdfrwt>
<totfact> 0.10644728E+03</totfact>
</mgrwt>
</event>
<event>
 4    1  0.5985962E-005  0.6086806E+03  0.7818608E-02  0.9887558E-01
         -2   -1    0    0    0  501 -0.00000000000E+00  0.00000000000E+00  0.43763487797E+02  0.43763487872E+02  0.25500000000E-02 0. -1.
          2   -1    0    0  501    0  0.00000000000E+00 -0.00000000000E+00 -0.21164453828E+04  0.21164453828E+04  0.25500000000E-02 0.  1.
    5000001    1    1    2    0    0  0.25629955819E+02  0.23780114478E+03 -0.10666122237E+04  0.11091491851E+04  0.18800000000E+03 0.  0.
   -5000001    1    1    2    0    0 -0.25629955819E+02 -0.23780114478E+03 -0.10060696714E+04  0.10510596856E+04  0.18800000000E+03 0.  0.
<mgrwt>
<rscale>  0 0.60868064E+03</rscale>
<asrwt>0</asrwt>
<pdfrwt beam="1">  1        2 0.30234928E+00 0.60868064E+03</pdfrwt>
<pdfrwt beam="2">  1       -2 0.62519282E-02 0.60868064E+03</pdfrwt>
<totfact> 0.10479920E+03</totfact>
</mgrwt>
</event>
<event>
 4    1  0.5985962E-005  0.6143169E+03  0.7818608E-02  0.9876140E-01
         -2   -1    0    0    0  501 -0.00000000000E+00  0.00000000000E+00  0.13513905711E+03  0.13513905713E+03  0.25500000000E-02 0. -1.
          2   -1    0    0  501    0  0.00000000000E+00 -0.00000000000E+00 -0.69814243082E+03  0.69814243082E+03  0.25500000000E-02 0.  1.
    5000001    1    1    2    0    0  0.13772853983E+03 -0.18303243925E+03 -0.17187107134E+03  0.34256924798E+03  0.18800000000E+03 0.  0.
   -5000001    1    1    2    0    0 -0.13772853983E+03  0.18303243925E+03 -0.39113230237E+03  0.49071223997E+03  0.18800000000E+03 0.  0.
<mgrwt>
<rscale>  0 0.61431689E+03</rscale>
<asrwt>0</asrwt>
<pdfrwt beam="1">  1        2 0.99734631E-01 0.61431689E+03</pdfrwt>
<pdfrwt beam="2">  1       -2 0.19305580E-01 0.61431689E+03</pdfrwt>
<totfact> 0.10274343E+03</totfact>
</mgrwt>
</event>
<event>
 4    1  0.5985962E-005  0.5171536E+03  0.7818608E-02  0.1009396E+00
         -2   -1    0    0    0  501 -0.00000000000E+00  0.00000000000E+00  0.53332383728E+02  0.53332383789E+02  0.25500000000E-02 0. -1.
          2   -1    0    0  501    0  0.00000000000E+00 -0.00000000000E+00 -0.12536842066E+04  0.12536842066E+04  0.25500000000E-02 0.  1.
    5000001    1    1    2    0    0 -0.11974534965E+03 -0.13089777688E+03 -0.61709022301E+03  0.66904224089E+03  0.18800000000E+03 0.  0.
   -5000001    1    1    2    0    0  0.11974534965E+03  0.13089777688E+03 -0.58326159988E+03  0.63797434952E+03  0.18800000000E+03 0.  0.
<mgrwt>
<rscale>  0 0.51715362E+03</rscale>
<asrwt>0</asrwt>
<pdfrwt beam="1">  1        2 0.17909773E+00 0.51715362E+03</pdfrwt>
<pdfrwt beam="2">  1       -2 0.76189127E-02 0.51715362E+03</pdfrwt>
<totfact> 0.21366047E+03</totfact>
</mgrwt>
</event>
<event>
 4    1  0.5985962E-005  0.5281337E+03  0.7818608E-02  0.1006686E+00
         -2   -1    0    0    0  501 -0.00000000000E+00  0.00000000000E+00  0.99211993672E+02  0.99211993704E+02  0.25500000000E-02 0. -1.
          2   -1    0    0  501    0  0.00000000000E+00 -0.00000000000E+00 -0.70285161295E+03  0.70285161295E+03  0.25500000000E-02 0.  1.
    5000001    1    1    2    0    0 -0.43008972550E+02 -0.16663159896E+03 -0.40672331852E+03  0.47998304065E+03  0.18800000000E+03 0.  0.
   -5000001    1    1    2    0    0  0.43008972550E+02  0.16663159896E+03 -0.19691630076E+03  0.32208056600E+03  0.18800000000E+03 0.  0.
<mgrwt>
<rscale>  0 0.52813373E+03</rscale>
<asrwt>0</asrwt>
<pdfrwt beam="1">  1        2 0.10040737E+00 0.52813373E+03</pdfrwt>
<pdfrwt beam="2">  1       -2 0.14173142E-01 0.52813373E+03</pdfrwt>
<totfact> 0.17247941E+03</totfact>
</mgrwt>
</event>
<event>
 4    1  0.5985962E-005  0.4293947E+03  0.7818608E-02  0.1034051E+00
          2   -1    0    0  501    0  0.00000000000E+00  0.00000000000E+00  0.30983980457E+03  0.30983980458E+03  0.25500000000E-02 0.  1.
         -2   -1    0    0    0  501 -0.00000000000E+00 -0.00000000000E+00 -0.14877027658E+03  0.14877027660E+03  0.25500000000E-02 0. -1.
    5000001    1    1    2    0    0 -0.74447026714E+02 -0.47703691501E+02  0.13837623761E+03  0.24961968093E+03  0.18800000000E+03 0.  0.
   -5000001    1    1    2    0    0  0.74447026714E+02  0.47703691501E+02  0.22693290378E+02  0.20899040025E+03  0.18800000000E+03 0.  0.
<mgrwt>
<rscale>  0 0.42939471E+03</rscale>
<asrwt>0</asrwt>
<pdfrwt beam="1">  1        2 0.44262828E-01 0.42939471E+03</pdfrwt>
<pdfrwt beam="2">  1       -2 0.21252897E-01 0.42939471E+03</pdfrwt>
<totfact> 0.21821639E+03</totfact>
</mgrwt>
</event>
<event>
 4    1  0.5985962E-005  0.4917685E+03  0.7818608E-02  0.1015950E+00
          2   -1    0    0  501    0  0.00000000000E+00  0.00000000000E+00  0.14495893902E+04  0.14495893902E+04  0.25500000000E-02 0.  1.
         -2   -1    0    0    0  501 -0.00000000000E+00 -0.00000000000E+00 -0.41707710734E+02  0.41707710812E+02  0.25500000000E-02 0. -1.
    5000001    1    1    2    0    0 -0.60535908875E+02 -0.13491236730E+03  0.87679738783E+03  0.90883640025E+03  0.18800000000E+03 0.  0.
   -5000001    1    1    2    0    0  0.60535908875E+02  0.13491236730E+03  0.53108429165E+03  0.58246070078E+03  0.18800000000E+03 0.  0.
<mgrwt>
<rscale>  0 0.49176846E+03</rscale>
<asrwt>0</asrwt>
<pdfrwt beam="1">  1        2 0.20708420E+00 0.49176846E+03</pdfrwt>
<pdfrwt beam="2">  1       -2 0.59582443E-02 0.49176846E+03</pdfrwt>
<totfact> 0.24716910E+03</totfact>
</mgrwt>
</event>
<event>
 4    1  0.5985962E-005  0.8526060E+03  0.7818608E-02  0.9486846E-01
         -2   -1    0    0    0  501 -0.00000000000E+00  0.00000000000E+00  0.83140687898E+02  0.83140687937E+02  0.25500000000E-02 0. -1.
          2   -1    0    0  501    0  0.00000000000E+00 -0.00000000000E+00 -0.21858642814E+04  0.21858642814E+04  0.25500000000E-02 0.  1.
    5000001    1    1    2    0    0 -0.14155716615E+02 -0.36587519178E+03 -0.75591153163E+03  0.86070394673E+03  0.18800000000E+03 0.  0.
   -5000001    1    1    2    0    0  0.14155716615E+02  0.36587519178E+03 -0.13468120619E+04  0.14083010226E+04  0.18800000000E+03 0.  0.
<mgrwt>
<rscale>  0 0.85260603E+03</rscale>
<asrwt>0</asrwt>
<pdfrwt beam="1">  1        2 0.31226629E+00 0.85260603E+03</pdfrwt>
<pdfrwt beam="2">  1       -2 0.11877243E-01 0.85260603E+03</pdfrwt>
<totfact> 0.33847870E+02</totfact>
</mgrwt>
</event>
<event>
 4    1  0.5985962E-005  0.5369722E+03  0.7818608E-02  0.1004555E+00
          2   -1    0    0  501    0  0.00000000000E+00  0.00000000000E+00  0.84398921165E+03  0.84398921165E+03  0.25500000000E-02 0.  1.
         -2   -1    0    0    0  501 -0.00000000000E+00 -0.00000000000E+00 -0.85409604576E+02  0.85409604614E+02  0.25500000000E-02 0. -1.
    5000001    1    1    2    0    0  0.12475522281E+03 -0.14369149343E+03  0.33945573894E+03  0.43218666060E+03  0.18800000000E+03 0.  0.
   -5000001    1    1    2    0    0 -0.12475522281E+03  0.14369149343E+03  0.41912386813E+03  0.49721215566E+03  0.18800000000E+03 0.  0.
<mgrwt>
<rscale>  0 0.53697220E+03</rscale>
<asrwt>0</asrwt>
<pdfrwt beam="1">  1        2 0.12056988E+00 0.53697220E+03</pdfrwt>
<pdfrwt beam="2">  1       -2 0.12201372E-01 0.53697220E+03</pdfrwt>
<totfact> 0.17564089E+03</totfact>
</mgrwt>
</event>
<event>
 4    1  0.5985962E-005  0.6315257E+03  0.7818608E-02  0.9842076E-01
          2   -1    0    0  501    0  0.00000000000E+00  0.00000000000E+00  0.27649838257E+03  0.27649838258E+03  0.25500000000E-02 0.  1.
         -2   -1    0    0    0  501 -0.00000000000E+00 -0.00000000000E+00 -0.36060311737E+03  0.36060311738E+03  0.25500000000E-02 0. -1.
    5000001    1    1    2    0    0  0.24083755320E+03 -0.78332548447E+02 -0.26971687304E+02  0.31655992654E+03  0.18800000000E+03 0.  0.
   -5000001    1    1    2    0    0 -0.24083755320E+03  0.78332548447E+02 -0.57133047493E+02  0.32054157342E+03  0.18800000000E+03 0.  0.
<mgrwt>
<rscale>  0 0.63152570E+03</rscale>
<asrwt>0</asrwt>
<pdfrwt beam="1">  1        2 0.39499769E-01 0.63152570E+03</pdfrwt>
<pdfrwt beam="2">  1       -2 0.51514731E-01 0.63152570E+03</pdfrwt>
<totfact> 0.46878631E+02</totfact>
</mgrwt>
</event>
<event>
 4    1  0.5985962E-005  0.5227479E+03  0.7818608E-02  0.1008006E+00
          2   -1    0    0  501    0  0.00000000000E+00  0.00000000000E+00  0.19935647871E+03  0.19935647873E+03  0.25500000000E-02 0.  1.
         -2   -1    0    0    0  501 -0.00000000000E+00 -0.00000000000E+00 -0.34268432977E+03  0.34268432978E+03  0.25500000000E-02 0. -1.
    5000001    1    1    2    0    0 -0.14427736840E+03 -0.76486806499E+02  0.10678159807E+02  0.24924729426E+03  0.18800000000E+03 0.  0.
   -5000001    1    1    2    0    0  0.14427736840E+03  0.76486806499E+02 -0.15400601087E+03  0.29279351425E+03  0.18800000000E+03 0.  0.
<mgrwt>
<rscale>  0 0.52274790E+03</rscale>
<asrwt>0</asrwt>
<pdfrwt beam="1">  1        2 0.28479497E-01 0.52274790E+03</pdfrwt>
<pdfrwt beam="2">  1       -2 0.48954904E-01 0.52274790E+03</pdfrwt>
<totfact> 0.74959869E+02</totfact>
</mgrwt>
</event>
<event>
 4    1  0.5985962E-005  0.4796278E+03  0.7818608E-02  0.1019238E+00
         -2   -1    0    0    0  501 -0.00000000000E+00  0.00000000000E+00  0.38348570471E+02  0.38348570556E+02  0.25500000000E-02 0. -1.
          2   -1    0    0  501    0  0.00000000000E+00 -0.00000000000E+00 -0.14996831983E+04  0.14996831983E+04  0.25500000000E-02 0.  1.
    5000001    1    1    2    0    0  0.84172014795E+02 -0.10960238855E+03 -0.55301693435E+03  0.60022440914E+03  0.18800000000E+03 0.  0.
   -5000001    1    1    2    0    0 -0.84172014795E+02  0.10960238855E+03 -0.90831769344E+03  0.93780735967E+03  0.18800000000E+03 0.  0.
<mgrwt>
<rscale>  0 0.47962780E+03</rscale>
<asrwt>0</asrwt>
<pdfrwt beam="1">  1        2 0.21424042E+00 0.47962780E+03</pdfrwt>
<pdfrwt beam="2">  1       -2 0.54783682E-02 0.47962780E+03</pdfrwt>
<totfact> 0.26529528E+03</totfact>
</mgrwt>
</event>
<event>
 4    1  0.5985962E-005  0.7748539E+03  0.7818608E-02  0.9597146E-01
         -2   -1    0    0    0  501 -0.00000000000E+00  0.00000000000E+00  0.29202305227E+03  0.29202305228E+03  0.25500000000E-02 0. -1.
          2   -1    0    0  501    0  0.00000000000E+00 -0.00000000000E+00 -0.51399926330E+03  0.51399926331E+03  0.25500000000E-02 0.  1.
    5000001    1    1    2    0    0 -0.28801243782E+03  0.10191462888E+03  0.41247231284E+02  0.36108598700E+03  0.18800000000E+03 0.  0.
   -5000001    1    1    2    0    0  0.28801243782E+03 -0.10191462888E+03 -0.26322344231E+03  0.44493632859E+03  0.18800000000E+03 0.  0.
<mgrwt>
<rscale>  0 0.77485388E+03</rscale>
<asrwt>0</asrwt>
<pdfrwt beam="1">  1        2 0.73428466E-01 0.77485388E+03</pdfrwt>
<pdfrwt beam="2">  1       -2 0.41717579E-01 0.77485388E+03</pdfrwt>
<totfact> 0.35614835E+02</totfact>
</mgrwt>
</event>
<event>
 4    1  0.5985962E-005  0.1148100E+04  0.7818608E-02  0.9159538E-01
         -2   -1    0    0    0  501 -0.00000000000E+00  0.00000000000E+00  0.44360662226E+03  0.44360662226E+03  0.25500000000E-02 0. -1.
          2   -1    0    0  501    0  0.00000000000E+00 -0.00000000000E+00 -0.74285071158E+03  0.74285071158E+03  0.25500000000E-02 0.  1.
    5000001    1    1    2    0    0  0.53735690643E+03  0.47205571323E+02 -0.91084320676E+02  0.57846448839E+03  0.18800000000E+03 0.  0.
   -5000001    1    1    2    0    0 -0.53735690643E+03 -0.47205571323E+02 -0.20815976865E+03  0.60799284546E+03  0.18800000000E+03 0.  0.
<mgrwt>
<rscale>  0 0.11481002E+04</rscale>
<asrwt>0</asrwt>
<pdfrwt beam="1">  1        2 0.10612153E+00 0.11481002E+04</pdfrwt>
<pdfrwt beam="2">  1       -2 0.63372375E-01 0.11481002E+04</pdfrwt>
<totfact> 0.95447608E+01</totfact>
</mgrwt>
</event>
<event>
 4    1  0.5985962E-005  0.6008386E+03  0.7818608E-02  0.9903668E-01
         -2   -1    0    0    0  501 -0.00000000000E+00  0.00000000000E+00  0.29469375297E+03  0.29469375298E+03  0.25500000000E-02 0. -1.
          2   -1    0    0  501    0  0.00000000000E+00 -0.00000000000E+00 -0.30625609407E+03  0.30625609408E+03  0.25500000000E-02 0.  1.
    5000001    1    1    2    0    0  0.13430558690E+03  0.19158023812E+03 -0.18697872556E+02  0.30072344230E+03  0.18800000000E+03 0.  0.
   -5000001    1    1    2    0    0 -0.13430558690E+03 -0.19158023812E+03  0.71355314547E+01  0.30022640477E+03  0.18800000000E+03 0.  0.
<mgrwt>
<rscale>  0 0.60083861E+03</rscale>
<asrwt>0</asrwt>
<pdfrwt beam="1">  1        2 0.43750871E-01 0.60083861E+03</pdfrwt>
<pdfrwt beam="2">  1       -2 0.42099107E-01 0.60083861E+03</pdfrwt>
<totfact> 0.62719805E+02</totfact>
</mgrwt>
</event>
<event>
 4    1  0.5985962E-005  0.4492424E+03  0.7818608E-02  0.1027948E+00
         -2   -1    0    0    0  501 -0.00000000000E+00  0.00000000000E+00  0.43343751900E+02  0.43343751975E+02  0.25500000000E-02 0. -1.
          2   -1    0    0  501    0  0.00000000000E+00 -0.00000000000E+00 -0.11640588055E+04  0.11640588055E+04  0.25500000000E-02 0.  1.
    5000001    1    1    2    0    0  0.76820044030E+02 -0.44050689581E+02 -0.33121508163E+03  0.39101050206E+03  0.18800000000E+03 0.  0.
   -5000001    1    1    2    0    0 -0.76820044030E+02  0.44050689581E+02 -0.78949997192E+03  0.81639205538E+03  0.18800000000E+03 0.  0.
<mgrwt>
<rscale>  0 0.44924237E+03</rscale>
<asrwt>0</asrwt>
<pdfrwt beam="1">  1        2 0.16629410E+00 0.44924237E+03</pdfrwt>
<pdfrwt beam="2">  1       -2 0.61919653E-02 0.44924237E+03</pdfrwt>
<totfact> 0.33188077E+03</totfact>
</mgrwt>
</event>
<event>
 4    1  0.5985962E-005  0.4812919E+03  0.7818608E-02  0.1018781E+00
         -2   -1    0    0    0  501 -0.00000000000E+00  0.00000000000E+00  0.12166641515E+03  0.12166641518E+03  0.25500000000E-02 0. -1.
          2   -1    0    0  501    0  0.00000000000E+00 -0.00000000000E+00 -0.47597752668E+03  0.47597752669E+03  0.25500000000E-02 0.  1.
    5000001    1    1    2    0    0 -0.10046229634E+03  0.10918536041E+03 -0.14797144821E+03  0.28152027529E+03  0.18800000000E+03 0.  0.
   -5000001    1    1    2    0    0  0.10046229634E+03 -0.10918536041E+03 -0.20633966332E+03  0.31612366658E+03  0.18800000000E+03 0.  0.
<mgrwt>
<rscale>  0 0.48129193E+03</rscale>
<asrwt>0</asrwt>
<pdfrwt beam="1">  1        2 0.67996789E-01 0.48129193E+03</pdfrwt>
<pdfrwt beam="2">  1       -2 0.17380917E-01 0.48129193E+03</pdfrwt>
<totfact> 0.19245472E+03</totfact>
</mgrwt>
</event>
<event>
 4    1  0.5985962E-005  0.8604092E+03  0.7818608E-02  0.9476472E-01
         -2   -1    0    0    0  501 -0.00000000000E+00  0.00000000000E+00  0.36638233978E+03  0.36638233979E+03  0.25500000000E-02 0. -1.
          2   -1    0    0  501    0  0.00000000000E+00 -0.00000000000E+00 -0.50514445345E+03  0.50514445345E+03  0.25500000000E-02 0.  1.
    5000001    1    1    2    0    0 -0.27367141682E+02  0.38455914233E+03 -0.10293478864E+03  0.44110573008E+03  0.18800000000E+03 0.  0.
   -5000001    1    1    2    0    0  0.27367141682E+02 -0.38455914233E+03 -0.35827325031E+02  0.43042106316E+03  0.18800000000E+03 0.  0.
<mgrwt>
<rscale>  0 0.86040922E+03</rscale>
<asrwt>0</asrwt>
<pdfrwt beam="1">  1        2 0.72163494E-01 0.86040922E+03</pdfrwt>
<pdfrwt beam="2">  1       -2 0.52340334E-01 0.86040922E+03</pdfrwt>
<totfact> 0.22965227E+02</totfact>
</mgrwt>
</event>
<event>
 4    1  0.5985962E-005  0.6343092E+03  0.7818608E-02  0.9836676E-01
         -2   -1    0    0    0  501 -0.00000000000E+00  0.00000000000E+00  0.16570965184E+03  0.16570965186E+03  0.25500000000E-02 0. -1.
          2   -1    0    0  501    0  0.00000000000E+00 -0.00000000000E+00 -0.60700768556E+03  0.60700768556E+03  0.25500000000E-02 0.  1.
    5000001    1    1    2    0    0 -0.72431387056E+02 -0.24424126571E+03 -0.24320816768E+03  0.39924217529E+03  0.18800000000E+03 0.  0.
   -5000001    1    1    2    0    0  0.72431387056E+02  0.24424126571E+03 -0.19808986604E+03  0.37347516214E+03  0.18800000000E+03 0.  0.
<mgrwt>
<rscale>  0 0.63430917E+03</rscale>
<asrwt>0</asrwt>
<pdfrwt beam="1">  1        2 0.86715383E-01 0.63430917E+03</pdfrwt>
<pdfrwt beam="2">  1       -2 0.23672808E-01 0.63430917E+03</pdfrwt>
<totfact> 0.84890496E+02</totfact>
</mgrwt>
</event>
<event>
 4    1  0.5985962E-005  0.6356016E+03  0.7818608E-02  0.9834178E-01
         -2   -1    0    0    0  501 -0.00000000000E+00  0.00000000000E+00  0.44351197459E+02  0.44351197533E+02  0.25500000000E-02 0. -1.
          2   -1    0    0  501    0  0.00000000000E+00 -0.00000000000E+00 -0.22772184105E+04  0.22772184105E+04  0.25500000000E-02 0.  1.
    5000001    1    1    2    0    0  0.22587161073E+03 -0.50296986597E+02 -0.15183074250E+04  0.15473038512E+04  0.18800000000E+03 0.  0.
   -5000001    1    1    2    0    0 -0.22587161073E+03  0.50296986597E+02 -0.71455978808E+03  0.77426575679E+03  0.18800000000E+03 0.  0.
<mgrwt>
<rscale>  0 0.63560165E+03</rscale>
<asrwt>0</asrwt>
<pdfrwt beam="1">  1        2 0.32531684E+00 0.63560165E+03</pdfrwt>
<pdfrwt beam="2">  1       -2 0.63358868E-02 0.63560165E+03</pdfrwt>
<totfact> 0.84999579E+02</totfact>
</mgrwt>
</event>
<event>
 4    1  0.5985962E-005  0.1009091E+04  0.7818608E-02  0.9298630E-01
          2   -1    0    0  501    0  0.00000000000E+00  0.00000000000E+00  0.24101770470E+04  0.24101770470E+04  0.25500000000E-02 0.  1.
         -2   -1    0    0    0  501 -0.00000000000E+00 -0.00000000000E+00 -0.10562130888E+03  0.10562130891E+03  0.25500000000E-02 0. -1.
    5000001    1    1    2    0    0  0.39755694932E+03  0.36704701973E+02  0.54248724987E+03  0.69931050283E+03  0.18800000000E+03 0.  0.
   -5000001    1    1    2    0    0 -0.39755694932E+03 -0.36704701973E+02  0.17620684883E+04  0.18164878531E+04  0.18800000000E+03 0.  0.
<mgrwt>
<rscale>  0 0.10090908E+04</rscale>
<asrwt>0</asrwt>
<pdfrwt beam="1">  1        2 0.34431102E+00 0.10090908E+04</pdfrwt>
<pdfrwt beam="2">  1       -2 0.15088758E-01 0.10090908E+04</pdfrwt>
<totfact> 0.17183415E+02</totfact>
</mgrwt>
</event>
<event>
 4    1  0.5985962E-005  0.5336497E+03  0.7818608E-02  0.1005351E+00
         -2   -1    0    0    0  501 -0.00000000000E+00  0.00000000000E+00  0.11970200036E+03  0.11970200039E+03  0.25500000000E-02 0. -1.
          2   -1    0    0  501    0  0.00000000000E+00 -0.00000000000E+00 -0.59477280530E+03  0.59477280530E+03  0.25500000000E-02 0.  1.
    5000001    1    1    2    0    0  0.18897891961E+03 -0.40301410033E+01 -0.25233679726E+03  0.36707919220E+03  0.18800000000E+03 0.  0.
   -5000001    1    1    2    0    0 -0.18897891961E+03  0.40301410033E+01 -0.22273400767E+03  0.34739561349E+03  0.18800000000E+03 0.  0.
<mgrwt>
<rscale>  0 0.53364968E+03</rscale>
<asrwt>0</asrwt>
<pdfrwt beam="1">  1        2 0.84967542E-01 0.53364968E+03</pdfrwt>
<pdfrwt beam="2">  1       -2 0.17100286E-01 0.53364968E+03</pdfrwt>
<totfact> 0.15339086E+03</totfact>
</mgrwt>
</event>
<event>
 4    1  0.5985962E-005  0.9370553E+03  0.7818608E-02  0.9380410E-01
          2   -1    0    0  501    0  0.00000000000E+00  0.00000000000E+00  0.42983084760E+03  0.42983084761E+03  0.25500000000E-02 0.  1.
         -2   -1    0    0    0  501 -0.00000000000E+00 -0.00000000000E+00 -0.51070827427E+03  0.51070827427E+03  0.25500000000E-02 0. -1.
    5000001    1    1    2    0    0  0.28267136112E+03 -0.92775220115E+02  0.27000689129E+03  0.44357418907E+03  0.18800000000E+03 0.  0.
   -5000001    1    1    2    0    0 -0.28267136112E+03  0.92775220115E+02 -0.35088431795E+03  0.49696493281E+03  0.18800000000E+03 0.  0.
<mgrwt>
<rscale>  0 0.93705532E+03</rscale>
<asrwt>0</asrwt>
<pdfrwt beam="1">  1        2 0.61404408E-01 0.93705532E+03</pdfrwt>
<pdfrwt beam="2">  1       -2 0.72958324E-01 0.93705532E+03</pdfrwt>
<totfact> 0.13568988E+02</totfact>
</mgrwt>
</event>
<event>
 4    1  0.5985962E-005  0.1141415E+04  0.7818608E-02  0.9165741E-01
         -2   -1    0    0    0  501 -0.00000000000E+00  0.00000000000E+00  0.16388543022E+03  0.16388543023E+03  0.25500000000E-02 0. -1.
          2   -1    0    0  501    0  0.00000000000E+00 -0.00000000000E+00 -0.19874060154E+04  0.19874060154E+04  0.25500000000E-02 0.  1.
    5000001    1    1    2    0    0 -0.51178367476E+03  0.14345172213E+03 -0.10788775481E+04  0.12173009859E+04  0.18800000000E+03 0.  0.
   -5000001    1    1    2    0    0  0.51178367476E+03 -0.14345172213E+03 -0.74464303709E+03  0.93399045981E+03  0.18800000000E+03 0.  0.
<mgrwt>
<rscale>  0 0.11414147E+04</rscale>
<asrwt>0</asrwt>
<pdfrwt beam="1">  1        2 0.28391513E+00 0.11414147E+04</pdfrwt>
<pdfrwt beam="2">  1       -2 0.23412206E-01 0.11414147E+04</pdfrwt>
<totfact> 0.13034483E+02</totfact>
</mgrwt>
</event>
<event>
 4    1  0.5985962E-005  0.5423551E+03  0.7818608E-02  0.1003279E+00
         -2   -1    0    0    0  501 -0.00000000000E+00  0.00000000000E+00  0.60638165493E+02  0.60638165546E+02  0.25500000000E-02 0. -1.
          2   -1    0    0  501    0  0.00000000000E+00 -0.00000000000E+00 -0.12127226403E+04  0.12127226403E+04  0.25500000000E-02 0.  1.
    5000001    1    1    2    0    0 -0.16886636129E+03  0.42305631027E+02 -0.78455942239E+03  0.82533817411E+03  0.18800000000E+03 0.  0.
   -5000001    1    1    2    0    0  0.16886636129E+03 -0.42305631027E+02 -0.36752505241E+03  0.44802263173E+03  0.18800000000E+03 0.  0.
<mgrwt>
<rscale>  0 0.54235515E+03</rscale>
<asrwt>0</asrwt>
<pdfrwt beam="1">  1        2 0.17324608E+00 0.54235515E+03</pdfrwt>
<pdfrwt beam="2">  1       -2 0.86625958E-02 0.54235515E+03</pdfrwt>
<totfact> 0.18341699E+03</totfact>
</mgrwt>
</event>
<event>
 4    1  0.5985962E-005  0.5018856E+03  0.7818608E-02  0.1013288E+00
          2   -1    0    0  501    0  0.00000000000E+00  0.00000000000E+00  0.11755506490E+04  0.11755506491E+04  0.25500000000E-02 0.  1.
         -2   -1    0    0    0  501 -0.00000000000E+00 -0.00000000000E+00 -0.53568336631E+02  0.53568336691E+02  0.25500000000E-02 0. -1.
    5000001    1    1    2    0    0  0.90780695628E+01  0.16402485038E+03  0.49895207402E+03  0.55792807338E+03  0.18800000000E+03 0.  0.
   -5000001    1    1    2    0    0 -0.90780695628E+01 -0.16402485038E+03  0.62303023839E+03  0.67119091237E+03  0.18800000000E+03 0.  0.
<mgrwt>
<rscale>  0 0.50188562E+03</rscale>
<asrwt>0</asrwt>
<pdfrwt beam="1">  1        2 0.16793579E+00 0.50188562E+03</pdfrwt>
<pdfrwt beam="2">  1       -2 0.76526201E-02 0.50188562E+03</pdfrwt>
<totfact> 0.23446992E+03</totfact>
</mgrwt>
</event>
<event>
 4    1  0.5985962E-005  0.5835461E+03  0.7818608E-02  0.9940143E-01
          2   -1    0    0  501    0  0.00000000000E+00  0.00000000000E+00  0.39352670884E+03  0.39352670885E+03  0.25500000000E-02 0.  1.
         -2   -1    0    0    0  501 -0.00000000000E+00 -0.00000000000E+00 -0.21632971063E+03  0.21632971065E+03  0.25500000000E-02 0. -1.
    5000001    1    1    2    0    0 -0.19312318171E+02  0.14053694307E+03 -0.91399091137E+02  0.25262896085E+03  0.18800000000E+03 0.  0.
   -5000001    1    1    2    0    0  0.19312318171E+02 -0.14053694307E+03  0.26859608934E+03  0.35722745864E+03  0.18800000000E+03 0.  0.
<mgrwt>
<rscale>  0 0.58354612E+03</rscale>
<asrwt>0</asrwt>
<pdfrwt beam="1">  1        2 0.56218101E-01 0.58354612E+03</pdfrwt>
<pdfrwt beam="2">  1       -2 0.30904244E-01 0.58354612E+03</pdfrwt>
<totfact> 0.85696683E+02</totfact>
</mgrwt>
</event>
<event>
 4    1  0.5985962E-005  0.4503908E+03  0.7818608E-02  0.1027606E+00
         -2   -1    0    0    0  501 -0.00000000000E+00  0.00000000000E+00  0.45184429110E+02  0.45184429182E+02  0.25500000000E-02 0. -1.
          2   -1    0    0  501    0  0.00000000000E+00 -0.00000000000E+00 -0.11223548952E+04  0.11223548952E+04  0.25500000000E-02 0.  1.
    5000001    1    1    2    0    0  0.72918849617E+02  0.54296743714E+02 -0.32009933291E+03  0.38219481673E+03  0.18800000000E+03 0.  0.
   -5000001    1    1    2    0    0 -0.72918849617E+02 -0.54296743714E+02 -0.75707113322E+03  0.78534450770E+03  0.18800000000E+03 0.  0.
<mgrwt>
<rscale>  0 0.45039079E+03</rscale>
<asrwt>0</asrwt>
<pdfrwt beam="1">  1        2 0.16033640E+00 0.45039079E+03</pdfrwt>
<pdfrwt beam="2">  1       -2 0.64549191E-02 0.45039079E+03</pdfrwt>
<totfact> 0.32839471E+03</totfact>
</mgrwt>
</event>
<event>
 4    1  0.5985962E-005  0.6939295E+03  0.7818608E-02  0.9727670E-01
          2   -1    0    0  501    0  0.00000000000E+00  0.00000000000E+00  0.31478724372E+04  0.31478724372E+04  0.25500000000E-02 0.  1.
         -2   -1    0    0    0  501 -0.00000000000E+00 -0.00000000000E+00 -0.38243144515E+02  0.38243144600E+02  0.25500000000E-02 0. -1.
    5000001    1    1    2    0    0 -0.97011941903E+02  0.27495920794E+03  0.15785206333E+04  0.16161946890E+04  0.18800000000E+03 0.  0.
   -5000001    1    1    2    0    0  0.97011941903E+02 -0.27495920794E+03  0.15311086594E+04  0.15699208928E+04  0.18800000000E+03 0.  0.
<mgrwt>
<rscale>  0 0.69392951E+03</rscale>
<asrwt>0</asrwt>
<pdfrwt beam="1">  1        2 0.44969594E+00 0.69392951E+03</pdfrwt>
<pdfrwt beam="2">  1       -2 0.54633079E-02 0.69392951E+03</pdfrwt>
<totfact> 0.37016827E+02</totfact>
</mgrwt>
</event>
<event>
 4    1  0.5985962E-005  0.7199226E+03  0.7818608E-02  0.9683756E-01
          2   -1    0    0  501    0  0.00000000000E+00  0.00000000000E+00  0.57202007808E+03  0.57202007808E+03  0.25500000000E-02 0.  1.
         -2   -1    0    0    0  501 -0.00000000000E+00 -0.00000000000E+00 -0.22651679163E+03  0.22651679165E+03  0.25500000000E-02 0. -1.
    5000001    1    1    2    0    0  0.14088423092E+03  0.77594765053E+02  0.46275730607E+03  0.52474530813E+03  0.18800000000E+03 0.  0.
   -5000001    1    1    2    0    0 -0.14088423092E+03 -0.77594765053E+02 -0.11725401963E+03  0.27379156160E+03  0.18800000000E+03 0.  0.
<mgrwt>
<rscale>  0 0.71992264E+03</rscale>
<asrwt>0</asrwt>
<pdfrwt beam="1">  1        2 0.81717153E-01 0.71992264E+03</pdfrwt>
<pdfrwt beam="2">  1       -2 0.32359542E-01 0.71992264E+03</pdfrwt>
<totfact> 0.51302856E+02</totfact>
</mgrwt>
</event>
<event>
 4    1  0.5985962E-005  0.5223513E+03  0.7818608E-02  0.1008104E+00
         -2   -1    0    0    0  501 -0.00000000000E+00  0.00000000000E+00  0.14794702366E+03  0.14794702368E+03  0.25500000000E-02 0. -1.
          2   -1    0    0  501    0  0.00000000000E+00 -0.00000000000E+00 -0.46106172862E+03  0.46106172863E+03  0.25500000000E-02 0.  1.
    5000001    1    1    2    0    0  0.12520428820E+03 -0.23299622291E+02 -0.30699772780E+03  0.38185153012E+03  0.18800000000E+03 0.  0.
   -5000001    1    1    2    0    0 -0.12520428820E+03  0.23299622291E+02 -0.61169771621E+01  0.22715722219E+03  0.18800000000E+03 0.  0.
<mgrwt>
<rscale>  0 0.52235126E+03</rscale>
<asrwt>0</asrwt>
<pdfrwt beam="1">  1        2 0.65865961E-01 0.52235126E+03</pdfrwt>
<pdfrwt beam="2">  1       -2 0.21135289E-01 0.52235126E+03</pdfrwt>
<totfact> 0.14236324E+03</totfact>
</mgrwt>
</event>
<event>
 4    1  0.5985962E-005  0.4679299E+03  0.7818608E-02  0.1022506E+00
          2   -1    0    0  501    0  0.00000000000E+00  0.00000000000E+00  0.26492517413E+04  0.26492517413E+04  0.25500000000E-02 0.  1.
         -2   -1    0    0    0  501 -0.00000000000E+00 -0.00000000000E+00 -0.20662285885E+02  0.20662286042E+02  0.25500000000E-02 0. -1.
    5000001    1    1    2    0    0 -0.25187150014E+02 -0.12952377176E+03  0.15684941394E+04  0.15852219609E+04  0.18800000000E+03 0.  0.
   -5000001    1    1    2    0    0  0.25187150014E+02  0.12952377176E+03  0.10600953161E+04  0.10846920665E+04  0.18800000000E+03 0.  0.
<mgrwt>
<rscale>  0 0.46792990E+03</rscale>
<asrwt>0</asrwt>
<pdfrwt beam="1">  1        2 0.37846442E+00 0.46792990E+03</pdfrwt>
<pdfrwt beam="2">  1       -2 0.29517560E-02 0.46792990E+03</pdfrwt>
<totfact> 0.17992037E+03</totfact>
</mgrwt>
</event>
<event>
 4    1  0.5985962E-005  0.5674871E+03  0.7818608E-02  0.9975255E-01
         -2   -1    0    0    0  501 -0.00000000000E+00  0.00000000000E+00  0.48110594143E+03  0.48110594144E+03  0.25500000000E-02 0. -1.
          2   -1    0    0  501    0  0.00000000000E+00 -0.00000000000E+00 -0.16734443990E+03  0.16734443992E+03  0.25500000000E-02 0.  1.
    5000001    1    1    2    0    0 -0.54275976991E+02 -0.18833203398E+03  0.62989946097E+02  0.27879485291E+03  0.18800000000E+03 0.  0.
   -5000001    1    1    2    0    0  0.54275976991E+02  0.18833203398E+03  0.25077155543E+03  0.36965552845E+03  0.18800000000E+03 0.  0.
<mgrwt>
<rscale>  0 0.56748711E+03</rscale>
<asrwt>0</asrwt>
<pdfrwt beam="1">  1        2 0.23906348E-01 0.56748711E+03</pdfrwt>
<pdfrwt beam="2">  1       -2 0.68729422E-01 0.56748711E+03</pdfrwt>
<totfact> 0.45048789E+02</totfact>
</mgrwt>
</event>
<event>
 4    1  0.5985962E-005  0.9002658E+03  0.7818608E-02  0.9425249E-01
         -2   -1    0    0    0  501 -0.00000000000E+00  0.00000000000E+00  0.30913417366E+03  0.30913417367E+03  0.25500000000E-02 0. -1.
          2   -1    0    0  501    0  0.00000000000E+00 -0.00000000000E+00 -0.65544233486E+03  0.65544233487E+03  0.25500000000E-02 0.  1.
    5000001    1    1    2    0    0  0.40726178301E+03 -0.37313542396E+02 -0.16822498628E+03  0.48051858066E+03  0.18800000000E+03 0.  0.
   -5000001    1    1    2    0    0 -0.40726178301E+03  0.37313542396E+02 -0.17808317492E+03  0.48405792788E+03  0.18800000000E+03 0.  0.
<mgrwt>
<rscale>  0 0.90026579E+03</rscale>
<asrwt>0</asrwt>
<pdfrwt beam="1">  1        2 0.93634619E-01 0.90026579E+03</pdfrwt>
<pdfrwt beam="2">  1       -2 0.44162025E-01 0.90026579E+03</pdfrwt>
<totfact> 0.23772743E+02</totfact>
</mgrwt>
</event>
<event>
 4    1  0.5985962E-005  0.7149959E+03  0.7818608E-02  0.9691925E-01
         -2   -1    0    0    0  501 -0.00000000000E+00  0.00000000000E+00  0.25735696656E+03  0.25735696658E+03  0.25500000000E-02 0. -1.
          2   -1    0    0  501    0  0.00000000000E+00 -0.00000000000E+00 -0.49660504369E+03  0.49660504369E+03  0.25500000000E-02 0.  1.
    5000001    1    1    2    0    0  0.17375799719E+03  0.22510678695E+03 -0.23317672986E+03  0.41301367346E+03  0.18800000000E+03 0.  0.
   -5000001    1    1    2    0    0 -0.17375799719E+03 -0.22510678695E+03 -0.60713472650E+01  0.34094833681E+03  0.18800000000E+03 0.  0.
<mgrwt>
<rscale>  0 0.71499585E+03</rscale>
<asrwt>0</asrwt>
<pdfrwt beam="1">  1        2 0.70943577E-01 0.71499585E+03</pdfrwt>
<pdfrwt beam="2">  1       -2 0.36765281E-01 0.71499585E+03</pdfrwt>
<totfact> 0.47430997E+02</totfact>
</mgrwt>
</event>
<event>
 4    1  0.5985962E-005  0.9961267E+03  0.7818608E-02  0.9312803E-01
          2   -1    0    0  501    0  0.00000000000E+00  0.00000000000E+00  0.86867690151E+03  0.86867690151E+03  0.25500000000E-02 0.  1.
         -2   -1    0    0    0  501 -0.00000000000E+00 -0.00000000000E+00 -0.28556890970E+03  0.28556890971E+03  0.25500000000E-02 0. -1.
    5000001    1    1    2    0    0 -0.85191728694E+02  0.42493112858E+03  0.10871246518E+03  0.48475405595E+03  0.18800000000E+03 0.  0.
   -5000001    1    1    2    0    0  0.85191728694E+02 -0.42493112858E+03  0.47439552664E+03  0.66949175527E+03  0.18800000000E+03 0.  0.
<mgrwt>
<rscale>  0 0.99612673E+03</rscale>
<asrwt>0</asrwt>
<pdfrwt beam="1">  1        2 0.12409670E+00 0.99612673E+03</pdfrwt>
<pdfrwt beam="2">  1       -2 0.40795559E-01 0.99612673E+03</pdfrwt>
<totfact> 0.19351459E+02</totfact>
</mgrwt>
</event>
<event>
 4    1  0.5985962E-005  0.1061364E+04  0.7818608E-02  0.9243690E-01
         -2   -1    0    0    0  501 -0.00000000000E+00  0.00000000000E+00  0.44637041412E+03  0.44637041412E+03  0.25500000000E-02 0. -1.
          2   -1    0    0  501    0  0.00000000000E+00 -0.00000000000E+00 -0.63091842020E+03  0.63091842020E+03  0.25500000000E-02 0.  1.
    5000001    1    1    2    0    0 -0.24265388585E+02  0.37869344436E+03  0.23233981508E+03  0.48303553032E+03  0.18800000000E+03 0.  0.
   -5000001    1    1    2    0    0  0.24265388585E+02 -0.37869344436E+03 -0.41688782116E+03  0.59425330400E+03  0.18800000000E+03 0.  0.
<mgrwt>
<rscale>  0 0.10613639E+04</rscale>
<asrwt>0</asrwt>
<pdfrwt beam="1">  1        2 0.90131202E-01 0.10613639E+04</pdfrwt>
<pdfrwt beam="2">  1       -2 0.63767203E-01 0.10613639E+04</pdfrwt>
<totfact> 0.11575130E+02</totfact>
</mgrwt>
</event>
<event>
 4    1  0.5985962E-005  0.6815619E+03  0.7818608E-02  0.9749294E-01
         -2   -1    0    0    0  501 -0.00000000000E+00  0.00000000000E+00  0.21310998989E+03  0.21310998990E+03  0.25500000000E-02 0. -1.
          2   -1    0    0  501    0  0.00000000000E+00 -0.00000000000E+00 -0.54493757593E+03  0.54493757593E+03  0.25500000000E-02 0.  1.
    5000001    1    1    2    0    0 -0.24415320283E+03 -0.13795791599E+03 -0.21741898285E+03  0.40156965415E+03  0.18800000000E+03 0.  0.
   -5000001    1    1    2    0    0  0.24415320283E+03  0.13795791599E+03 -0.11440860319E+03  0.35647791168E+03  0.18800000000E+03 0.  0.
<mgrwt>
<rscale>  0 0.68156186E+03</rscale>
<asrwt>0</asrwt>
<pdfrwt beam="1">  1        2 0.77848225E-01 0.68156186E+03</pdfrwt>
<pdfrwt beam="2">  1       -2 0.30444284E-01 0.68156186E+03</pdfrwt>
<totfact> 0.60889730E+02</totfact>
</mgrwt>
</event>
<event>
 4    1  0.5985962E-005  0.3964112E+03  0.7818608E-02  0.1045029E+00
          2   -1    0    0  501    0  0.00000000000E+00  0.00000000000E+00  0.18750923525E+03  0.18750923527E+03  0.25500000000E-02 0.  1.
         -2   -1    0    0    0  501 -0.00000000000E+00 -0.00000000000E+00 -0.20951217816E+03  0.20951217817E+03  0.25500000000E-02 0. -1.
    5000001    1    1    2    0    0  0.58962614204E+02 -0.16908180718E+02 -0.24400848499E+02  0.19925330074E+03  0.18800000000E+03 0.  0.
   -5000001    1    1    2    0    0 -0.58962614204E+02  0.16908180718E+02  0.23979055906E+01  0.19776811270E+03  0.18800000000E+03 0.  0.
<mgrwt>
<rscale>  0 0.39641124E+03</rscale>
<asrwt>0</asrwt>
<pdfrwt beam="1">  1        2 0.26787034E-01 0.39641124E+03</pdfrwt>
<pdfrwt beam="2">  1       -2 0.29930311E-01 0.39641124E+03</pdfrwt>
<totfact> 0.20592140E+03</totfact>
</mgrwt>
</event>
<event>
 4    1  0.5985962E-005  0.5612567E+03  0.7818608E-02  0.9989215E-01
         -2   -1    0    0    0  501 -0.00000000000E+00  0.00000000000E+00  0.18918171508E+03  0.18918171510E+03  0.25500000000E-02 0. -1.
          2   -1    0    0  501    0  0.00000000000E+00 -0.00000000000E+00 -0.41627841475E+03  0.41627841476E+03  0.25500000000E-02 0.  1.
    5000001    1    1    2    0    0  0.11924147624E+03 -0.17084934873E+03 -0.11407112213E+03  0.30292614698E+03  0.18800000000E+03 0.  0.
   -5000001    1    1    2    0    0 -0.11924147624E+03  0.17084934873E+03 -0.11302557754E+03  0.30253398288E+03  0.18800000000E+03 0.  0.
<mgrwt>
<rscale>  0 0.56125668E+03</rscale>
<asrwt>0</asrwt>
<pdfrwt beam="1">  1        2 0.59468345E-01 0.56125668E+03</pdfrwt>
<pdfrwt beam="2">  1       -2 0.27025959E-01 0.56125668E+03</pdfrwt>
<totfact> 0.10298318E+03</totfact>
</mgrwt>
</event>
<event>
 4    1  0.5985962E-005  0.4502417E+03  0.7818608E-02  0.1027650E+00
          2   -1    0    0  501    0  0.00000000000E+00  0.00000000000E+00  0.12328994117E+03  0.12328994120E+03  0.25500000000E-02 0.  1.
         -2   -1    0    0    0  501 -0.00000000000E+00 -0.00000000000E+00 -0.41105873807E+03  0.41105873808E+03  0.25500000000E-02 0. -1.
    5000001    1    1    2    0    0  0.33858595336E+02  0.11836355524E+03 -0.15976594420E+03  0.27572720688E+03  0.18800000000E+03 0.  0.
   -5000001    1    1    2    0    0 -0.33858595336E+02 -0.11836355524E+03 -0.12800285270E+03  0.25862147240E+03  0.18800000000E+03 0.  0.
<mgrwt>
<rscale>  0 0.45024175E+03</rscale>
<asrwt>0</asrwt>
<pdfrwt beam="1">  1        2 0.17612849E-01 0.45024175E+03</pdfrwt>
<pdfrwt beam="2">  1       -2 0.58722676E-01 0.45024175E+03</pdfrwt>
<totfact> 0.89790582E+02</totfact>
</mgrwt>
</event>
<event>
 4    1  0.5985962E-005  0.5670073E+03  0.7818608E-02  0.9976323E-01
         -2   -1    0    0    0  501 -0.00000000000E+00  0.00000000000E+00  0.29503780793E+03  0.29503780794E+03  0.25500000000E-02 0.  1.
          2   -1    0    0  501    0  0.00000000000E+00 -0.00000000000E+00 -0.27242043557E+03  0.27242043558E+03  0.25500000000E-02 0. -1.
    5000001    1    1    2    0    0  0.70050373514E+02 -0.14866165357E+03  0.14566516381E+03  0.28908421268E+03  0.18800000000E+03 0.  0.
   -5000001    1    1    2    0    0 -0.70050373514E+02  0.14866165357E+03 -0.12304779145E+03  0.27837403085E+03  0.18800000000E+03 0.  0.
<mgrwt>
<rscale>  0 0.56700733E+03</rscale>
<asrwt>0</asrwt>
<pdfrwt beam="1">  1        2 0.38917205E-01 0.56700733E+03</pdfrwt>
<pdfrwt beam="2">  1       -2 0.42148259E-01 0.56700733E+03</pdfrwt>
<totfact> 0.71237493E+02</totfact>
</mgrwt>
</event>
<event>
 4    1  0.5985962E-005  0.5406819E+03  0.7818608E-02  0.1003674E+00
         -2   -1    0    0    0  501 -0.00000000000E+00  0.00000000000E+00  0.36341422206E+02  0.36341422295E+02  0.25500000000E-02 0. -1.
          2   -1    0    0  501    0  0.00000000000E+00 -0.00000000000E+00 -0.20110446444E+04  0.20110446444E+04  0.25500000000E-02 0.  1.
    5000001    1    1    2    0    0 -0.14363246596E+03  0.70592853071E+02 -0.57036009919E+03  0.62150485029E+03  0.18800000000E+03 0.  0.
   -5000001    1    1    2    0    0  0.14363246596E+03 -0.70592853071E+02 -0.14043431230E+04  0.14258812164E+04  0.18800000000E+03 0.  0.
<mgrwt>
<rscale>  0 0.54068188E+03</rscale>
<asrwt>0</asrwt>
<pdfrwt beam="1">  1        2 0.28729202E+00 0.54068188E+03</pdfrwt>
<pdfrwt beam="2">  1       -2 0.51916330E-02 0.54068188E+03</pdfrwt>
<totfact> 0.15875840E+03</totfact>
</mgrwt>
</event>
<event>
 4    1  0.5985962E-005  0.5558096E+03  0.7818608E-02  0.1000158E+00
          2   -1    0    0  501    0  0.00000000000E+00  0.00000000000E+00  0.17278063503E+04  0.17278063503E+04  0.25500000000E-02 0.  1.
         -2   -1    0    0    0  501 -0.00000000000E+00 -0.00000000000E+00 -0.44698926072E+02  0.44698926145E+02  0.25500000000E-02 0. -1.
    5000001    1    1    2    0    0 -0.10870092661E+03 -0.14237381384E+03  0.52583937011E+03  0.58646162489E+03  0.18800000000E+03 0.  0.
   -5000001    1    1    2    0    0  0.10870092661E+03  0.14237381384E+03  0.11572680541E+04  0.11860436516E+04  0.18800000000E+03 0.  0.
<mgrwt>
<rscale>  0 0.55580964E+03</rscale>
<asrwt>0</asrwt>
<pdfrwt beam="1">  1        2 0.24682950E+00 0.55580964E+03</pdfrwt>
<pdfrwt beam="2">  1       -2 0.63855602E-02 0.55580964E+03</pdfrwt>
<totfact> 0.15941580E+03</totfact>
</mgrwt>
</event>
<event>
 4    1  0.5985962E-005  0.7893755E+03  0.7818608E-02  0.9575524E-01
          2   -1    0    0  501    0  0.00000000000E+00  0.00000000000E+00  0.21561895371E+04  0.21561895371E+04  0.25500000000E-02 0. -1.
         -2   -1    0    0    0  501 -0.00000000000E+00 -0.00000000000E+00 -0.72247090356E+02  0.72247090401E+02  0.25500000000E-02 0.  1.
    5000001    1    1    2    0    0 -0.30660546276E+03  0.15926041109E+03  0.94990245207E+03  0.10281193787E+04  0.18800000000E+03 0.  0.
   -5000001    1    1    2    0    0  0.30660546276E+03 -0.15926041109E+03  0.11340399947E+04  0.12003172488E+04  0.18800000000E+03 0.  0.
<mgrwt>
<rscale>  0 0.78937550E+03</rscale>
<asrwt>0</asrwt>
<pdfrwt beam="1">  1        2 0.30802706E+00 0.78937550E+03</pdfrwt>
<pdfrwt beam="2">  1       -2 0.10321014E-01 0.78937550E+03</pdfrwt>
<totfact> 0.44343900E+02</totfact>
</mgrwt>
</event>
<event>
 4    1  0.5985962E-005  0.4870317E+03  0.7818608E-02  0.1017220E+00
         -2   -1    0    0    0  501 -0.00000000000E+00  0.00000000000E+00  0.20855627737E+03  0.20855627739E+03  0.25500000000E-02 0. -1.
          2   -1    0    0  501    0  0.00000000000E+00 -0.00000000000E+00 -0.28433559494E+03  0.28433559495E+03  0.25500000000E-02 0.  1.
    5000001    1    1    2    0    0 -0.37524925571E+01  0.10525935521E+03 -0.15266662610E+03  0.26409224106E+03  0.18800000000E+03 0.  0.
   -5000001    1    1    2    0    0  0.37524925571E+01 -0.10525935521E+03  0.76887308541E+02  0.22879963128E+03  0.18800000000E+03 0.  0.
<mgrwt>
<rscale>  0 0.48703172E+03</rscale>
<asrwt>0</asrwt>
<pdfrwt beam="1">  1        2 0.40619371E-01 0.48703172E+03</pdfrwt>
<pdfrwt beam="2">  1       -2 0.29793754E-01 0.48703172E+03</pdfrwt>
<totfact> 0.13118124E+03</totfact>
</mgrwt>
</event>
<event>
 4    1  0.5985962E-005  0.5800149E+03  0.7818608E-02  0.9947759E-01
          2   -1    0    0  501    0  0.00000000000E+00  0.00000000000E+00  0.18839781422E+04  0.18839781422E+04  0.25500000000E-02 0.  1.
         -2   -1    0    0    0  501 -0.00000000000E+00 -0.00000000000E+00 -0.44641871035E+02  0.44641871108E+02  0.25500000000E-02 0. -1.
    5000001    1    1    2    0    0  0.21755283552E+03  0.10242933422E+02  0.10407571541E+04  0.10797933171E+04  0.18800000000E+03 0.  0.
   -5000001    1    1    2    0    0 -0.21755283552E+03 -0.10242933422E+02  0.79857911712E+03  0.84882669623E+03  0.18800000000E+03 0.  0.
<mgrwt>
<rscale>  0 0.58001486E+03</rscale>
<asrwt>0</asrwt>
<pdfrwt beam="1">  1        2 0.26913970E+00 0.58001486E+03</pdfrwt>
<pdfrwt beam="2">  1       -2 0.63774109E-02 0.58001486E+03</pdfrwt>
<totfact> 0.13311484E+03</totfact>
</mgrwt>
</event>
<event>
 4    1  0.5985962E-005  0.6613096E+03  0.7818608E-02  0.9785786E-01
          2   -1    0    0  501    0  0.00000000000E+00  0.00000000000E+00  0.11859165998E+04  0.11859165998E+04  0.25500000000E-02 0.  1.
         -2   -1    0    0    0  501 -0.00000000000E+00 -0.00000000000E+00 -0.92192477655E+02  0.92192477691E+02  0.25500000000E-02 0. -1.
    5000001    1    1    2    0    0  0.55576074930E+02 -0.25996130177E+03  0.43550112416E+03  0.54375896100E+03  0.18800000000E+03 0.  0.
   -5000001    1    1    2    0    0 -0.55576074930E+02  0.25996130177E+03  0.65822299803E+03  0.73435011654E+03  0.18800000000E+03 0.  0.
<mgrwt>
<rscale>  0 0.66130958E+03</rscale>
<asrwt>0</asrwt>
<pdfrwt beam="1">  1        2 0.16941666E+00 0.66130958E+03</pdfrwt>
<pdfrwt beam="2">  1       -2 0.13170354E-01 0.66130958E+03</pdfrwt>
<totfact> 0.95605602E+02</totfact>
</mgrwt>
</event>
<event>
 4    1  0.5985962E-005  0.5345848E+03  0.7818608E-02  0.1005126E+00
         -2   -1    0    0    0  501 -0.00000000000E+00  0.00000000000E+00  0.43113941438E+02  0.43113941513E+02  0.25500000000E-02 0. -1.
          2   -1    0    0  501    0  0.00000000000E+00 -0.00000000000E+00 -0.16571257134E+04  0.16571257134E+04  0.25500000000E-02 0.  1.
    5000001    1    1    2    0    0  0.16600983409E+03 -0.87058214288E+02 -0.90569445649E+03  0.94380339383E+03  0.18800000000E+03 0.  0.
   -5000001    1    1    2    0    0 -0.16600983409E+03  0.87058214288E+02 -0.70831731550E+03  0.75643626111E+03  0.18800000000E+03 0.  0.
<mgrwt>
<rscale>  0 0.53458478E+03</rscale>
<asrwt>0</asrwt>
<pdfrwt beam="1">  1        2 0.23673220E+00 0.53458478E+03</pdfrwt>
<pdfrwt beam="2">  1       -2 0.61591355E-02 0.53458478E+03</pdfrwt>
<totfact> 0.18334945E+03</totfact>
</mgrwt>
</event>
<event>
 4    1  0.5985962E-005  0.4801969E+03  0.7818608E-02  0.1019081E+00
          2   -1    0    0  501    0  0.00000000000E+00  0.00000000000E+00  0.90233915913E+03  0.90233915913E+03  0.25500000000E-02 0.  1.
         -2   -1    0    0    0  501 -0.00000000000E+00 -0.00000000000E+00 -0.63886464941E+02  0.63886464992E+02  0.25500000000E-02 0. -1.
    5000001    1    1    2    0    0  0.18659699403E+02 -0.10453442591E+03  0.63052673148E+03  0.66647099688E+03  0.18800000000E+03 0.  0.
   -5000001    1    1    2    0    0 -0.18659699403E+02  0.10453442591E+03  0.20792596271E+03  0.29975462724E+03  0.18800000000E+03 0.  0.
<mgrwt>
<rscale>  0 0.48019687E+03</rscale>
<asrwt>0</asrwt>
<pdfrwt beam="1">  1        2 0.12890558E+00 0.48019687E+03</pdfrwt>
<pdfrwt beam="2">  1       -2 0.91266388E-02 0.48019687E+03</pdfrwt>
<totfact> 0.25767511E+03</totfact>
</mgrwt>
</event>
<event>
 4    1  0.5985962E-005  0.5597475E+03  0.7818608E-02  0.9992626E-01
         -2   -1    0    0    0  501 -0.00000000000E+00  0.00000000000E+00  0.18922153826E+03  0.18922153827E+03  0.25500000000E-02 0. -1.
          2   -1    0    0  501    0  0.00000000000E+00 -0.00000000000E+00 -0.41395554640E+03  0.41395554641E+03  0.25500000000E-02 0.  1.
    5000001    1    1    2    0    0  0.16585312086E+03 -0.12199022230E+03 -0.86050171496E+02  0.29178331695E+03  0.18800000000E+03 0.  0.
   -5000001    1    1    2    0    0 -0.16585312086E+03  0.12199022230E+03 -0.13868383665E+03  0.31139376773E+03  0.18800000000E+03 0.  0.
<mgrwt>
<rscale>  0 0.55974746E+03</rscale>
<asrwt>0</asrwt>
<pdfrwt beam="1">  1        2 0.59136506E-01 0.55974746E+03</pdfrwt>
<pdfrwt beam="2">  1       -2 0.27031649E-01 0.55974746E+03</pdfrwt>
<totfact> 0.10358714E+03</totfact>
</mgrwt>
</event>
<event>
 4    1  0.5985962E-005  0.5279127E+03  0.7818608E-02  0.1006740E+00
         -2   -1    0    0    0  501 -0.00000000000E+00  0.00000000000E+00  0.90798694417E+02  0.90798694453E+02  0.25500000000E-02 0. -1.
          2   -1    0    0  501    0  0.00000000000E+00 -0.00000000000E+00 -0.76733436019E+03  0.76733436019E+03  0.25500000000E-02 0.  1.
    5000001    1    1    2    0    0  0.12796432233E+03 -0.13394135637E+03 -0.33222855432E+03  0.42430527576E+03  0.18800000000E+03 0.  0.
   -5000001    1    1    2    0    0 -0.12796432233E+03  0.13394135637E+03 -0.34430711146E+03  0.43382777889E+03  0.18800000000E+03 0.  0.
<mgrwt>
<rscale>  0 0.52791271E+03</rscale>
<asrwt>0</asrwt>
<pdfrwt beam="1">  1        2 0.10961919E+00 0.52791271E+03</pdfrwt>
<pdfrwt beam="2">  1       -2 0.12971242E-01 0.52791271E+03</pdfrwt>
<totfact> 0.17928856E+03</totfact>
</mgrwt>
</event>
<event>
 4    1  0.5985962E-005  0.8455055E+03  0.7818608E-02  0.9496389E-01
          2   -1    0    0  501    0  0.00000000000E+00  0.00000000000E+00  0.65565074618E+03  0.65565074619E+03  0.25500000000E-02 0.  1.
         -2   -1    0    0    0  501 -0.00000000000E+00 -0.00000000000E+00 -0.27258399990E+03  0.27258399992E+03  0.25500000000E-02 0. -1.
    5000001    1    1    2    0    0 -0.17181593302E+03 -0.25566122831E+03  0.43329020857E+03  0.56388632129E+03  0.18800000000E+03 0.  0.
   -5000001    1    1    2    0    0  0.17181593302E+03  0.25566122831E+03 -0.50223462287E+02  0.36434842481E+03  0.18800000000E+03 0.  0.
<mgrwt>
<rscale>  0 0.84550554E+03</rscale>
<asrwt>0</asrwt>
<pdfrwt beam="1">  1        2 0.93664392E-01 0.84550554E+03</pdfrwt>
<pdfrwt beam="2">  1       -2 0.38940572E-01 0.84550554E+03</pdfrwt>
<totfact> 0.30497139E+02</totfact>
</mgrwt>
</event>
<event>
 4    1  0.5985962E-005  0.6075546E+03  0.7818608E-02  0.9889855E-01
          2   -1    0    0  501    0  0.00000000000E+00  0.00000000000E+00  0.26732575281E+03  0.26732575283E+03  0.25500000000E-02 0.  1.
         -2   -1    0    0    0  501 -0.00000000000E+00 -0.00000000000E+00 -0.34519928012E+03  0.34519928013E+03  0.25500000000E-02 0. -1.
    5000001    1    1    2    0    0 -0.13796483137E+03 -0.12761304100E+03 -0.18716774215E+03  0.32510789998E+03  0.18800000000E+03 0.  0.
   -5000001    1    1    2    0    0  0.13796483137E+03  0.12761304100E+03  0.10929421484E+03  0.28741713297E+03  0.18800000000E+03 0.  0.
<mgrwt>
<rscale>  0 0.60755463E+03</rscale>
<asrwt>0</asrwt>
<pdfrwt beam="1">  1        2 0.38189394E-01 0.60755463E+03</pdfrwt>
<pdfrwt beam="2">  1       -2 0.49314182E-01 0.60755463E+03</pdfrwt>
<totfact> 0.53200355E+02</totfact>
</mgrwt>
</event>
<event>
 4    1  0.5985962E-005  0.7330585E+03  0.7818608E-02  0.9662310E-01
          2   -1    0    0  501    0  0.00000000000E+00  0.00000000000E+00  0.29005819631E+04  0.29005819631E+04  0.25500000000E-02 0.  1.
         -2   -1    0    0    0  501 -0.00000000000E+00 -0.00000000000E+00 -0.46316116633E+02  0.46316116703E+02  0.25500000000E-02 0. -1.
    5000001    1    1    2    0    0 -0.27249220027E+03 -0.13850476973E+03  0.17269972531E+04  0.17638874915E+04  0.18800000000E+03 0.  0.
   -5000001    1    1    2    0    0  0.27249220027E+03  0.13850476973E+03  0.11272685933E+04  0.11830105882E+04  0.18800000000E+03 0.  0.
<mgrwt>
<rscale>  0 0.73305850E+03</rscale>
<asrwt>0</asrwt>
<pdfrwt beam="1">  1        2 0.41436871E+00 0.73305850E+03</pdfrwt>
<pdfrwt beam="2">  1       -2 0.66165904E-02 0.73305850E+03</pdfrwt>
<totfact> 0.37304444E+02</totfact>
</mgrwt>
</event>
<event>
 4    1  0.5985962E-005  0.5109845E+03  0.7818608E-02  0.1010951E+00
         -2   -1    0    0    0  501 -0.00000000000E+00  0.00000000000E+00  0.54282706564E+02  0.54282706624E+02  0.25500000000E-02 0. -1.
          2   -1    0    0  501    0  0.00000000000E+00 -0.00000000000E+00 -0.12025248103E+04  0.12025248103E+04  0.25500000000E-02 0.  1.
    5000001    1    1    2    0    0 -0.14938267782E+03  0.84373333133E+02 -0.51921907232E+03  0.57824431587E+03  0.18800000000E+03 0.  0.
   -5000001    1    1    2    0    0  0.14938267782E+03 -0.84373333133E+02 -0.62902303146E+03  0.67856320110E+03  0.18800000000E+03 0.  0.
<mgrwt>
<rscale>  0 0.51098455E+03</rscale>
<asrwt>0</asrwt>
<pdfrwt beam="1">  1        2 0.17178924E+00 0.51098455E+03</pdfrwt>
<pdfrwt beam="2">  1       -2 0.77546731E-02 0.51098455E+03</pdfrwt>
<totfact> 0.22174678E+03</totfact>
</mgrwt>
</event>
<event>
 4    1  0.5985962E-005  0.7357736E+03  0.7818608E-02  0.9657937E-01
         -2   -1    0    0    0  501 -0.00000000000E+00  0.00000000000E+00  0.42805739238E+02  0.42805739314E+02  0.25500000000E-02 0. -1.
          2   -1    0    0  501    0  0.00000000000E+00 -0.00000000000E+00 -0.31617419548E+04  0.31617419548E+04  0.25500000000E-02 0.  1.
    5000001    1    1    2    0    0 -0.26279703326E+03  0.11784633193E+03 -0.99082180274E+03  0.10488192806E+04  0.18800000000E+03 0.  0.
   -5000001    1    1    2    0    0  0.26279703326E+03 -0.11784633193E+03 -0.21281144128E+04  0.21557284135E+04  0.18800000000E+03 0.  0.
<mgrwt>
<rscale>  0 0.73577361E+03</rscale>
<asrwt>0</asrwt>
<pdfrwt beam="1">  1        2 0.45167728E+00 0.73577361E+03</pdfrwt>
<pdfrwt beam="2">  1       -2 0.61151076E-02 0.73577361E+03</pdfrwt>
<totfact> 0.30339505E+02</totfact>
</mgrwt>
</event>
<event>
 4    1  0.5985962E-005  0.7369933E+03  0.7818608E-02  0.9655980E-01
         -2   -1    0    0    0  501 -0.00000000000E+00  0.00000000000E+00  0.94300599349E+02  0.94300599383E+02  0.25500000000E-02 0. -1.
          2   -1    0    0  501    0  0.00000000000E+00 -0.00000000000E+00 -0.14399674363E+04  0.14399674363E+04  0.25500000000E-02 0.  1.
    5000001    1    1    2    0    0 -0.42962109477E+02 -0.28725000134E+03 -0.40878609288E+03  0.53554493355E+03  0.18800000000E+03 0.  0.
   -5000001    1    1    2    0    0  0.42962109477E+02  0.28725000134E+03 -0.93688074406E+03  0.99872310213E+03  0.18800000000E+03 0.  0.
<mgrwt>
<rscale>  0 0.73699333E+03</rscale>
<asrwt>0</asrwt>
<pdfrwt beam="1">  1        2 0.20570962E+00 0.73699333E+03</pdfrwt>
<pdfrwt beam="2">  1       -2 0.13471515E-01 0.73699333E+03</pdfrwt>
<totfact> 0.66696563E+02</totfact>
</mgrwt>
</event>
<event>
 4    1  0.5985962E-005  0.7782049E+03  0.7818608E-02  0.9592112E-01
          2   -1    0    0  501    0  0.00000000000E+00  0.00000000000E+00  0.71372204750E+03  0.71372204751E+03  0.25500000000E-02 0.  1.
         -2   -1    0    0    0  501 -0.00000000000E+00 -0.00000000000E+00 -0.21212838476E+03  0.21212838477E+03  0.25500000000E-02 0. -1.
    5000001    1    1    2    0    0 -0.29955729318E+03  0.16063941072E+03  0.22374232645E+03  0.44826802342E+03  0.18800000000E+03 0.  0.
   -5000001    1    1    2    0    0  0.29955729318E+03 -0.16063941072E+03  0.27785133629E+03  0.47758240886E+03  0.18800000000E+03 0.  0.
<mgrwt>
<rscale>  0 0.77820487E+03</rscale>
<asrwt>0</asrwt>
<pdfrwt beam="1">  1        2 0.10196029E+00 0.77820487E+03</pdfrwt>
<pdfrwt beam="2">  1       -2 0.30304055E-01 0.77820487E+03</pdfrwt>
<totfact> 0.44350123E+02</totfact>
</mgrwt>
</event>
<event>
 4    1  0.5985962E-005  0.5473288E+03  0.7818608E-02  0.1002114E+00
         -2   -1    0    0    0  501 -0.00000000000E+00  0.00000000000E+00  0.69858576898E+02  0.69858576945E+02  0.25500000000E-02 0. -1.
          2   -1    0    0  501    0  0.00000000000E+00 -0.00000000000E+00 -0.10720544578E+04  0.10720544578E+04  0.25500000000E-02 0.  1.
    5000001    1    1    2    0    0  0.10698151066E+03 -0.57438363709E+02 -0.17251462008E+03  0.28257654430E+03  0.18800000000E+03 0.  0.
   -5000001    1    1    2    0    0 -0.10698151066E+03  0.57438363709E+02 -0.82968126084E+03  0.85933649047E+03  0.18800000000E+03 0.  0.
<mgrwt>
<rscale>  0 0.54732878E+03</rscale>
<asrwt>0</asrwt>
<pdfrwt beam="1">  1        2 0.15315063E+00 0.54732878E+03</pdfrwt>
<pdfrwt beam="2">  1       -2 0.99797974E-02 0.54732878E+03</pdfrwt>
<totfact> 0.17570623E+03</totfact>
</mgrwt>
</event>
<event>
 4    1  0.5985962E-005  0.7024610E+03  0.7818608E-02  0.9713033E-01
         -2   -1    0    0    0  501 -0.00000000000E+00  0.00000000000E+00  0.61535527766E+03  0.61535527766E+03  0.25500000000E-02 0. -1.
          2   -1    0    0  501    0  0.00000000000E+00 -0.00000000000E+00 -0.20047419899E+03  0.20047419901E+03  0.25500000000E-02 0.  1.
    5000001    1    1    2    0    0  0.22984972544E+03 -0.34374314725E+02 -0.67288039077E+01  0.29900128193E+03  0.18800000000E+03 0.  0.
   -5000001    1    1    2    0    0 -0.22984972544E+03  0.34374314725E+02  0.42160988257E+03  0.51682819474E+03  0.18800000000E+03 0.  0.
<mgrwt>
<rscale>  0 0.70246098E+03</rscale>
<asrwt>0</asrwt>
<pdfrwt beam="1">  1        2 0.28639170E-01 0.70246098E+03</pdfrwt>
<pdfrwt beam="2">  1       -2 0.87907900E-01 0.70246098E+03</pdfrwt>
<totfact> 0.21131332E+02</totfact>
</mgrwt>
</event>
<event>
 4    1  0.5985962E-005  0.4577416E+03  0.7818608E-02  0.1025438E+00
         -2   -1    0    0    0  501 -0.00000000000E+00  0.00000000000E+00  0.11210578200E+02  0.11210578490E+02  0.25500000000E-02 0. -1.
          2   -1    0    0  501    0  0.00000000000E+00 -0.00000000000E+00 -0.46725371638E+04  0.46725371638E+04  0.25500000000E-02 0.  1.
    5000001    1    1    2    0    0 -0.12967791788E+03 -0.14045184348E+02 -0.22803121202E+04  0.22917637302E+04  0.18800000000E+03 0.  0.
   -5000001    1    1    2    0    0  0.12967791788E+03  0.14045184348E+02 -0.23810144654E+04  0.23919840121E+04  0.18800000000E+03 0.  0.
<mgrwt>
<rscale>  0 0.45774160E+03</rscale>
<asrwt>0</asrwt>
<pdfrwt beam="1">  1        2 0.66750407E+00 0.45774160E+03</pdfrwt>
<pdfrwt beam="2">  1       -2 0.16015142E-02 0.45774160E+03</pdfrwt>
<totfact> 0.24126157E+02</totfact>
</mgrwt>
</event>
<event>
 4    1  0.5985962E-005  0.5242391E+03  0.7818608E-02  0.1007639E+00
         -2   -1    0    0    0  501 -0.00000000000E+00  0.00000000000E+00  0.33168876596E+02  0.33168876694E+02  0.25500000000E-02 0. -1.
          2   -1    0    0  501    0  0.00000000000E+00 -0.00000000000E+00 -0.20714192880E+04  0.20714192880E+04  0.25500000000E-02 0.  1.
    5000001    1    1    2    0    0 -0.16459175005E+03  0.37655347293E+02 -0.73942021426E+03  0.78140554299E+03  0.18800000000E+03 0.  0.
   -5000001    1    1    2    0    0  0.16459175005E+03 -0.37655347293E+02 -0.12988301971E+04  0.13231826217E+04  0.18800000000E+03 0.  0.
<mgrwt>
<rscale>  0 0.52423907E+03</rscale>
<asrwt>0</asrwt>
<pdfrwt beam="1">  1        2 0.29591696E+00 0.52423907E+03</pdfrwt>
<pdfrwt beam="2">  1       -2 0.47384123E-02 0.52423907E+03</pdfrwt>
<totfact> 0.17070611E+03</totfact>
</mgrwt>
</event>
<event>
 4    1  0.5985962E-005  0.6821996E+03  0.7818608E-02  0.9748167E-01
         -2   -1    0    0    0  501 -0.00000000000E+00  0.00000000000E+00  0.26894349675E+03  0.26894349676E+03  0.25500000000E-02 0. -1.
          2   -1    0    0  501    0  0.00000000000E+00 -0.00000000000E+00 -0.43261536352E+03  0.43261536352E+03  0.25500000000E-02 0.  1.
    5000001    1    1    2    0    0 -0.93654285792E+02  0.23023511427E+03 -0.22442766175E+03  0.38404571140E+03  0.18800000000E+03 0.  0.
   -5000001    1    1    2    0    0  0.93654285792E+02 -0.23023511427E+03  0.60755794985E+02  0.31751314888E+03  0.18800000000E+03 0.  0.
<mgrwt>
<rscale>  0 0.68219964E+03</rscale>
<asrwt>0</asrwt>
<pdfrwt beam="1">  1        2 0.61802194E-01 0.68219964E+03</pdfrwt>
<pdfrwt beam="2">  1       -2 0.38420500E-01 0.68219964E+03</pdfrwt>
<totfact> 0.50982339E+02</totfact>
</mgrwt>
</event>
<event>
 4    1  0.5985962E-005  0.1109863E+04  0.7818608E-02  0.9195632E-01
         -2   -1    0    0    0  501 -0.00000000000E+00  0.00000000000E+00  0.28864698354E+03  0.28864698355E+03  0.25500000000E-02 0. -1.
          2   -1    0    0  501    0  0.00000000000E+00 -0.00000000000E+00 -0.10668699539E+04  0.10668699539E+04  0.25500000000E-02 0.  1.
    5000001    1    1    2    0    0  0.48129662754E+03  0.10774051994E+03 -0.59835027462E+03  0.79788565250E+03  0.18800000000E+03 0.  0.
   -5000001    1    1    2    0    0 -0.48129662754E+03 -0.10774051994E+03 -0.17987269576E+03  0.55763128499E+03  0.18800000000E+03 0.  0.
<mgrwt>
<rscale>  0 0.11098627E+04</rscale>
<asrwt>0</asrwt>
<pdfrwt beam="1">  1        2 0.15240999E+00 0.11098627E+04</pdfrwt>
<pdfrwt beam="2">  1       -2 0.41235284E-01 0.11098627E+04</pdfrwt>
<totfact> 0.14119639E+02</totfact>
</mgrwt>
</event>
<event>
 4    1  0.5985962E-005  0.6327000E+03  0.7818608E-02  0.9839794E-01
         -2   -1    0    0    0  501 -0.00000000000E+00  0.00000000000E+00  0.67659537075E+03  0.67659537076E+03  0.25500000000E-02 0. -1.
          2   -1    0    0  501    0  0.00000000000E+00 -0.00000000000E+00 -0.14791310350E+03  0.14791310352E+03  0.25500000000E-02 0.  1.
    5000001    1    1    2    0    0  0.20247963262E+03 -0.80139084067E+02  0.92872754563E+02  0.30230716657E+03  0.18800000000E+03 0.  0.
   -5000001    1    1    2    0    0 -0.20247963262E+03  0.80139084067E+02  0.43580951269E+03  0.52220130771E+03  0.18800000000E+03 0.  0.
<mgrwt>
<rscale>  0 0.63270000E+03</rscale>
<asrwt>0</asrwt>
<pdfrwt beam="1">  1        2 0.21130443E-01 0.63270000E+03</pdfrwt>
<pdfrwt beam="2">  1       -2 0.96656481E-01 0.63270000E+03</pdfrwt>
<totfact> 0.24106343E+02</totfact>
</mgrwt>
</event>
<event>
 4    1  0.5985962E-005  0.6702203E+03  0.7818608E-02  0.9769560E-01
          2   -1    0    0  501    0  0.00000000000E+00  0.00000000000E+00  0.11565058019E+04  0.11565058019E+04  0.25500000000E-02 0.  1.
         -2   -1    0    0    0  501 -0.00000000000E+00 -0.00000000000E+00 -0.97101802988E+02  0.97101803022E+02  0.25500000000E-02 0. -1.
    5000001    1    1    2    0    0 -0.95135322107E+02  0.24716071334E+03  0.37528406682E+03  0.49630764506E+03  0.18800000000E+03 0.  0.
   -5000001    1    1    2    0    0  0.95135322107E+02 -0.24716071334E+03  0.68411993210E+03  0.75729995987E+03  0.18800000000E+03 0.  0.
<mgrwt>
<rscale>  0 0.67022026E+03</rscale>
<asrwt>0</asrwt>
<pdfrwt beam="1">  1        2 0.16521511E+00 0.67022026E+03</pdfrwt>
<pdfrwt beam="2">  1       -2 0.13871687E-01 0.67022026E+03</pdfrwt>
<totfact> 0.91087064E+02</totfact>
</mgrwt>
</event>
<event>
 4    1  0.5985962E-005  0.4969437E+03  0.7818608E-02  0.1014580E+00
          2   -1    0    0  501    0  0.00000000000E+00  0.00000000000E+00  0.13272607008E+04  0.13272607008E+04  0.25500000000E-02 0.  1.
         -2   -1    0    0    0  501 -0.00000000000E+00 -0.00000000000E+00 -0.46515540992E+02  0.46515541061E+02  0.25500000000E-02 0. -1.
    5000001    1    1    2    0    0  0.50075575268E+02  0.15240767385E+03  0.71131655594E+03  0.75302782488E+03  0.18800000000E+03 0.  0.
   -5000001    1    1    2    0    0 -0.50075575268E+02 -0.15240767385E+03  0.56942860389E+03  0.62074841701E+03  0.18800000000E+03 0.  0.
<mgrwt>
<rscale>  0 0.49694366E+03</rscale>
<asrwt>0</asrwt>
<pdfrwt beam="1">  1        2 0.18960864E+00 0.49694366E+03</pdfrwt>
<pdfrwt beam="2">  1       -2 0.66450783E-02 0.49694366E+03</pdfrwt>
<totfact> 0.24186158E+03</totfact>
</mgrwt>
</event>
<event>
 4    1  0.5985962E-005  0.1089768E+04  0.7818608E-02  0.9215223E-01
         -2   -1    0    0    0  501 -0.00000000000E+00  0.00000000000E+00  0.15991545482E+03  0.15991545484E+03  0.25500000000E-02 0. -1.
          2   -1    0    0  501    0  0.00000000000E+00 -0.00000000000E+00 -0.18565961428E+04  0.18565961428E+04  0.25500000000E-02 0.  1.
    5000001    1    1    2    0    0 -0.14934731618E+03 -0.48901272494E+03 -0.86829991156E+03  0.10250496585E+04  0.18800000000E+03 0.  0.
   -5000001    1    1    2    0    0  0.14934731618E+03  0.48901272494E+03 -0.82838077642E+03  0.99146193914E+03  0.18800000000E+03 0.  0.
<mgrwt>
<rscale>  0 0.10897677E+04</rscale>
<asrwt>0</asrwt>
<pdfrwt beam="1">  1        2 0.26522801E+00 0.10897677E+04</pdfrwt>
<pdfrwt beam="2">  1       -2 0.22845066E-01 0.10897677E+04</pdfrwt>
<totfact> 0.15948437E+02</totfact>
</mgrwt>
</event>
<event>
 4    1  0.5985962E-005  0.6920156E+03  0.7818608E-02  0.9730985E-01
          2   -1    0    0  501    0  0.00000000000E+00  0.00000000000E+00  0.15708141660E+03  0.15708141662E+03  0.25500000000E-02 0.  1.
         -2   -1    0    0    0  501 -0.00000000000E+00 -0.00000000000E+00 -0.76216142579E+03  0.76216142579E+03  0.25500000000E-02 0. -1.
    5000001    1    1    2    0    0 -0.15913848135E+03 -0.11684020494E+03 -0.58557861343E+03  0.64592801630E+03  0.18800000000E+03 0.  0.
   -5000001    1    1    2    0    0  0.15913848135E+03  0.11684020494E+03 -0.19501395755E+02  0.27331482611E+03  0.18800000000E+03 0.  0.
<mgrwt>
<rscale>  0 0.69201560E+03</rscale>
<asrwt>0</asrwt>
<pdfrwt beam="1">  1        2 0.22440203E-01 0.69201560E+03</pdfrwt>
<pdfrwt beam="2">  1       -2 0.10888020E+00 0.69201560E+03</pdfrwt>
<totfact> 0.16903357E+02</totfact>
</mgrwt>
</event>
<event>
 4    1  0.5985962E-005  0.7469954E+03  0.7818608E-02  0.9640076E-01
          2   -1    0    0  501    0  0.00000000000E+00  0.00000000000E+00  0.59285298527E+03  0.59285298528E+03  0.25500000000E-02 0.  1.
         -2   -1    0    0    0  501 -0.00000000000E+00 -0.00000000000E+00 -0.23530378155E+03  0.23530378156E+03  0.25500000000E-02 0. -1.
    5000001    1    1    2    0    0  0.20925030106E+03  0.18451106164E+03  0.35865813205E+03  0.49174147277E+03  0.18800000000E+03 0.  0.
   -5000001    1    1    2    0    0 -0.20925030106E+03 -0.18451106164E+03 -0.11089283209E+01  0.33641529407E+03  0.18800000000E+03 0.  0.
<mgrwt>
<rscale>  0 0.74699545E+03</rscale>
<asrwt>0</asrwt>
<pdfrwt beam="1">  1        2 0.84693281E-01 0.74699545E+03</pdfrwt>
<pdfrwt beam="2">  1       -2 0.33614827E-01 0.74699545E+03</pdfrwt>
<totfact> 0.45751075E+02</totfact>
</mgrwt>
</event>
<event>
 4    1  0.5985962E-005  0.5183532E+03  0.7818608E-02  0.1009096E+00
         -2   -1    0    0    0  501 -0.00000000000E+00  0.00000000000E+00  0.16893930490E+02  0.16893930682E+02  0.25500000000E-02 0. -1.
          2   -1    0    0  501    0  0.00000000000E+00 -0.00000000000E+00 -0.39761325154E+04  0.39761325154E+04  0.25500000000E-02 0.  1.
    5000001    1    1    2    0    0 -0.82231216912E+01 -0.17062091422E+03 -0.23761249701E+04  0.23896637817E+04  0.18800000000E+03 0.  0.
   -5000001    1    1    2    0    0  0.82231216912E+01  0.17062091422E+03 -0.15831136149E+04  0.16033626644E+04  0.18800000000E+03 0.  0.
<mgrwt>
<rscale>  0 0.51835319E+03</rscale>
<asrwt>0</asrwt>
<pdfrwt beam="1">  1        2 0.56801833E+00 0.51835319E+03</pdfrwt>
<pdfrwt beam="2">  1       -2 0.24134212E-02 0.51835319E+03</pdfrwt>
<totfact> 0.41762176E+02</totfact>
</mgrwt>
</event>
<event>
 4    1  0.5985962E-005  0.7377319E+03  0.7818608E-02  0.9654796E-01
          2   -1    0    0  501    0  0.00000000000E+00  0.00000000000E+00  0.23762018006E+03  0.23762018007E+03  0.25500000000E-02 0.  1.
         -2   -1    0    0    0  501 -0.00000000000E+00 -0.00000000000E+00 -0.57260318922E+03  0.57260318922E+03  0.25500000000E-02 0. -1.
    5000001    1    1    2    0    0  0.22888355614E+02  0.16259843621E+03  0.13077517739E+03  0.28179473966E+03  0.18800000000E+03 0.  0.
   -5000001    1    1    2    0    0 -0.22888355614E+02 -0.16259843621E+03 -0.46575818655E+03  0.52842862963E+03  0.18800000000E+03 0.  0.
<mgrwt>
<rscale>  0 0.73773186E+03</rscale>
<asrwt>0</asrwt>
<pdfrwt beam="1">  1        2 0.33945740E-01 0.73773186E+03</pdfrwt>
<pdfrwt beam="2">  1       -2 0.81800455E-01 0.73773186E+03</pdfrwt>
<totfact> 0.20530204E+02</totfact>
</mgrwt>
</event>
<event>
 4    1  0.5985962E-005  0.5015809E+03  0.7818608E-02  0.1013367E+00
          2   -1    0    0  501    0  0.00000000000E+00  0.00000000000E+00  0.21693349792E+03  0.21693349794E+03  0.25500000000E-02 0.  1.
         -2   -1    0    0    0  501 -0.00000000000E+00 -0.00000000000E+00 -0.28993148410E+03  0.28993148411E+03  0.25500000000E-02 0. -1.
    5000001    1    1    2    0    0  0.13736949967E+03  0.72428864345E+02 -0.95729880697E+02  0.26196284066E+03  0.18800000000E+03 0.  0.
   -5000001    1    1    2    0    0 -0.13736949967E+03 -0.72428864345E+02  0.22731894514E+02  0.24490214139E+03  0.18800000000E+03 0.  0.
<mgrwt>
<rscale>  0 0.50158090E+03</rscale>
<asrwt>0</asrwt>
<pdfrwt beam="1">  1        2 0.30990500E-01 0.50158090E+03</pdfrwt>
<pdfrwt beam="2">  1       -2 0.41418784E-01 0.50158090E+03</pdfrwt>
<totfact> 0.94940483E+02</totfact>
</mgrwt>
</event>
<event>
 4    1  0.5985962E-005  0.4334110E+03  0.7818608E-02  0.1032788E+00
         -2   -1    0    0    0  501 -0.00000000000E+00  0.00000000000E+00  0.45623061112E+03  0.45623061113E+03  0.25500000000E-02 0. -1.
          2   -1    0    0  501    0  0.00000000000E+00 -0.00000000000E+00 -0.10293319099E+03  0.10293319102E+03  0.25500000000E-02 0.  1.
    5000001    1    1    2    0    0 -0.52200556805E+02  0.11683534066E+02  0.55926058473E+02  0.20330550193E+03  0.18800000000E+03 0.  0.
   -5000001    1    1    2    0    0  0.52200556805E+02 -0.11683534066E+02  0.29737136166E+03  0.35585830022E+03  0.18800000000E+03 0.  0.
<mgrwt>
<rscale>  0 0.43341099E+03</rscale>
<asrwt>0</asrwt>
<pdfrwt beam="1">  1        2 0.14704742E-01 0.43341099E+03</pdfrwt>
<pdfrwt beam="2">  1       -2 0.65175801E-01 0.43341099E+03</pdfrwt>
<totfact> 0.89395345E+02</totfact>
</mgrwt>
</event>
<event>
 4    1  0.5985962E-005  0.4494264E+03  0.7818608E-02  0.1027893E+00
          2   -1    0    0  501    0  0.00000000000E+00  0.00000000000E+00  0.20096979220E+04  0.20096979220E+04  0.25500000000E-02 0.  1.
         -2   -1    0    0    0  501 -0.00000000000E+00 -0.00000000000E+00 -0.25126180602E+02  0.25126180731E+02  0.25500000000E-02 0. -1.
    5000001    1    1    2    0    0 -0.10816791380E+03 -0.22379450138E+02  0.12382349366E+04  0.12572871174E+04  0.18800000000E+03 0.  0.
   -5000001    1    1    2    0    0  0.10816791380E+03  0.22379450138E+02  0.74633680482E+03  0.77753698535E+03  0.18800000000E+03 0.  0.
<mgrwt>
<rscale>  0 0.44942645E+03</rscale>
<asrwt>0</asrwt>
<pdfrwt beam="1">  1        2 0.28709971E+00 0.44942645E+03</pdfrwt>
<pdfrwt beam="2">  1       -2 0.35894544E-02 0.44942645E+03</pdfrwt>
<totfact> 0.28115340E+03</totfact>
</mgrwt>
</event>
<event>
 4    1  0.5985962E-005  0.9482331E+03  0.7818608E-02  0.9367218E-01
         -2   -1    0    0    0  501 -0.00000000000E+00  0.00000000000E+00  0.34850310863E+03  0.34850310864E+03  0.25500000000E-02 0.  1.
          2   -1    0    0  501    0  0.00000000000E+00 -0.00000000000E+00 -0.64500571997E+03  0.64500571997E+03  0.25500000000E-02 0. -1.
    5000001    1    1    2    0    0 -0.41359623263E+03 -0.55488439215E+02 -0.27785766002E+03  0.53543411338E+03  0.18800000000E+03 0.  0.
   -5000001    1    1    2    0    0  0.41359623263E+03  0.55488439215E+02 -0.18644951313E+02  0.45807471524E+03  0.18800000000E+03 0.  0.
<mgrwt>
<rscale>  0 0.94823309E+03</rscale>
<asrwt>0</asrwt>
<pdfrwt beam="1">  1        2 0.92143674E-01 0.94823309E+03</pdfrwt>
<pdfrwt beam="2">  1       -2 0.49786158E-01 0.94823309E+03</pdfrwt>
<totfact> 0.19004331E+02</totfact>
</mgrwt>
</event>
<event>
 4    1  0.5985962E-005  0.5876892E+03  0.7818608E-02  0.9931281E-01
         -2   -1    0    0    0  501 -0.00000000000E+00  0.00000000000E+00  0.23379829206E+03  0.23379829207E+03  0.25500000000E-02 0. -1.
          2   -1    0    0  501    0  0.00000000000E+00 -0.00000000000E+00 -0.36931255656E+03  0.36931255657E+03  0.25500000000E-02 0.  1.
    5000001    1    1    2    0    0 -0.21684508506E+03  0.58690246198E+02 -0.44035437842E+02  0.29622534615E+03  0.18800000000E+03 0.  0.
   -5000001    1    1    2    0    0  0.21684508506E+03 -0.58690246198E+02 -0.91478826659E+02  0.30688550249E+03  0.18800000000E+03 0.  0.
<mgrwt>
<rscale>  0 0.58768919E+03</rscale>
<asrwt>0</asrwt>
<pdfrwt beam="1">  1        2 0.52758936E-01 0.58768919E+03</pdfrwt>
<pdfrwt beam="2">  1       -2 0.33399756E-01 0.58768919E+03</pdfrwt>
<totfact> 0.79533844E+02</totfact>
</mgrwt>
</event>
<event>
 4    1  0.5985962E-005  0.4509752E+03  0.7818608E-02  0.1027432E+00
          2   -1    0    0  501    0  0.00000000000E+00  0.00000000000E+00  0.65028120059E+03  0.65028120059E+03  0.25500000000E-02 0.  1.
         -2   -1    0    0    0  501 -0.00000000000E+00 -0.00000000000E+00 -0.78188718244E+02  0.78188718285E+02  0.25500000000E-02 0. -1.
    5000001    1    1    2    0    0 -0.65162976713E+02  0.65491500033E+02  0.15123410123E+03  0.25836234920E+03  0.18800000000E+03 0.  0.
   -5000001    1    1    2    0    0  0.65162976713E+02 -0.65491500033E+02  0.42085838112E+03  0.47010756968E+03  0.18800000000E+03 0.  0.
<mgrwt>
<rscale>  0 0.45097518E+03</rscale>
<asrwt>0</asrwt>
<pdfrwt beam="1">  1        2 0.92897318E-01 0.45097518E+03</pdfrwt>
<pdfrwt beam="2">  1       -2 0.11169816E-01 0.45097518E+03</pdfrwt>
<totfact> 0.28009058E+03</totfact>
</mgrwt>
</event>
<event>
 4    1  0.5985962E-005  0.4345669E+03  0.7818608E-02  0.1032427E+00
         -2   -1    0    0    0  501 -0.00000000000E+00  0.00000000000E+00  0.20648225332E+03  0.20648225333E+03  0.25500000000E-02 0. -1.
          2   -1    0    0  501    0  0.00000000000E+00 -0.00000000000E+00 -0.22864964736E+03  0.22864964737E+03  0.25500000000E-02 0.  1.
    5000001    1    1    2    0    0  0.44374512662E+02  0.81236516474E+02  0.46433354613E+02  0.21463579712E+03  0.18800000000E+03 0.  0.
   -5000001    1    1    2    0    0 -0.44374512662E+02 -0.81236516474E+02 -0.68600748656E+02  0.22049610359E+03  0.18800000000E+03 0.  0.
<mgrwt>
<rscale>  0 0.43456689E+03</rscale>
<asrwt>0</asrwt>
<pdfrwt beam="1">  1        2 0.32664235E-01 0.43456689E+03</pdfrwt>
<pdfrwt beam="2">  1       -2 0.29497465E-01 0.43456689E+03</pdfrwt>
<totfact> 0.16975152E+03</totfact>
</mgrwt>
</event>
<event>
 4    1  0.5985962E-005  0.5484443E+03  0.7818608E-02  0.1001855E+00
          2   -1    0    0  501    0  0.00000000000E+00  0.00000000000E+00  0.15960076384E+04  0.15960076384E+04  0.25500000000E-02 0.  1.
         -2   -1    0    0    0  501 -0.00000000000E+00 -0.00000000000E+00 -0.47116179537E+02  0.47116179606E+02  0.25500000000E-02 0. -1.
    5000001    1    1    2    0    0 -0.12276323642E+03  0.12654229953E+03  0.49387782480E+03  0.55708443849E+03  0.18800000000E+03 0.  0.
   -5000001    1    1    2    0    0  0.12276323642E+03 -0.12654229953E+03  0.10550136340E+04  0.10860393795E+04  0.18800000000E+03 0.  0.
<mgrwt>
<rscale>  0 0.54844428E+03</rscale>
<asrwt>0</asrwt>
<pdfrwt beam="1">  1        2 0.22800107E+00 0.54844428E+03</pdfrwt>
<pdfrwt beam="2">  1       -2 0.67308833E-02 0.54844428E+03</pdfrwt>
<totfact> 0.17131497E+03</totfact>
</mgrwt>
</event>
<event>
 4    1  0.5985962E-005  0.6368687E+03  0.7818608E-02  0.9831736E-01
         -2   -1    0    0    0  501 -0.00000000000E+00  0.00000000000E+00  0.55593138807E+02  0.55593138865E+02  0.25500000000E-02 0. -1.
          2   -1    0    0  501    0  0.00000000000E+00 -0.00000000000E+00 -0.18239737632E+04  0.18239737632E+04  0.25500000000E-02 0.  1.
    5000001    1    1    2    0    0 -0.57294276986E+02  0.12036020595E+03 -0.15327112070E+04  0.15499409206E+04  0.18800000000E+03 0.  0.
   -5000001    1    1    2    0    0  0.57294276986E+02 -0.12036020595E+03 -0.23566941741E+03  0.32962598146E+03  0.18800000000E+03 0.  0.
<mgrwt>
<rscale>  0 0.63686867E+03</rscale>
<asrwt>0</asrwt>
<pdfrwt beam="1">  1        2 0.26056764E+00 0.63686867E+03</pdfrwt>
<pdfrwt beam="2">  1       -2 0.79418781E-02 0.63686867E+03</pdfrwt>
<totfact> 0.10057071E+03</totfact>
</mgrwt>
</event>
<event>
 4    1  0.5985962E-005  0.6159068E+03  0.7818608E-02  0.9872943E-01
          2   -1    0    0  501    0  0.00000000000E+00  0.00000000000E+00  0.25832480533E+04  0.25832480533E+04  0.25500000000E-02 0.  1.
         -2   -1    0    0    0  501 -0.00000000000E+00 -0.00000000000E+00 -0.36711647446E+02  0.36711647535E+02  0.25500000000E-02 0. -1.
    5000001    1    1    2    0    0 -0.16389403471E+02  0.12452131667E+03  0.38385125638E+03  0.44548844865E+03  0.18800000000E+03 0.  0.
   -5000001    1    1    2    0    0  0.16389403471E+02 -0.12452131667E+03  0.21626851495E+04  0.21744712522E+04  0.18800000000E+03 0.  0.
<mgrwt>
<rscale>  0 0.61590678E+03</rscale>
<asrwt>0</asrwt>
<pdfrwt beam="1">  1        2 0.36903552E+00 0.61590678E+03</pdfrwt>
<pdfrwt beam="2">  1       -2 0.52445198E-02 0.61590678E+03</pdfrwt>
<totfact> 0.79792952E+02</totfact>
</mgrwt>
</event>
<event>
 4    1  0.5985962E-005  0.1029929E+04  0.7818608E-02  0.9276315E-01
          2   -1    0    0  501    0  0.00000000000E+00  0.00000000000E+00  0.12715424918E+04  0.12715424918E+04  0.25500000000E-02 0.  1.
         -2   -1    0    0    0  501 -0.00000000000E+00 -0.00000000000E+00 -0.20855636266E+03  0.20855636267E+03  0.25500000000E-02 0. -1.
    5000001    1    1    2    0    0  0.23915628394E+03  0.37928071102E+03  0.28763350875E+03  0.56491293246E+03  0.18800000000E+03 0.  0.
   -5000001    1    1    2    0    0 -0.23915628394E+03 -0.37928071102E+03  0.77535262035E+03  0.91518592198E+03  0.18800000000E+03 0.  0.
<mgrwt>
<rscale>  0 0.10299287E+04</rscale>
<asrwt>0</asrwt>
<pdfrwt beam="1">  1        2 0.18164893E+00 0.10299287E+04</pdfrwt>
<pdfrwt beam="2">  1       -2 0.29793766E-01 0.10299287E+04</pdfrwt>
<totfact> 0.20109804E+02</totfact>
</mgrwt>
</event>
<event>
 4    1  0.5985962E-005  0.4296479E+03  0.7818608E-02  0.1033971E+00
          2   -1    0    0  501    0  0.00000000000E+00  0.00000000000E+00  0.18823153957E+04  0.18823153957E+04  0.25500000000E-02 0.  1.
         -2   -1    0    0    0  501 -0.00000000000E+00 -0.00000000000E+00 -0.24517321339E+02  0.24517321471E+02  0.25500000000E-02 0. -1.
    5000001    1    1    2    0    0  0.82296949618E+02 -0.33917905417E+01  0.64746990253E+03  0.67922423900E+03  0.18800000000E+03 0.  0.
   -5000001    1    1    2    0    0 -0.82296949618E+02  0.33917905417E+01  0.12103281718E+04  0.12276084781E+04  0.18800000000E+03 0.  0.
<mgrwt>
<rscale>  0 0.42964791E+03</rscale>
<asrwt>0</asrwt>
<pdfrwt beam="1">  1        2 0.26890219E+00 0.42964791E+03</pdfrwt>
<pdfrwt beam="2">  1       -2 0.35024746E-02 0.42964791E+03</pdfrwt>
<totfact> 0.33777031E+03</totfact>
</mgrwt>
</event>
<event>
 4    1  0.5985962E-005  0.4178299E+03  0.7818608E-02  0.1037775E+00
          2   -1    0    0  501    0  0.00000000000E+00  0.00000000000E+00  0.68541322675E+03  0.68541322676E+03  0.25500000000E-02 0.  1.
         -2   -1    0    0    0  501 -0.00000000000E+00 -0.00000000000E+00 -0.63677575807E+02  0.63677575858E+02  0.25500000000E-02 0. -1.
    5000001    1    1    2    0    0 -0.67104964584E+02  0.44910908770E+02  0.23519950858E+03  0.31174167966E+03  0.18800000000E+03 0.  0.
   -5000001    1    1    2    0    0  0.67104964584E+02 -0.44910908770E+02  0.38653614237E+03  0.43734912296E+03  0.18800000000E+03 0.  0.
<mgrwt>
<rscale>  0 0.41782988E+03</rscale>
<asrwt>0</asrwt>
<pdfrwt beam="1">  1        2 0.97916174E-01 0.41782988E+03</pdfrwt>
<pdfrwt beam="2">  1       -2 0.90967967E-02 0.41782988E+03</pdfrwt>
<totfact> 0.36572870E+03</totfact>
</mgrwt>
</event>
<event>
 4    1  0.5985962E-005  0.1203334E+04  0.7818608E-02  0.9109943E-01
         -2   -1    0    0    0  501 -0.00000000000E+00  0.00000000000E+00  0.26307736417E+03  0.26307736418E+03  0.25500000000E-02 0. -1.
          2   -1    0    0  501    0  0.00000000000E+00 -0.00000000000E+00 -0.13760339664E+04  0.13760339664E+04  0.25500000000E-02 0.  1.
    5000001    1    1    2    0    0  0.44823333115E+03 -0.34220039164E+03 -0.42982727889E+03  0.73355962053E+03  0.18800000000E+03 0.  0.
   -5000001    1    1    2    0    0 -0.44823333115E+03  0.34220039164E+03 -0.68312932335E+03  0.90555171007E+03  0.18800000000E+03 0.  0.
<mgrwt>
<rscale>  0 0.12033343E+04</rscale>
<asrwt>0</asrwt>
<pdfrwt beam="1">  1        2 0.19657628E+00 0.12033343E+04</pdfrwt>
<pdfrwt beam="2">  1       -2 0.37582481E-01 0.12033343E+04</pdfrwt>
<totfact> 0.11224110E+02</totfact>
</mgrwt>
</event>
<event>
 4    1  0.5985962E-005  0.4733859E+03  0.7818608E-02  0.1020969E+00
          2   -1    0    0  501    0  0.00000000000E+00  0.00000000000E+00  0.30621353592E+03  0.30621353593E+03  0.25500000000E-02 0.  1.
         -2   -1    0    0    0  501 -0.00000000000E+00 -0.00000000000E+00 -0.18295581619E+03  0.18295581621E+03  0.25500000000E-02 0. -1.
    5000001    1    1    2    0    0 -0.11984078410E+03 -0.78935267855E+02  0.71264866702E+02  0.24701269456E+03  0.18800000000E+03 0.  0.
   -5000001    1    1    2    0    0  0.11984078410E+03  0.78935267855E+02  0.51992853021E+02  0.24215665758E+03  0.18800000000E+03 0.  0.
<mgrwt>
<rscale>  0 0.47338588E+03</rscale>
<asrwt>0</asrwt>
<pdfrwt beam="1">  1        2 0.43744790E-01 0.47338588E+03</pdfrwt>
<pdfrwt beam="2">  1       -2 0.26136545E-01 0.47338588E+03</pdfrwt>
<totfact> 0.15342039E+03</totfact>
</mgrwt>
</event>
<event>
 4    1  0.5985962E-005  0.4667135E+03  0.7818608E-02  0.1022852E+00
          2   -1    0    0  501    0  0.00000000000E+00  0.00000000000E+00  0.37832590108E+03  0.37832590109E+03  0.25500000000E-02 0.  1.
         -2   -1    0    0    0  501 -0.00000000000E+00 -0.00000000000E+00 -0.14393771272E+03  0.14393771275E+03  0.25500000000E-02 0. -1.
    5000001    1    1    2    0    0  0.63876211590E+02 -0.12254411197E+03  0.12140125079E+03  0.26301994883E+03  0.18800000000E+03 0.  0.
   -5000001    1    1    2    0    0 -0.63876211590E+02  0.12254411197E+03  0.11298693756E+03  0.25924366501E+03  0.18800000000E+03 0.  0.
<mgrwt>
<rscale>  0 0.46671347E+03</rscale>
<asrwt>0</asrwt>
<pdfrwt beam="1">  1        2 0.54046557E-01 0.46671347E+03</pdfrwt>
<pdfrwt beam="2">  1       -2 0.20562531E-01 0.46671347E+03</pdfrwt>
<totfact> 0.18587705E+03</totfact>
</mgrwt>
</event>
<event>
 4    1  0.5985962E-005  0.8319802E+03  0.7818608E-02  0.9514847E-01
         -2   -1    0    0    0  501 -0.00000000000E+00  0.00000000000E+00  0.98999735758E+02  0.98999735791E+02  0.25500000000E-02 0. -1.
          2   -1    0    0  501    0  0.00000000000E+00 -0.00000000000E+00 -0.17479618413E+04  0.17479618413E+04  0.25500000000E-02 0.  1.
    5000001    1    1    2    0    0  0.31926347505E+03 -0.55490698497E+02 -0.42307118565E+03  0.56510318726E+03  0.18800000000E+03 0.  0.
   -5000001    1    1    2    0    0 -0.31926347505E+03  0.55490698497E+02 -0.12258909199E+04  0.12818583899E+04  0.18800000000E+03 0.  0.
<mgrwt>
<rscale>  0 0.83198019E+03</rscale>
<asrwt>0</asrwt>
<pdfrwt beam="1">  1        2 0.24970882E+00 0.83198019E+03</pdfrwt>
<pdfrwt beam="2">  1       -2 0.14142820E-01 0.83198019E+03</pdfrwt>
<totfact> 0.42305146E+02</totfact>
</mgrwt>
</event>
<event>
 4    1  0.5985962E-005  0.6278088E+03  0.7818608E-02  0.9849334E-01
          2   -1    0    0  501    0  0.00000000000E+00  0.00000000000E+00  0.20850579461E+03  0.20850579463E+03  0.25500000000E-02 0.  1.
         -2   -1    0    0    0  501 -0.00000000000E+00 -0.00000000000E+00 -0.47258141699E+03  0.47258141699E+03  0.25500000000E-02 0. -1.
    5000001    1    1    2    0    0  0.23490152424E+03 -0.62374659171E+02 -0.62381088867E+02  0.31353584236E+03  0.18800000000E+03 0.  0.
   -5000001    1    1    2    0    0 -0.23490152424E+03  0.62374659171E+02 -0.20169453351E+03  0.36755136926E+03  0.18800000000E+03 0.  0.
<mgrwt>
<rscale>  0 0.62780877E+03</rscale>
<asrwt>0</asrwt>
<pdfrwt beam="1">  1        2 0.29786542E-01 0.62780877E+03</pdfrwt>
<pdfrwt beam="2">  1       -2 0.67511631E-01 0.62780877E+03</pdfrwt>
<totfact> 0.36429568E+02</totfact>
</mgrwt>
</event>
<event>
 4    1  0.5985962E-005  0.6419374E+03  0.7818608E-02  0.9822027E-01
         -2   -1    0    0    0  501 -0.00000000000E+00  0.00000000000E+00  0.80654685170E+02  0.80654685210E+02  0.25500000000E-02 0. -1.
          2   -1    0    0  501    0  0.00000000000E+00 -0.00000000000E+00 -0.12773085435E+04  0.12773085435E+04  0.25500000000E-02 0.  1.
    5000001    1    1    2    0    0  0.25547894300E+03  0.30648233636E+02 -0.51727279231E+03  0.60755571449E+03  0.18800000000E+03 0.  0.
   -5000001    1    1    2    0    0 -0.25547894300E+03 -0.30648233636E+02 -0.67938106600E+03  0.75040751421E+03  0.18800000000E+03 0.  0.
<mgrwt>
<rscale>  0 0.64193744E+03</rscale>
<asrwt>0</asrwt>
<pdfrwt beam="1">  1        2 0.18247264E+00 0.64193744E+03</pdfrwt>
<pdfrwt beam="2">  1       -2 0.11522099E-01 0.64193744E+03</pdfrwt>
<totfact> 0.10614316E+03</totfact>
</mgrwt>
</event>
<event>
 4    1  0.5985962E-005  0.1314061E+04  0.7818608E-02  0.9018488E-01
         -2   -1    0    0    0  501 -0.00000000000E+00  0.00000000000E+00  0.22149145082E+03  0.22149145084E+03  0.25500000000E-02 0. -1.
          2   -1    0    0  501    0  0.00000000000E+00 -0.00000000000E+00 -0.19490113029E+04  0.19490113029E+04  0.25500000000E-02 0.  1.
    5000001    1    1    2    0    0 -0.37598530969E+03  0.18439376587E+03 -0.16402224622E+04  0.17032438873E+04  0.18800000000E+03 0.  0.
   -5000001    1    1    2    0    0  0.37598530969E+03 -0.18439376587E+03 -0.87297389844E+02  0.46725886644E+03  0.18800000000E+03 0.  0.
<mgrwt>
<rscale>  0 0.13140614E+04</rscale>
<asrwt>0</asrwt>
<pdfrwt beam="1">  1        2 0.27843018E+00 0.13140614E+04</pdfrwt>
<pdfrwt beam="2">  1       -2 0.31641637E-01 0.13140614E+04</pdfrwt>
<totfact> 0.77492317E+01</totfact>
</mgrwt>
</event>
<event>
 4    1  0.5985962E-005  0.8238070E+03  0.7818608E-02  0.9526183E-01
          2   -1    0    0  501    0  0.00000000000E+00  0.00000000000E+00  0.14686297136E+04  0.14686297136E+04  0.25500000000E-02 0.  1.
         -2   -1    0    0    0  501 -0.00000000000E+00 -0.00000000000E+00 -0.11552571003E+03  0.11552571006E+03  0.25500000000E-02 0. -1.
    5000001    1    1    2    0    0 -0.11335773440E+03 -0.31787937129E+03  0.40174080708E+03  0.55734813780E+03  0.18800000000E+03 0.  0.
   -5000001    1    1    2    0    0  0.11335773440E+03  0.31787937129E+03  0.95136319649E+03  0.10268072859E+04  0.18800000000E+03 0.  0.
<mgrwt>
<rscale>  0 0.82380699E+03</rscale>
<asrwt>0</asrwt>
<pdfrwt beam="1">  1        2 0.20980424E+00 0.82380699E+03</pdfrwt>
<pdfrwt beam="2">  1       -2 0.16503673E-01 0.82380699E+03</pdfrwt>
<totfact> 0.45497634E+02</totfact>
</mgrwt>
</event>
<event>
 4    1  0.5985962E-005  0.5845228E+03  0.7818608E-02  0.9938047E-01
         -2   -1    0    0    0  501 -0.00000000000E+00  0.00000000000E+00  0.46614644625E+03  0.46614644626E+03  0.25500000000E-02 0. -1.
          2   -1    0    0  501    0  0.00000000000E+00 -0.00000000000E+00 -0.18324013627E+03  0.18324013629E+03  0.25500000000E-02 0.  1.
    5000001    1    1    2    0    0  0.21303632226E+03  0.16112680437E+02  0.67520335128E+02  0.29248433929E+03  0.18800000000E+03 0.  0.
   -5000001    1    1    2    0    0 -0.21303632226E+03 -0.16112680437E+02  0.21538597485E+03  0.35690224325E+03  0.18800000000E+03 0.  0.
<mgrwt>
<rscale>  0 0.58452284E+03</rscale>
<asrwt>0</asrwt>
<pdfrwt beam="1">  1        2 0.26177162E-01 0.58452284E+03</pdfrwt>
<pdfrwt beam="2">  1       -2 0.66592350E-01 0.58452284E+03</pdfrwt>
<totfact> 0.43463025E+02</totfact>
</mgrwt>
</event>
<event>
 4    1  0.5985962E-005  0.7568225E+03  0.7818608E-02  0.9624707E-01
          2   -1    0    0  501    0  0.00000000000E+00  0.00000000000E+00  0.10983898248E+04  0.10983898249E+04  0.25500000000E-02 0.  1.
         -2   -1    0    0    0  501 -0.00000000000E+00 -0.00000000000E+00 -0.13036815954E+03  0.13036815957E+03  0.25500000000E-02 0. -1.
    5000001    1    1    2    0    0 -0.22337968456E+03  0.23321920933E+03  0.58090135701E+03  0.69070983028E+03  0.18800000000E+03 0.  0.
   -5000001    1    1    2    0    0  0.22337968456E+03 -0.23321920933E+03  0.38712030830E+03  0.53804815414E+03  0.18800000000E+03 0.  0.
<mgrwt>
<rscale>  0 0.75682246E+03</rscale>
<asrwt>0</asrwt>
<pdfrwt beam="1">  1        2 0.15691282E+00 0.75682246E+03</pdfrwt>
<pdfrwt beam="2">  1       -2 0.18624024E-01 0.75682246E+03</pdfrwt>
<totfact> 0.59422420E+02</totfact>
</mgrwt>
</event>
<event>
 4    1  0.5985962E-005  0.4629023E+03  0.7818608E-02  0.1023943E+00
         -2   -1    0    0    0  501 -0.00000000000E+00  0.00000000000E+00  0.89906415285E+03  0.89906415285E+03  0.25500000000E-02 0. -1.
          2   -1    0    0  501    0  0.00000000000E+00 -0.00000000000E+00 -0.59583783139E+02  0.59583783194E+02  0.25500000000E-02 0.  1.
    5000001    1    1    2    0    0  0.12745709654E+02  0.32799448770E+02  0.68965893407E+03  0.71568966899E+03  0.18800000000E+03 0.  0.
   -5000001    1    1    2    0    0 -0.12745709654E+02 -0.32799448770E+02  0.14982143564E+03  0.24295826706E+03  0.18800000000E+03 0.  0.
<mgrwt>
<rscale>  0 0.46290234E+03</rscale>
<asrwt>0</asrwt>
<pdfrwt beam="1">  1        2 0.85119699E-02 0.46290234E+03</pdfrwt>
<pdfrwt beam="2">  1       -2 0.12843772E+00 0.46290234E+03</pdfrwt>
<totfact> 0.37060353E+02</totfact>
</mgrwt>
</event>
<event>
 4    1  0.5985962E-005  0.4381314E+03  0.7818608E-02  0.1031322E+00
          2   -1    0    0  501    0  0.00000000000E+00  0.00000000000E+00  0.72273830900E+03  0.72273830901E+03  0.25500000000E-02 0.  1.
         -2   -1    0    0    0  501 -0.00000000000E+00 -0.00000000000E+00 -0.66399932788E+02  0.66399932837E+02  0.25500000000E-02 0. -1.
    5000001    1    1    2    0    0 -0.75711265336E+02  0.82965216535E+02  0.31824615139E+03  0.38631597913E+03  0.18800000000E+03 0.  0.
   -5000001    1    1    2    0    0  0.75711265336E+02 -0.82965216535E+02  0.33809222482E+03  0.40282226272E+03  0.18800000000E+03 0.  0.
<mgrwt>
<rscale>  0 0.43813137E+03</rscale>
<asrwt>0</asrwt>
<pdfrwt beam="1">  1        2 0.10324834E+00 0.43813137E+03</pdfrwt>
<pdfrwt beam="2">  1       -2 0.94857040E-02 0.43813137E+03</pdfrwt>
<totfact> 0.32096770E+03</totfact>
</mgrwt>
</event>
<event>
 4    1  0.5985962E-005  0.4589704E+03  0.7818608E-02  0.1025080E+00
         -2   -1    0    0    0  501 -0.00000000000E+00  0.00000000000E+00  0.23660870508E+03  0.23660870509E+03  0.25500000000E-02 0. -1.
          2   -1    0    0  501    0  0.00000000000E+00 -0.00000000000E+00 -0.22257613677E+03  0.22257613678E+03  0.25500000000E-02 0.  1.
    5000001    1    1    2    0    0 -0.83334584628E+02  0.84230641124E+02 -0.50281740713E+02  0.22784140833E+03  0.18800000000E+03 0.  0.
   -5000001    1    1    2    0    0  0.83334584628E+02 -0.84230641124E+02  0.64314309025E+02  0.23134343355E+03  0.18800000000E+03 0.  0.
<mgrwt>
<rscale>  0 0.45897038E+03</rscale>
<asrwt>0</asrwt>
<pdfrwt beam="1">  1        2 0.31796591E-01 0.45897038E+03</pdfrwt>
<pdfrwt beam="2">  1       -2 0.33801244E-01 0.45897038E+03</pdfrwt>
<totfact> 0.13597156E+03</totfact>
</mgrwt>
</event>
<event>
 4    1  0.5985962E-005  0.4802336E+03  0.7818608E-02  0.1019071E+00
          2   -1    0    0  501    0  0.00000000000E+00  0.00000000000E+00  0.25318069063E+03  0.25318069065E+03  0.25500000000E-02 0.  1.
         -2   -1    0    0    0  501 -0.00000000000E+00 -0.00000000000E+00 -0.22772697739E+03  0.22772697740E+03  0.25500000000E-02 0. -1.
    5000001    1    1    2    0    0  0.36486408208E+02 -0.14366165380E+03 -0.57962598770E+01  0.23947343357E+03  0.18800000000E+03 0.  0.
   -5000001    1    1    2    0    0 -0.36486408208E+02  0.14366165380E+03  0.31249973123E+02  0.24143423448E+03  0.18800000000E+03 0.  0.
<mgrwt>
<rscale>  0 0.48023358E+03</rscale>
<asrwt>0</asrwt>
<pdfrwt beam="1">  1        2 0.36168670E-01 0.48023358E+03</pdfrwt>
<pdfrwt beam="2">  1       -2 0.32532425E-01 0.48023358E+03</pdfrwt>
<totfact> 0.12666886E+03</totfact>
</mgrwt>
</event>
<event>
 4    1  0.5985962E-005  0.5916014E+03  0.7818608E-02  0.9922985E-01
          2   -1    0    0  501    0  0.00000000000E+00  0.00000000000E+00  0.36594276538E+03  0.36594276539E+03  0.25500000000E-02 0.  1.
         -2   -1    0    0    0  501 -0.00000000000E+00 -0.00000000000E+00 -0.23910310122E+03  0.23910310123E+03  0.25500000000E-02 0. -1.
    5000001    1    1    2    0    0 -0.17062447037E+02  0.19150017387E+03  0.18947094100E+03  0.32894783960E+03  0.18800000000E+03 0.  0.
   -5000001    1    1    2    0    0  0.17062447037E+02 -0.19150017387E+03 -0.62631276840E+02  0.27609802703E+03  0.18800000000E+03 0.  0.
<mgrwt>
<rscale>  0 0.59160139E+03</rscale>
<asrwt>0</asrwt>
<pdfrwt beam="1">  1        2 0.52277537E-01 0.59160139E+03</pdfrwt>
<pdfrwt beam="2">  1       -2 0.34157586E-01 0.59160139E+03</pdfrwt>
<totfact> 0.77017779E+02</totfact>
</mgrwt>
</event>
<event>
 4    1  0.5985962E-005  0.5222006E+03  0.7818608E-02  0.1008141E+00
          2   -1    0    0  501    0  0.00000000000E+00  0.00000000000E+00  0.16080794828E+04  0.16080794828E+04  0.25500000000E-02 0.  1.
         -2   -1    0    0    0  501 -0.00000000000E+00 -0.00000000000E+00 -0.42394283090E+02  0.42394283167E+02  0.25500000000E-02 0. -1.
    5000001    1    1    2    0    0  0.66874848894E+02  0.15157266665E+03  0.55095490879E+03  0.60526178651E+03  0.18800000000E+03 0.  0.
   -5000001    1    1    2    0    0 -0.66874848894E+02 -0.15157266665E+03  0.10147302909E+04  0.10452119795E+04  0.18800000000E+03 0.  0.
<mgrwt>
<rscale>  0 0.52220064E+03</rscale>
<asrwt>0</asrwt>
<pdfrwt beam="1">  1        2 0.22972563E+00 0.52220064E+03</pdfrwt>
<pdfrwt beam="2">  1       -2 0.60563264E-02 0.52220064E+03</pdfrwt>
<totfact> 0.19946447E+03</totfact>
</mgrwt>
</event>
<event>
 4    1  0.5985962E-005  0.8762752E+03  0.7818608E-02  0.9455734E-01
          2   -1    0    0  501    0  0.00000000000E+00  0.00000000000E+00  0.23166362750E+04  0.23166362750E+04  0.25500000000E-02 0. -1.
         -2   -1    0    0    0  501 -0.00000000000E+00 -0.00000000000E+00 -0.82863488783E+02  0.82863488822E+02  0.25500000000E-02 0.  1.
    5000001    1    1    2    0    0 -0.38416731044E+03  0.60325604233E+01  0.85711400398E+03  0.95791927114E+03  0.18800000000E+03 0.  0.
   -5000001    1    1    2    0    0  0.38416731044E+03 -0.60325604233E+01  0.13766587823E+04  0.14415804927E+04  0.18800000000E+03 0.  0.
<mgrwt>
<rscale>  0 0.87627522E+03</rscale>
<asrwt>0</asrwt>
<pdfrwt beam="1">  1        2 0.33094803E+00 0.87627522E+03</pdfrwt>
<pdfrwt beam="2">  1       -2 0.11837642E-01 0.87627522E+03</pdfrwt>
<totfact> 0.29133131E+02</totfact>
</mgrwt>
</event>
<event>
 4    1  0.5985962E-005  0.6220419E+03  0.7818608E-02  0.9860703E-01
         -2   -1    0    0    0  501 -0.00000000000E+00  0.00000000000E+00  0.38536066950E+02  0.38536067034E+02  0.25500000000E-02 0. -1.
          2   -1    0    0  501    0  0.00000000000E+00 -0.00000000000E+00 -0.25102207808E+04  0.25102207808E+04  0.25500000000E-02 0.  1.
    5000001    1    1    2    0    0  0.15395478177E+03  0.18089187607E+03 -0.94709629408E+03  0.99436378449E+03  0.18800000000E+03 0.  0.
   -5000001    1    1    2    0    0 -0.15395478177E+03 -0.18089187607E+03 -0.15245884198E+04  0.15543930633E+04  0.18800000000E+03 0.  0.
<mgrwt>
<rscale>  0 0.62204192E+03</rscale>
<asrwt>0</asrwt>
<pdfrwt beam="1">  1        2 0.35860286E+00 0.62204192E+03</pdfrwt>
<pdfrwt beam="2">  1       -2 0.55051540E-02 0.62204192E+03</pdfrwt>
<totfact> 0.80651736E+02</totfact>
</mgrwt>
</event>
<event>
 4    1  0.5985962E-005  0.8486221E+03  0.7818608E-02  0.9492188E-01
         -2   -1    0    0    0  501 -0.00000000000E+00  0.00000000000E+00  0.66906496015E+03  0.66906496016E+03  0.25500000000E-02 0. -1.
          2   -1    0    0  501    0  0.00000000000E+00 -0.00000000000E+00 -0.26909178174E+03  0.26909178176E+03  0.25500000000E-02 0.  1.
    5000001    1    1    2    0    0  0.32224845278E+03 -0.14287794700E+03  0.41942901167E+02  0.40169812051E+03  0.18800000000E+03 0.  0.
   -5000001    1    1    2    0    0 -0.32224845278E+03  0.14287794700E+03  0.35803027724E+03  0.53645862141E+03  0.18800000000E+03 0.  0.
<mgrwt>
<rscale>  0 0.84862214E+03</rscale>
<asrwt>0</asrwt>
<pdfrwt beam="1">  1        2 0.38441683E-01 0.84862214E+03</pdfrwt>
<pdfrwt beam="2">  1       -2 0.95580709E-01 0.84862214E+03</pdfrwt>
<totfact> 0.12440870E+02</totfact>
</mgrwt>
</event>
<event>
 4    1  0.5985962E-005  0.2108897E+04  0.7818608E-02  0.8557334E-01
          2   -1    0    0  501    0  0.00000000000E+00  0.00000000000E+00  0.20953208182E+04  0.20953208182E+04  0.25500000000E-02 0.  1.
         -2   -1    0    0    0  501 -0.00000000000E+00 -0.00000000000E+00 -0.53064031086E+03  0.53064031086E+03  0.25500000000E-02 0. -1.
    5000001    1    1    2    0    0 -0.37812690776E+03  0.97279695376E+02 -0.41463833509E+03  0.59976015742E+03  0.18800000000E+03 0.  0.
   -5000001    1    1    2    0    0  0.37812690776E+03 -0.97279695376E+02  0.19793188424E+04  0.20262009716E+04  0.18800000000E+03 0.  0.
<mgrwt>
<rscale>  0 0.21088970E+04</rscale>
<asrwt>0</asrwt>
<pdfrwt beam="1">  1        2 0.29933154E+00 0.21088970E+04</pdfrwt>
<pdfrwt beam="2">  1       -2 0.75805759E-01 0.21088970E+04</pdfrwt>
<totfact> 0.10329831E+01</totfact>
</mgrwt>
</event>
<event>
 4    1  0.5985962E-005  0.7179342E+03  0.7818608E-02  0.9687045E-01
          2   -1    0    0  501    0  0.00000000000E+00  0.00000000000E+00  0.11274708941E+04  0.11274708941E+04  0.25500000000E-02 0.  1.
         -2   -1    0    0    0  501 -0.00000000000E+00 -0.00000000000E+00 -0.11428887310E+03  0.11428887313E+03  0.25500000000E-02 0. -1.
    5000001    1    1    2    0    0  0.17352708702E+03 -0.25171876677E+03  0.51744647990E+03  0.62973712534E+03  0.18800000000E+03 0.  0.
   -5000001    1    1    2    0    0 -0.17352708702E+03  0.25171876677E+03  0.49573554111E+03  0.61202264190E+03  0.18800000000E+03 0.  0.
<mgrwt>
<rscale>  0 0.71793420E+03</rscale>
<asrwt>0</asrwt>
<pdfrwt beam="1">  1        2 0.16106728E+00 0.71793420E+03</pdfrwt>
<pdfrwt beam="2">  1       -2 0.16326981E-01 0.71793420E+03</pdfrwt>
<totfact> 0.71761636E+02</totfact>
</mgrwt>
</event>
<event>
 4    1  0.5985962E-005  0.6221756E+03  0.7818608E-02  0.9860438E-01
         -2   -1    0    0    0  501 -0.00000000000E+00  0.00000000000E+00  0.67032716400E+02  0.67032716448E+02  0.25500000000E-02 0. -1.
          2   -1    0    0  501    0  0.00000000000E+00 -0.00000000000E+00 -0.14437072883E+04  0.14437072883E+04  0.25500000000E-02 0.  1.
    5000001    1    1    2    0    0 -0.88957223013E+02 -0.21712169914E+03 -0.88223137846E+03  0.93205762960E+03  0.18800000000E+03 0.  0.
   -5000001    1    1    2    0    0  0.88957223013E+02  0.21712169914E+03 -0.49444319342E+03  0.57868237512E+03  0.18800000000E+03 0.  0.
<mgrwt>
<rscale>  0 0.62217561E+03</rscale>
<asrwt>0</asrwt>
<pdfrwt beam="1">  1        2 0.20624388E+00 0.62217561E+03</pdfrwt>
<pdfrwt beam="2">  1       -2 0.95761032E-02 0.62217561E+03</pdfrwt>
<totfact> 0.11687482E+03</totfact>
</mgrwt>
</event>
<event>
 4    1  0.5985962E-005  0.6184073E+03  0.7818608E-02  0.9867936E-01
         -2   -1    0    0    0  501 -0.00000000000E+00  0.00000000000E+00  0.57611706882E+03  0.57611706882E+03  0.25500000000E-02 0. -1.
          2   -1    0    0  501    0  0.00000000000E+00 -0.00000000000E+00 -0.16595044121E+03  0.16595044123E+03  0.25500000000E-02 0.  1.
    5000001    1    1    2    0    0  0.82235764732E+02  0.13835107868E+03 -0.17344957168E+02  0.24808988192E+03  0.18800000000E+03 0.  0.
   -5000001    1    1    2    0    0 -0.82235764732E+02 -0.13835107868E+03  0.42751158478E+03  0.49397762813E+03  0.18800000000E+03 0.  0.
<mgrwt>
<rscale>  0 0.61840725E+03</rscale>
<asrwt>0</asrwt>
<pdfrwt beam="1">  1        2 0.23707206E-01 0.61840725E+03</pdfrwt>
<pdfrwt beam="2">  1       -2 0.82302439E-01 0.61840725E+03</pdfrwt>
<totfact> 0.30522225E+02</totfact>
</mgrwt>
</event>
<event>
 4    1  0.5985962E-005  0.8343172E+03  0.7818608E-02  0.9511631E-01
         -2   -1    0    0    0  501 -0.00000000000E+00  0.00000000000E+00  0.13927863115E+03  0.13927863117E+03  0.25500000000E-02 0. -1.
          2   -1    0    0  501    0  0.00000000000E+00 -0.00000000000E+00 -0.12494470836E+04  0.12494470836E+04  0.25500000000E-02 0.  1.
    5000001    1    1    2    0    0  0.36240360763E+03  0.49378194207E+02 -0.67163171011E+03  0.78753268815E+03  0.18800000000E+03 0.  0.
   -5000001    1    1    2    0    0 -0.36240360763E+03 -0.49378194207E+02 -0.43853674237E+03  0.60119302666E+03  0.18800000000E+03 0.  0.
<mgrwt>
<rscale>  0 0.83431716E+03</rscale>
<asrwt>0</asrwt>
<pdfrwt beam="1">  1        2 0.17849243E+00 0.83431716E+03</pdfrwt>
<pdfrwt beam="2">  1       -2 0.19896948E-01 0.83431716E+03</pdfrwt>
<totfact> 0.43267843E+02</totfact>
</mgrwt>
</event>
<event>
 4    1  0.5985962E-005  0.7527483E+03  0.7818608E-02  0.9631048E-01
         -2   -1    0    0    0  501 -0.00000000000E+00  0.00000000000E+00  0.46926650075E+02  0.46926650144E+02  0.25500000000E-02 0. -1.
          2   -1    0    0  501    0  0.00000000000E+00 -0.00000000000E+00 -0.30187008083E+04  0.30187008083E+04  0.25500000000E-02 0.  1.
    5000001    1    1    2    0    0 -0.27918119806E+03 -0.72120798912E+02 -0.86597190855E+03  0.93187708277E+03  0.18800000000E+03 0.  0.
   -5000001    1    1    2    0    0  0.27918119806E+03  0.72120798912E+02 -0.21058022496E+04  0.21337503756E+04  0.18800000000E+03 0.  0.
<mgrwt>
<rscale>  0 0.75274834E+03</rscale>
<asrwt>0</asrwt>
<pdfrwt beam="1">  1        2 0.43124285E+00 0.75274834E+03</pdfrwt>
<pdfrwt beam="2">  1       -2 0.67038091E-02 0.75274834E+03</pdfrwt>
<totfact> 0.31453489E+02</totfact>
</mgrwt>
</event>
<event>
 4    1  0.5985962E-005  0.7016827E+03  0.7818608E-02  0.9714359E-01
          2   -1    0    0  501    0  0.00000000000E+00  0.00000000000E+00  0.48401280372E+03  0.48401280373E+03  0.25500000000E-02 0.  1.
         -2   -1    0    0    0  501 -0.00000000000E+00 -0.00000000000E+00 -0.25431075144E+03  0.25431075145E+03  0.25500000000E-02 0. -1.
    5000001    1    1    2    0    0 -0.23640026927E+03  0.10105834800E+03 -0.39963837261E+02  0.32099686182E+03  0.18800000000E+03 0.  0.
   -5000001    1    1    2    0    0  0.23640026927E+03 -0.10105834800E+03  0.26966588954E+03  0.41732669336E+03  0.18800000000E+03 0.  0.
<mgrwt>
<rscale>  0 0.70168272E+03</rscale>
<asrwt>0</asrwt>
<pdfrwt beam="1">  1        2 0.69144686E-01 0.70168272E+03</pdfrwt>
<pdfrwt beam="2">  1       -2 0.36330108E-01 0.70168272E+03</pdfrwt>
<totfact> 0.49984273E+02</totfact>
</mgrwt>
</event>
<event>
 4    1  0.5985962E-005  0.5783577E+03  0.7818608E-02  0.9951353E-01
         -2   -1    0    0    0  501 -0.00000000000E+00  0.00000000000E+00  0.83311898325E+02  0.83311898364E+02  0.25500000000E-02 0. -1.
          2   -1    0    0  501    0  0.00000000000E+00 -0.00000000000E+00 -0.10037511203E+04  0.10037511203E+04  0.25500000000E-02 0.  1.
    5000001    1    1    2    0    0 -0.15417237787E+01  0.21945842141E+03 -0.48046629615E+03  0.56067480537E+03  0.18800000000E+03 0.  0.
   -5000001    1    1    2    0    0  0.15417237787E+01 -0.21945842141E+03 -0.43997292582E+03  0.52638821329E+03  0.18800000000E+03 0.  0.
<mgrwt>
<rscale>  0 0.57835771E+03</rscale>
<asrwt>0</asrwt>
<pdfrwt beam="1">  1        2 0.14339301E+00 0.57835771E+03</pdfrwt>
<pdfrwt beam="2">  1       -2 0.11901700E-01 0.57835771E+03</pdfrwt>
<totfact> 0.14476075E+03</totfact>
</mgrwt>
</event>
<event>
 4    1  0.5985962E-005  0.1978337E+04  0.7818608E-02  0.8616816E-01
         -2   -1    0    0    0  501 -0.00000000000E+00  0.00000000000E+00  0.68192165535E+03  0.68192165535E+03  0.25500000000E-02 0. -1.
          2   -1    0    0  501    0  0.00000000000E+00 -0.00000000000E+00 -0.14348481371E+04  0.14348481371E+04  0.25500000000E-02 0.  1.
    5000001    1    1    2    0    0  0.90450800944E+03  0.21916838648E+03 -0.79672112942E+02  0.95281748848E+03  0.18800000000E+03 0.  0.
   -5000001    1    1    2    0    0 -0.90450800944E+03 -0.21916838648E+03 -0.67325436878E+03  0.11639523039E+04  0.18800000000E+03 0.  0.
<mgrwt>
<rscale>  0 0.19783367E+04</rscale>
<asrwt>0</asrwt>
<pdfrwt beam="1">  1        2 0.20497831E+00 0.19783367E+04</pdfrwt>
<pdfrwt beam="2">  1       -2 0.97417379E-01 0.19783367E+04</pdfrwt>
<totfact> 0.13007879E+01</totfact>
</mgrwt>
</event>
<event>
 4    1  0.5985962E-005  0.8236046E+03  0.7818608E-02  0.9526465E-01
         -2   -1    0    0    0  501 -0.00000000000E+00  0.00000000000E+00  0.11688794751E+03  0.11688794754E+03  0.25500000000E-02 0. -1.
          2   -1    0    0  501    0  0.00000000000E+00 -0.00000000000E+00 -0.14508009666E+04  0.14508009666E+04  0.25500000000E-02 0.  1.
    5000001    1    1    2    0    0 -0.24943963313E+03  0.57389998001E+01 -0.15626417638E+03  0.34930725660E+03  0.18800000000E+03 0.  0.
   -5000001    1    1    2    0    0  0.24943963313E+03 -0.57389998001E+01 -0.11776488427E+04  0.12183816576E+04  0.18800000000E+03 0.  0.
<mgrwt>
<rscale>  0 0.82360463E+03</rscale>
<asrwt>0</asrwt>
<pdfrwt beam="1">  1        2 0.20725727E+00 0.82360463E+03</pdfrwt>
<pdfrwt beam="2">  1       -2 0.16698279E-01 0.82360463E+03</pdfrwt>
<totfact> 0.45576083E+02</totfact>
</mgrwt>
</event>
<event>
 4    1  0.5985962E-005  0.4595751E+03  0.7818608E-02  0.1024905E+00
          2   -1    0    0  501    0  0.00000000000E+00  0.00000000000E+00  0.25037654119E+03  0.25037654120E+03  0.25500000000E-02 0.  1.
         -2   -1    0    0    0  501 -0.00000000000E+00 -0.00000000000E+00 -0.21089159123E+03  0.21089159124E+03  0.25500000000E-02 0. -1.
    5000001    1    1    2    0    0  0.66831780234E+02  0.93472213491E+02 -0.45726392445E+02  0.22502987471E+03  0.18800000000E+03 0.  0.
   -5000001    1    1    2    0    0 -0.66831780234E+02 -0.93472213491E+02  0.85211342409E+02  0.23623825774E+03  0.18800000000E+03 0.  0.
<mgrwt>
<rscale>  0 0.45957505E+03</rscale>
<asrwt>0</asrwt>
<pdfrwt beam="1">  1        2 0.35768078E-01 0.45957505E+03</pdfrwt>
<pdfrwt beam="2">  1       -2 0.30127370E-01 0.45957505E+03</pdfrwt>
<totfact> 0.14778467E+03</totfact>
</mgrwt>
</event>
<event>
 4    1  0.5985962E-005  0.6669186E+03  0.7818608E-02  0.9775541E-01
         -2   -1    0    0    0  501 -0.00000000000E+00  0.00000000000E+00  0.71210777383E+02  0.71210777429E+02  0.25500000000E-02 0. -1.
          2   -1    0    0  501    0  0.00000000000E+00 -0.00000000000E+00 -0.15614924409E+04  0.15614924409E+04  0.25500000000E-02 0.  1.
    5000001    1    1    2    0    0 -0.39063466261E+02 -0.11107248247E+03 -0.13562021721E+03  0.25999979630E+03  0.18800000000E+03 0.  0.
   -5000001    1    1    2    0    0  0.39063466261E+02  0.11107248247E+03 -0.13546614463E+04  0.13727034221E+04  0.18800000000E+03 0.  0.
<mgrwt>
<rscale>  0 0.66691856E+03</rscale>
<asrwt>0</asrwt>
<pdfrwt beam="1">  1        2 0.22307033E+00 0.66691856E+03</pdfrwt>
<pdfrwt beam="2">  1       -2 0.10172969E-01 0.66691856E+03</pdfrwt>
<totfact> 0.91791472E+02</totfact>
</mgrwt>
</event>
<event>
 4    1  0.5985962E-005  0.7462461E+03  0.7818608E-02  0.9641258E-01
          2   -1    0    0  501    0  0.00000000000E+00  0.00000000000E+00  0.22157072574E+04  0.22157072574E+04  0.25500000000E-02 0.  1.
         -2   -1    0    0    0  501 -0.00000000000E+00 -0.00000000000E+00 -0.62833568628E+02  0.62833568680E+02  0.25500000000E-02 0. -1.
    5000001    1    1    2    0    0  0.28489875349E+03 -0.22357843326E+02  0.15314724086E+04  0.15692096454E+04  0.18800000000E+03 0.  0.
   -5000001    1    1    2    0    0 -0.28489875349E+03  0.22357843326E+02  0.62140128022E+03  0.70933118073E+03  0.18800000000E+03 0.  0.
<mgrwt>
<rscale>  0 0.74624606E+03</rscale>
<asrwt>0</asrwt>
<pdfrwt beam="1">  1        2 0.31652966E+00 0.74624606E+03</pdfrwt>
<pdfrwt beam="2">  1       -2 0.89762227E-02 0.74624606E+03</pdfrwt>
<totfact> 0.52043346E+02</totfact>
</mgrwt>
</event>
<event>
 4    1  0.5985962E-005  0.4515373E+03  0.7818608E-02  0.1027265E+00
          2   -1    0    0  501    0  0.00000000000E+00  0.00000000000E+00  0.72964354696E+03  0.72964354697E+03  0.25500000000E-02 0.  1.
         -2   -1    0    0    0  501 -0.00000000000E+00 -0.00000000000E+00 -0.69858068884E+02  0.69858068931E+02  0.25500000000E-02 0. -1.
    5000001    1    1    2    0    0  0.69446132565E+02 -0.89935284152E+02  0.23761009407E+03  0.32359492806E+03  0.18800000000E+03 0.  0.
   -5000001    1    1    2    0    0 -0.69446132565E+02  0.89935284152E+02  0.42217538401E+03  0.47590668783E+03  0.18800000000E+03 0.  0.
<mgrwt>
<rscale>  0 0.45153733E+03</rscale>
<asrwt>0</asrwt>
<pdfrwt beam="1">  1        2 0.10423479E+00 0.45153733E+03</pdfrwt>
<pdfrwt beam="2">  1       -2 0.99797247E-02 0.45153733E+03</pdfrwt>
<totfact> 0.29249895E+03</totfact>
</mgrwt>
</event>
<event>
 4    1  0.5985962E-005  0.5761080E+03  0.7818608E-02  0.9956253E-01
         -2   -1    0    0    0  501 -0.00000000000E+00  0.00000000000E+00  0.83473179070E+02  0.83473179109E+02  0.25500000000E-02 0. -1.
          2   -1    0    0  501    0  0.00000000000E+00 -0.00000000000E+00 -0.99403300967E+03  0.99403300967E+03  0.25500000000E-02 0.  1.
    5000001    1    1    2    0    0 -0.15783755734E+03  0.13712574261E+03 -0.33825509328E+03  0.43985983213E+03  0.18800000000E+03 0.  0.
   -5000001    1    1    2    0    0  0.15783755734E+03 -0.13712574261E+03 -0.57230473731E+03  0.63764635664E+03  0.18800000000E+03 0.  0.
<mgrwt>
<rscale>  0 0.57610796E+03</rscale>
<asrwt>0</asrwt>
<pdfrwt beam="1">  1        2 0.14200471E+00 0.57610796E+03</pdfrwt>
<pdfrwt beam="2">  1       -2 0.11924740E-01 0.57610796E+03</pdfrwt>
<totfact> 0.14628642E+03</totfact>
</mgrwt>
</event>
<event>
 4    1  0.5985962E-005  0.7780118E+03  0.7818608E-02  0.9592401E-01
          2   -1    0    0  501    0  0.00000000000E+00  0.00000000000E+00  0.18786249759E+04  0.18786249759E+04  0.25500000000E-02 0.  1.
         -2   -1    0    0    0  501 -0.00000000000E+00 -0.00000000000E+00 -0.80551244494E+02  0.80551244534E+02  0.25500000000E-02 0. -1.
    5000001    1    1    2    0    0 -0.33574727006E+03 -0.48588141069E+02  0.97435298561E+03  0.10487110076E+04  0.18800000000E+03 0.  0.
   -5000001    1    1    2    0    0  0.33574727006E+03  0.48588141069E+02  0.82372074582E+03  0.91046521291E+03  0.18800000000E+03 0.  0.
<mgrwt>
<rscale>  0 0.77801177E+03</rscale>
<asrwt>0</asrwt>
<pdfrwt beam="1">  1        2 0.26837500E+00 0.77801177E+03</pdfrwt>
<pdfrwt beam="2">  1       -2 0.11507320E-01 0.77801177E+03</pdfrwt>
<totfact> 0.51324228E+02</totfact>
</mgrwt>
</event>
<event>
 4    1  0.5985962E-005  0.5341754E+03  0.7818608E-02  0.1005225E+00
          2   -1    0    0  501    0  0.00000000000E+00  0.00000000000E+00  0.16112378884E+03  0.16112378886E+03  0.25500000000E-02 0.  1.
         -2   -1    0    0    0  501 -0.00000000000E+00 -0.00000000000E+00 -0.44273940982E+03  0.44273940982E+03  0.25500000000E-02 0. -1.
    5000001    1    1    2    0    0 -0.13933490354E+03 -0.12543164698E+03 -0.17365998981E+03  0.31725243178E+03  0.18800000000E+03 0.  0.
   -5000001    1    1    2    0    0  0.13933490354E+03  0.12543164698E+03 -0.10795563117E+03  0.28661076691E+03  0.18800000000E+03 0.  0.
<mgrwt>
<rscale>  0 0.53417544E+03</rscale>
<asrwt>0</asrwt>
<pdfrwt beam="1">  1        2 0.23017684E-01 0.53417544E+03</pdfrwt>
<pdfrwt beam="2">  1       -2 0.63248487E-01 0.53417544E+03</pdfrwt>
<totfact> 0.56242950E+02</totfact>
</mgrwt>
</event>
<event>
 4    1  0.5985962E-005  0.5485270E+03  0.7818608E-02  0.1001835E+00
          2   -1    0    0  501    0  0.00000000000E+00  0.00000000000E+00  0.28425645779E+04  0.28425645779E+04  0.25500000000E-02 0.  1.
         -2   -1    0    0    0  501 -0.00000000000E+00 -0.00000000000E+00 -0.26462186204E+02  0.26462186326E+02  0.25500000000E-02 0. -1.
    5000001    1    1    2    0    0  0.15843465280E+03  0.10324325973E+03  0.10724976937E+04  0.11051497694E+04  0.18800000000E+03 0.  0.
   -5000001    1    1    2    0    0 -0.15843465280E+03 -0.10324325973E+03  0.17436046980E+04  0.17638769948E+04  0.18800000000E+03 0.  0.
<mgrwt>
<rscale>  0 0.54852702E+03</rscale>
<asrwt>0</asrwt>
<pdfrwt beam="1">  1        2 0.40608057E+00 0.54852702E+03</pdfrwt>
<pdfrwt beam="2">  1       -2 0.37803131E-02 0.54852702E+03</pdfrwt>
<totfact> 0.97241366E+02</totfact>
</mgrwt>
</event>
<event>
 4    1  0.5985962E-005  0.5143489E+03  0.7818608E-02  0.1010100E+00
          2   -1    0    0  501    0  0.00000000000E+00  0.00000000000E+00  0.82978658200E+03  0.82978658200E+03  0.25500000000E-02 0.  1.
         -2   -1    0    0    0  501 -0.00000000000E+00 -0.00000000000E+00 -0.79705660875E+02  0.79705660916E+02  0.25500000000E-02 0. -1.
    5000001    1    1    2    0    0 -0.82771701344E+02  0.89591668325E+02  0.59812527110E+03  0.63872972492E+03  0.18800000000E+03 0.  0.
   -5000001    1    1    2    0    0  0.82771701344E+02 -0.89591668325E+02  0.15195565003E+03  0.27076251800E+03  0.18800000000E+03 0.  0.
<mgrwt>
<rscale>  0 0.51434886E+03</rscale>
<asrwt>0</asrwt>
<pdfrwt beam="1">  1        2 0.11854094E+00 0.51434886E+03</pdfrwt>
<pdfrwt beam="2">  1       -2 0.11386523E-01 0.51434886E+03</pdfrwt>
<totfact> 0.20108652E+03</totfact>
</mgrwt>
</event>
<event>
 4    1  0.5985962E-005  0.6024365E+03  0.7818608E-02  0.9900364E-01
         -2   -1    0    0    0  501 -0.00000000000E+00  0.00000000000E+00  0.11826703080E+03  0.11826703082E+03  0.25500000000E-02 0. -1.
          2   -1    0    0  501    0  0.00000000000E+00 -0.00000000000E+00 -0.76718280062E+03  0.76718280062E+03  0.25500000000E-02 0.  1.
    5000001    1    1    2    0    0 -0.12138475381E+03  0.14920960639E+03 -0.52377813640E+03  0.58879988219E+03  0.18800000000E+03 0.  0.
   -5000001    1    1    2    0    0  0.12138475381E+03 -0.14920960639E+03 -0.12513763342E+03  0.29664994926E+03  0.18800000000E+03 0.  0.
<mgrwt>
<rscale>  0 0.60243649E+03</rscale>
<asrwt>0</asrwt>
<pdfrwt beam="1">  1        2 0.10959754E+00 0.60243649E+03</pdfrwt>
<pdfrwt beam="2">  1       -2 0.16895290E-01 0.60243649E+03</pdfrwt>
<totfact> 0.11497702E+03</totfact>
</mgrwt>
</event>
<event>
 4    1  0.5985962E-005  0.7815257E+03  0.7818608E-02  0.9587150E-01
          2   -1    0    0  501    0  0.00000000000E+00  0.00000000000E+00  0.16248040041E+04  0.16248040041E+04  0.25500000000E-02 0. -1.
         -2   -1    0    0    0  501 -0.00000000000E+00 -0.00000000000E+00 -0.93977856115E+02  0.93977856149E+02  0.25500000000E-02 0.  1.
    5000001    1    1    2    0    0 -0.18319261749E+03  0.26867794947E+03  0.52850191886E+03  0.64838696307E+03  0.18800000000E+03 0.  0.
   -5000001    1    1    2    0    0  0.18319261749E+03 -0.26867794947E+03  0.10023242291E+04  0.10703948972E+04  0.18800000000E+03 0.  0.
<mgrwt>
<rscale>  0 0.78152568E+03</rscale>
<asrwt>0</asrwt>
<pdfrwt beam="1">  1        2 0.23211485E+00 0.78152568E+03</pdfrwt>
<pdfrwt beam="2">  1       -2 0.13425409E-01 0.78152568E+03</pdfrwt>
<totfact> 0.53570277E+02</totfact>
</mgrwt>
</event>
<event>
 4    1  0.5985962E-005  0.5484871E+03  0.7818608E-02  0.1001845E+00
         -2   -1    0    0    0  501 -0.00000000000E+00  0.00000000000E+00  0.59906766916E+03  0.59906766917E+03  0.25500000000E-02 0. -1.
          2   -1    0    0  501    0  0.00000000000E+00 -0.00000000000E+00 -0.12554430738E+03  0.12554430740E+03  0.25500000000E-02 0.  1.
    5000001    1    1    2    0    0  0.10289825406E+03 -0.11388924177E+03  0.40546453862E+03  0.47255084611E+03  0.18800000000E+03 0.  0.
   -5000001    1    1    2    0    0 -0.10289825406E+03  0.11388924177E+03  0.68058823164E+02  0.25206113046E+03  0.18800000000E+03 0.  0.
<mgrwt>
<rscale>  0 0.54848714E+03</rscale>
<asrwt>0</asrwt>
<pdfrwt beam="1">  1        2 0.17934901E-01 0.54848714E+03</pdfrwt>
<pdfrwt beam="2">  1       -2 0.85581096E-01 0.54848714E+03</pdfrwt>
<totfact> 0.38748353E+02</totfact>
</mgrwt>
</event>
<event>
 4    1  0.5985962E-005  0.4915108E+03  0.7818608E-02  0.1016019E+00
          2   -1    0    0  501    0  0.00000000000E+00  0.00000000000E+00  0.18188881628E+04  0.18188881628E+04  0.25500000000E-02 0.  1.
         -2   -1    0    0    0  501 -0.00000000000E+00 -0.00000000000E+00 -0.33204743408E+02  0.33204743506E+02  0.25500000000E-02 0. -1.
    5000001    1    1    2    0    0 -0.41906523113E+02  0.36619276164E+02  0.33450993628E+03  0.38773447813E+03  0.18800000000E+03 0.  0.
   -5000001    1    1    2    0    0  0.41906523113E+02 -0.36619276164E+02  0.14511734831E+04  0.14643584281E+04  0.18800000000E+03 0.  0.
<mgrwt>
<rscale>  0 0.49151079E+03</rscale>
<asrwt>0</asrwt>
<pdfrwt beam="1">  1        2 0.25984122E+00 0.49151079E+03</pdfrwt>
<pdfrwt beam="2">  1       -2 0.47435339E-02 0.49151079E+03</pdfrwt>
<totfact> 0.22819492E+03</totfact>
</mgrwt>
</event>
<event>
 4    1  0.5985962E-005  0.8667569E+03  0.7818608E-02  0.9468118E-01
         -2   -1    0    0    0  501 -0.00000000000E+00  0.00000000000E+00  0.12514268979E+03  0.12514268981E+03  0.25500000000E-02 0. -1.
          2   -1    0    0  501    0  0.00000000000E+00 -0.00000000000E+00 -0.15008216732E+04  0.15008216732E+04  0.25500000000E-02 0.  1.
    5000001    1    1    2    0    0  0.22900506688E+02  0.34916039629E+03 -0.36272915536E+03  0.53791621624E+03  0.18800000000E+03 0.  0.
   -5000001    1    1    2    0    0 -0.22900506688E+02 -0.34916039629E+03 -0.10129498281E+04  0.10880481468E+04  0.18800000000E+03 0.  0.
<mgrwt>
<rscale>  0 0.86675685E+03</rscale>
<asrwt>0</asrwt>
<pdfrwt beam="1">  1        2 0.21440309E+00 0.86675685E+03</pdfrwt>
<pdfrwt beam="2">  1       -2 0.17877528E-01 0.86675685E+03</pdfrwt>
<totfact> 0.38043398E+02</totfact>
</mgrwt>
</event>
<event>
 4    1  0.5985962E-005  0.6402106E+03  0.7818608E-02  0.9825324E-01
          2   -1    0    0  501    0  0.00000000000E+00  0.00000000000E+00  0.29426262501E+03  0.29426262502E+03  0.25500000000E-02 0.  1.
         -2   -1    0    0    0  501 -0.00000000000E+00 -0.00000000000E+00 -0.34821748967E+03  0.34821748968E+03  0.25500000000E-02 0. -1.
    5000001    1    1    2    0    0 -0.18417185752E+03  0.15353625859E+03  0.71506778441E+02  0.31296944766E+03  0.18800000000E+03 0.  0.
   -5000001    1    1    2    0    0  0.18417185752E+03 -0.15353625859E+03 -0.12546164310E+03  0.32951066704E+03  0.18800000000E+03 0.  0.
<mgrwt>
<rscale>  0 0.64021057E+03</rscale>
<asrwt>0</asrwt>
<pdfrwt beam="1">  1        2 0.42037518E-01 0.64021057E+03</pdfrwt>
<pdfrwt beam="2">  1       -2 0.49745355E-01 0.64021057E+03</pdfrwt>
<totfact> 0.46972094E+02</totfact>
</mgrwt>
</event>
<event>
 4    1  0.5985962E-005  0.6441623E+03  0.7818608E-02  0.9817795E-01
         -2   -1    0    0    0  501 -0.00000000000E+00  0.00000000000E+00  0.17732217253E+03  0.17732217255E+03  0.25500000000E-02 0. -1.
          2   -1    0    0  501    0  0.00000000000E+00 -0.00000000000E+00 -0.58501579879E+03  0.58501579879E+03  0.25500000000E-02 0.  1.
    5000001    1    1    2    0    0 -0.42232900794E+01  0.23988322619E+03 -0.32700859682E+03  0.44703514491E+03  0.18800000000E+03 0.  0.
   -5000001    1    1    2    0    0  0.42232900794E+01 -0.23988322619E+03 -0.80685029433E+02  0.31530282644E+03  0.18800000000E+03 0.  0.
<mgrwt>
<rscale>  0 0.64416232E+03</rscale>
<asrwt>0</asrwt>
<pdfrwt beam="1">  1        2 0.83573685E-01 0.64416232E+03</pdfrwt>
<pdfrwt beam="2">  1       -2 0.25331739E-01 0.64416232E+03</pdfrwt>
<totfact> 0.78509587E+02</totfact>
</mgrwt>
</event>
<event>
 4    1  0.5985962E-005  0.4581080E+03  0.7818608E-02  0.1025331E+00
         -2   -1    0    0    0  501 -0.00000000000E+00  0.00000000000E+00  0.80539257701E+02  0.80539257741E+02  0.25500000000E-02 0. -1.
          2   -1    0    0  501    0  0.00000000000E+00 -0.00000000000E+00 -0.65143049291E+03  0.65143049292E+03  0.25500000000E-02 0.  1.
    5000001    1    1    2    0    0  0.88352085979E+02  0.20894057220E+01 -0.13126499915E+03  0.24573350751E+03  0.18800000000E+03 0.  0.
   -5000001    1    1    2    0    0 -0.88352085979E+02 -0.20894057220E+01 -0.43962623606E+03  0.48623624314E+03  0.18800000000E+03 0.  0.
<mgrwt>
<rscale>  0 0.45810797E+03</rscale>
<asrwt>0</asrwt>
<pdfrwt beam="1">  1        2 0.93061496E-01 0.45810797E+03</pdfrwt>
<pdfrwt beam="2">  1       -2 0.11505609E-01 0.45810797E+03</pdfrwt>
<totfact> 0.26638954E+03</totfact>
</mgrwt>
</event>
<event>
 4    1  0.5985962E-005  0.6506964E+03  0.7818608E-02  0.9805473E-01
         -2   -1    0    0    0  501 -0.00000000000E+00  0.00000000000E+00  0.50098600879E+03  0.50098600879E+03  0.25500000000E-02 0. -1.
          2   -1    0    0  501    0  0.00000000000E+00 -0.00000000000E+00 -0.21128622960E+03  0.21128622961E+03  0.25500000000E-02 0.  1.
    5000001    1    1    2    0    0 -0.25007936995E+03 -0.14770515624E+02  0.24121212432E+03  0.39532916453E+03  0.18800000000E+03 0.  0.
   -5000001    1    1    2    0    0  0.25007936995E+03  0.14770515624E+02  0.48487654870E+02  0.31694307388E+03  0.18800000000E+03 0.  0.
<mgrwt>
<rscale>  0 0.65069638E+03</rscale>
<asrwt>0</asrwt>
<pdfrwt beam="1">  1        2 0.30183748E-01 0.65069638E+03</pdfrwt>
<pdfrwt beam="2">  1       -2 0.71569428E-01 0.65069638E+03</pdfrwt>
<totfact> 0.31599312E+02</totfact>
</mgrwt>
</event>
<event>
 4    1  0.5985962E-005  0.8308522E+03  0.7818608E-02  0.9516403E-01
          2   -1    0    0  501    0  0.00000000000E+00  0.00000000000E+00  0.53467084918E+03  0.53467084919E+03  0.25500000000E-02 0.  1.
         -2   -1    0    0    0  501 -0.00000000000E+00 -0.00000000000E+00 -0.32277585011E+03  0.32277585012E+03  0.25500000000E-02 0. -1.
    5000001    1    1    2    0    0  0.33002399484E+03  0.58675518997E+02 -0.56822832327E+02  0.38849901927E+03  0.18800000000E+03 0.  0.
   -5000001    1    1    2    0    0 -0.33002399484E+03 -0.58675518997E+02  0.26871783140E+03  0.46894768004E+03  0.18800000000E+03 0.  0.
<mgrwt>
<rscale>  0 0.83085218E+03</rscale>
<asrwt>0</asrwt>
<pdfrwt beam="1">  1        2 0.76381550E-01 0.83085218E+03</pdfrwt>
<pdfrwt beam="2">  1       -2 0.46110836E-01 0.83085218E+03</pdfrwt>
<totfact> 0.27843814E+02</totfact>
</mgrwt>
</event>
<event>
 4    1  0.5985962E-005  0.7331369E+03  0.7818608E-02  0.9662184E-01
          2   -1    0    0  501    0  0.00000000000E+00  0.00000000000E+00  0.10855351256E+04  0.10855351256E+04  0.25500000000E-02 0.  1.
         -2   -1    0    0    0  501 -0.00000000000E+00 -0.00000000000E+00 -0.12378450459E+03  0.12378450462E+03  0.25500000000E-02 0. -1.
    5000001    1    1    2    0    0  0.22919910069E+03 -0.11088715224E+03  0.17582561310E+03  0.36205915886E+03  0.18800000000E+03 0.  0.
   -5000001    1    1    2    0    0 -0.22919910069E+03  0.11088715224E+03  0.78592500789E+03  0.84726047135E+03  0.18800000000E+03 0.  0.
<mgrwt>
<rscale>  0 0.73313690E+03</rscale>
<asrwt>0</asrwt>
<pdfrwt beam="1">  1        2 0.15507644E+00 0.73313690E+03</pdfrwt>
<pdfrwt beam="2">  1       -2 0.17683501E-01 0.73313690E+03</pdfrwt>
<totfact> 0.66186246E+02</totfact>
</mgrwt>
</event>
<event>
 4    1  0.5985962E-005  0.7134407E+03  0.7818608E-02  0.9694519E-01
          2   -1    0    0  501    0  0.00000000000E+00  0.00000000000E+00  0.10985577145E+03  0.10985577148E+03  0.25500000000E-02 0.  1.
         -2   -1    0    0    0  501 -0.00000000000E+00 -0.00000000000E+00 -0.11583314307E+04  0.11583314307E+04  0.25500000000E-02 0. -1.
    5000001    1    1    2    0    0 -0.11385812061E+03  0.27490657561E+03 -0.42107630755E+03  0.54880465899E+03  0.18800000000E+03 0.  0.
   -5000001    1    1    2    0    0  0.11385812061E+03 -0.27490657561E+03 -0.62739935174E+03  0.71938254323E+03  0.18800000000E+03 0.  0.
<mgrwt>
<rscale>  0 0.71344066E+03</rscale>
<asrwt>0</asrwt>
<pdfrwt beam="1">  1        2 0.15693682E-01 0.71344066E+03</pdfrwt>
<pdfrwt beam="2">  1       -2 0.16547591E+00 0.71344066E+03</pdfrwt>
<totfact> 0.88445787E+01</totfact>
</mgrwt>
</event>
<event>
 4    1  0.5985962E-005  0.8012417E+03  0.7818608E-02  0.9558222E-01
         -2   -1    0    0    0  501 -0.00000000000E+00  0.00000000000E+00  0.89081617169E+02  0.89081617205E+02  0.25500000000E-02 0. -1.
          2   -1    0    0  501    0  0.00000000000E+00 -0.00000000000E+00 -0.18016855845E+04  0.18016855845E+04  0.25500000000E-02 0.  1.
    5000001    1    1    2    0    0  0.27859266254E+03  0.21129129125E+03 -0.72932862335E+03  0.83037468785E+03  0.18800000000E+03 0.  0.
   -5000001    1    1    2    0    0 -0.27859266254E+03 -0.21129129125E+03 -0.98327534401E+03  0.10603925139E+04  0.18800000000E+03 0.  0.
<mgrwt>
<rscale>  0 0.80124170E+03</rscale>
<asrwt>0</asrwt>
<pdfrwt beam="1">  1        2 0.25738363E+00 0.80124170E+03</pdfrwt>
<pdfrwt beam="2">  1       -2 0.12725946E-01 0.80124170E+03</pdfrwt>
<totfact> 0.47475075E+02</totfact>
</mgrwt>
</event>
<event>
 4    1  0.5985962E-005  0.6855408E+03  0.7818608E-02  0.9742284E-01
         -2   -1    0    0    0  501 -0.00000000000E+00  0.00000000000E+00  0.30115885254E+02  0.30115885362E+02  0.25500000000E-02 0. -1.
          2   -1    0    0  501    0  0.00000000000E+00 -0.00000000000E+00 -0.39013151865E+04  0.39013151865E+04  0.25500000000E-02 0.  1.
    5000001    1    1    2    0    0  0.37269455667E+02 -0.28071236276E+03 -0.21894323725E+04  0.22156593954E+04  0.18800000000E+03 0.  0.
   -5000001    1    1    2    0    0 -0.37269455667E+02  0.28071236276E+03 -0.16817669288E+04  0.17157716764E+04  0.18800000000E+03 0.  0.
<mgrwt>
<rscale>  0 0.68554084E+03</rscale>
<asrwt>0</asrwt>
<pdfrwt beam="1">  1        2 0.55733042E+00 0.68554084E+03</pdfrwt>
<pdfrwt beam="2">  1       -2 0.43022718E-02 0.68554084E+03</pdfrwt>
<totfact> 0.18922359E+02</totfact>
</mgrwt>
</event>
<event>
 4    1  0.5985962E-005  0.5854296E+03  0.7818608E-02  0.9936105E-01
          2   -1    0    0  501    0  0.00000000000E+00  0.00000000000E+00  0.50634037362E+03  0.50634037362E+03  0.25500000000E-02 0.  1.
         -2   -1    0    0    0  501 -0.00000000000E+00 -0.00000000000E+00 -0.16921812267E+03  0.16921812269E+03  0.25500000000E-02 0. -1.
    5000001    1    1    2    0    0 -0.17669211559E+03 -0.37702871146E+02  0.15053417190E+02  0.26117468402E+03  0.18800000000E+03 0.  0.
   -5000001    1    1    2    0    0  0.17669211559E+03  0.37702871146E+02  0.32206883376E+03  0.41438381229E+03  0.18800000000E+03 0.  0.
<mgrwt>
<rscale>  0 0.58542965E+03</rscale>
<asrwt>0</asrwt>
<pdfrwt beam="1">  1        2 0.72334339E-01 0.58542965E+03</pdfrwt>
<pdfrwt beam="2">  1       -2 0.24174017E-01 0.58542965E+03</pdfrwt>
<totfact> 0.10097643E+03</totfact>
</mgrwt>
</event>
<event>
 4    1  0.5985962E-005  0.4352602E+03  0.7818608E-02  0.1032211E+00
          2   -1    0    0  501    0  0.00000000000E+00  0.00000000000E+00  0.32263213913E+04  0.32263213913E+04  0.25500000000E-02 0.  1.
         -2   -1    0    0    0  501 -0.00000000000E+00 -0.00000000000E+00 -0.14680145420E+02  0.14680145642E+02  0.25500000000E-02 0. -1.
    5000001    1    1    2    0    0 -0.33278802814E+02 -0.36369779318E+02  0.87668472285E+03  0.89797012358E+03  0.18800000000E+03 0.  0.
   -5000001    1    1    2    0    0  0.33278802814E+02  0.36369779318E+02  0.23349565231E+04  0.23430314134E+04  0.18800000000E+03 0.  0.
<mgrwt>
<rscale>  0 0.43526023E+03</rscale>
<asrwt>0</asrwt>
<pdfrwt beam="1">  1        2 0.46090337E+00 0.43526023E+03</pdfrwt>
<pdfrwt beam="2">  1       -2 0.20971622E-02 0.43526023E+03</pdfrwt>
<totfact> 0.14798451E+03</totfact>
</mgrwt>
</event>
<event>
 4    1  0.5985962E-005  0.5637528E+03  0.7818608E-02  0.9983599E-01
         -2   -1    0    0    0  501 -0.00000000000E+00  0.00000000000E+00  0.82263537754E+02  0.82263537793E+02  0.25500000000E-02 0. -1.
          2   -1    0    0  501    0  0.00000000000E+00 -0.00000000000E+00 -0.96585093796E+03  0.96585093796E+03  0.25500000000E-02 0.  1.
    5000001    1    1    2    0    0 -0.72298863262E+02  0.11785386702E+03 -0.14786982202E+03  0.27627186586E+03  0.18800000000E+03 0.  0.
   -5000001    1    1    2    0    0  0.72298863262E+02 -0.11785386702E+03 -0.73571757818E+03  0.77184260989E+03  0.18800000000E+03 0.  0.
<mgrwt>
<rscale>  0 0.56375284E+03</rscale>
<asrwt>0</asrwt>
<pdfrwt beam="1">  1        2 0.13797870E+00 0.56375284E+03</pdfrwt>
<pdfrwt beam="2">  1       -2 0.11751935E-01 0.56375284E+03</pdfrwt>
<totfact> 0.15596319E+03</totfact>
</mgrwt>
</event>
<event>
 4    1  0.5985962E-005  0.5020679E+03  0.7818608E-02  0.1013241E+00
         -2   -1    0    0    0  501 -0.00000000000E+00  0.00000000000E+00  0.27121463188E+02  0.27121463308E+02  0.25500000000E-02 0. -1.
          2   -1    0    0  501    0  0.00000000000E+00 -0.00000000000E+00 -0.23235484811E+04  0.23235484811E+04  0.25500000000E-02 0.  1.
    5000001    1    1    2    0    0  0.46089084320E+02 -0.15527227954E+03 -0.97052338598E+03  0.10017451408E+04  0.18800000000E+03 0.  0.
   -5000001    1    1    2    0    0 -0.46089084320E+02  0.15527227954E+03 -0.13259036320E+04  0.13489248036E+04  0.18800000000E+03 0.  0.
<mgrwt>
<rscale>  0 0.50206786E+03</rscale>
<asrwt>0</asrwt>
<pdfrwt beam="1">  1        2 0.33193537E+00 0.50206786E+03</pdfrwt>
<pdfrwt beam="2">  1       -2 0.38744962E-02 0.50206786E+03</pdfrwt>
<totfact> 0.17400529E+03</totfact>
</mgrwt>
</event>
<event>
 4    1  0.5985962E-005  0.1025692E+04  0.7818608E-02  0.9280807E-01
         -2   -1    0    0    0  501 -0.00000000000E+00  0.00000000000E+00  0.16277582724E+03  0.16277582726E+03  0.25500000000E-02 0. -1.
          2   -1    0    0  501    0  0.00000000000E+00 -0.00000000000E+00 -0.16157862503E+04  0.16157862503E+04  0.25500000000E-02 0.  1.
    5000001    1    1    2    0    0 -0.23310124459E+03 -0.27176410430E+03 -0.17960366548E+03  0.44248547465E+03  0.18800000000E+03 0.  0.
   -5000001    1    1    2    0    0  0.23310124459E+03  0.27176410430E+03 -0.12734067576E+04  0.13360766029E+04  0.18800000000E+03 0.  0.
<mgrwt>
<rscale>  0 0.10256919E+04</rscale>
<asrwt>0</asrwt>
<pdfrwt beam="1">  1        2 0.23082660E+00 0.10256919E+04</pdfrwt>
<pdfrwt beam="2">  1       -2 0.23253691E-01 0.10256919E+04</pdfrwt>
<totfact> 0.20659081E+02</totfact>
</mgrwt>
</event>
<event>
 4    1  0.5985962E-005  0.8623911E+03  0.7818608E-02  0.9473855E-01
          2   -1    0    0  501    0  0.00000000000E+00  0.00000000000E+00  0.22058627382E+04  0.22058627382E+04  0.25500000000E-02 0.  1.
         -2   -1    0    0    0  501 -0.00000000000E+00 -0.00000000000E+00 -0.84288843917E+02  0.84288843955E+02  0.25500000000E-02 0. -1.
    5000001    1    1    2    0    0  0.20056114889E+03  0.16716466776E+03  0.29841331436E+03  0.43882035821E+03  0.18800000000E+03 0.  0.
   -5000001    1    1    2    0    0 -0.20056114889E+03 -0.16716466776E+03  0.18231605800E+04  0.18513312240E+04  0.18800000000E+03 0.  0.
<mgrwt>
<rscale>  0 0.86239114E+03</rscale>
<asrwt>0</asrwt>
<pdfrwt beam="1">  1        2 0.31512330E+00 0.86239114E+03</pdfrwt>
<pdfrwt beam="2">  1       -2 0.12041261E-01 0.86239114E+03</pdfrwt>
<totfact> 0.32297590E+02</totfact>
</mgrwt>
</event>
<event>
 4    1  0.5985962E-005  0.3990536E+03  0.7818608E-02  0.1044108E+00
         -2   -1    0    0    0  501 -0.00000000000E+00  0.00000000000E+00  0.86307970930E+02  0.86307970967E+02  0.25500000000E-02 0. -1.
          2   -1    0    0  501    0  0.00000000000E+00 -0.00000000000E+00 -0.46126604409E+03  0.46126604410E+03  0.25500000000E-02 0.  1.
    5000001    1    1    2    0    0  0.37938332174E+02  0.52242116977E+02 -0.16377638901E+03  0.25755632672E+03  0.18800000000E+03 0.  0.
   -5000001    1    1    2    0    0 -0.37938332174E+02 -0.52242116977E+02 -0.21118168415E+03  0.29001768835E+03  0.18800000000E+03 0.  0.
<mgrwt>
<rscale>  0 0.39905356E+03</rscale>
<asrwt>0</asrwt>
<pdfrwt beam="1">  1        2 0.65895148E-01 0.39905356E+03</pdfrwt>
<pdfrwt beam="2">  1       -2 0.12329710E-01 0.39905356E+03</pdfrwt>
<totfact> 0.35256541E+03</totfact>
</mgrwt>
</event>
<event>
 4    1  0.5985962E-005  0.5226841E+03  0.7818608E-02  0.1008022E+00
         -2   -1    0    0    0  501 -0.00000000000E+00  0.00000000000E+00  0.83600217921E+02  0.83600217960E+02  0.25500000000E-02 0. -1.
          2   -1    0    0  501    0  0.00000000000E+00 -0.00000000000E+00 -0.81697958246E+03  0.81697958247E+03  0.25500000000E-02 0.  1.
    5000001    1    1    2    0    0  0.99713795605E+02 -0.14746639305E+03 -0.30537220159E+03  0.40035654062E+03  0.18800000000E+03 0.  0.
   -5000001    1    1    2    0    0 -0.99713795605E+02  0.14746639305E+03 -0.42800716295E+03  0.50022325981E+03  0.18800000000E+03 0.  0.
<mgrwt>
<rscale>  0 0.52268412E+03</rscale>
<asrwt>0</asrwt>
<pdfrwt beam="1">  1        2 0.11671136E+00 0.52268412E+03</pdfrwt>
<pdfrwt beam="2">  1       -2 0.11942889E-01 0.52268412E+03</pdfrwt>
<totfact> 0.18973299E+03</totfact>
</mgrwt>
</event>
<event>
 4    1  0.5985962E-005  0.1087101E+04  0.7818608E-02  0.9217856E-01
         -2   -1    0    0    0  501 -0.00000000000E+00  0.00000000000E+00  0.12269142491E+03  0.12269142494E+03  0.25500000000E-02 0. -1.
          2   -1    0    0  501    0  0.00000000000E+00 -0.00000000000E+00 -0.24080510092E+04  0.24080510092E+04  0.25500000000E-02 0.  1.
    5000001    1    1    2    0    0  0.64749106475E+02  0.50159796651E+03 -0.98984266235E+03  0.11273533000E+04  0.18800000000E+03 0.  0.
   -5000001    1    1    2    0    0 -0.64749106475E+02 -0.50159796651E+03 -0.12955169219E+04  0.14033891341E+04  0.18800000000E+03 0.  0.
<mgrwt>
<rscale>  0 0.10871011E+04</rscale>
<asrwt>0</asrwt>
<pdfrwt beam="1">  1        2 0.34400726E+00 0.10871011E+04</pdfrwt>
<pdfrwt beam="2">  1       -2 0.17527348E-01 0.10871011E+04</pdfrwt>
<totfact> 0.13246228E+02</totfact>
</mgrwt>
</event>
<event>
 4    1  0.5985962E-005  0.5620037E+03  0.7818608E-02  0.9987531E-01
         -2   -1    0    0    0  501 -0.00000000000E+00  0.00000000000E+00  0.55275556940E+02  0.55275556999E+02  0.25500000000E-02 0. -1.
          2   -1    0    0  501    0  0.00000000000E+00 -0.00000000000E+00 -0.14285161721E+04  0.14285161721E+04  0.25500000000E-02 0.  1.
    5000001    1    1    2    0    0  0.15753909378E+03  0.10865605104E+03 -0.90740838455E+03  0.94623394563E+03  0.18800000000E+03 0.  0.
   -5000001    1    1    2    0    0 -0.15753909378E+03 -0.10865605104E+03 -0.46583223056E+03  0.53755778343E+03  0.18800000000E+03 0.  0.
<mgrwt>
<rscale>  0 0.56200365E+03</rscale>
<asrwt>0</asrwt>
<pdfrwt beam="1">  1        2 0.20407372E+00 0.56200365E+03</pdfrwt>
<pdfrwt beam="2">  1       -2 0.78965090E-02 0.56200365E+03</pdfrwt>
<totfact> 0.16249634E+03</totfact>
</mgrwt>
</event>
<event>
 4    1  0.5985962E-005  0.6690317E+03  0.7818608E-02  0.9771709E-01
         -2   -1    0    0    0  501 -0.00000000000E+00  0.00000000000E+00  0.48721608210E+02  0.48721608277E+02  0.25500000000E-02 0. -1.
          2   -1    0    0  501    0  0.00000000000E+00 -0.00000000000E+00 -0.22967398469E+04  0.22967398469E+04  0.25500000000E-02 0.  1.
    5000001    1    1    2    0    0 -0.36263847987E+01 -0.22655551973E+03 -0.56730771408E+03  0.63915772438E+03  0.18800000000E+03 0.  0.
   -5000001    1    1    2    0    0  0.36263847987E+01  0.22655551973E+03 -0.16807105246E+04  0.17063037308E+04  0.18800000000E+03 0.  0.
<mgrwt>
<rscale>  0 0.66903172E+03</rscale>
<asrwt>0</asrwt>
<pdfrwt beam="1">  1        2 0.32810562E+00 0.66903172E+03</pdfrwt>
<pdfrwt beam="2">  1       -2 0.69602312E-02 0.66903172E+03</pdfrwt>
<totfact> 0.71468038E+02</totfact>
</mgrwt>
</event>
<event>
 4    1  0.5985962E-005  0.8122567E+03  0.7818608E-02  0.9542444E-01
          2   -1    0    0  501    0  0.00000000000E+00  0.00000000000E+00  0.30710039990E+03  0.30710039991E+03  0.25500000000E-02 0.  1.
         -2   -1    0    0    0  501 -0.00000000000E+00 -0.00000000000E+00 -0.53708890221E+03  0.53708890222E+03  0.25500000000E-02 0. -1.
    5000001    1    1    2    0    0 -0.25221730718E+03  0.25673855426E+03 -0.10642628687E+03  0.41976041955E+03  0.18800000000E+03 0.  0.
   -5000001    1    1    2    0    0  0.25221730718E+03 -0.25673855426E+03 -0.12356221544E+03  0.42442888258E+03  0.18800000000E+03 0.  0.
<mgrwt>
<rscale>  0 0.81225665E+03</rscale>
<asrwt>0</asrwt>
<pdfrwt beam="1">  1        2 0.43871486E-01 0.81225665E+03</pdfrwt>
<pdfrwt beam="2">  1       -2 0.76726986E-01 0.81225665E+03</pdfrwt>
<totfact> 0.17760015E+02</totfact>
</mgrwt>
</event>
<event>
 4    1  0.5985962E-005  0.5404181E+03  0.7818608E-02  0.1003736E+00
         -2   -1    0    0    0  501 -0.00000000000E+00  0.00000000000E+00  0.49998462840E+02  0.49998462905E+02  0.25500000000E-02 0. -1.
          2   -1    0    0  501    0  0.00000000000E+00 -0.00000000000E+00 -0.14603037022E+04  0.14603037022E+04  0.25500000000E-02 0.  1.
    5000001    1    1    2    0    0  0.51105968500E+02  0.17639844487E+03 -0.88058958905E+03  0.91897239116E+03  0.18800000000E+03 0.  0.
   -5000001    1    1    2    0    0 -0.51105968500E+02 -0.17639844487E+03 -0.52971565026E+03  0.59132977390E+03  0.18800000000E+03 0.  0.
<mgrwt>
<rscale>  0 0.54041814E+03</rscale>
<asrwt>0</asrwt>
<pdfrwt beam="1">  1        2 0.20861479E+00 0.54041814E+03</pdfrwt>
<pdfrwt beam="2">  1       -2 0.71426385E-02 0.54041814E+03</pdfrwt>
<totfact> 0.18342456E+03</totfact>
</mgrwt>
</event>
<event>
 4    1  0.5985962E-005  0.5141339E+03  0.7818608E-02  0.1010154E+00
          2   -1    0    0  501    0  0.00000000000E+00  0.00000000000E+00  0.17655420285E+03  0.17655420286E+03  0.25500000000E-02 0.  1.
         -2   -1    0    0    0  501 -0.00000000000E+00 -0.00000000000E+00 -0.37429541856E+03  0.37429541857E+03  0.25500000000E-02 0. -1.
    5000001    1    1    2    0    0  0.15660848931E+03  0.78213257516E+02 -0.10936261492E+03  0.27919117844E+03  0.18800000000E+03 0.  0.
   -5000001    1    1    2    0    0 -0.15660848931E+03 -0.78213257516E+02 -0.88378600798E+02  0.27165844300E+03  0.18800000000E+03 0.  0.
<mgrwt>
<rscale>  0 0.51413395E+03</rscale>
<asrwt>0</asrwt>
<pdfrwt beam="1">  1        2 0.25222029E-01 0.51413395E+03</pdfrwt>
<pdfrwt beam="2">  1       -2 0.53470774E-01 0.51413395E+03</pdfrwt>
<totfact> 0.71899180E+02</totfact>
</mgrwt>
</event>
<event>
 4    1  0.5985962E-005  0.5397906E+03  0.7818608E-02  0.1003885E+00
         -2   -1    0    0    0  501 -0.00000000000E+00  0.00000000000E+00  0.18061603810E+03  0.18061603811E+03  0.25500000000E-02 0. -1.
          2   -1    0    0  501    0  0.00000000000E+00 -0.00000000000E+00 -0.40330566723E+03  0.40330566723E+03  0.25500000000E-02 0.  1.
    5000001    1    1    2    0    0  0.16695525386E+03  0.94500379181E+02 -0.82824726765E+02  0.28108417569E+03  0.18800000000E+03 0.  0.
   -5000001    1    1    2    0    0 -0.16695525386E+03 -0.94500379181E+02 -0.13986490236E+03  0.30283752966E+03  0.18800000000E+03 0.  0.
<mgrwt>
<rscale>  0 0.53979060E+03</rscale>
<asrwt>0</asrwt>
<pdfrwt beam="1">  1        2 0.57615095E-01 0.53979060E+03</pdfrwt>
<pdfrwt beam="2">  1       -2 0.25802291E-01 0.53979060E+03</pdfrwt>
<totfact> 0.11599095E+03</totfact>
</mgrwt>
</event>
<event>
 4    1  0.5985962E-005  0.4469432E+03  0.7818608E-02  0.1028638E+00
         -2   -1    0    0    0  501 -0.00000000000E+00  0.00000000000E+00  0.90247063494E+03  0.90247063494E+03  0.25500000000E-02 0. -1.
          2   -1    0    0  501    0  0.00000000000E+00 -0.00000000000E+00 -0.55336492572E+02  0.55336492631E+02  0.25500000000E-02 0.  1.
    5000001    1    1    2    0    0  0.52829076527E+02 -0.70671938508E+02  0.24671780213E+03  0.32248892710E+03  0.18800000000E+03 0.  0.
   -5000001    1    1    2    0    0 -0.52829076527E+02  0.70671938508E+02  0.60041634024E+03  0.63531820047E+03  0.18800000000E+03 0.  0.
<mgrwt>
<rscale>  0 0.44694322E+03</rscale>
<asrwt>0</asrwt>
<pdfrwt beam="1">  1        2 0.79052136E-02 0.44694322E+03</pdfrwt>
<pdfrwt beam="2">  1       -2 0.12892437E+00 0.44694322E+03</pdfrwt>
<totfact> 0.40382862E+02</totfact>
</mgrwt>
</event>
<event>
 4    1  0.5985962E-005  0.6879776E+03  0.7818608E-02  0.9738016E-01
         -2   -1    0    0    0  501 -0.00000000000E+00  0.00000000000E+00  0.72332923453E+03  0.72332923454E+03  0.25500000000E-02 0. -1.
          2   -1    0    0  501    0  0.00000000000E+00 -0.00000000000E+00 -0.16358841296E+03  0.16358841298E+03  0.25500000000E-02 0.  1.
    5000001    1    1    2    0    0  0.18755954707E+03 -0.19656701140E+03  0.15643914213E+03  0.36556036281E+03  0.18800000000E+03 0.  0.
   -5000001    1    1    2    0    0 -0.18755954707E+03  0.19656701140E+03  0.40330167944E+03  0.52135728470E+03  0.18800000000E+03 0.  0.
<mgrwt>
<rscale>  0 0.68797756E+03</rscale>
<asrwt>0</asrwt>
<pdfrwt beam="1">  1        2 0.23369773E-01 0.68797756E+03</pdfrwt>
<pdfrwt beam="2">  1       -2 0.10333275E+00 0.68797756E+03</pdfrwt>
<totfact> 0.18285793E+02</totfact>
</mgrwt>
</event>
<event>
 4    1  0.5985962E-005  0.7704529E+03  0.7818608E-02  0.9603798E-01
          2   -1    0    0  501    0  0.00000000000E+00  0.00000000000E+00  0.25202329113E+03  0.25202329114E+03  0.25500000000E-02 0.  1.
         -2   -1    0    0    0  501 -0.00000000000E+00 -0.00000000000E+00 -0.58883222681E+03  0.58883222682E+03  0.25500000000E-02 0. -1.
    5000001    1    1    2    0    0  0.98779545781E+02 -0.21386941064E+03  0.93430577593E+02  0.31554840564E+03  0.18800000000E+03 0.  0.
   -5000001    1    1    2    0    0 -0.98779545781E+02  0.21386941064E+03 -0.43023951327E+03  0.52530711232E+03  0.18800000000E+03 0.  0.
<mgrwt>
<rscale>  0 0.77045295E+03</rscale>
<asrwt>0</asrwt>
<pdfrwt beam="1">  1        2 0.36003327E-01 0.77045295E+03</pdfrwt>
<pdfrwt beam="2">  1       -2 0.84118889E-01 0.77045295E+03</pdfrwt>
<totfact> 0.18023338E+02</totfact>
</mgrwt>
</event>
<event>
 4    1  0.5985962E-005  0.6945806E+03  0.7818608E-02  0.9726545E-01
         -2   -1    0    0    0  501 -0.00000000000E+00  0.00000000000E+00  0.44539202987E+03  0.44539202988E+03  0.25500000000E-02 0. -1.
          2   -1    0    0  501    0  0.00000000000E+00 -0.00000000000E+00 -0.27079641508E+03  0.27079641509E+03  0.25500000000E-02 0.  1.
    5000001    1    1    2    0    0  0.23490551890E+03 -0.17311542574E+03  0.76144105557E+02  0.35537512328E+03  0.18800000000E+03 0.  0.
   -5000001    1    1    2    0    0 -0.23490551890E+03  0.17311542574E+03  0.98451509230E+02  0.36081332169E+03  0.18800000000E+03 0.  0.
<mgrwt>
<rscale>  0 0.69458064E+03</rscale>
<asrwt>0</asrwt>
<pdfrwt beam="1">  1        2 0.38685203E-01 0.69458064E+03</pdfrwt>
<pdfrwt beam="2">  1       -2 0.63627432E-01 0.69458064E+03</pdfrwt>
<totfact> 0.30835269E+02</totfact>
</mgrwt>
</event>
<event>
 4    1  0.5985962E-005  0.6545999E+03  0.7818608E-02  0.9798186E-01
          2   -1    0    0  501    0  0.00000000000E+00  0.00000000000E+00  0.97294102459E+03  0.97294102460E+03  0.25500000000E-02 0.  1.
         -2   -1    0    0    0  501 -0.00000000000E+00 -0.00000000000E+00 -0.11010457114E+03  0.11010457117E+03  0.25500000000E-02 0. -1.
    5000001    1    1    2    0    0  0.37459201082E+02 -0.10400802501E+03  0.83520267711E+03  0.86320818629E+03  0.18800000000E+03 0.  0.
   -5000001    1    1    2    0    0 -0.37459201082E+02  0.10400802501E+03  0.27633776339E+02  0.21983740948E+03  0.18800000000E+03 0.  0.
<mgrwt>
<rscale>  0 0.65459989E+03</rscale>
<asrwt>0</asrwt>
<pdfrwt beam="1">  1        2 0.13899157E+00 0.65459989E+03</pdfrwt>
<pdfrwt beam="2">  1       -2 0.15729225E-01 0.65459989E+03</pdfrwt>
<totfact> 0.94784160E+02</totfact>
</mgrwt>
</event>
<event>
 4    1  0.5985962E-005  0.5766580E+03  0.7818608E-02  0.9955053E-01
          2   -1    0    0  501    0  0.00000000000E+00  0.00000000000E+00  0.39684334838E+03  0.39684334839E+03  0.25500000000E-02 0.  1.
         -2   -1    0    0    0  501 -0.00000000000E+00 -0.00000000000E+00 -0.20948722962E+03  0.20948722964E+03  0.25500000000E-02 0. -1.
    5000001    1    1    2    0    0  0.18631273879E+03 -0.11431389830E+03  0.96920514390E+02  0.30416720745E+03  0.18800000000E+03 0.  0.
   -5000001    1    1    2    0    0 -0.18631273879E+03  0.11431389830E+03  0.90435604364E+02  0.30216337057E+03  0.18800000000E+03 0.  0.
<mgrwt>
<rscale>  0 0.57665800E+03</rscale>
<asrwt>0</asrwt>
<pdfrwt beam="1">  1        2 0.56691906E-01 0.57665800E+03</pdfrwt>
<pdfrwt beam="2">  1       -2 0.29926748E-01 0.57665800E+03</pdfrwt>
<totfact> 0.90108738E+02</totfact>
</mgrwt>
</event>
<event>
 4    1  0.5985962E-005  0.4662641E+03  0.7818608E-02  0.1022980E+00
         -2   -1    0    0    0  501 -0.00000000000E+00  0.00000000000E+00  0.73428076880E+02  0.73428076924E+02  0.25500000000E-02 0. -1.
          2   -1    0    0  501    0  0.00000000000E+00 -0.00000000000E+00 -0.74018749491E+03  0.74018749491E+03  0.25500000000E-02 0.  1.
    5000001    1    1    2    0    0  0.10295832827E+03 -0.71928090460E+02 -0.23416980901E+03  0.32550509521E+03  0.18800000000E+03 0.  0.
   -5000001    1    1    2    0    0 -0.10295832827E+03  0.71928090460E+02 -0.43258960902E+03  0.48811047662E+03  0.18800000000E+03 0.  0.
<mgrwt>
<rscale>  0 0.46626406E+03</rscale>
<asrwt>0</asrwt>
<pdfrwt beam="1">  1        2 0.10574107E+00 0.46626406E+03</pdfrwt>
<pdfrwt beam="2">  1       -2 0.10489726E-01 0.46626406E+03</pdfrwt>
<totfact> 0.26524236E+03</totfact>
</mgrwt>
</event>
<event>
 4    1  0.5985962E-005  0.6223406E+03  0.7818608E-02  0.9860111E-01
          2   -1    0    0  501    0  0.00000000000E+00  0.00000000000E+00  0.62330573754E+02  0.62330573806E+02  0.25500000000E-02 0.  1.
         -2   -1    0    0    0  501 -0.00000000000E+00 -0.00000000000E+00 -0.15534425216E+04  0.15534425216E+04  0.25500000000E-02 0. -1.
    5000001    1    1    2    0    0 -0.47616143662E+02 -0.21984334515E+03 -0.47468787385E+03  0.55791663457E+03  0.18800000000E+03 0.  0.
   -5000001    1    1    2    0    0  0.47616143662E+02  0.21984334515E+03 -0.10164240740E+04  0.10578564608E+04  0.18800000000E+03 0.  0.
<mgrwt>
<rscale>  0 0.62234063E+03</rscale>
<asrwt>0</asrwt>
<pdfrwt beam="1">  1        2 0.89043686E-02 0.62234063E+03</pdfrwt>
<pdfrwt beam="2">  1       -2 0.22192034E+00 0.62234063E+03</pdfrwt>
<totfact> 0.76338320E+01</totfact>
</mgrwt>
</event>
<event>
 4    1  0.5985962E-005  0.6295436E+03  0.7818608E-02  0.9845940E-01
          2   -1    0    0  501    0  0.00000000000E+00  0.00000000000E+00  0.22789710953E+03  0.22789710954E+03  0.25500000000E-02 0.  1.
         -2   -1    0    0    0  501 -0.00000000000E+00 -0.00000000000E+00 -0.43476321024E+03  0.43476321024E+03  0.25500000000E-02 0. -1.
    5000001    1    1    2    0    0 -0.11514982825E+03  0.21635866513E+03 -0.39694192004E+02  0.31143247069E+03  0.18800000000E+03 0.  0.
   -5000001    1    1    2    0    0  0.11514982825E+03 -0.21635866513E+03 -0.16717190871E+03  0.35122784910E+03  0.18800000000E+03 0.  0.
<mgrwt>
<rscale>  0 0.62954358E+03</rscale>
<asrwt>0</asrwt>
<pdfrwt beam="1">  1        2 0.32556730E-01 0.62954358E+03</pdfrwt>
<pdfrwt beam="2">  1       -2 0.62109030E-01 0.62954358E+03</pdfrwt>
<totfact> 0.39405632E+02</totfact>
</mgrwt>
</event>
<event>
 4    1  0.5985962E-005  0.4751758E+03  0.7818608E-02  0.1020469E+00
          2   -1    0    0  501    0  0.00000000000E+00  0.00000000000E+00  0.15000430288E+04  0.15000430288E+04  0.25500000000E-02 0.  1.
         -2   -1    0    0    0  501 -0.00000000000E+00 -0.00000000000E+00 -0.37630930457E+02  0.37630930543E+02  0.25500000000E-02 0. -1.
    5000001    1    1    2    0    0 -0.71937721110E+02 -0.12007390037E+03  0.60540730191E+03  0.64919548557E+03  0.18800000000E+03 0.  0.
   -5000001    1    1    2    0    0  0.71937721110E+02  0.12007390037E+03  0.85700479643E+03  0.88847847378E+03  0.18800000000E+03 0.  0.
<mgrwt>
<rscale>  0 0.47517582E+03</rscale>
<asrwt>0</asrwt>
<pdfrwt beam="1">  1        2 0.21429185E+00 0.47517582E+03</pdfrwt>
<pdfrwt beam="2">  1       -2 0.53758474E-02 0.47517582E+03</pdfrwt>
<totfact> 0.27307525E+03</totfact>
</mgrwt>
</event>
<event>
 4    1  0.5985962E-005  0.6361815E+03  0.7818608E-02  0.9833060E-01
         -2   -1    0    0    0  501 -0.00000000000E+00  0.00000000000E+00  0.41708240475E+03  0.41708240475E+03  0.25500000000E-02 0. -1.
          2   -1    0    0  501    0  0.00000000000E+00 -0.00000000000E+00 -0.24259409051E+03  0.24259409053E+03  0.25500000000E-02 0.  1.
    5000001    1    1    2    0    0  0.12323831528E+03 -0.22459227743E+03  0.10221168517E+03  0.33379724687E+03  0.18800000000E+03 0.  0.
   -5000001    1    1    2    0    0 -0.12323831528E+03  0.22459227743E+03  0.72276629059E+02  0.32587924841E+03  0.18800000000E+03 0.  0.
<mgrwt>
<rscale>  0 0.63618150E+03</rscale>
<asrwt>0</asrwt>
<pdfrwt beam="1">  1        2 0.34656299E-01 0.63618150E+03</pdfrwt>
<pdfrwt beam="2">  1       -2 0.59583200E-01 0.63618150E+03</pdfrwt>
<totfact> 0.40108157E+02</totfact>
</mgrwt>
</event>
<event>
 4    1  0.5985962E-005  0.6846909E+03  0.7818608E-02  0.9743777E-01
         -2   -1    0    0    0  501 -0.00000000000E+00  0.00000000000E+00  0.81297251957E+02  0.81297251997E+02  0.25500000000E-02 0. -1.
          2   -1    0    0  501    0  0.00000000000E+00 -0.00000000000E+00 -0.14416280523E+04  0.14416280523E+04  0.25500000000E-02 0.  1.
    5000001    1    1    2    0    0 -0.26340508976E+03  0.46354003565E+02 -0.45414957332E+03  0.55957731361E+03  0.18800000000E+03 0.  0.
   -5000001    1    1    2    0    0  0.26340508976E+03 -0.46354003565E+02 -0.90618122707E+03  0.96334799074E+03  0.18800000000E+03 0.  0.
<mgrwt>
<rscale>  0 0.68469088E+03</rscale>
<asrwt>0</asrwt>
<pdfrwt beam="1">  1        2 0.20594685E+00 0.68469088E+03</pdfrwt>
<pdfrwt beam="2">  1       -2 0.11613894E-01 0.68469088E+03</pdfrwt>
<totfact> 0.85327871E+02</totfact>
</mgrwt>
</event>
<event>
 4    1  0.5985962E-005  0.7266953E+03  0.7818608E-02  0.9672638E-01
         -2   -1    0    0    0  501 -0.00000000000E+00  0.00000000000E+00  0.12678201376E+03  0.12678201378E+03  0.25500000000E-02 0. -1.
          2   -1    0    0  501    0  0.00000000000E+00 -0.00000000000E+00 -0.10413268131E+04  0.10413268131E+04  0.25500000000E-02 0.  1.
    5000001    1    1    2    0    0  0.16598559027E+03  0.23424715534E+03 -0.64918696504E+03  0.73430964963E+03  0.18800000000E+03 0.  0.
   -5000001    1    1    2    0    0 -0.16598559027E+03 -0.23424715534E+03 -0.26535783431E+03  0.43379917726E+03  0.18800000000E+03 0.  0.
<mgrwt>
<rscale>  0 0.72669529E+03</rscale>
<asrwt>0</asrwt>
<pdfrwt beam="1">  1        2 0.14876097E+00 0.72669529E+03</pdfrwt>
<pdfrwt beam="2">  1       -2 0.18111717E-01 0.72669529E+03</pdfrwt>
<totfact> 0.67494841E+02</totfact>
</mgrwt>
</event>
<event>
 4    1  0.5985962E-005  0.7210967E+03  0.7818608E-02  0.9681819E-01
         -2   -1    0    0    0  501 -0.00000000000E+00  0.00000000000E+00  0.40694148819E+02  0.40694148899E+02  0.25500000000E-02 0. -1.
          2   -1    0    0  501    0  0.00000000000E+00 -0.00000000000E+00 -0.31944419692E+04  0.31944419692E+04  0.25500000000E-02 0.  1.
    5000001    1    1    2    0    0  0.12830074740E+03  0.27921147678E+03 -0.15086913118E+04  0.15511007720E+04  0.18800000000E+03 0.  0.
   -5000001    1    1    2    0    0 -0.12830074740E+03 -0.27921147678E+03 -0.16450565086E+04  0.16840353461E+04  0.18800000000E+03 0.  0.
<mgrwt>
<rscale>  0 0.72109666E+03</rscale>
<asrwt>0</asrwt>
<pdfrwt beam="1">  1        2 0.45634869E+00 0.72109666E+03</pdfrwt>
<pdfrwt beam="2">  1       -2 0.58134519E-02 0.72109666E+03</pdfrwt>
<totfact> 0.31533678E+02</totfact>
</mgrwt>
</event>
<event>
 4    1  0.5985962E-005  0.9253381E+03  0.7818608E-02  0.9394450E-01
          2   -1    0    0  501    0  0.00000000000E+00  0.00000000000E+00  0.38146504419E+03  0.38146504420E+03  0.25500000000E-02 0.  1.
         -2   -1    0    0    0  501 -0.00000000000E+00 -0.00000000000E+00 -0.56115928067E+03  0.56115928068E+03  0.25500000000E-02 0. -1.
    5000001    1    1    2    0    0 -0.48901959439E+02 -0.39186497787E+03 -0.24356026364E+03  0.50061478658E+03  0.18800000000E+03 0.  0.
   -5000001    1    1    2    0    0  0.48901959439E+02  0.39186497787E+03  0.63866027159E+02  0.44200953830E+03  0.18800000000E+03 0.  0.
<mgrwt>
<rscale>  0 0.92533810E+03</rscale>
<asrwt>0</asrwt>
<pdfrwt beam="1">  1        2 0.54495006E-01 0.92533810E+03</pdfrwt>
<pdfrwt beam="2">  1       -2 0.80165612E-01 0.92533810E+03</pdfrwt>
<totfact> 0.12584681E+02</totfact>
</mgrwt>
</event>
<event>
 4    1  0.5985962E-005  0.5668589E+03  0.7818608E-02  0.9976654E-01
          2   -1    0    0  501    0  0.00000000000E+00  0.00000000000E+00  0.67386494087E+03  0.67386494088E+03  0.25500000000E-02 0.  1.
         -2   -1    0    0    0  501 -0.00000000000E+00 -0.00000000000E+00 -0.11921121815E+03  0.11921121817E+03  0.25500000000E-02 0. -1.
    5000001    1    1    2    0    0  0.18447791665E+03 -0.82910511640E+02  0.18793937720E+03  0.33402314916E+03  0.18800000000E+03 0.  0.
   -5000001    1    1    2    0    0 -0.18447791665E+03  0.82910511640E+02  0.36671434553E+03  0.45905300989E+03  0.18800000000E+03 0.  0.
<mgrwt>
<rscale>  0 0.56685893E+03</rscale>
<asrwt>0</asrwt>
<pdfrwt beam="1">  1        2 0.96266420E-01 0.56685893E+03</pdfrwt>
<pdfrwt beam="2">  1       -2 0.17030174E-01 0.56685893E+03</pdfrwt>
<totfact> 0.13315275E+03</totfact>
</mgrwt>
</event>
<event>
 4    1  0.5985962E-005  0.7669742E+03  0.7818608E-02  0.9609091E-01
         -2   -1    0    0    0  501 -0.00000000000E+00  0.00000000000E+00  0.40001036727E+02  0.40001036808E+02  0.25500000000E-02 0. -1.
          2   -1    0    0  501    0  0.00000000000E+00 -0.00000000000E+00 -0.36764634049E+04  0.36764634049E+04  0.25500000000E-02 0.  1.
    5000001    1    1    2    0    0  0.14432489993E+03  0.19538673563E+03 -0.29307486746E+04  0.29468012228E+04  0.18800000000E+03 0.  0.
   -5000001    1    1    2    0    0 -0.14432489993E+03 -0.19538673563E+03 -0.70571369359E+03  0.76966321890E+03  0.18800000000E+03 0.  0.
<mgrwt>
<rscale>  0 0.76697418E+03</rscale>
<asrwt>0</asrwt>
<pdfrwt beam="1">  1        2 0.52520885E+00 0.76697418E+03</pdfrwt>
<pdfrwt beam="2">  1       -2 0.57144361E-02 0.76697418E+03</pdfrwt>
<totfact> 0.16734091E+02</totfact>
</mgrwt>
</event>
<event>
 4    1  0.5985962E-005  0.5536755E+03  0.7818608E-02  0.1000647E+00
         -2   -1    0    0    0  501 -0.00000000000E+00  0.00000000000E+00  0.33727961075E+02  0.33727961171E+02  0.25500000000E-02 0. -1.
          2   -1    0    0  501    0  0.00000000000E+00 -0.00000000000E+00 -0.22722735182E+04  0.22722735182E+04  0.25500000000E-02 0.  1.
    5000001    1    1    2    0    0 -0.10085126034E+03  0.16705524826E+03 -0.88305592446E+03  0.92369377957E+03  0.18800000000E+03 0.  0.
   -5000001    1    1    2    0    0  0.10085126034E+03 -0.16705524826E+03 -0.13554896327E+04  0.13823076998E+04  0.18800000000E+03 0.  0.
<mgrwt>
<rscale>  0 0.55367555E+03</rscale>
<asrwt>0</asrwt>
<pdfrwt beam="1">  1        2 0.32461041E+00 0.55367555E+03</pdfrwt>
<pdfrwt beam="2">  1       -2 0.48182816E-02 0.55367555E+03</pdfrwt>
<totfact> 0.13169947E+03</totfact>
</mgrwt>
</event>
<event>
 4    1  0.5985962E-005  0.6867088E+03  0.7818608E-02  0.9740236E-01
         -2   -1    0    0    0  501 -0.00000000000E+00  0.00000000000E+00  0.16197892842E+03  0.16197892844E+03  0.25500000000E-02 0. -1.
          2   -1    0    0  501    0  0.00000000000E+00 -0.00000000000E+00 -0.72782465848E+03  0.72782465848E+03  0.25500000000E-02 0.  1.
    5000001    1    1    2    0    0 -0.28225023593E+03  0.16604628449E+02 -0.21675896635E+03  0.40282671071E+03  0.18800000000E+03 0.  0.
   -5000001    1    1    2    0    0  0.28225023593E+03 -0.16604628449E+02 -0.34908676371E+03  0.48697687622E+03  0.18800000000E+03 0.  0.
<mgrwt>
<rscale>  0 0.68670884E+03</rscale>
<asrwt>0</asrwt>
<pdfrwt beam="1">  1        2 0.10397495E+00 0.68670884E+03</pdfrwt>
<pdfrwt beam="2">  1       -2 0.23139847E-01 0.68670884E+03</pdfrwt>
<totfact> 0.70879202E+02</totfact>
</mgrwt>
</event>
<event>
 4    1  0.5985962E-005  0.6383496E+03  0.7818608E-02  0.9828889E-01
         -2   -1    0    0    0  501 -0.00000000000E+00  0.00000000000E+00  0.10958844806E+03  0.10958844809E+03  0.25500000000E-02 0. -1.
          2   -1    0    0  501    0  0.00000000000E+00 -0.00000000000E+00 -0.92959218080E+03  0.92959218080E+03  0.25500000000E-02 0.  1.
    5000001    1    1    2    0    0 -0.77138306323E+02 -0.24446871416E+03 -0.36357640861E+03  0.48295659784E+03  0.18800000000E+03 0.  0.
   -5000001    1    1    2    0    0  0.77138306323E+02  0.24446871416E+03 -0.45642732412E+03  0.55622403104E+03  0.18800000000E+03 0.  0.
<mgrwt>
<rscale>  0 0.63834964E+03</rscale>
<asrwt>0</asrwt>
<pdfrwt beam="1">  1        2 0.13279888E+00 0.63834964E+03</pdfrwt>
<pdfrwt beam="2">  1       -2 0.15655493E-01 0.63834964E+03</pdfrwt>
<totfact> 0.10175951E+03</totfact>
</mgrwt>
</event>
<event>
 4    1  0.5985962E-005  0.1122723E+04  0.7818608E-02  0.9183323E-01
          2   -1    0    0  501    0  0.00000000000E+00  0.00000000000E+00  0.11357666781E+04  0.11357666781E+04  0.25500000000E-02 0.  1.
         -2   -1    0    0    0  501 -0.00000000000E+00 -0.00000000000E+00 -0.27745734291E+03  0.27745734292E+03  0.25500000000E-02 0. -1.
    5000001    1    1    2    0    0 -0.45298126530E+03  0.86321316344E+02  0.75531196280E+03  0.90470081105E+03  0.18800000000E+03 0.  0.
   -5000001    1    1    2    0    0  0.45298126530E+03 -0.86321316344E+02  0.10299737240E+03  0.50852320998E+03  0.18800000000E+03 0.  0.
<mgrwt>
<rscale>  0 0.11227231E+04</rscale>
<asrwt>0</asrwt>
<pdfrwt beam="1">  1        2 0.16225238E+00 0.11227231E+04</pdfrwt>
<pdfrwt beam="2">  1       -2 0.39636763E-01 0.11227231E+04</pdfrwt>
<totfact> 0.13879796E+02</totfact>
</mgrwt>
</event>
<event>
 4    1  0.5985962E-005  0.8147011E+03  0.7818608E-02  0.9538978E-01
         -2   -1    0    0    0  501 -0.00000000000E+00  0.00000000000E+00  0.64936145395E+02  0.64936145445E+02  0.25500000000E-02 0. -1.
          2   -1    0    0  501    0  0.00000000000E+00 -0.00000000000E+00 -0.25553483882E+04  0.25553483882E+04  0.25500000000E-02 0.  1.
    5000001    1    1    2    0    0 -0.19077655684E+03 -0.23669989155E+03 -0.18735530738E+04  0.19073457090E+04  0.18800000000E+03 0.  0.
   -5000001    1    1    2    0    0  0.19077655684E+03  0.23669989155E+03 -0.61685916899E+03  0.71293882463E+03  0.18800000000E+03 0.  0.
<mgrwt>
<rscale>  0 0.81470111E+03</rscale>
<asrwt>0</asrwt>
<pdfrwt beam="1">  1        2 0.36504971E+00 0.81470111E+03</pdfrwt>
<pdfrwt beam="2">  1       -2 0.92765938E-02 0.81470111E+03</pdfrwt>
<totfact> 0.32859049E+02</totfact>
</mgrwt>
</event>
<event>
 4    1  0.5985962E-005  0.6275140E+03  0.7818608E-02  0.9849912E-01
         -2   -1    0    0    0  501 -0.00000000000E+00  0.00000000000E+00  0.10313455482E+03  0.10313455485E+03  0.25500000000E-02 0. -1.
          2   -1    0    0  501    0  0.00000000000E+00 -0.00000000000E+00 -0.95451466907E+03  0.95451466907E+03  0.25500000000E-02 0.  1.
    5000001    1    1    2    0    0  0.48577658226E+02 -0.11704425593E+03 -0.79124553173E+03  0.82308726038E+03  0.18800000000E+03 0.  0.
   -5000001    1    1    2    0    0 -0.48577658226E+02  0.11704425593E+03 -0.60134582523E+02  0.23456196354E+03  0.18800000000E+03 0.  0.
<mgrwt>
<rscale>  0 0.62751397E+03</rscale>
<asrwt>0</asrwt>
<pdfrwt beam="1">  1        2 0.13635923E+00 0.62751397E+03</pdfrwt>
<pdfrwt beam="2">  1       -2 0.14733508E-01 0.62751397E+03</pdfrwt>
<totfact> 0.10875829E+03</totfact>
</mgrwt>
</event>
<event>
 4    1  0.5985962E-005  0.4145117E+03  0.7818608E-02  0.1038868E+00
          2   -1    0    0  501    0  0.00000000000E+00  0.00000000000E+00  0.76728153437E+03  0.76728153438E+03  0.25500000000E-02 0.  1.
         -2   -1    0    0    0  501 -0.00000000000E+00 -0.00000000000E+00 -0.55983333185E+02  0.55983333243E+02  0.25500000000E-02 0. -1.
    5000001    1    1    2    0    0 -0.55093506269E+01 -0.86754160634E+02  0.34100830860E+03  0.39898283655E+03  0.18800000000E+03 0.  0.
   -5000001    1    1    2    0    0  0.55093506269E+01  0.86754160634E+02  0.37028989259E+03  0.42428203107E+03  0.18800000000E+03 0.  0.
<mgrwt>
<rscale>  0 0.41451165E+03</rscale>
<asrwt>0</asrwt>
<pdfrwt beam="1">  1        2 0.10961164E+00 0.41451165E+03</pdfrwt>
<pdfrwt beam="2">  1       -2 0.79976195E-02 0.41451165E+03</pdfrwt>
<totfact> 0.39090518E+03</totfact>
</mgrwt>
</event>
<event>
 4    1  0.5985962E-005  0.4203795E+03  0.7818608E-02  0.1036943E+00
          2   -1    0    0  501    0  0.00000000000E+00  0.00000000000E+00  0.91699906266E+02  0.91699906302E+02  0.25500000000E-02 0.  1.
         -2   -1    0    0    0  501 -0.00000000000E+00 -0.00000000000E+00 -0.48178599174E+03  0.48178599175E+03  0.25500000000E-02 0. -1.
    5000001    1    1    2    0    0 -0.50498344956E+02  0.42255495381E+02 -0.28655825510E+03  0.34899175248E+03  0.18800000000E+03 0.  0.
   -5000001    1    1    2    0    0  0.50498344956E+02 -0.42255495381E+02 -0.10352783038E+03  0.22449414557E+03  0.18800000000E+03 0.  0.
<mgrwt>
<rscale>  0 0.42037950E+03</rscale>
<asrwt>0</asrwt>
<pdfrwt beam="1">  1        2 0.13099987E-01 0.42037950E+03</pdfrwt>
<pdfrwt beam="2">  1       -2 0.68826569E-01 0.42037950E+03</pdfrwt>
<totfact> 0.91505343E+02</totfact>
</mgrwt>
</event>
<event>
 4    1  0.5985962E-005  0.8427748E+03  0.7818608E-02  0.9500086E-01
         -2   -1    0    0    0  501 -0.00000000000E+00  0.00000000000E+00  0.60850937225E+02  0.60850937278E+02  0.25500000000E-02 0. -1.
          2   -1    0    0  501    0  0.00000000000E+00 -0.00000000000E+00 -0.29180706825E+04  0.29180706825E+04  0.25500000000E-02 0.  1.
    5000001    1    1    2    0    0  0.32688798991E+03  0.18539984960E+03 -0.15400763350E+04  0.15963733836E+04  0.18800000000E+03 0.  0.
   -5000001    1    1    2    0    0 -0.32688798991E+03 -0.18539984960E+03 -0.13171434102E+04  0.13825482362E+04  0.18800000000E+03 0.  0.
<mgrwt>
<rscale>  0 0.84277479E+03</rscale>
<asrwt>0</asrwt>
<pdfrwt beam="1">  1        2 0.41686715E+00 0.84277479E+03</pdfrwt>
<pdfrwt beam="2">  1       -2 0.86929929E-02 0.84277479E+03</pdfrwt>
<totfact> 0.23367789E+02</totfact>
</mgrwt>
</event>
<event>
 4    1  0.5985962E-005  0.4553199E+03  0.7818608E-02  0.1026147E+00
         -2   -1    0    0    0  501 -0.00000000000E+00  0.00000000000E+00  0.85434476103E+02  0.85434476141E+02  0.25500000000E-02 0. -1.
          2   -1    0    0  501    0  0.00000000000E+00 -0.00000000000E+00 -0.60665257113E+03  0.60665257114E+03  0.25500000000E-02 0.  1.
    5000001    1    1    2    0    0  0.69084187356E+02 -0.65208250078E+02 -0.39189624573E+03  0.44491730494E+03  0.18800000000E+03 0.  0.
   -5000001    1    1    2    0    0 -0.69084187356E+02  0.65208250078E+02 -0.12932184930E+03  0.24716974234E+03  0.18800000000E+03 0.  0.
<mgrwt>
<rscale>  0 0.45531986E+03</rscale>
<asrwt>0</asrwt>
<pdfrwt beam="1">  1        2 0.86664650E-01 0.45531986E+03</pdfrwt>
<pdfrwt beam="2">  1       -2 0.12204926E-01 0.45531986E+03</pdfrwt>
<totfact> 0.26305708E+03</totfact>
</mgrwt>
</event>
<event>
 4    1  0.5985962E-005  0.4635792E+03  0.7818608E-02  0.1023748E+00
          2   -1    0    0  501    0  0.00000000000E+00  0.00000000000E+00  0.13855466297E+04  0.13855466297E+04  0.25500000000E-02 0.  1.
         -2   -1    0    0    0  501 -0.00000000000E+00 -0.00000000000E+00 -0.38776335485E+02  0.38776335568E+02  0.25500000000E-02 0. -1.
    5000001    1    1    2    0    0  0.35651754278E+02  0.13076021071E+03  0.66224748495E+03  0.70163025277E+03  0.18800000000E+03 0.  0.
   -5000001    1    1    2    0    0 -0.35651754278E+02 -0.13076021071E+03  0.68452280926E+03  0.72269271249E+03  0.18800000000E+03 0.  0.
<mgrwt>
<rscale>  0 0.46357921E+03</rscale>
<asrwt>0</asrwt>
<pdfrwt beam="1">  1        2 0.19793528E+00 0.46357921E+03</pdfrwt>
<pdfrwt beam="2">  1       -2 0.55394753E-02 0.46357921E+03</pdfrwt>
<totfact> 0.29916300E+03</totfact>
</mgrwt>
</event>
<event>
 4    1  0.5985962E-005  0.7526072E+03  0.7818608E-02  0.9631269E-01
         -2   -1    0    0    0  501 -0.00000000000E+00  0.00000000000E+00  0.19534931863E+03  0.19534931864E+03  0.25500000000E-02 0. -1.
          2   -1    0    0  501    0  0.00000000000E+00 -0.00000000000E+00 -0.72487790988E+03  0.72487790988E+03  0.25500000000E-02 0.  1.
    5000001    1    1    2    0    0  0.21423619797E+03  0.16131592980E+03 -0.49134845928E+03  0.59049749040E+03  0.18800000000E+03 0.  0.
   -5000001    1    1    2    0    0 -0.21423619797E+03 -0.16131592980E+03 -0.38180131967E+02  0.32972973812E+03  0.18800000000E+03 0.  0.
<mgrwt>
<rscale>  0 0.75260722E+03</rscale>
<asrwt>0</asrwt>
<pdfrwt beam="1">  1        2 0.10355399E+00 0.75260722E+03</pdfrwt>
<pdfrwt beam="2">  1       -2 0.27907046E-01 0.75260722E+03</pdfrwt>
<totfact> 0.50693156E+02</totfact>
</mgrwt>
</event>
<event>
 4    1  0.5985962E-005  0.5473902E+03  0.7818608E-02  0.1002100E+00
         -2   -1    0    0    0  501 -0.00000000000E+00  0.00000000000E+00  0.10983887159E+03  0.10983887162E+03  0.25500000000E-02 0. -1.
          2   -1    0    0  501    0  0.00000000000E+00 -0.00000000000E+00 -0.68199006427E+03  0.68199006428E+03  0.25500000000E-02 0.  1.
    5000001    1    1    2    0    0  0.53879091173E+02 -0.19074974744E+03 -0.31013349288E+03  0.41329796276E+03  0.18800000000E+03 0.  0.
   -5000001    1    1    2    0    0 -0.53879091173E+02  0.19074974744E+03 -0.26201769980E+03  0.37853097313E+03  0.18800000000E+03 0.  0.
<mgrwt>
<rscale>  0 0.54739024E+03</rscale>
<asrwt>0</asrwt>
<pdfrwt beam="1">  1        2 0.97427149E-01 0.54739024E+03</pdfrwt>
<pdfrwt beam="2">  1       -2 0.15691268E-01 0.54739024E+03</pdfrwt>
<totfact> 0.15081321E+03</totfact>
</mgrwt>
</event>
<event>
 4    1  0.5985962E-005  0.9906256E+03  0.7818608E-02  0.9318887E-01
          2   -1    0    0  501    0  0.00000000000E+00  0.00000000000E+00  0.42090257995E+04  0.42090257995E+04  0.25500000000E-02 0.  1.
         -2   -1    0    0    0  501 -0.00000000000E+00 -0.00000000000E+00 -0.58287782492E+02  0.58287782548E+02  0.25500000000E-02 0. -1.
    5000001    1    1    2    0    0 -0.40127721548E+03  0.86320581942E+01  0.11228629603E+04  0.12071715469E+04  0.18800000000E+03 0.  0.
   -5000001    1    1    2    0    0  0.40127721548E+03 -0.86320581942E+01  0.30278750567E+04  0.30601420351E+04  0.18800000000E+03 0.  0.
<mgrwt>
<rscale>  0 0.99062562E+03</rscale>
<asrwt>0</asrwt>
<pdfrwt beam="1">  1        2 0.60128978E+00 0.99062562E+03</pdfrwt>
<pdfrwt beam="2">  1       -2 0.83268209E-02 0.99062562E+03</pdfrwt>
<totfact> 0.39560353E+01</totfact>
</mgrwt>
</event>
<event>
 4    1  0.5985962E-005  0.5287335E+03  0.7818608E-02  0.1006540E+00
         -2   -1    0    0    0  501 -0.00000000000E+00  0.00000000000E+00  0.97917479200E+02  0.97917479233E+02  0.25500000000E-02 0. -1.
          2   -1    0    0  501    0  0.00000000000E+00 -0.00000000000E+00 -0.71376202218E+03  0.71376202218E+03  0.25500000000E-02 0.  1.
    5000001    1    1    2    0    0 -0.98916704580E+02 -0.15015424611E+03 -0.23567336557E+03  0.35102243135E+03  0.18800000000E+03 0.  0.
   -5000001    1    1    2    0    0  0.98916704580E+02  0.15015424611E+03 -0.38017117741E+03  0.46065707007E+03  0.18800000000E+03 0.  0.
<mgrwt>
<rscale>  0 0.52873350E+03</rscale>
<asrwt>0</asrwt>
<pdfrwt beam="1">  1        2 0.10196600E+00 0.52873350E+03</pdfrwt>
<pdfrwt beam="2">  1       -2 0.13988212E-01 0.52873350E+03</pdfrwt>
<totfact> 0.17300986E+03</totfact>
</mgrwt>
</event>
<event>
 4    1  0.5985962E-005  0.5642579E+03  0.7818608E-02  0.9982466E-01
          2   -1    0    0  501    0  0.00000000000E+00  0.00000000000E+00  0.47807394901E+03  0.47807394902E+03  0.25500000000E-02 0.  1.
         -2   -1    0    0    0  501 -0.00000000000E+00 -0.00000000000E+00 -0.16649460464E+03  0.16649460466E+03  0.25500000000E-02 0. -1.
    5000001    1    1    2    0    0 -0.20567625322E+03  0.47281150111E+01  0.10563558065E+03  0.29804018539E+03  0.18800000000E+03 0.  0.
   -5000001    1    1    2    0    0  0.20567625322E+03 -0.47281150111E+01  0.20594376372E+03  0.34652836829E+03  0.18800000000E+03 0.  0.
<mgrwt>
<rscale>  0 0.56425786E+03</rscale>
<asrwt>0</asrwt>
<pdfrwt beam="1">  1        2 0.68296280E-01 0.56425786E+03</pdfrwt>
<pdfrwt beam="2">  1       -2 0.23784943E-01 0.56425786E+03</pdfrwt>
<totfact> 0.11095423E+03</totfact>
</mgrwt>
</event>
<event>
 4    1  0.5985962E-005  0.4029288E+03  0.7818608E-02  0.1042770E+00
         -2   -1    0    0    0  501 -0.00000000000E+00  0.00000000000E+00  0.14772584304E+03  0.14772584306E+03  0.25500000000E-02 0. -1.
          2   -1    0    0  501    0  0.00000000000E+00 -0.00000000000E+00 -0.27475156077E+03  0.27475156078E+03  0.25500000000E-02 0.  1.
    5000001    1    1    2    0    0  0.20064874417E+02  0.60413514258E+02 -0.27319844712E+02  0.20035659661E+03  0.18800000000E+03 0.  0.
   -5000001    1    1    2    0    0 -0.20064874417E+02 -0.60413514258E+02 -0.99705873024E+02  0.22212080723E+03  0.18800000000E+03 0.  0.
<mgrwt>
<rscale>  0 0.40292881E+03</rscale>
<asrwt>0</asrwt>
<pdfrwt beam="1">  1        2 0.39250223E-01 0.40292881E+03</pdfrwt>
<pdfrwt beam="2">  1       -2 0.21103692E-01 0.40292881E+03</pdfrwt>
<totfact> 0.25167367E+03</totfact>
</mgrwt>
</event>
<event>
 4    1  0.5985962E-005  0.4081116E+03  0.7818608E-02  0.1041007E+00
         -2   -1    0    0    0  501 -0.00000000000E+00  0.00000000000E+00  0.53758623687E+02  0.53758623748E+02  0.25500000000E-02 0. -1.
          2   -1    0    0  501    0  0.00000000000E+00 -0.00000000000E+00 -0.77455035868E+03  0.77455035869E+03  0.25500000000E-02 0.  1.
    5000001    1    1    2    0    0  0.64270807114E+02  0.29999760537E+02 -0.28823633469E+03  0.35136150460E+03  0.18800000000E+03 0.  0.
   -5000001    1    1    2    0    0 -0.64270807114E+02 -0.29999760537E+02 -0.43255540030E+03  0.47694747783E+03  0.18800000000E+03 0.  0.
<mgrwt>
<rscale>  0 0.40811156E+03</rscale>
<asrwt>0</asrwt>
<pdfrwt beam="1">  1        2 0.11065004E+00 0.40811156E+03</pdfrwt>
<pdfrwt beam="2">  1       -2 0.76798038E-02 0.40811156E+03</pdfrwt>
<totfact> 0.41177584E+03</totfact>
</mgrwt>
</event>
<event>
 4    1  0.5985962E-005  0.7387773E+03  0.7818608E-02  0.9653123E-01
          2   -1    0    0  501    0  0.00000000000E+00  0.00000000000E+00  0.87882638761E+03  0.87882638761E+03  0.25500000000E-02 0.  1.
         -2   -1    0    0    0  501 -0.00000000000E+00 -0.00000000000E+00 -0.15526157233E+03  0.15526157236E+03  0.25500000000E-02 0. -1.
    5000001    1    1    2    0    0  0.27416213258E+01  0.31058898489E+03  0.26652951170E+03  0.45039428796E+03  0.18800000000E+03 0.  0.
   -5000001    1    1    2    0    0 -0.27416213258E+01 -0.31058898489E+03  0.45703530358E+03  0.58369367201E+03  0.18800000000E+03 0.  0.
<mgrwt>
<rscale>  0 0.73877728E+03</rscale>
<asrwt>0</asrwt>
<pdfrwt beam="1">  1        2 0.12554663E+00 0.73877728E+03</pdfrwt>
<pdfrwt beam="2">  1       -2 0.22180225E-01 0.73877728E+03</pdfrwt>
<totfact> 0.59872224E+02</totfact>
</mgrwt>
</event>
<event>
 4    1  0.5985962E-005  0.7816814E+03  0.7818608E-02  0.9586918E-01
         -2   -1    0    0    0  501 -0.00000000000E+00  0.00000000000E+00  0.59594852324E+03  0.59594852325E+03  0.25500000000E-02 0. -1.
          2   -1    0    0  501    0  0.00000000000E+00 -0.00000000000E+00 -0.25632492539E+03  0.25632492540E+03  0.25500000000E-02 0.  1.
    5000001    1    1    2    0    0  0.23596150972E+03 -0.25656026368E+02 -0.99642965430E+02  0.31876133128E+03  0.18800000000E+03 0.  0.
   -5000001    1    1    2    0    0 -0.23596150972E+03  0.25656026368E+02  0.43926656329E+03  0.53351211737E+03  0.18800000000E+03 0.  0.
<mgrwt>
<rscale>  0 0.78168142E+03</rscale>
<asrwt>0</asrwt>
<pdfrwt beam="1">  1        2 0.36617846E-01 0.78168142E+03</pdfrwt>
<pdfrwt beam="2">  1       -2 0.85135504E-01 0.78168142E+03</pdfrwt>
<totfact> 0.17202312E+02</totfact>
</mgrwt>
</event>
<event>
 4    1  0.5985962E-005  0.4406720E+03  0.7818608E-02  0.1030541E+00
         -2   -1    0    0    0  501 -0.00000000000E+00  0.00000000000E+00  0.18668520019E+03  0.18668520021E+03  0.25500000000E-02 0. -1.
          2   -1    0    0  501    0  0.00000000000E+00 -0.00000000000E+00 -0.26005252731E+03  0.26005252733E+03  0.25500000000E-02 0.  1.
    5000001    1    1    2    0    0  0.91063859225E+02  0.70056071324E+02 -0.38574420874E+02  0.22367938111E+03  0.18800000000E+03 0.  0.
   -5000001    1    1    2    0    0 -0.91063859225E+02 -0.70056071324E+02 -0.34792906249E+02  0.22305834643E+03  0.18800000000E+03 0.  0.
<mgrwt>
<rscale>  0 0.44067202E+03</rscale>
<asrwt>0</asrwt>
<pdfrwt beam="1">  1        2 0.37150361E-01 0.44067202E+03</pdfrwt>
<pdfrwt beam="2">  1       -2 0.26669314E-01 0.44067202E+03</pdfrwt>
<totfact> 0.17688742E+03</totfact>
</mgrwt>
</event>
<event>
 4    1  0.5985962E-005  0.4027405E+03  0.7818608E-02  0.1042835E+00
         -2   -1    0    0    0  501 -0.00000000000E+00  0.00000000000E+00  0.43202439024E+03  0.43202439025E+03  0.25500000000E-02 0. -1.
          2   -1    0    0  501    0  0.00000000000E+00 -0.00000000000E+00 -0.93860384018E+02  0.93860384053E+02  0.25500000000E-02 0.  1.
    5000001    1    1    2    0    0  0.22139267269E+02 -0.54787925998E+02  0.22314309345E+03  0.29770573415E+03  0.18800000000E+03 0.  0.
   -5000001    1    1    2    0    0 -0.22139267269E+02  0.54787925998E+02  0.11502091277E+03  0.22817904015E+03  0.18800000000E+03 0.  0.
<mgrwt>
<rscale>  0 0.40274049E+03</rscale>
<asrwt>0</asrwt>
<pdfrwt beam="1">  1        2 0.13408626E-01 0.40274049E+03</pdfrwt>
<pdfrwt beam="2">  1       -2 0.61717771E-01 0.40274049E+03</pdfrwt>
<totfact> 0.11210120E+03</totfact>
</mgrwt>
</event>
<event>
 4    1  0.5985962E-005  0.5201239E+03  0.7818608E-02  0.1008656E+00
         -2   -1    0    0    0  501 -0.00000000000E+00  0.00000000000E+00  0.29610402678E+02  0.29610402788E+02  0.25500000000E-02 0. -1.
          2   -1    0    0  501    0  0.00000000000E+00 -0.00000000000E+00 -0.22840698541E+04  0.22840698541E+04  0.25500000000E-02 0.  1.
    5000001    1    1    2    0    0 -0.11968808070E+03  0.12900193887E+03 -0.12889366665E+04  0.13144080292E+04  0.18800000000E+03 0.  0.
   -5000001    1    1    2    0    0  0.11968808070E+03 -0.12900193887E+03 -0.96552278493E+03  0.99927222773E+03  0.18800000000E+03 0.  0.
<mgrwt>
<rscale>  0 0.52012394E+03</rscale>
<asrwt>0</asrwt>
<pdfrwt beam="1">  1        2 0.32629558E+00 0.52012394E+03</pdfrwt>
<pdfrwt beam="2">  1       -2 0.42300590E-02 0.52012394E+03</pdfrwt>
<totfact> 0.15907755E+03</totfact>
</mgrwt>
</event>
<event>
 4    1  0.5985962E-005  0.4966999E+03  0.7818608E-02  0.1014644E+00
         -2   -1    0    0    0  501 -0.00000000000E+00  0.00000000000E+00  0.52755105161E+02  0.52755105223E+02  0.25500000000E-02 0. -1.
          2   -1    0    0  501    0  0.00000000000E+00 -0.00000000000E+00 -0.11691322679E+04  0.11691322679E+04  0.25500000000E-02 0.  1.
    5000001    1    1    2    0    0  0.24692884167E+02  0.13242330675E+03 -0.33558779558E+03  0.40756452156E+03  0.18800000000E+03 0.  0.
   -5000001    1    1    2    0    0 -0.24692884167E+02 -0.13242330675E+03 -0.78078936714E+03  0.81432285154E+03  0.18800000000E+03 0.  0.
<mgrwt>
<rscale>  0 0.49669989E+03</rscale>
<asrwt>0</asrwt>
<pdfrwt beam="1">  1        2 0.16701888E+00 0.49669989E+03</pdfrwt>
<pdfrwt beam="2">  1       -2 0.75364443E-02 0.49669989E+03</pdfrwt>
<totfact> 0.24222583E+03</totfact>
</mgrwt>
</event>
<event>
 4    1  0.5985962E-005  0.9229934E+03  0.7818608E-02  0.9397286E-01
         -2   -1    0    0    0  501 -0.00000000000E+00  0.00000000000E+00  0.56860292446E+03  0.56860292446E+03  0.25500000000E-02 0. -1.
          2   -1    0    0  501    0  0.00000000000E+00 -0.00000000000E+00 -0.37456577069E+03  0.37456577070E+03  0.25500000000E-02 0.  1.
    5000001    1    1    2    0    0 -0.20852043888E+03 -0.19900063898E+03  0.41123496259E+03  0.53622777082E+03  0.18800000000E+03 0.  0.
   -5000001    1    1    2    0    0  0.20852043888E+03  0.19900063898E+03 -0.21719780882E+03  0.40694092434E+03  0.18800000000E+03 0.  0.
<mgrwt>
<rscale>  0 0.92299338E+03</rscale>
<asrwt>0</asrwt>
<pdfrwt beam="1">  1        2 0.53509396E-01 0.92299338E+03</pdfrwt>
<pdfrwt beam="2">  1       -2 0.81228989E-01 0.92299338E+03</pdfrwt>
<totfact> 0.12469570E+02</totfact>
</mgrwt>
</event>
<event>
 4    1  0.5985962E-005  0.7329851E+03  0.7818608E-02  0.9662429E-01
          2   -1    0    0  501    0  0.00000000000E+00  0.00000000000E+00  0.14333941498E+04  0.14333941498E+04  0.25500000000E-02 0.  1.
         -2   -1    0    0    0  501 -0.00000000000E+00 -0.00000000000E+00 -0.93705406268E+02  0.93705406303E+02  0.25500000000E-02 0. -1.
    5000001    1    1    2    0    0  0.84005979136E+02 -0.27161429461E+03  0.38923108228E+03  0.51737429872E+03  0.18800000000E+03 0.  0.
   -5000001    1    1    2    0    0 -0.84005979136E+02  0.27161429461E+03  0.95045766123E+03  0.10097252574E+04  0.18800000000E+03 0.  0.
<mgrwt>
<rscale>  0 0.73298508E+03</rscale>
<asrwt>0</asrwt>
<pdfrwt beam="1">  1        2 0.20477059E+00 0.73298508E+03</pdfrwt>
<pdfrwt beam="2">  1       -2 0.13386487E-01 0.73298508E+03</pdfrwt>
<totfact> 0.67962362E+02</totfact>
</mgrwt>
</event>
<event>
 4    1  0.5985962E-005  0.1004094E+04  0.7818608E-02  0.9304066E-01
          2   -1    0    0  501    0  0.00000000000E+00  0.00000000000E+00  0.31477614608E+03  0.31477614609E+03  0.25500000000E-02 0.  1.
         -2   -1    0    0    0  501 -0.00000000000E+00 -0.00000000000E+00 -0.80073159241E+03  0.80073159242E+03  0.25500000000E-02 0. -1.
    5000001    1    1    2    0    0  0.14164141626E+03  0.33596424258E+03  0.78573440641E+02  0.41767457269E+03  0.18800000000E+03 0.  0.
   -5000001    1    1    2    0    0 -0.14164141626E+03 -0.33596424258E+03 -0.56452888697E+03  0.69783316582E+03  0.18800000000E+03 0.  0.
<mgrwt>
<rscale>  0 0.10040940E+04</rscale>
<asrwt>0</asrwt>
<pdfrwt beam="1">  1        2 0.44968021E-01 0.10040940E+04</pdfrwt>
<pdfrwt beam="2">  1       -2 0.11439023E+00 0.10040940E+04</pdfrwt>
<totfact> 0.67419400E+01</totfact>
</mgrwt>
</event>
<event>
 4    1  0.5985962E-005  0.8681595E+03  0.7818608E-02  0.9466283E-01
          2   -1    0    0  501    0  0.00000000000E+00  0.00000000000E+00  0.33063787865E+03  0.33063787866E+03  0.25500000000E-02 0.  1.
         -2   -1    0    0    0  501 -0.00000000000E+00 -0.00000000000E+00 -0.56988393457E+03  0.56988393458E+03  0.25500000000E-02 0. -1.
    5000001    1    1    2    0    0 -0.37011018486E+03 -0.12071699199E+03 -0.79088530751E+02  0.43949190753E+03  0.18800000000E+03 0.  0.
   -5000001    1    1    2    0    0  0.37011018486E+03  0.12071699199E+03 -0.16015752517E+03  0.46102990571E+03  0.18800000000E+03 0.  0.
<mgrwt>
<rscale>  0 0.86815947E+03</rscale>
<asrwt>0</asrwt>
<pdfrwt beam="1">  1        2 0.47233983E-01 0.86815947E+03</pdfrwt>
<pdfrwt beam="2">  1       -2 0.81411991E-01 0.86815947E+03</pdfrwt>
<totfact> 0.14292077E+02</totfact>
</mgrwt>
</event>
<event>
 4    1  0.5985962E-005  0.7053889E+03  0.7818608E-02  0.9708061E-01
          2   -1    0    0  501    0  0.00000000000E+00  0.00000000000E+00  0.28004986747E+04  0.28004986747E+04  0.25500000000E-02 0.  1.
         -2   -1    0    0    0  501 -0.00000000000E+00 -0.00000000000E+00 -0.44418296610E+02  0.44418296683E+02  0.25500000000E-02 0. -1.
    5000001    1    1    2    0    0 -0.64735973225E+02 -0.26133735320E+03  0.18970669884E+04  0.19252779324E+04  0.18800000000E+03 0.  0.
   -5000001    1    1    2    0    0  0.64735973225E+02  0.26133735320E+03  0.85901338968E+03  0.91963903900E+03  0.18800000000E+03 0.  0.
<mgrwt>
<rscale>  0 0.70538892E+03</rscale>
<asrwt>0</asrwt>
<pdfrwt beam="1">  1        2 0.40007115E+00 0.70538892E+03</pdfrwt>
<pdfrwt beam="2">  1       -2 0.63454724E-02 0.70538892E+03</pdfrwt>
<totfact> 0.45202990E+02</totfact>
</mgrwt>
</event>
<event>
 4    1  0.5985962E-005  0.4894898E+03  0.7818608E-02  0.1016559E+00
         -2   -1    0    0    0  501 -0.00000000000E+00  0.00000000000E+00  0.25590996274E+02  0.25590996401E+02  0.25500000000E-02 0. -1.
          2   -1    0    0  501    0  0.00000000000E+00 -0.00000000000E+00 -0.23406695202E+04  0.23406695202E+04  0.25500000000E-02 0.  1.
    5000001    1    1    2    0    0  0.13150844645E+03  0.25086797492E+02 -0.76385392918E+03  0.79796030228E+03  0.18800000000E+03 0.  0.
   -5000001    1    1    2    0    0 -0.13150844645E+03 -0.25086797492E+02 -0.15512245948E+04  0.15683002144E+04  0.18800000000E+03 0.  0.
<mgrwt>
<rscale>  0 0.48948980E+03</rscale>
<asrwt>0</asrwt>
<pdfrwt beam="1">  1        2 0.33438122E+00 0.48948980E+03</pdfrwt>
<pdfrwt beam="2">  1       -2 0.36558581E-02 0.48948980E+03</pdfrwt>
<totfact> 0.18652296E+03</totfact>
</mgrwt>
</event>
<event>
 4    1  0.5985962E-005  0.1149277E+04  0.7818608E-02  0.9158451E-01
          2   -1    0    0  501    0  0.00000000000E+00  0.00000000000E+00  0.15800490875E+04  0.15800490875E+04  0.25500000000E-02 0.  1.
         -2   -1    0    0    0  501 -0.00000000000E+00 -0.00000000000E+00 -0.20898664747E+03  0.20898664749E+03  0.25500000000E-02 0. -1.
    5000001    1    1    2    0    0 -0.22795242726E+03 -0.43338448712E+03  0.32019364713E+03  0.61453429069E+03  0.18800000000E+03 0.  0.
   -5000001    1    1    2    0    0  0.22795242726E+03  0.43338448712E+03  0.10508687929E+04  0.11745014443E+04  0.18800000000E+03 0.  0.
<mgrwt>
<rscale>  0 0.11492766E+04</rscale>
<asrwt>0</asrwt>
<pdfrwt beam="1">  1        2 0.22572130E+00 0.11492766E+04</pdfrwt>
<pdfrwt beam="2">  1       -2 0.29855235E-01 0.11492766E+04</pdfrwt>
<totfact> 0.13562773E+02</totfact>
</mgrwt>
</event>
<event>
 4    1  0.5985962E-005  0.5376148E+03  0.7818608E-02  0.1004402E+00
         -2   -1    0    0    0  501 -0.00000000000E+00  0.00000000000E+00  0.15074807906E+03  0.15074807908E+03  0.25500000000E-02 0. -1.
          2   -1    0    0  501    0  0.00000000000E+00 -0.00000000000E+00 -0.47932562602E+03  0.47932562603E+03  0.25500000000E-02 0.  1.
    5000001    1    1    2    0    0  0.29147668176E+02 -0.18989355434E+03 -0.16186732731E+03  0.31377409102E+03  0.18800000000E+03 0.  0.
   -5000001    1    1    2    0    0 -0.29147668176E+02  0.18989355434E+03 -0.16671021964E+03  0.31629961409E+03  0.18800000000E+03 0.  0.
<mgrwt>
<rscale>  0 0.53761480E+03</rscale>
<asrwt>0</asrwt>
<pdfrwt beam="1">  1        2 0.68475089E-01 0.53761480E+03</pdfrwt>
<pdfrwt beam="2">  1       -2 0.21535440E-01 0.53761480E+03</pdfrwt>
<totfact> 0.13187580E+03</totfact>
</mgrwt>
</event>
<event>
 4    1  0.5985962E-005  0.6481626E+03  0.7818608E-02  0.9810233E-01
          2   -1    0    0  501    0  0.00000000000E+00  0.00000000000E+00  0.19297388776E+04  0.19297388776E+04  0.25500000000E-02 0.  1.
         -2   -1    0    0    0  501 -0.00000000000E+00 -0.00000000000E+00 -0.54426377191E+02  0.54426377251E+02  0.25500000000E-02 0. -1.
    5000001    1    1    2    0    0 -0.31181888778E+02 -0.17724088504E+03  0.15288596839E+04  0.15508522092E+04  0.18800000000E+03 0.  0.
   -5000001    1    1    2    0    0  0.31181888778E+02  0.17724088504E+03  0.34645281647E+03  0.43331304568E+03  0.18800000000E+03 0.  0.
<mgrwt>
<rscale>  0 0.64816262E+03</rscale>
<asrwt>0</asrwt>
<pdfrwt beam="1">  1        2 0.27567691E+00 0.64816262E+03</pdfrwt>
<pdfrwt beam="2">  1       -2 0.77751987E-02 0.64816262E+03</pdfrwt>
<totfact> 0.91945643E+02</totfact>
</mgrwt>
</event>
<event>
 4    1  0.5985962E-005  0.7046204E+03  0.7818608E-02  0.9709363E-01
          2   -1    0    0  501    0  0.00000000000E+00  0.00000000000E+00  0.16201948291E+04  0.16201948291E+04  0.25500000000E-02 0.  1.
         -2   -1    0    0    0  501 -0.00000000000E+00 -0.00000000000E+00 -0.76609604767E+02  0.76609604809E+02  0.25500000000E-02 0. -1.
    5000001    1    1    2    0    0 -0.26309170018E+03 -0.10253433614E+03  0.54273131024E+03  0.64002484945E+03  0.18800000000E+03 0.  0.
   -5000001    1    1    2    0    0  0.26309170018E+03  0.10253433614E+03  0.10008539141E+04  0.10567795845E+04  0.18800000000E+03 0.  0.
<mgrwt>
<rscale>  0 0.70462042E+03</rscale>
<asrwt>0</asrwt>
<pdfrwt beam="1">  1        2 0.23145638E+00 0.70462042E+03</pdfrwt>
<pdfrwt beam="2">  1       -2 0.10944230E-01 0.70462042E+03</pdfrwt>
<totfact> 0.75836353E+02</totfact>
</mgrwt>
</event>
<event>
 4    1  0.5985962E-005  0.7350608E+03  0.7818608E-02  0.9659084E-01
         -2   -1    0    0    0  501 -0.00000000000E+00  0.00000000000E+00  0.10933717489E+03  0.10933717492E+03  0.25500000000E-02 0. -1.
          2   -1    0    0  501    0  0.00000000000E+00 -0.00000000000E+00 -0.12354313789E+04  0.12354313789E+04  0.25500000000E-02 0.  1.
    5000001    1    1    2    0    0  0.17528395877E+03 -0.16297532434E+03 -0.18611872715E+03  0.35674865542E+03  0.18800000000E+03 0.  0.
   -5000001    1    1    2    0    0 -0.17528395877E+03  0.16297532434E+03 -0.93997547687E+03  0.98801989842E+03  0.18800000000E+03 0.  0.
<mgrwt>
<rscale>  0 0.73506075E+03</rscale>
<asrwt>0</asrwt>
<pdfrwt beam="1">  1        2 0.17649019E+00 0.73506075E+03</pdfrwt>
<pdfrwt beam="2">  1       -2 0.15619597E-01 0.73506075E+03</pdfrwt>
<totfact> 0.67143204E+02</totfact>
</mgrwt>
</event>
<event>
 4    1  0.5985962E-005  0.9097656E+03  0.7818608E-02  0.9413456E-01
          2   -1    0    0  501    0  0.00000000000E+00  0.00000000000E+00  0.21311830406E+04  0.21311830406E+04  0.25500000000E-02 0.  1.
         -2   -1    0    0    0  501 -0.00000000000E+00 -0.00000000000E+00 -0.97090834243E+02  0.97090834277E+02  0.25500000000E-02 0. -1.
    5000001    1    1    2    0    0  0.99022344678E+02 -0.39147574011E+03  0.12430668082E+04  0.13204611958E+04  0.18800000000E+03 0.  0.
   -5000001    1    1    2    0    0 -0.99022344678E+02  0.39147574011E+03  0.79102539811E+03  0.90781267908E+03  0.18800000000E+03 0.  0.
<mgrwt>
<rscale>  0 0.90976555E+03</rscale>
<asrwt>0</asrwt>
<pdfrwt beam="1">  1        2 0.30445471E+00 0.90976555E+03</pdfrwt>
<pdfrwt beam="2">  1       -2 0.13870120E-01 0.90976555E+03</pdfrwt>
<totfact> 0.27748644E+02</totfact>
</mgrwt>
</event>
<event>
 4    1  0.5985962E-005  0.8610745E+03  0.7818608E-02  0.9475593E-01
          2   -1    0    0  501    0  0.00000000000E+00  0.00000000000E+00  0.20533930262E+04  0.20533930262E+04  0.25500000000E-02 0.  1.
         -2   -1    0    0    0  501 -0.00000000000E+00 -0.00000000000E+00 -0.90271232290E+02  0.90271232326E+02  0.25500000000E-02 0. -1.
    5000001    1    1    2    0    0 -0.52035361623E+02 -0.26433759998E+03  0.28879218310E+03  0.43740938564E+03  0.18800000000E+03 0.  0.
   -5000001    1    1    2    0    0  0.52035361623E+02  0.26433759998E+03  0.16743296108E+04  0.17062548729E+04  0.18800000000E+03 0.  0.
<mgrwt>
<rscale>  0 0.86107449E+03</rscale>
<asrwt>0</asrwt>
<pdfrwt beam="1">  1        2 0.29334187E+00 0.86107449E+03</pdfrwt>
<pdfrwt beam="2">  1       -2 0.12895890E-01 0.86107449E+03</pdfrwt>
<totfact> 0.34455338E+02</totfact>
</mgrwt>
</event>
<event>
 4    1  0.5985962E-005  0.5192878E+03  0.7818608E-02  0.1008864E+00
          2   -1    0    0  501    0  0.00000000000E+00  0.00000000000E+00  0.14309626478E+04  0.14309626478E+04  0.25500000000E-02 0.  1.
         -2   -1    0    0    0  501 -0.00000000000E+00 -0.00000000000E+00 -0.47111615132E+02  0.47111615201E+02  0.25500000000E-02 0. -1.
    5000001    1    1    2    0    0  0.75284893086E+02  0.15658788632E+03  0.81545116037E+03  0.85468835035E+03  0.18800000000E+03 0.  0.
   -5000001    1    1    2    0    0 -0.75284893086E+02 -0.15658788632E+03  0.56839987231E+03  0.62338591267E+03  0.18800000000E+03 0.  0.
<mgrwt>
<rscale>  0 0.51928783E+03</rscale>
<asrwt>0</asrwt>
<pdfrwt beam="1">  1        2 0.20442324E+00 0.51928783E+03</pdfrwt>
<pdfrwt beam="2">  1       -2 0.67302305E-02 0.51928783E+03</pdfrwt>
<totfact> 0.20879749E+03</totfact>
</mgrwt>
</event>
<event>
 4    1  0.5985962E-005  0.5012418E+03  0.7818608E-02  0.1013455E+00
         -2   -1    0    0    0  501 -0.00000000000E+00  0.00000000000E+00  0.26858008393E+03  0.26858008394E+03  0.25500000000E-02 0. -1.
          2   -1    0    0  501    0  0.00000000000E+00 -0.00000000000E+00 -0.23386261276E+03  0.23386261278E+03  0.25500000000E-02 0.  1.
    5000001    1    1    2    0    0 -0.11504189615E+03 -0.76992129656E+02  0.10870562098E+03  0.25753317831E+03  0.18800000000E+03 0.  0.
   -5000001    1    1    2    0    0  0.11504189615E+03  0.76992129656E+02 -0.73988149807E+02  0.24490951841E+03  0.18800000000E+03 0.  0.
<mgrwt>
<rscale>  0 0.50124182E+03</rscale>
<asrwt>0</asrwt>
<pdfrwt beam="1">  1        2 0.33408945E-01 0.50124182E+03</pdfrwt>
<pdfrwt beam="2">  1       -2 0.38368584E-01 0.50124182E+03</pdfrwt>
<totfact> 0.10124231E+03</totfact>
</mgrwt>
</event>
<event>
 4    1  0.5985962E-005  0.6621008E+03  0.7818608E-02  0.9784334E-01
         -2   -1    0    0    0  501 -0.00000000000E+00  0.00000000000E+00  0.50253924669E+02  0.50253924734E+02  0.25500000000E-02 0. -1.
          2   -1    0    0  501    0  0.00000000000E+00 -0.00000000000E+00 -0.21808122692E+04  0.21808122692E+04  0.25500000000E-02 0.  1.
    5000001    1    1    2    0    0  0.79323102692E+02  0.12055994449E+03 -0.18441305268E+04  0.18592977853E+04  0.18800000000E+03 0.  0.
   -5000001    1    1    2    0    0 -0.79323102692E+02 -0.12055994449E+03 -0.28642781776E+03  0.37176840859E+03  0.18800000000E+03 0.  0.
<mgrwt>
<rscale>  0 0.66210082E+03</rscale>
<asrwt>0</asrwt>
<pdfrwt beam="1">  1        2 0.31154455E+00 0.66210082E+03</pdfrwt>
<pdfrwt beam="2">  1       -2 0.71791335E-02 0.66210082E+03</pdfrwt>
<totfact> 0.77929728E+02</totfact>
</mgrwt>
</event>
<event>
 4    1  0.5985962E-005  0.8035839E+03  0.7818608E-02  0.9554844E-01
          2   -1    0    0  501    0  0.00000000000E+00  0.00000000000E+00  0.14718720079E+04  0.14718720079E+04  0.25500000000E-02 0.  1.
         -2   -1    0    0    0  501 -0.00000000000E+00 -0.00000000000E+00 -0.10968125488E+03  0.10968125491E+03  0.25500000000E-02 0. -1.
    5000001    1    1    2    0    0  0.19506675230E+03 -0.14970034112E+03  0.17688835161E+03  0.35650346270E+03  0.18800000000E+03 0.  0.
   -5000001    1    1    2    0    0 -0.19506675230E+03  0.14970034112E+03  0.11853024014E+04  0.12250498001E+04  0.18800000000E+03 0.  0.
<mgrwt>
<rscale>  0 0.80358389E+03</rscale>
<asrwt>0</asrwt>
<pdfrwt beam="1">  1        2 0.21026743E+00 0.80358389E+03</pdfrwt>
<pdfrwt beam="2">  1       -2 0.15668750E-01 0.80358389E+03</pdfrwt>
<totfact> 0.49565121E+02</totfact>
</mgrwt>
</event>
<event>
 4    1  0.5985962E-005  0.7829746E+03  0.7818608E-02  0.9584993E-01
          2   -1    0    0  501    0  0.00000000000E+00  0.00000000000E+00  0.13178099094E+04  0.13178099094E+04  0.25500000000E-02 0.  1.
         -2   -1    0    0    0  501 -0.00000000000E+00 -0.00000000000E+00 -0.11630075958E+03  0.11630075961E+03  0.25500000000E-02 0. -1.
    5000001    1    1    2    0    0  0.17772411387E+03  0.24559621115E+03  0.30533016667E+03  0.46954645166E+03  0.18800000000E+03 0.  0.
   -5000001    1    1    2    0    0 -0.17772411387E+03 -0.24559621115E+03  0.89617898314E+03  0.96456421735E+03  0.18800000000E+03 0.  0.
<mgrwt>
<rscale>  0 0.78297457E+03</rscale>
<asrwt>0</asrwt>
<pdfrwt beam="1">  1        2 0.18825855E+00 0.78297457E+03</pdfrwt>
<pdfrwt beam="2">  1       -2 0.16614395E-01 0.78297457E+03</pdfrwt>
<totfact> 0.54317442E+02</totfact>
</mgrwt>
</event>
<event>
 4    1  0.5985962E-005  0.4509533E+03  0.7818608E-02  0.1027438E+00
          2   -1    0    0  501    0  0.00000000000E+00  0.00000000000E+00  0.53807288298E+02  0.53807288358E+02  0.25500000000E-02 0.  1.
         -2   -1    0    0    0  501 -0.00000000000E+00 -0.00000000000E+00 -0.94484799676E+03  0.94484799676E+03  0.25500000000E-02 0. -1.
    5000001    1    1    2    0    0 -0.64692470791E+02 -0.10163484673E+03 -0.51488013043E+03  0.56121324517E+03  0.18800000000E+03 0.  0.
   -5000001    1    1    2    0    0  0.64692470791E+02  0.10163484673E+03 -0.37616057803E+03  0.43744203994E+03  0.18800000000E+03 0.  0.
<mgrwt>
<rscale>  0 0.45095325E+03</rscale>
<asrwt>0</asrwt>
<pdfrwt beam="1">  1        2 0.76867560E-02 0.45095325E+03</pdfrwt>
<pdfrwt beam="2">  1       -2 0.13497828E+00 0.45095325E+03</pdfrwt>
<totfact> 0.37315109E+02</totfact>
</mgrwt>
</event>
<event>
 4    1  0.5985962E-005  0.5625815E+03  0.7818608E-02  0.9986230E-01
         -2   -1    0    0    0  501 -0.00000000000E+00  0.00000000000E+00  0.26871918541E+03  0.26871918542E+03  0.25500000000E-02 0. -1.
          2   -1    0    0  501    0  0.00000000000E+00 -0.00000000000E+00 -0.29445041867E+03  0.29445041868E+03  0.25500000000E-02 0.  1.
    5000001    1    1    2    0    0 -0.17728982512E+03  0.10900663395E+03 -0.34483292056E+02  0.28257251418E+03  0.18800000000E+03 0.  0.
   -5000001    1    1    2    0    0  0.17728982512E+03 -0.10900663395E+03  0.87520587974E+01  0.28059708992E+03  0.18800000000E+03 0.  0.
<mgrwt>
<rscale>  0 0.56258147E+03</rscale>
<asrwt>0</asrwt>
<pdfrwt beam="1">  1        2 0.42064345E-01 0.56258147E+03</pdfrwt>
<pdfrwt beam="2">  1       -2 0.38388455E-01 0.56258147E+03</pdfrwt>
<totfact> 0.78384127E+02</totfact>
</mgrwt>
</event>
<event>
 4    1  0.5985962E-005  0.9720516E+03  0.7818608E-02  0.9339741E-01
         -2   -1    0    0    0  501 -0.00000000000E+00  0.00000000000E+00  0.12202650423E+03  0.12202650426E+03  0.25500000000E-02 0. -1.
          2   -1    0    0  501    0  0.00000000000E+00 -0.00000000000E+00 -0.19358176542E+04  0.19358176542E+04  0.25500000000E-02 0.  1.
    5000001    1    1    2    0    0 -0.32974186625E+03 -0.16880255887E+03 -0.37278298125E+03  0.55815334214E+03  0.18800000000E+03 0.  0.
   -5000001    1    1    2    0    0  0.32974186625E+03  0.16880255887E+03 -0.14410081688E+04  0.14996908164E+04  0.18800000000E+03 0.  0.
<mgrwt>
<rscale>  0 0.97205156E+03</rscale>
<asrwt>0</asrwt>
<pdfrwt beam="1">  1        2 0.27654536E+00 0.97205156E+03</pdfrwt>
<pdfrwt beam="2">  1       -2 0.17432359E-01 0.97205156E+03</pdfrwt>
<totfact> 0.23542082E+02</totfact>
</mgrwt>
</event>
<event>
 4    1  0.5985962E-005  0.6684585E+03  0.7818608E-02  0.9772747E-01
         -2   -1    0    0    0  501 -0.00000000000E+00  0.00000000000E+00  0.13505678271E+03  0.13505678273E+03  0.25500000000E-02 0. -1.
          2   -1    0    0  501    0  0.00000000000E+00 -0.00000000000E+00 -0.82712757092E+03  0.82712757092E+03  0.25500000000E-02 0.  1.
    5000001    1    1    2    0    0  0.25545093480E+03  0.10074235208E+03 -0.39065673443E+03  0.51318698907E+03  0.18800000000E+03 0.  0.
   -5000001    1    1    2    0    0 -0.25545093480E+03 -0.10074235208E+03 -0.30141405378E+03  0.44899736459E+03  0.18800000000E+03 0.  0.
<mgrwt>
<rscale>  0 0.66845849E+03</rscale>
<asrwt>0</asrwt>
<pdfrwt beam="1">  1        2 0.11816108E+00 0.66845849E+03</pdfrwt>
<pdfrwt beam="2">  1       -2 0.19293827E-01 0.66845849E+03</pdfrwt>
<totfact> 0.82987317E+02</totfact>
</mgrwt>
</event>
<event>
 4    1  0.5985962E-005  0.5418634E+03  0.7818608E-02  0.1003395E+00
         -2   -1    0    0    0  501 -0.00000000000E+00  0.00000000000E+00  0.99286609047E+02  0.99286609080E+02  0.25500000000E-02 0. -1.
          2   -1    0    0  501    0  0.00000000000E+00 -0.00000000000E+00 -0.73931399591E+03  0.73931399592E+03  0.25500000000E-02 0.  1.
    5000001    1    1    2    0    0 -0.27370399277E+02 -0.19095061642E+03 -0.36509985335E+03  0.45371045787E+03  0.18800000000E+03 0.  0.
   -5000001    1    1    2    0    0  0.27370399277E+02  0.19095061642E+03 -0.27492753352E+03  0.38489014713E+03  0.18800000000E+03 0.  0.
<mgrwt>
<rscale>  0 0.54186338E+03</rscale>
<asrwt>0</asrwt>
<pdfrwt beam="1">  1        2 0.10561628E+00 0.54186338E+03</pdfrwt>
<pdfrwt beam="2">  1       -2 0.14183802E-01 0.54186338E+03</pdfrwt>
<totfact> 0.16186912E+03</totfact>
</mgrwt>
</event>
<event>
 4    1  0.5985962E-005  0.5062181E+03  0.7818608E-02  0.1012169E+00
         -2   -1    0    0    0  501 -0.00000000000E+00  0.00000000000E+00  0.40864773849E+02  0.40864773929E+02  0.25500000000E-02 0. -1.
          2   -1    0    0  501    0  0.00000000000E+00 -0.00000000000E+00 -0.15677117679E+04  0.15677117679E+04  0.25500000000E-02 0.  1.
    5000001    1    1    2    0    0 -0.12525485202E+03  0.90526590887E+02 -0.98440846198E+03  0.10140452957E+04  0.18800000000E+03 0.  0.
   -5000001    1    1    2    0    0  0.12525485202E+03 -0.90526590887E+02 -0.54243853210E+03  0.59453124621E+03  0.18800000000E+03 0.  0.
<mgrwt>
<rscale>  0 0.50621808E+03</rscale>
<asrwt>0</asrwt>
<pdfrwt beam="1">  1        2 0.22395879E+00 0.50621808E+03</pdfrwt>
<pdfrwt beam="2">  1       -2 0.58378258E-02 0.50621808E+03</pdfrwt>
<totfact> 0.22161369E+03</totfact>
</mgrwt>
</event>
<event>
 4    1  0.5985962E-005  0.6428826E+03  0.7818608E-02  0.9820227E-01
          2   -1    0    0  501    0  0.00000000000E+00  0.00000000000E+00  0.33975394576E+03  0.33975394577E+03  0.25500000000E-02 0.  1.
         -2   -1    0    0    0  501 -0.00000000000E+00 -0.00000000000E+00 -0.30411574527E+03  0.30411574528E+03  0.25500000000E-02 0. -1.
    5000001    1    1    2    0    0  0.15620524614E+03  0.20072652705E+03  0.75259634868E+02  0.32511418028E+03  0.18800000000E+03 0.  0.
   -5000001    1    1    2    0    0 -0.15620524614E+03 -0.20072652705E+03 -0.39621434375E+02  0.31875551077E+03  0.18800000000E+03 0.  0.
<mgrwt>
<rscale>  0 0.64288265E+03</rscale>
<asrwt>0</asrwt>
<pdfrwt beam="1">  1        2 0.48536278E-01 0.64288265E+03</pdfrwt>
<pdfrwt beam="2">  1       -2 0.43445106E-01 0.64288265E+03</pdfrwt>
<totfact> 0.52527938E+02</totfact>
</mgrwt>
</event>
<event>
 4    1  0.5985962E-005  0.4562709E+03  0.7818608E-02  0.1025868E+00
          2   -1    0    0  501    0  0.00000000000E+00  0.00000000000E+00  0.83782568864E+03  0.83782568864E+03  0.25500000000E-02 0.  1.
         -2   -1    0    0    0  501 -0.00000000000E+00 -0.00000000000E+00 -0.62120072885E+02  0.62120072938E+02  0.25500000000E-02 0. -1.
    5000001    1    1    2    0    0  0.87518148365E+02  0.57387246635E+02  0.23830076739E+03  0.32106693711E+03  0.18800000000E+03 0.  0.
   -5000001    1    1    2    0    0 -0.87518148365E+02 -0.57387246635E+02  0.53740484837E+03  0.57887882447E+03  0.18800000000E+03 0.  0.
<mgrwt>
<rscale>  0 0.45627094E+03</rscale>
<asrwt>0</asrwt>
<pdfrwt beam="1">  1        2 0.11968938E+00 0.45627094E+03</pdfrwt>
<pdfrwt beam="2">  1       -2 0.88742968E-02 0.45627094E+03</pdfrwt>
<totfact> 0.29684029E+03</totfact>
</mgrwt>
</event>
<event>
 4    1  0.5985962E-005  0.4979703E+03  0.7818608E-02  0.1014310E+00
          2   -1    0    0  501    0  0.00000000000E+00  0.00000000000E+00  0.56563122107E+03  0.56563122108E+03  0.25500000000E-02 0.  1.
         -2   -1    0    0    0  501 -0.00000000000E+00 -0.00000000000E+00 -0.10960076724E+03  0.10960076727E+03  0.25500000000E-02 0. -1.
    5000001    1    1    2    0    0  0.13817891690E+03  0.86444368534E+02  0.24041132021E+03  0.34598792582E+03  0.18800000000E+03 0.  0.
   -5000001    1    1    2    0    0 -0.13817891690E+03 -0.86444368534E+02  0.21561913362E+03  0.32924406253E+03  0.18800000000E+03 0.  0.
<mgrwt>
<rscale>  0 0.49797034E+03</rscale>
<asrwt>0</asrwt>
<pdfrwt beam="1">  1        2 0.80804460E-01 0.49797034E+03</pdfrwt>
<pdfrwt beam="2">  1       -2 0.15657252E-01 0.49797034E+03</pdfrwt>
<totfact> 0.18878615E+03</totfact>
</mgrwt>
</event>
<event>
 4    1  0.5985962E-005  0.6762349E+03  0.7818608E-02  0.9758760E-01
         -2   -1    0    0    0  501 -0.00000000000E+00  0.00000000000E+00  0.26109905891E+02  0.26109906016E+02  0.25500000000E-02 0. -1.
          2   -1    0    0  501    0  0.00000000000E+00 -0.00000000000E+00 -0.43785451791E+04  0.43785451791E+04  0.25500000000E-02 0.  1.
    5000001    1    1    2    0    0  0.24616479035E+03  0.95634735455E+02 -0.15502335905E+04  0.15837649105E+04  0.18800000000E+03 0.  0.
   -5000001    1    1    2    0    0 -0.24616479035E+03 -0.95634735455E+02 -0.28022016827E+04  0.28208901746E+04  0.18800000000E+03 0.  0.
<mgrwt>
<rscale>  0 0.67623488E+03</rscale>
<asrwt>0</asrwt>
<pdfrwt beam="1">  1        2 0.62550599E+00 0.67623488E+03</pdfrwt>
<pdfrwt beam="2">  1       -2 0.37299893E-02 0.67623488E+03</pdfrwt>
<totfact> 0.10979811E+02</totfact>
</mgrwt>
</event>
<event>
 4    1  0.5985962E-005  0.7968595E+03  0.7818608E-02  0.9564574E-01
         -2   -1    0    0    0  501 -0.00000000000E+00  0.00000000000E+00  0.42254498741E+03  0.42254498741E+03  0.25500000000E-02 0. -1.
          2   -1    0    0  501    0  0.00000000000E+00 -0.00000000000E+00 -0.37569083430E+03  0.37569083431E+03  0.25500000000E-02 0.  1.
    5000001    1    1    2    0    0 -0.16032245517E+03  0.28269611562E+02  0.33525207012E+03  0.41742114356E+03  0.18800000000E+03 0.  0.
   -5000001    1    1    2    0    0  0.16032245517E+03 -0.28269611562E+02 -0.28839791701E+03  0.38081467816E+03  0.18800000000E+03 0.  0.
<mgrwt>
<rscale>  0 0.79685953E+03</rscale>
<asrwt>0</asrwt>
<pdfrwt beam="1">  1        2 0.53670119E-01 0.79685953E+03</pdfrwt>
<pdfrwt beam="2">  1       -2 0.60363569E-01 0.79685953E+03</pdfrwt>
<totfact> 0.23892968E+02</totfact>
</mgrwt>
</event>
<event>
 4    1  0.5985962E-005  0.5764021E+03  0.7818608E-02  0.9955611E-01
          2   -1    0    0  501    0  0.00000000000E+00  0.00000000000E+00  0.45317631607E+03  0.45317631608E+03  0.25500000000E-02 0.  1.
         -2   -1    0    0    0  501 -0.00000000000E+00 -0.00000000000E+00 -0.18328371885E+03  0.18328371887E+03  0.25500000000E-02 0. -1.
    5000001    1    1    2    0    0  0.16920689637E+03  0.13401268603E+03  0.17198979096E+03  0.33393841048E+03  0.18800000000E+03 0.  0.
   -5000001    1    1    2    0    0 -0.16920689637E+03 -0.13401268603E+03  0.97902806255E+02  0.30252162447E+03  0.18800000000E+03 0.  0.
<mgrwt>
<rscale>  0 0.57640208E+03</rscale>
<asrwt>0</asrwt>
<pdfrwt beam="1">  1        2 0.64739474E-01 0.57640208E+03</pdfrwt>
<pdfrwt beam="2">  1       -2 0.26183388E-01 0.57640208E+03</pdfrwt>
<totfact> 0.99180658E+02</totfact>
</mgrwt>
</event>
<event>
 4    1  0.5985962E-005  0.9754638E+03  0.7818608E-02  0.9335873E-01
          2   -1    0    0  501    0  0.00000000000E+00  0.00000000000E+00  0.14542350023E+03  0.14542350025E+03  0.25500000000E-02 0.  1.
         -2   -1    0    0    0  501 -0.00000000000E+00 -0.00000000000E+00 -0.16357906468E+04  0.16357906468E+04  0.25500000000E-02 0. -1.
    5000001    1    1    2    0    0 -0.29365727780E+03 -0.17362576442E+03 -0.20919870123E+03  0.44214092716E+03  0.18800000000E+03 0.  0.
   -5000001    1    1    2    0    0  0.29365727780E+03  0.17362576442E+03 -0.12811684454E+04  0.13390732199E+04  0.18800000000E+03 0.  0.
<mgrwt>
<rscale>  0 0.97546379E+03</rscale>
<asrwt>0</asrwt>
<pdfrwt beam="1">  1        2 0.20774787E-01 0.97546379E+03</pdfrwt>
<pdfrwt beam="2">  1       -2 0.23368437E+00 0.97546379E+03</pdfrwt>
<totfact> 0.22188751E+01</totfact>
</mgrwt>
</event>
<event>
 4    1  0.5985962E-005  0.4984803E+03  0.7818608E-02  0.1014176E+00
          2   -1    0    0  501    0  0.00000000000E+00  0.00000000000E+00  0.24154033216E+04  0.24154033216E+04  0.25500000000E-02 0.  1.
         -2   -1    0    0    0  501 -0.00000000000E+00 -0.00000000000E+00 -0.25718538314E+02  0.25718538441E+02  0.25500000000E-02 0. -1.
    5000001    1    1    2    0    0  0.99734859472E+02  0.11525041191E+03  0.14864968512E+04  0.15060699148E+04  0.18800000000E+03 0.  0.
   -5000001    1    1    2    0    0 -0.99734859472E+02 -0.11525041191E+03  0.90318793216E+03  0.93505194531E+03  0.18800000000E+03 0.  0.
<mgrwt>
<rscale>  0 0.49848026E+03</rscale>
<asrwt>0</asrwt>
<pdfrwt beam="1">  1        2 0.34505777E+00 0.49848026E+03</pdfrwt>
<pdfrwt beam="2">  1       -2 0.36740753E-02 0.49848026E+03</pdfrwt>
<totfact> 0.16961348E+03</totfact>
</mgrwt>
</event>
<event>
 4    1  0.5985962E-005  0.4891157E+03  0.7818608E-02  0.1016660E+00
          2   -1    0    0  501    0  0.00000000000E+00  0.00000000000E+00  0.13784023829E+04  0.13784023829E+04  0.25500000000E-02 0.  1.
         -2   -1    0    0    0  501 -0.00000000000E+00 -0.00000000000E+00 -0.43389749534E+02  0.43389749609E+02  0.25500000000E-02 0. -1.
    5000001    1    1    2    0    0 -0.15996168586E+02  0.12818645323E+03  0.41115974722E+03  0.47019568473E+03  0.18800000000E+03 0.  0.
   -5000001    1    1    2    0    0  0.15996168586E+02 -0.12818645323E+03  0.92385288616E+03  0.95159644780E+03  0.18800000000E+03 0.  0.
<mgrwt>
<rscale>  0 0.48911567E+03</rscale>
<asrwt>0</asrwt>
<pdfrwt beam="1">  1        2 0.19691465E+00 0.48911567E+03</pdfrwt>
<pdfrwt beam="2">  1       -2 0.61985349E-02 0.48911567E+03</pdfrwt>
<totfact> 0.25330543E+03</totfact>
</mgrwt>
</event>
<event>
 4    1  0.5985962E-005  0.7953169E+03  0.7818608E-02  0.9566821E-01
          2   -1    0    0  501    0  0.00000000000E+00  0.00000000000E+00  0.16123932281E+04  0.16123932281E+04  0.25500000000E-02 0.  1.
         -2   -1    0    0    0  501 -0.00000000000E+00 -0.00000000000E+00 -0.98072995364E+02  0.98072995397E+02  0.25500000000E-02 0. -1.
    5000001    1    1    2    0    0  0.31710945039E+03 -0.14191961920E+03  0.85544966134E+03  0.94225140219E+03  0.18800000000E+03 0.  0.
   -5000001    1    1    2    0    0 -0.31710945039E+03  0.14191961920E+03  0.65887057144E+03  0.76821482136E+03  0.18800000000E+03 0.  0.
<mgrwt>
<rscale>  0 0.79531688E+03</rscale>
<asrwt>0</asrwt>
<pdfrwt beam="1">  1        2 0.23034188E+00 0.79531688E+03</pdfrwt>
<pdfrwt beam="2">  1       -2 0.14010428E-01 0.79531688E+03</pdfrwt>
<totfact> 0.50578768E+02</totfact>
</mgrwt>
</event>
<event>
 4    1  0.5985962E-005  0.5020356E+03  0.7818608E-02  0.1013249E+00
          2   -1    0    0  501    0  0.00000000000E+00  0.00000000000E+00  0.21396826934E+04  0.21396826934E+04  0.25500000000E-02 0.  1.
         -2   -1    0    0    0  501 -0.00000000000E+00 -0.00000000000E+00 -0.29448267368E+02  0.29448267479E+02  0.25500000000E-02 0. -1.
    5000001    1    1    2    0    0  0.52160155222E+02 -0.13751412800E+03  0.13907733300E+04  0.14111078175E+04  0.18800000000E+03 0.  0.
   -5000001    1    1    2    0    0 -0.52160155222E+02  0.13751412800E+03  0.71946109611E+03  0.75802314345E+03  0.18800000000E+03 0.  0.
<mgrwt>
<rscale>  0 0.50203565E+03</rscale>
<asrwt>0</asrwt>
<pdfrwt beam="1">  1        2 0.30566890E+00 0.50203565E+03</pdfrwt>
<pdfrwt beam="2">  1       -2 0.42068962E-02 0.50203565E+03</pdfrwt>
<totfact> 0.18969785E+03</totfact>
</mgrwt>
</event>
<event>
 4    1  0.5985962E-005  0.3943072E+03  0.7818608E-02  0.1045769E+00
         -2   -1    0    0    0  501 -0.00000000000E+00  0.00000000000E+00  0.48525361985E+03  0.48525361986E+03  0.25500000000E-02 0. -1.
          2   -1    0    0  501    0  0.00000000000E+00 -0.00000000000E+00 -0.80101498013E+02  0.80101498053E+02  0.25500000000E-02 0.  1.
    5000001    1    1    2    0    0  0.11882384256E+02 -0.57772626352E+02  0.21237155418E+03  0.28969733246E+03  0.18800000000E+03 0.  0.
   -5000001    1    1    2    0    0 -0.11882384256E+02  0.57772626352E+02  0.19278056766E+03  0.27565778545E+03  0.18800000000E+03 0.  0.
<mgrwt>
<rscale>  0 0.39430720E+03</rscale>
<asrwt>0</asrwt>
<pdfrwt beam="1">  1        2 0.11443071E-01 0.39430720E+03</pdfrwt>
<pdfrwt beam="2">  1       -2 0.69321945E-01 0.39430720E+03</pdfrwt>
<totfact> 0.10633545E+03</totfact>
</mgrwt>
</event>
<event>
 4    1  0.5985962E-005  0.1353123E+04  0.7818608E-02  0.8988467E-01
         -2   -1    0    0    0  501 -0.00000000000E+00  0.00000000000E+00  0.26472954978E+04  0.26472954978E+04  0.25500000000E-02 0. -1.
          2   -1    0    0  501    0  0.00000000000E+00 -0.00000000000E+00 -0.17290692029E+03  0.17290692031E+03  0.25500000000E-02 0.  1.
    5000001    1    1    2    0    0 -0.34930406062E+03 -0.54716098694E+03  0.11715087410E+04  0.13524700376E+04  0.18800000000E+03 0.  0.
   -5000001    1    1    2    0    0  0.34930406062E+03  0.54716098694E+03  0.13028798365E+04  0.14677323805E+04  0.18800000000E+03 0.  0.
<mgrwt>
<rscale>  0 0.13531234E+04</rscale>
<asrwt>0</asrwt>
<pdfrwt beam="1">  1        2 0.24700991E-01 0.13531234E+04</pdfrwt>
<pdfrwt beam="2">  1       -2 0.37818504E+00 0.13531234E+04</pdfrwt>
<totfact> 0.22658813E+00</totfact>
</mgrwt>
</event>
<event>
 4    1  0.5985962E-005  0.6614029E+03  0.7818608E-02  0.9785615E-01
         -2   -1    0    0    0  501 -0.00000000000E+00  0.00000000000E+00  0.95941567998E+02  0.95941568032E+02  0.25500000000E-02 0. -1.
          2   -1    0    0  501    0  0.00000000000E+00 -0.00000000000E+00 -0.11398964493E+04  0.11398964493E+04  0.25500000000E-02 0.  1.
    5000001    1    1    2    0    0  0.10386672028E+03 -0.23762871218E+03 -0.67564751299E+03  0.74772940443E+03  0.18800000000E+03 0.  0.
   -5000001    1    1    2    0    0 -0.10386672028E+03  0.23762871218E+03 -0.36830736827E+03  0.48810861287E+03  0.18800000000E+03 0.  0.
<mgrwt>
<rscale>  0 0.66140291E+03</rscale>
<asrwt>0</asrwt>
<pdfrwt beam="1">  1        2 0.16284234E+00 0.66140291E+03</pdfrwt>
<pdfrwt beam="2">  1       -2 0.13705939E-01 0.66140291E+03</pdfrwt>
<totfact> 0.95022826E+02</totfact>
</mgrwt>
</event>
<event>
 4    1  0.5985962E-005  0.4373104E+03  0.7818608E-02  0.1031575E+00
         -2   -1    0    0    0  501 -0.00000000000E+00  0.00000000000E+00  0.38373152410E+02  0.38373152495E+02  0.25500000000E-02 0. -1.
          2   -1    0    0  501    0  0.00000000000E+00 -0.00000000000E+00 -0.12459256059E+04  0.12459256059E+04  0.25500000000E-02 0.  1.
    5000001    1    1    2    0    0  0.38187835309E+02  0.10306321617E+03 -0.66145719978E+03  0.69638348949E+03  0.18800000000E+03 0.  0.
   -5000001    1    1    2    0    0 -0.38187835309E+02 -0.10306321617E+03 -0.54609525374E+03  0.58791526894E+03  0.18800000000E+03 0.  0.
<mgrwt>
<rscale>  0 0.43731039E+03</rscale>
<asrwt>0</asrwt>
<pdfrwt beam="1">  1        2 0.17798935E+00 0.43731039E+03</pdfrwt>
<pdfrwt beam="2">  1       -2 0.54818797E-02 0.43731039E+03</pdfrwt>
<totfact> 0.36121407E+03</totfact>
</mgrwt>
</event>
<event>
 4    1  0.5985962E-005  0.7381221E+03  0.7818608E-02  0.9654171E-01
          2   -1    0    0  501    0  0.00000000000E+00  0.00000000000E+00  0.29934238886E+04  0.29934238886E+04  0.25500000000E-02 0. -1.
         -2   -1    0    0    0  501 -0.00000000000E+00 -0.00000000000E+00 -0.45501766120E+02  0.45501766191E+02  0.25500000000E-02 0.  1.
    5000001    1    1    2    0    0  0.63008495476E+02 -0.17290822801E+03  0.40831687117E+03  0.48573037078E+03  0.18800000000E+03 0.  0.
   -5000001    1    1    2    0    0 -0.63008495476E+02  0.17290822801E+03  0.25396052513E+04  0.25531952840E+04  0.18800000000E+03 0.  0.
<mgrwt>
<rscale>  0 0.73812214E+03</rscale>
<asrwt>0</asrwt>
<pdfrwt beam="1">  1        2 0.42763203E+00 0.73812214E+03</pdfrwt>
<pdfrwt beam="2">  1       -2 0.65002516E-02 0.73812214E+03</pdfrwt>
<totfact> 0.34143017E+02</totfact>
</mgrwt>
</event>
<event>
 4    1  0.5985962E-005  0.4349873E+03  0.7818608E-02  0.1032296E+00
          2   -1    0    0  501    0  0.00000000000E+00  0.00000000000E+00  0.27252042284E+03  0.27252042285E+03  0.25500000000E-02 0.  1.
         -2   -1    0    0    0  501 -0.00000000000E+00 -0.00000000000E+00 -0.17357779362E+03  0.17357779364E+03  0.25500000000E-02 0. -1.
    5000001    1    1    2    0    0  0.25508487680E+02 -0.72680923854E+02  0.12908340786E+03  0.24070672159E+03  0.18800000000E+03 0.  0.
   -5000001    1    1    2    0    0 -0.25508487680E+02  0.72680923854E+02 -0.30140778644E+02  0.20539149489E+03  0.18800000000E+03 0.  0.
<mgrwt>
<rscale>  0 0.43498733E+03</rscale>
<asrwt>0</asrwt>
<pdfrwt beam="1">  1        2 0.38931489E-01 0.43498733E+03</pdfrwt>
<pdfrwt beam="2">  1       -2 0.24796828E-01 0.43498733E+03</pdfrwt>
<totfact> 0.19139178E+03</totfact>
</mgrwt>
</event>
<event>
 4    1  0.5985962E-005  0.6168037E+03  0.7818608E-02  0.9871144E-01
          2   -1    0    0  501    0  0.00000000000E+00  0.00000000000E+00  0.11671296848E+04  0.11671296848E+04  0.25500000000E-02 0.  1.
         -2   -1    0    0    0  501 -0.00000000000E+00 -0.00000000000E+00 -0.81491961120E+02  0.81491961160E+02  0.25500000000E-02 0. -1.
    5000001    1    1    2    0    0  0.19225580531E+03 -0.14906768883E+03  0.59174836325E+03  0.66685350411E+03  0.18800000000E+03 0.  0.
   -5000001    1    1    2    0    0 -0.19225580531E+03  0.14906768883E+03  0.49388936039E+03  0.58176814181E+03  0.18800000000E+03 0.  0.
<mgrwt>
<rscale>  0 0.61680365E+03</rscale>
<asrwt>0</asrwt>
<pdfrwt beam="1">  1        2 0.16673281E+00 0.61680365E+03</pdfrwt>
<pdfrwt beam="2">  1       -2 0.11641709E-01 0.61680365E+03</pdfrwt>
<totfact> 0.12030770E+03</totfact>
</mgrwt>
</event>
<event>
 4    1  0.5985962E-005  0.4447742E+03  0.7818608E-02  0.1029292E+00
          2   -1    0    0  501    0  0.00000000000E+00  0.00000000000E+00  0.47677312387E+03  0.47677312387E+03  0.25500000000E-02 0.  1.
         -2   -1    0    0    0  501 -0.00000000000E+00 -0.00000000000E+00 -0.10373070895E+03  0.10373070898E+03  0.25500000000E-02 0. -1.
    5000001    1    1    2    0    0 -0.10840390658E+02  0.11808545242E+03  0.19578015910E+03  0.29620188865E+03  0.18800000000E+03 0.  0.
   -5000001    1    1    2    0    0  0.10840390658E+02 -0.11808545242E+03  0.17726225582E+03  0.28430194421E+03  0.18800000000E+03 0.  0.
<mgrwt>
<rscale>  0 0.44477416E+03</rscale>
<asrwt>0</asrwt>
<pdfrwt beam="1">  1        2 0.68110448E-01 0.44477416E+03</pdfrwt>
<pdfrwt beam="2">  1       -2 0.14818672E-01 0.44477416E+03</pdfrwt>
<totfact> 0.25118225E+03</totfact>
</mgrwt>
</event>
<event>
 4    1  0.5985962E-005  0.5515552E+03  0.7818608E-02  0.1001135E+00
          2   -1    0    0  501    0  0.00000000000E+00  0.00000000000E+00  0.15965928859E+04  0.15965928859E+04  0.25500000000E-02 0.  1.
         -2   -1    0    0    0  501 -0.00000000000E+00 -0.00000000000E+00 -0.47634735428E+02  0.47634735496E+02  0.25500000000E-02 0. -1.
    5000001    1    1    2    0    0 -0.42912092893E+02  0.18793992782E+03  0.95200745240E+03  0.98935587814E+03  0.18800000000E+03 0.  0.
   -5000001    1    1    2    0    0  0.42912092893E+02 -0.18793992782E+03  0.59695069805E+03  0.65487174323E+03  0.18800000000E+03 0.  0.
<mgrwt>
<rscale>  0 0.55155518E+03</rscale>
<asrwt>0</asrwt>
<pdfrwt beam="1">  1        2 0.22808466E+00 0.55155518E+03</pdfrwt>
<pdfrwt beam="2">  1       -2 0.68049635E-02 0.55155518E+03</pdfrwt>
<totfact> 0.16825523E+03</totfact>
</mgrwt>
</event>
<event>
 4    1  0.5985962E-005  0.5850220E+03  0.7818608E-02  0.9936977E-01
          2   -1    0    0  501    0  0.00000000000E+00  0.00000000000E+00  0.28337996237E+04  0.28337996237E+04  0.25500000000E-02 0.  1.
         -2   -1    0    0    0  501 -0.00000000000E+00 -0.00000000000E+00 -0.30193620902E+02  0.30193621010E+02  0.25500000000E-02 0. -1.
    5000001    1    1    2    0    0 -0.16726279352E+02 -0.20572293385E+03  0.97454405095E+03  0.10137464186E+04  0.18800000000E+03 0.  0.
   -5000001    1    1    2    0    0  0.16726279352E+02  0.20572293385E+03  0.18290619519E+04  0.18502468262E+04  0.18800000000E+03 0.  0.
<mgrwt>
<rscale>  0 0.58502195E+03</rscale>
<asrwt>0</asrwt>
<pdfrwt beam="1">  1        2 0.40482826E+00 0.58502195E+03</pdfrwt>
<pdfrwt beam="2">  1       -2 0.43133772E-02 0.58502195E+03</pdfrwt>
<totfact> 0.80017129E+02</totfact>
</mgrwt>
</event>
<event>
 4    1  0.5985962E-005  0.4638639E+03  0.7818608E-02  0.1023667E+00
          2   -1    0    0  501    0  0.00000000000E+00  0.00000000000E+00  0.12038154162E+04  0.12038154162E+04  0.25500000000E-02 0.  1.
         -2   -1    0    0    0  501 -0.00000000000E+00 -0.00000000000E+00 -0.44684938636E+02  0.44684938708E+02  0.25500000000E-02 0. -1.
    5000001    1    1    2    0    0 -0.11690963006E+03 -0.20878503062E+02  0.75697408312E+03  0.78895978099E+03  0.18800000000E+03 0.  0.
   -5000001    1    1    2    0    0  0.11690963006E+03  0.20878503062E+02  0.40215639441E+03  0.45954057390E+03  0.18800000000E+03 0.  0.
<mgrwt>
<rscale>  0 0.46386385E+03</rscale>
<asrwt>0</asrwt>
<pdfrwt beam="1">  1        2 0.17197361E+00 0.46386385E+03</pdfrwt>
<pdfrwt beam="2">  1       -2 0.63835634E-02 0.46386385E+03</pdfrwt>
<totfact> 0.30073789E+03</totfact>
</mgrwt>
</event>
<event>
 4    1  0.5985962E-005  0.4277597E+03  0.7818608E-02  0.1034570E+00
         -2   -1    0    0    0  501 -0.00000000000E+00  0.00000000000E+00  0.82035581861E+02  0.82035581900E+02  0.25500000000E-02 0. -1.
          2   -1    0    0  501    0  0.00000000000E+00 -0.00000000000E+00 -0.55761890412E+03  0.55761890412E+03  0.25500000000E-02 0.  1.
    5000001    1    1    2    0    0 -0.84291794978E+02 -0.55218479711E+02 -0.26126471068E+03  0.33727946313E+03  0.18800000000E+03 0.  0.
   -5000001    1    1    2    0    0  0.84291794978E+02  0.55218479711E+02 -0.21431861157E+03  0.30237502289E+03  0.18800000000E+03 0.  0.
<mgrwt>
<rscale>  0 0.42775970E+03</rscale>
<asrwt>0</asrwt>
<pdfrwt beam="1">  1        2 0.79659842E-01 0.42775970E+03</pdfrwt>
<pdfrwt beam="2">  1       -2 0.11719369E-01 0.42775970E+03</pdfrwt>
<totfact> 0.30965647E+03</totfact>
</mgrwt>
</event>
<event>
 4    1  0.5985962E-005  0.8249708E+03  0.7818608E-02  0.9524560E-01
         -2   -1    0    0    0  501 -0.00000000000E+00  0.00000000000E+00  0.55909254512E+03  0.55909254512E+03  0.25500000000E-02 0. -1.
          2   -1    0    0  501    0  0.00000000000E+00 -0.00000000000E+00 -0.30432205273E+03  0.30432205274E+03  0.25500000000E-02 0.  1.
    5000001    1    1    2    0    0 -0.18850446779E+03  0.30555763589E+03  0.20778150247E+03  0.45543007805E+03  0.18800000000E+03 0.  0.
   -5000001    1    1    2    0    0  0.18850446779E+03 -0.30555763589E+03  0.46988989921E+02  0.40798451981E+03  0.18800000000E+03 0.  0.
<mgrwt>
<rscale>  0 0.82497077E+03</rscale>
<asrwt>0</asrwt>
<pdfrwt beam="1">  1        2 0.43474579E-01 0.82497077E+03</pdfrwt>
<pdfrwt beam="2">  1       -2 0.79870364E-01 0.82497077E+03</pdfrwt>
<totfact> 0.16390892E+02</totfact>
</mgrwt>
</event>
<event>
 4    1  0.5985962E-005  0.5217366E+03  0.7818608E-02  0.1008256E+00
          2   -1    0    0  501    0  0.00000000000E+00  0.00000000000E+00  0.22460215648E+04  0.22460215648E+04  0.25500000000E-02 0.  1.
         -2   -1    0    0    0  501 -0.00000000000E+00 -0.00000000000E+00 -0.30299024792E+02  0.30299024899E+02  0.25500000000E-02 0. -1.
    5000001    1    1    2    0    0  0.51404915067E+02 -0.11500637042E+03  0.54169423000E+03  0.58706521729E+03  0.18800000000E+03 0.  0.
   -5000001    1    1    2    0    0 -0.51404915067E+02  0.11500637042E+03  0.16740283100E+04  0.16892553724E+04  0.18800000000E+03 0.  0.
<mgrwt>
<rscale>  0 0.52173657E+03</rscale>
<asrwt>0</asrwt>
<pdfrwt beam="1">  1        2 0.32086022E+00 0.52173657E+03</pdfrwt>
<pdfrwt beam="2">  1       -2 0.43284322E-02 0.52173657E+03</pdfrwt>
<totfact> 0.16045905E+03</totfact>
</mgrwt>
</event>
<event>
 4    1  0.5985962E-005  0.5297403E+03  0.7818608E-02  0.1006295E+00
          2   -1    0    0  501    0  0.00000000000E+00  0.00000000000E+00  0.52515502712E+03  0.52515502713E+03  0.25500000000E-02 0.  1.
         -2   -1    0    0    0  501 -0.00000000000E+00 -0.00000000000E+00 -0.13359139490E+03  0.13359139492E+03  0.25500000000E-02 0. -1.
    5000001    1    1    2    0    0  0.37723350712E+02  0.18234932435E+03  0.18118080882E+03  0.32069426681E+03  0.18800000000E+03 0.  0.
   -5000001    1    1    2    0    0 -0.37723350712E+02 -0.18234932435E+03  0.21038282340E+03  0.33805215524E+03  0.18800000000E+03 0.  0.
<mgrwt>
<rscale>  0 0.52974029E+03</rscale>
<asrwt>0</asrwt>
<pdfrwt beam="1">  1        2 0.75022145E-01 0.52974029E+03</pdfrwt>
<pdfrwt beam="2">  1       -2 0.19084485E-01 0.52974029E+03</pdfrwt>
<totfact> 0.14672664E+03</totfact>
</mgrwt>
</event>
<event>
 4    1  0.5985962E-005  0.4948575E+03  0.7818608E-02  0.1015130E+00
         -2   -1    0    0    0  501 -0.00000000000E+00  0.00000000000E+00  0.19312233088E+03  0.19312233089E+03  0.25500000000E-02 0. -1.
          2   -1    0    0  501    0  0.00000000000E+00 -0.00000000000E+00 -0.31700627062E+03  0.31700627063E+03  0.25500000000E-02 0.  1.
    5000001    1    1    2    0    0 -0.94075506289E+02 -0.71674804954E+02  0.50461963097E+02  0.22776717996E+03  0.18800000000E+03 0.  0.
   -5000001    1    1    2    0    0  0.94075506289E+02  0.71674804954E+02 -0.17434590284E+03  0.28236142156E+03  0.18800000000E+03 0.  0.
<mgrwt>
<rscale>  0 0.49485751E+03</rscale>
<asrwt>0</asrwt>
<pdfrwt beam="1">  1        2 0.45286610E-01 0.49485751E+03</pdfrwt>
<pdfrwt beam="2">  1       -2 0.27588905E-01 0.49485751E+03</pdfrwt>
<totfact> 0.13398616E+03</totfact>
</mgrwt>
</event>
<event>
 4    1  0.5985962E-005  0.6914596E+03  0.7818608E-02  0.9731950E-01
         -2   -1    0    0    0  501 -0.00000000000E+00  0.00000000000E+00  0.84264011009E+02  0.84264011047E+02  0.25500000000E-02 0. -1.
          2   -1    0    0  501    0  0.00000000000E+00 -0.00000000000E+00 -0.14185070192E+04  0.14185070192E+04  0.25500000000E-02 0.  1.
    5000001    1    1    2    0    0 -0.13759378491E+02 -0.24135850744E+03 -0.31842642698E+03  0.44179479287E+03  0.18800000000E+03 0.  0.
   -5000001    1    1    2    0    0  0.13759378491E+02  0.24135850744E+03 -0.10158165812E+04  0.10609762373E+04  0.18800000000E+03 0.  0.
<mgrwt>
<rscale>  0 0.69145959E+03</rscale>
<asrwt>0</asrwt>
<pdfrwt beam="1">  1        2 0.20264385E+00 0.69145959E+03</pdfrwt>
<pdfrwt beam="2">  1       -2 0.12037717E-01 0.69145959E+03</pdfrwt>
<totfact> 0.82712052E+02</totfact>
</mgrwt>
</event>
<event>
 4    1  0.5985962E-005  0.6782946E+03  0.7818608E-02  0.9755089E-01
          2   -1    0    0  501    0  0.00000000000E+00  0.00000000000E+00  0.70612602128E+03  0.70612602128E+03  0.25500000000E-02 0.  1.
         -2   -1    0    0    0  501 -0.00000000000E+00 -0.00000000000E+00 -0.16289004833E+03  0.16289004835E+03  0.25500000000E-02 0. -1.
    5000001    1    1    2    0    0 -0.15690723162E+03  0.23464155199E+03  0.27084450804E+03  0.43402452096E+03  0.18800000000E+03 0.  0.
   -5000001    1    1    2    0    0  0.15690723162E+03 -0.23464155199E+03  0.27239146491E+03  0.43499154867E+03  0.18800000000E+03 0.  0.
<mgrwt>
<rscale>  0 0.67829463E+03</rscale>
<asrwt>0</asrwt>
<pdfrwt beam="1">  1        2 0.10087515E+00 0.67829463E+03</pdfrwt>
<pdfrwt beam="2">  1       -2 0.23270007E-01 0.67829463E+03</pdfrwt>
<totfact> 0.72868821E+02</totfact>
</mgrwt>
</event>
<event>
 4    1  0.5985962E-005  0.1180695E+04  0.7818608E-02  0.9129924E-01
         -2   -1    0    0    0  501 -0.00000000000E+00  0.00000000000E+00  0.22155172190E+04  0.22155172190E+04  0.25500000000E-02 0. -1.
          2   -1    0    0  501    0  0.00000000000E+00 -0.00000000000E+00 -0.15730425802E+03  0.15730425804E+03  0.25500000000E-02 0.  1.
    5000001    1    1    2    0    0 -0.32338844746E+03  0.45090907482E+03  0.88325272842E+03  0.10598954967E+04  0.18800000000E+03 0.  0.
   -5000001    1    1    2    0    0  0.32338844746E+03 -0.45090907482E+03  0.11749602325E+04  0.13129259803E+04  0.18800000000E+03 0.  0.
<mgrwt>
<rscale>  0 0.11806952E+04</rscale>
<asrwt>0</asrwt>
<pdfrwt beam="1">  1        2 0.22472038E-01 0.11806952E+04</pdfrwt>
<pdfrwt beam="2">  1       -2 0.31650245E+00 0.11806952E+04</pdfrwt>
<totfact> 0.62487185E+00</totfact>
</mgrwt>
</event>
<event>
 4    1  0.5985962E-005  0.8398930E+03  0.7818608E-02  0.9504004E-01
         -2   -1    0    0    0  501 -0.00000000000E+00  0.00000000000E+00  0.85016674370E+02  0.85016674408E+02  0.25500000000E-02 0. -1.
          2   -1    0    0  501    0  0.00000000000E+00 -0.00000000000E+00 -0.20743585855E+04  0.20743585855E+04  0.25500000000E-02 0.  1.
    5000001    1    1    2    0    0 -0.64081853429E+02 -0.36154427954E+03 -0.79238736798E+03  0.89333223995E+03  0.18800000000E+03 0.  0.
   -5000001    1    1    2    0    0  0.64081853429E+02  0.36154427954E+03 -0.11969545432E+04  0.12660430200E+04  0.18800000000E+03 0.  0.
<mgrwt>
<rscale>  0 0.83989301E+03</rscale>
<asrwt>0</asrwt>
<pdfrwt beam="1">  1        2 0.29633691E+00 0.83989301E+03</pdfrwt>
<pdfrwt beam="2">  1       -2 0.12145240E-01 0.83989301E+03</pdfrwt>
<totfact> 0.37200651E+02</totfact>
</mgrwt>
</event>
<event>
 4    1  0.5985962E-005  0.5348469E+03  0.7818608E-02  0.1005063E+00
          2   -1    0    0  501    0  0.00000000000E+00  0.00000000000E+00  0.79930978237E+02  0.79930978278E+02  0.25500000000E-02 0.  1.
         -2   -1    0    0    0  501 -0.00000000000E+00 -0.00000000000E+00 -0.89471318692E+03  0.89471318693E+03  0.25500000000E-02 0. -1.
    5000001    1    1    2    0    0  0.20192579720E+02 -0.18834132806E+03 -0.37629966577E+03  0.46133028796E+03  0.18800000000E+03 0.  0.
   -5000001    1    1    2    0    0 -0.20192579720E+02  0.18834132806E+03 -0.43848254291E+03  0.51331387724E+03  0.18800000000E+03 0.  0.
<mgrwt>
<rscale>  0 0.53484690E+03</rscale>
<asrwt>0</asrwt>
<pdfrwt beam="1">  1        2 0.11418712E-01 0.53484690E+03</pdfrwt>
<pdfrwt beam="2">  1       -2 0.12781616E+00 0.53484690E+03</pdfrwt>
<totfact> 0.25831154E+02</totfact>
</mgrwt>
</event>
<event>
 4    1  0.5985962E-005  0.6216188E+03  0.7818608E-02  0.9861542E-01
         -2   -1    0    0    0  501 -0.00000000000E+00  0.00000000000E+00  0.64812045496E+02  0.64812045546E+02  0.25500000000E-02 0. -1.
          2   -1    0    0  501    0  0.00000000000E+00 -0.00000000000E+00 -0.14905018035E+04  0.14905018035E+04  0.25500000000E-02 0.  1.
    5000001    1    1    2    0    0  0.23742922207E+03 -0.45472270129E+02 -0.58002204731E+03  0.65590390928E+03  0.18800000000E+03 0.  0.
   -5000001    1    1    2    0    0 -0.23742922207E+03  0.45472270129E+02 -0.84566771067E+03  0.89940993975E+03  0.18800000000E+03 0.  0.
<mgrwt>
<rscale>  0 0.62161876E+03</rscale>
<asrwt>0</asrwt>
<pdfrwt beam="1">  1        2 0.21292881E+00 0.62161876E+03</pdfrwt>
<pdfrwt beam="2">  1       -2 0.92588646E-02 0.62161876E+03</pdfrwt>
<totfact> 0.11662456E+03</totfact>
</mgrwt>
</event>
<event>
 4    1  0.5985962E-005  0.1132541E+04  0.7818608E-02  0.9174043E-01
          2   -1    0    0  501    0  0.00000000000E+00  0.00000000000E+00  0.18120606383E+04  0.18120606383E+04  0.25500000000E-02 0.  1.
         -2   -1    0    0    0  501 -0.00000000000E+00 -0.00000000000E+00 -0.17696009265E+03  0.17696009267E+03  0.25500000000E-02 0. -1.
    5000001    1    1    2    0    0  0.14596393042E+02  0.50444565004E+03  0.51013226223E+03  0.74179336308E+03  0.18800000000E+03 0.  0.
   -5000001    1    1    2    0    0 -0.14596393042E+02 -0.50444565004E+03  0.11249682834E+04  0.12472273679E+04  0.18800000000E+03 0.  0.
<mgrwt>
<rscale>  0 0.11325412E+04</rscale>
<asrwt>0</asrwt>
<pdfrwt beam="1">  1        2 0.25886580E+00 0.11325412E+04</pdfrwt>
<pdfrwt beam="2">  1       -2 0.25280014E-01 0.11325412E+04</pdfrwt>
<totfact> 0.13967976E+02</totfact>
</mgrwt>
</event>
<event>
 4    1  0.5985962E-005  0.5600513E+03  0.7818608E-02  0.9991939E-01
         -2   -1    0    0    0  501 -0.00000000000E+00  0.00000000000E+00  0.21391180734E+02  0.21391180886E+02  0.25500000000E-02 0. -1.
          2   -1    0    0  501    0  0.00000000000E+00 -0.00000000000E+00 -0.36657332270E+04  0.36657332270E+04  0.25500000000E-02 0.  1.
    5000001    1    1    2    0    0 -0.32496819397E+02  0.81063607118E+02 -0.30616104033E+04  0.30686201481E+04  0.18800000000E+03 0.  0.
   -5000001    1    1    2    0    0  0.32496819397E+02 -0.81063607118E+02 -0.58273164291E+03  0.61850425974E+03  0.18800000000E+03 0.  0.
<mgrwt>
<rscale>  0 0.56005129E+03</rscale>
<asrwt>0</asrwt>
<pdfrwt beam="1">  1        2 0.52367577E+00 0.56005129E+03</pdfrwt>
<pdfrwt beam="2">  1       -2 0.30558853E-02 0.56005129E+03</pdfrwt>
<totfact> 0.45789551E+02</totfact>
</mgrwt>
</event>
<event>
 4    1  0.5985962E-005  0.8498737E+03  0.7818608E-02  0.9490506E-01
          2   -1    0    0  501    0  0.00000000000E+00  0.00000000000E+00  0.34390984927E+03  0.34390984928E+03  0.25500000000E-02 0.  1.
         -2   -1    0    0    0  501 -0.00000000000E+00 -0.00000000000E+00 -0.52505430160E+03  0.52505430161E+03  0.25500000000E-02 0. -1.
    5000001    1    1    2    0    0  0.31975679402E+03 -0.15313035044E+03  0.52331455799E+02  0.40469234341E+03  0.18800000000E+03 0.  0.
   -5000001    1    1    2    0    0 -0.31975679402E+03  0.15313035044E+03 -0.23347590813E+03  0.46427180748E+03  0.18800000000E+03 0.  0.
<mgrwt>
<rscale>  0 0.84987375E+03</rscale>
<asrwt>0</asrwt>
<pdfrwt beam="1">  1        2 0.49129979E-01 0.84987375E+03</pdfrwt>
<pdfrwt beam="2">  1       -2 0.75007757E-01 0.84987375E+03</pdfrwt>
<totfact> 0.16444279E+02</totfact>
</mgrwt>
</event>
<event>
 4    1  0.5985962E-005  0.5249484E+03  0.7818608E-02  0.1007465E+00
         -2   -1    0    0    0  501 -0.00000000000E+00  0.00000000000E+00  0.12461128322E+03  0.12461128325E+03  0.25500000000E-02 0. -1.
          2   -1    0    0  501    0  0.00000000000E+00 -0.00000000000E+00 -0.55286096702E+03  0.55286096702E+03  0.25500000000E-02 0.  1.
    5000001    1    1    2    0    0 -0.75496422209E+02  0.16682734684E+03 -0.21954532626E+03  0.34216256911E+03  0.18800000000E+03 0.  0.
   -5000001    1    1    2    0    0  0.75496422209E+02 -0.16682734684E+03 -0.20870435754E+03  0.33530968116E+03  0.18800000000E+03 0.  0.
<mgrwt>
<rscale>  0 0.52494843E+03</rscale>
<asrwt>0</asrwt>
<pdfrwt beam="1">  1        2 0.78980137E-01 0.52494843E+03</pdfrwt>
<pdfrwt beam="2">  1       -2 0.17801612E-01 0.52494843E+03</pdfrwt>
<totfact> 0.15589542E+03</totfact>
</mgrwt>
</event>
<event>
 4    1  0.5985962E-005  0.9469921E+03  0.7818608E-02  0.9368673E-01
          2   -1    0    0  501    0  0.00000000000E+00  0.00000000000E+00  0.23780080115E+04  0.23780080115E+04  0.25500000000E-02 0.  1.
         -2   -1    0    0    0  501 -0.00000000000E+00 -0.00000000000E+00 -0.94279969027E+02  0.94279969062E+02  0.25500000000E-02 0. -1.
    5000001    1    1    2    0    0  0.17003804998E+03 -0.38529093087E+03  0.14217361190E+04  0.14946704091E+04  0.18800000000E+03 0.  0.
   -5000001    1    1    2    0    0 -0.17003804998E+03  0.38529093087E+03  0.86199192351E+03  0.97761757147E+03  0.18800000000E+03 0.  0.
<mgrwt>
<rscale>  0 0.94699213E+03</rscale>
<asrwt>0</asrwt>
<pdfrwt beam="1">  1        2 0.33971542E+00 0.94699213E+03</pdfrwt>
<pdfrwt beam="2">  1       -2 0.13468567E-01 0.94699213E+03</pdfrwt>
<totfact> 0.21732497E+02</totfact>
</mgrwt>
</event>
<event>
 4    1  0.5985962E-005  0.1013169E+04  0.7818608E-02  0.9294218E-01
          2   -1    0    0  501    0  0.00000000000E+00  0.00000000000E+00  0.28893783840E+04  0.28893783840E+04  0.25500000000E-02 0.  1.
         -2   -1    0    0    0  501 -0.00000000000E+00 -0.00000000000E+00 -0.88817615907E+02  0.88817615944E+02  0.25500000000E-02 0. -1.
    5000001    1    1    2    0    0  0.44590313729E+03  0.98595445639E+01  0.18397988473E+04  0.19024012766E+04  0.18800000000E+03 0.  0.
   -5000001    1    1    2    0    0 -0.44590313729E+03 -0.98595445639E+01  0.96076192081E+03  0.10757947234E+04  0.18800000000E+03 0.  0.
<mgrwt>
<rscale>  0 0.10131687E+04</rscale>
<asrwt>0</asrwt>
<pdfrwt beam="1">  1        2 0.41276841E+00 0.10131687E+04</pdfrwt>
<pdfrwt beam="2">  1       -2 0.12688229E-01 0.10131687E+04</pdfrwt>
<totfact> 0.12826396E+02</totfact>
</mgrwt>
</event>
<event>
 4    1  0.5985962E-005  0.6959864E+03  0.7818608E-02  0.9724121E-01
         -2   -1    0    0    0  501 -0.00000000000E+00  0.00000000000E+00  0.29340529450E+03  0.29340529451E+03  0.25500000000E-02 0. -1.
          2   -1    0    0  501    0  0.00000000000E+00 -0.00000000000E+00 -0.41273711869E+03  0.41273711870E+03  0.25500000000E-02 0.  1.
    5000001    1    1    2    0    0  0.24800768222E+03 -0.14496892602E+03 -0.19905032076E+01  0.34332457246E+03  0.18800000000E+03 0.  0.
   -5000001    1    1    2    0    0 -0.24800768222E+03  0.14496892602E+03 -0.11734132099E+03  0.36281784074E+03  0.18800000000E+03 0.  0.
<mgrwt>
<rscale>  0 0.69598637E+03</rscale>
<asrwt>0</asrwt>
<pdfrwt beam="1">  1        2 0.58962446E-01 0.69598637E+03</pdfrwt>
<pdfrwt beam="2">  1       -2 0.41915042E-01 0.69598637E+03</pdfrwt>
<totfact> 0.45347414E+02</totfact>
</mgrwt>
</event>
<event>
 4    1  0.5985962E-005  0.6467094E+03  0.7818608E-02  0.9812973E-01
         -2   -1    0    0    0  501 -0.00000000000E+00  0.00000000000E+00  0.34390650856E+02  0.34390650951E+02  0.25500000000E-02 0. -1.
          2   -1    0    0  501    0  0.00000000000E+00 -0.00000000000E+00 -0.30403109000E+04  0.30403109000E+04  0.25500000000E-02 0.  1.
    5000001    1    1    2    0    0  0.14837037528E+03 -0.20762338653E+03 -0.11987901509E+04  0.12399851067E+04  0.18800000000E+03 0.  0.
   -5000001    1    1    2    0    0 -0.14837037528E+03  0.20762338653E+03 -0.18071300982E+04  0.18347164442E+04  0.18800000000E+03 0.  0.
<mgrwt>
<rscale>  0 0.64670943E+03</rscale>
<asrwt>0</asrwt>
<pdfrwt beam="1">  1        2 0.43432996E+00 0.64670943E+03</pdfrwt>
<pdfrwt beam="2">  1       -2 0.49129521E-02 0.64670943E+03</pdfrwt>
<totfact> 0.50332315E+02</totfact>
</mgrwt>
</event>
<event>
 4    1  0.5985962E-005  0.1067319E+04  0.7818608E-02  0.9237644E-01
         -2   -1    0    0    0  501 -0.00000000000E+00  0.00000000000E+00  0.25687962788E+03  0.25687962789E+03  0.25500000000E-02 0. -1.
          2   -1    0    0  501    0  0.00000000000E+00 -0.00000000000E+00 -0.11086606699E+04  0.11086606699E+04  0.25500000000E-02 0.  1.
    5000001    1    1    2    0    0  0.34945946479E+03 -0.32176485749E+03 -0.22853818562E+03  0.55966797598E+03  0.18800000000E+03 0.  0.
   -5000001    1    1    2    0    0 -0.34945946479E+03  0.32176485749E+03 -0.62324285644E+03  0.80587232186E+03  0.18800000000E+03 0.  0.
<mgrwt>
<rscale>  0 0.10673188E+04</rscale>
<asrwt>0</asrwt>
<pdfrwt beam="1">  1        2 0.15838009E+00 0.10673188E+04</pdfrwt>
<pdfrwt beam="2">  1       -2 0.36697090E-01 0.10673188E+04</pdfrwt>
<totfact> 0.16769464E+02</totfact>
</mgrwt>
</event>
<event>
 4    1  0.5985962E-005  0.5444966E+03  0.7818608E-02  0.1002776E+00
          2   -1    0    0  501    0  0.00000000000E+00  0.00000000000E+00  0.11947472290E+04  0.11947472290E+04  0.25500000000E-02 0.  1.
         -2   -1    0    0    0  501 -0.00000000000E+00 -0.00000000000E+00 -0.62037494949E+02  0.62037495002E+02  0.25500000000E-02 0. -1.
    5000001    1    1    2    0    0 -0.23297487458E+02  0.18955966459E+03  0.45567181484E+03  0.52863639886E+03  0.18800000000E+03 0.  0.
   -5000001    1    1    2    0    0  0.23297487458E+02 -0.18955966459E+03  0.67703791925E+03  0.72814832518E+03  0.18800000000E+03 0.  0.
<mgrwt>
<rscale>  0 0.54449656E+03</rscale>
<asrwt>0</asrwt>
<pdfrwt beam="1">  1        2 0.17067817E+00 0.54449656E+03</pdfrwt>
<pdfrwt beam="2">  1       -2 0.88624995E-02 0.54449656E+03</pdfrwt>
<totfact> 0.18096298E+03</totfact>
</mgrwt>
</event>
<event>
 4    1  0.5985962E-005  0.4020801E+03  0.7818608E-02  0.1043062E+00
         -2   -1    0    0    0  501 -0.00000000000E+00  0.00000000000E+00  0.10368481442E+02  0.10368481756E+02  0.25500000000E-02 0. -1.
          2   -1    0    0  501    0  0.00000000000E+00 -0.00000000000E+00 -0.38980727772E+04  0.38980727772E+04  0.25500000000E-02 0.  1.
    5000001    1    1    2    0    0  0.51027784277E+02  0.20311399078E+02 -0.23846884771E+04  0.23927180194E+04  0.18800000000E+03 0.  0.
   -5000001    1    1    2    0    0 -0.51027784277E+02 -0.20311399078E+02 -0.15030158187E+04  0.15157232396E+04  0.18800000000E+03 0.  0.
<mgrwt>
<rscale>  0 0.40208007E+03</rscale>
<asrwt>0</asrwt>
<pdfrwt beam="1">  1        2 0.55686660E+00 0.40208007E+03</pdfrwt>
<pdfrwt beam="2">  1       -2 0.14812141E-02 0.40208007E+03</pdfrwt>
<totfact> 0.98930002E+02</totfact>
</mgrwt>
</event>
<event>
 4    1  0.5985962E-005  0.4721011E+03  0.7818608E-02  0.1021329E+00
          2   -1    0    0  501    0  0.00000000000E+00  0.00000000000E+00  0.13624007442E+04  0.13624007442E+04  0.25500000000E-02 0.  1.
         -2   -1    0    0    0  501 -0.00000000000E+00 -0.00000000000E+00 -0.40898290606E+02  0.40898290686E+02  0.25500000000E-02 0. -1.
    5000001    1    1    2    0    0 -0.30128311087E+01  0.10877312504E+03  0.38613774341E+03  0.44304291752E+03  0.18800000000E+03 0.  0.
   -5000001    1    1    2    0    0  0.30128311087E+01 -0.10877312504E+03  0.93536471019E+03  0.96025611737E+03  0.18800000000E+03 0.  0.
<mgrwt>
<rscale>  0 0.47210110E+03</rscale>
<asrwt>0</asrwt>
<pdfrwt beam="1">  1        2 0.19462873E+00 0.47210110E+03</pdfrwt>
<pdfrwt beam="2">  1       -2 0.58426114E-02 0.47210110E+03</pdfrwt>
<totfact> 0.28327738E+03</totfact>
</mgrwt>
</event>
<event>
 4    1  0.5985962E-005  0.3839547E+03  0.7818608E-02  0.1049482E+00
          2   -1    0    0  501    0  0.00000000000E+00  0.00000000000E+00  0.11222335718E+04  0.11222335718E+04  0.25500000000E-02 0.  1.
         -2   -1    0    0    0  501 -0.00000000000E+00 -0.00000000000E+00 -0.32841030691E+02  0.32841030790E+02  0.25500000000E-02 0. -1.
    5000001    1    1    2    0    0 -0.16781265290E+02  0.33431641564E+02  0.57653686144E+03  0.60756731159E+03  0.18800000000E+03 0.  0.
   -5000001    1    1    2    0    0  0.16781265290E+02 -0.33431641564E+02  0.51285567964E+03  0.54750729096E+03  0.18800000000E+03 0.  0.
<mgrwt>
<rscale>  0 0.38395472E+03</rscale>
<asrwt>0</asrwt>
<pdfrwt beam="1">  1        2 0.16031908E+00 0.38395472E+03</pdfrwt>
<pdfrwt beam="2">  1       -2 0.46915757E-02 0.38395472E+03</pdfrwt>
<totfact> 0.53699633E+03</totfact>
</mgrwt>
</event>
<event>
 4    1  0.5985962E-005  0.4979669E+03  0.7818608E-02  0.1014311E+00
          2   -1    0    0  501    0  0.00000000000E+00  0.00000000000E+00  0.75891826202E+03  0.75891826203E+03  0.25500000000E-02 0.  1.
         -2   -1    0    0    0  501 -0.00000000000E+00 -0.00000000000E+00 -0.81685677421E+02  0.81685677461E+02  0.25500000000E-02 0. -1.
    5000001    1    1    2    0    0 -0.15674275029E+03 -0.11369715285E+02  0.41318231655E+03  0.48037608902E+03  0.18800000000E+03 0.  0.
   -5000001    1    1    2    0    0  0.15674275029E+03  0.11369715285E+02  0.26405026805E+03  0.36022785047E+03  0.18800000000E+03 0.  0.
<mgrwt>
<rscale>  0 0.49796688E+03</rscale>
<asrwt>0</asrwt>
<pdfrwt beam="1">  1        2 0.10841689E+00 0.49796688E+03</pdfrwt>
<pdfrwt beam="2">  1       -2 0.11669383E-01 0.49796688E+03</pdfrwt>
<totfact> 0.21630149E+03</totfact>
</mgrwt>
</event>
<event>
 4    1  0.5985962E-005  0.6338503E+03  0.7818608E-02  0.9837564E-01
          2   -1    0    0  501    0  0.00000000000E+00  0.00000000000E+00  0.26567373094E+04  0.26567373094E+04  0.25500000000E-02 0.  1.
         -2   -1    0    0    0  501 -0.00000000000E+00 -0.00000000000E+00 -0.37806358927E+02  0.37806359013E+02  0.25500000000E-02 0. -1.
    5000001    1    1    2    0    0  0.14010723485E+03  0.32684482293E+02  0.41371649570E+03  0.47665884179E+03  0.18800000000E+03 0.  0.
   -5000001    1    1    2    0    0 -0.14010723485E+03 -0.32684482293E+02  0.22052144547E+04  0.22178848266E+04  0.18800000000E+03 0.  0.
<mgrwt>
<rscale>  0 0.63385034E+03</rscale>
<asrwt>0</asrwt>
<pdfrwt beam="1">  1        2 0.37953391E+00 0.63385034E+03</pdfrwt>
<pdfrwt beam="2">  1       -2 0.54009083E-02 0.63385034E+03</pdfrwt>
<totfact> 0.69709102E+02</totfact>
</mgrwt>
</event>
<event>
 4    1  0.5985962E-005  0.9026362E+03  0.7818608E-02  0.9422292E-01
          2   -1    0    0  501    0  0.00000000000E+00  0.00000000000E+00  0.24431417745E+04  0.24431417745E+04  0.25500000000E-02 0.  1.
         -2   -1    0    0    0  501 -0.00000000000E+00 -0.00000000000E+00 -0.83371343318E+02  0.83371343357E+02  0.25500000000E-02 0. -1.
    5000001    1    1    2    0    0  0.11536981683E+03  0.27669359599E+03  0.39578237752E+03  0.53090228014E+03  0.18800000000E+03 0.  0.
   -5000001    1    1    2    0    0 -0.11536981683E+03 -0.27669359599E+03  0.19639880536E+04  0.19956108377E+04  0.18800000000E+03 0.  0.
<mgrwt>
<rscale>  0 0.90263617E+03</rscale>
<asrwt>0</asrwt>
<pdfrwt beam="1">  1        2 0.34902033E+00 0.90263617E+03</pdfrwt>
<pdfrwt beam="2">  1       -2 0.11910189E-01 0.90263617E+03</pdfrwt>
<totfact> 0.24774310E+02</totfact>
</mgrwt>
</event>
<event>
 4    1  0.5985962E-005  0.4506982E+03  0.7818608E-02  0.1027514E+00
         -2   -1    0    0    0  501 -0.00000000000E+00  0.00000000000E+00  0.41799211602E+02  0.41799211679E+02  0.25500000000E-02 0. -1.
          2   -1    0    0  501    0  0.00000000000E+00 -0.00000000000E+00 -0.12149083956E+04  0.12149083956E+04  0.25500000000E-02 0.  1.
    5000001    1    1    2    0    0 -0.94587808148E+02  0.76060489142E+02 -0.51245761078E+03  0.55918588529E+03  0.18800000000E+03 0.  0.
   -5000001    1    1    2    0    0  0.94587808148E+02 -0.76060489142E+02 -0.66065157323E+03  0.69752172200E+03  0.18800000000E+03 0.  0.
<mgrwt>
<rscale>  0 0.45069818E+03</rscale>
<asrwt>0</asrwt>
<pdfrwt beam="1">  1        2 0.17355832E+00 0.45069818E+03</pdfrwt>
<pdfrwt beam="2">  1       -2 0.59713167E-02 0.45069818E+03</pdfrwt>
<totfact> 0.32902063E+03</totfact>
</mgrwt>
</event>
<event>
 4    1  0.5985962E-005  0.5109850E+03  0.7818608E-02  0.1010951E+00
          2   -1    0    0  501    0  0.00000000000E+00  0.00000000000E+00  0.24720188027E+03  0.24720188029E+03  0.25500000000E-02 0.  1.
         -2   -1    0    0    0  501 -0.00000000000E+00 -0.00000000000E+00 -0.26406116210E+03  0.26406116211E+03  0.25500000000E-02 0. -1.
    5000001    1    1    2    0    0 -0.14174247330E+03 -0.87317852849E+02  0.38681855537E+02  0.25407798431E+03  0.18800000000E+03 0.  0.
   -5000001    1    1    2    0    0  0.14174247330E+03  0.87317852849E+02 -0.55541137360E+02  0.25718505809E+03  0.18800000000E+03 0.  0.
<mgrwt>
<rscale>  0 0.51098499E+03</rscale>
<asrwt>0</asrwt>
<pdfrwt beam="1">  1        2 0.35314554E-01 0.51098499E+03</pdfrwt>
<pdfrwt beam="2">  1       -2 0.37723023E-01 0.51098499E+03</pdfrwt>
<totfact> 0.98351654E+02</totfact>
</mgrwt>
</event>
<event>
 4    1  0.5985962E-005  0.9243215E+03  0.7818608E-02  0.9395679E-01
         -2   -1    0    0    0  501 -0.00000000000E+00  0.00000000000E+00  0.19354645220E+03  0.19354645221E+03  0.25500000000E-02 0.  1.
          2   -1    0    0  501    0  0.00000000000E+00 -0.00000000000E+00 -0.11035726570E+04  0.11035726570E+04  0.25500000000E-02 0. -1.
    5000001    1    1    2    0    0  0.30476233954E+03  0.13759208604E+03 -0.81672391440E+03  0.90232678011E+03  0.18800000000E+03 0.  0.
   -5000001    1    1    2    0    0 -0.30476233954E+03 -0.13759208604E+03 -0.93302290426E+02  0.39479232913E+03  0.18800000000E+03 0.  0.
<mgrwt>
<rscale>  0 0.92432153E+03</rscale>
<asrwt>0</asrwt>
<pdfrwt beam="1">  1        2 0.15765323E+00 0.92432153E+03</pdfrwt>
<pdfrwt beam="2">  1       -2 0.27649494E-01 0.92432153E+03</pdfrwt>
<totfact> 0.28961306E+02</totfact>
</mgrwt>
</event>
<event>
 4    1  0.5985962E-005  0.4141614E+03  0.7818608E-02  0.1038983E+00
          2   -1    0    0  501    0  0.00000000000E+00  0.00000000000E+00  0.26122729984E+03  0.26122729985E+03  0.25500000000E-02 0.  1.
         -2   -1    0    0    0  501 -0.00000000000E+00 -0.00000000000E+00 -0.16415745765E+03  0.16415745767E+03  0.25500000000E-02 0. -1.
    5000001    1    1    2    0    0  0.20149788833E+02 -0.84323987833E+02  0.43732697041E+02  0.21159654464E+03  0.18800000000E+03 0.  0.
   -5000001    1    1    2    0    0 -0.20149788833E+02  0.84323987833E+02  0.53337145148E+02  0.21378821288E+03  0.18800000000E+03 0.  0.
<mgrwt>
<rscale>  0 0.41416137E+03</rscale>
<asrwt>0</asrwt>
<pdfrwt beam="1">  1        2 0.37318186E-01 0.41416137E+03</pdfrwt>
<pdfrwt beam="2">  1       -2 0.23451066E-01 0.41416137E+03</pdfrwt>
<totfact> 0.22121108E+03</totfact>
</mgrwt>
</event>
<event>
 4    1  0.5985962E-005  0.8842501E+03  0.7818608E-02  0.9445487E-01
          2   -1    0    0  501    0  0.00000000000E+00  0.00000000000E+00  0.21033702193E+04  0.21033702193E+04  0.25500000000E-02 0.  1.
         -2   -1    0    0    0  501 -0.00000000000E+00 -0.00000000000E+00 -0.92933972528E+02  0.92933972563E+02  0.25500000000E-02 0. -1.
    5000001    1    1    2    0    0  0.73266282657E+02 -0.36878464762E+03  0.13454221289E+04  0.14095654541E+04  0.18800000000E+03 0.  0.
   -5000001    1    1    2    0    0 -0.73266282657E+02  0.36878464762E+03  0.66501411782E+03  0.78673873770E+03  0.18800000000E+03 0.  0.
<mgrwt>
<rscale>  0 0.88425008E+03</rscale>
<asrwt>0</asrwt>
<pdfrwt beam="1">  1        2 0.30048147E+00 0.88425008E+03</pdfrwt>
<pdfrwt beam="2">  1       -2 0.13276282E-01 0.88425008E+03</pdfrwt>
<totfact> 0.30907185E+02</totfact>
</mgrwt>
</event>
<event>
 4    1  0.5985962E-005  0.6421321E+03  0.7818608E-02  0.9821656E-01
         -2   -1    0    0    0  501 -0.00000000000E+00  0.00000000000E+00  0.60874103847E+02  0.60874103901E+02  0.25500000000E-02 0.  1.
          2   -1    0    0  501    0  0.00000000000E+00 -0.00000000000E+00 -0.16933867089E+04  0.16933867089E+04  0.25500000000E-02 0. -1.
    5000001    1    1    2    0    0  0.15609009798E+03 -0.19884340862E+03 -0.64704013631E+03  0.71965808398E+03  0.18800000000E+03 0.  0.
   -5000001    1    1    2    0    0 -0.15609009798E+03  0.19884340862E+03 -0.98547246876E+03  0.10346027288E+04  0.18800000000E+03 0.  0.
<mgrwt>
<rscale>  0 0.64213207E+03</rscale>
<asrwt>0</asrwt>
<pdfrwt beam="1">  1        2 0.24191236E+00 0.64213207E+03</pdfrwt>
<pdfrwt beam="2">  1       -2 0.86963016E-02 0.64213207E+03</pdfrwt>
<totfact> 0.10129250E+03</totfact>
</mgrwt>
</event>
<event>
 4    1  0.5985962E-005  0.6648533E+03  0.7818608E-02  0.9779300E-01
          2   -1    0    0  501    0  0.00000000000E+00  0.00000000000E+00  0.20389473513E+04  0.20389473513E+04  0.25500000000E-02 0.  1.
         -2   -1    0    0    0  501 -0.00000000000E+00 -0.00000000000E+00 -0.54198300011E+02  0.54198300071E+02  0.25500000000E-02 0. -1.
    5000001    1    1    2    0    0 -0.12555239480E+03  0.24110812636E+03  0.11044351377E+04  0.11528302155E+04  0.18800000000E+03 0.  0.
   -5000001    1    1    2    0    0  0.12555239480E+03 -0.24110812636E+03  0.88031391354E+03  0.94031543581E+03  0.18800000000E+03 0.  0.
<mgrwt>
<rscale>  0 0.66485331E+03</rscale>
<asrwt>0</asrwt>
<pdfrwt beam="1">  1        2 0.29127824E+00 0.66485331E+03</pdfrwt>
<pdfrwt beam="2">  1       -2 0.77426131E-02 0.66485331E+03</pdfrwt>
<totfact> 0.81470505E+02</totfact>
</mgrwt>
</event>
<event>
 4    1  0.5985962E-005  0.6141688E+03  0.7818608E-02  0.9876439E-01
          2   -1    0    0  501    0  0.00000000000E+00  0.00000000000E+00  0.95755641187E+03  0.95755641187E+03  0.25500000000E-02 0. -1.
         -2   -1    0    0    0  501 -0.00000000000E+00 -0.00000000000E+00 -0.98480705872E+02  0.98480705905E+02  0.25500000000E-02 0.  1.
    5000001    1    1    2    0    0  0.66814053427E+02  0.21504018268E+03  0.27335627374E+03  0.40096639547E+03  0.18800000000E+03 0.  0.
   -5000001    1    1    2    0    0 -0.66814053427E+02 -0.21504018268E+03  0.58571943225E+03  0.65507072230E+03  0.18800000000E+03 0.  0.
<mgrwt>
<rscale>  0 0.61416881E+03</rscale>
<asrwt>0</asrwt>
<pdfrwt beam="1">  1        2 0.13679376E+00 0.61416881E+03</pdfrwt>
<pdfrwt beam="2">  1       -2 0.14068673E-01 0.61416881E+03</pdfrwt>
<totfact> 0.11703952E+03</totfact>
</mgrwt>
</event>
<event>
 4    1  0.5985962E-005  0.5973963E+03  0.7818608E-02  0.9910823E-01
          2   -1    0    0  501    0  0.00000000000E+00  0.00000000000E+00  0.10125976220E+04  0.10125976220E+04  0.25500000000E-02 0.  1.
         -2   -1    0    0    0  501 -0.00000000000E+00 -0.00000000000E+00 -0.88110587963E+02  0.88110588000E+02  0.25500000000E-02 0. -1.
    5000001    1    1    2    0    0  0.56649457003E+02  0.19329087388E+03  0.24970665341E+03  0.37184396682E+03  0.18800000000E+03 0.  0.
   -5000001    1    1    2    0    0 -0.56649457003E+02 -0.19329087388E+03  0.67478038058E+03  0.72886424314E+03  0.18800000000E+03 0.  0.
<mgrwt>
<rscale>  0 0.59739626E+03</rscale>
<asrwt>0</asrwt>
<pdfrwt beam="1">  1        2 0.14465681E+00 0.59739626E+03</pdfrwt>
<pdfrwt beam="2">  1       -2 0.12587226E-01 0.59739626E+03</pdfrwt>
<totfact> 0.13032897E+03</totfact>
</mgrwt>
</event>
<event>
 4    1  0.5985962E-005  0.8148031E+03  0.7818608E-02  0.9538834E-01
         -2   -1    0    0    0  501 -0.00000000000E+00  0.00000000000E+00  0.19263037569E+03  0.19263037571E+03  0.25500000000E-02 0. -1.
          2   -1    0    0  501    0  0.00000000000E+00 -0.00000000000E+00 -0.86162957409E+03  0.86162957409E+03  0.25500000000E-02 0.  1.
    5000001    1    1    2    0    0 -0.15201865996E+03 -0.31475484975E+03 -0.45345059901E+03  0.60261242450E+03  0.18800000000E+03 0.  0.
   -5000001    1    1    2    0    0  0.15201865996E+03  0.31475484975E+03 -0.21554859938E+03  0.45164752530E+03  0.18800000000E+03 0.  0.
<mgrwt>
<rscale>  0 0.81480311E+03</rscale>
<asrwt>0</asrwt>
<pdfrwt beam="1">  1        2 0.12308994E+00 0.81480311E+03</pdfrwt>
<pdfrwt beam="2">  1       -2 0.27518626E-01 0.81480311E+03</pdfrwt>
<totfact> 0.41569411E+02</totfact>
</mgrwt>
</event>
<event>
 4    1  0.5985962E-005  0.7093372E+03  0.7818608E-02  0.9701396E-01
          2   -1    0    0  501    0  0.00000000000E+00  0.00000000000E+00  0.12160481793E+04  0.12160481794E+04  0.25500000000E-02 0.  1.
         -2   -1    0    0    0  501 -0.00000000000E+00 -0.00000000000E+00 -0.10344148248E+03  0.10344148251E+03  0.25500000000E-02 0. -1.
    5000001    1    1    2    0    0  0.13044675248E+03  0.14793256859E+03  0.13397687547E+03  0.30363498356E+03  0.18800000000E+03 0.  0.
   -5000001    1    1    2    0    0 -0.13044675248E+03 -0.14793256859E+03  0.97862982140E+03  0.10158546783E+04  0.18800000000E+03 0.  0.
<mgrwt>
<rscale>  0 0.70933723E+03</rscale>
<asrwt>0</asrwt>
<pdfrwt beam="1">  1        2 0.17372115E+00 0.70933723E+03</pdfrwt>
<pdfrwt beam="2">  1       -2 0.14777356E-01 0.70933723E+03</pdfrwt>
<totfact> 0.75685466E+02</totfact>
</mgrwt>
</event>
<event>
 4    1  0.5985962E-005  0.5421881E+03  0.7818608E-02  0.1003318E+00
         -2   -1    0    0    0  501 -0.00000000000E+00  0.00000000000E+00  0.14754427399E+03  0.14754427401E+03  0.25500000000E-02 0. -1.
          2   -1    0    0  501    0  0.00000000000E+00 -0.00000000000E+00 -0.49810128579E+03  0.49810128580E+03  0.25500000000E-02 0.  1.
    5000001    1    1    2    0    0 -0.15032890498E+03  0.10977882727E+03 -0.24570612625E+03  0.36106186598E+03  0.18800000000E+03 0.  0.
   -5000001    1    1    2    0    0  0.15032890498E+03 -0.10977882727E+03 -0.10485088556E+03  0.28458369383E+03  0.18800000000E+03 0.  0.
<mgrwt>
<rscale>  0 0.54218813E+03</rscale>
<asrwt>0</asrwt>
<pdfrwt beam="1">  1        2 0.71157326E-01 0.54218813E+03</pdfrwt>
<pdfrwt beam="2">  1       -2 0.21077754E-01 0.54218813E+03</pdfrwt>
<totfact> 0.13111276E+03</totfact>
</mgrwt>
</event>
<event>
 4    1  0.5985962E-005  0.5677337E+03  0.7818608E-02  0.9974706E-01
         -2   -1    0    0    0  501 -0.00000000000E+00  0.00000000000E+00  0.53986526639E+02  0.53986526699E+02  0.25500000000E-02 0. -1.
          2   -1    0    0  501    0  0.00000000000E+00 -0.00000000000E+00 -0.14926018891E+04  0.14926018891E+04  0.25500000000E-02 0.  1.
    5000001    1    1    2    0    0  0.19451244084E+03  0.19465266645E+02 -0.94759039169E+03  0.98563965864E+03  0.18800000000E+03 0.  0.
   -5000001    1    1    2    0    0 -0.19451244084E+03 -0.19465266645E+02 -0.49102497074E+03  0.56094875714E+03  0.18800000000E+03 0.  0.
<mgrwt>
<rscale>  0 0.56773371E+03</rscale>
<asrwt>0</asrwt>
<pdfrwt beam="1">  1        2 0.21322882E+00 0.56773371E+03</pdfrwt>
<pdfrwt beam="2">  1       -2 0.77123618E-02 0.56773371E+03</pdfrwt>
<totfact> 0.15613229E+03</totfact>
</mgrwt>
</event>
<event>
 4    1  0.5985962E-005  0.6762464E+03  0.7818608E-02  0.9758739E-01
          2   -1    0    0  501    0  0.00000000000E+00  0.00000000000E+00  0.81556209157E+03  0.81556209157E+03  0.25500000000E-02 0.  1.
         -2   -1    0    0    0  501 -0.00000000000E+00 -0.00000000000E+00 -0.14018220407E+03  0.14018220410E+03  0.25500000000E-02 0. -1.
    5000001    1    1    2    0    0 -0.80435887340E+02 -0.22991802144E+03  0.13956927487E+03  0.33786951778E+03  0.18800000000E+03 0.  0.
   -5000001    1    1    2    0    0  0.80435887340E+02  0.22991802144E+03  0.53581061263E+03  0.61787477789E+03  0.18800000000E+03 0.  0.
<mgrwt>
<rscale>  0 0.67624638E+03</rscale>
<asrwt>0</asrwt>
<pdfrwt beam="1">  1        2 0.11650887E+00 0.67624638E+03</pdfrwt>
<pdfrwt beam="2">  1       -2 0.20026029E-01 0.67624638E+03</pdfrwt>
<totfact> 0.79189579E+02</totfact>
</mgrwt>
</event>
<event>
 4    1  0.5985962E-005  0.6595117E+03  0.7818608E-02  0.9789093E-01
         -2   -1    0    0    0  501 -0.00000000000E+00  0.00000000000E+00  0.79960866063E+02  0.79960866103E+02  0.25500000000E-02 0. -1.
          2   -1    0    0  501    0  0.00000000000E+00 -0.00000000000E+00 -0.13599019386E+04  0.13599019386E+04  0.25500000000E-02 0.  1.
    5000001    1    1    2    0    0  0.78049875798E+01 -0.24633923383E+03 -0.39440861736E+03  0.50164339266E+03  0.18800000000E+03 0.  0.
   -5000001    1    1    2    0    0 -0.78049875798E+01  0.24633923383E+03 -0.88553245517E+03  0.93821941203E+03  0.18800000000E+03 0.  0.
<mgrwt>
<rscale>  0 0.65951175E+03</rscale>
<asrwt>0</asrwt>
<pdfrwt beam="1">  1        2 0.19427169E+00 0.65951175E+03</pdfrwt>
<pdfrwt beam="2">  1       -2 0.11422982E-01 0.65951175E+03</pdfrwt>
<totfact> 0.97037605E+02</totfact>
</mgrwt>
</event>
<event>
 4    1  0.5985962E-005  0.6985127E+03  0.7818608E-02  0.9719779E-01
          2   -1    0    0  501    0  0.00000000000E+00  0.00000000000E+00  0.56600193028E+03  0.56600193028E+03  0.25500000000E-02 0. -1.
         -2   -1    0    0    0  501 -0.00000000000E+00 -0.00000000000E+00 -0.21551162534E+03  0.21551162536E+03  0.25500000000E-02 0.  1.
    5000001    1    1    2    0    0  0.33731835925E+02 -0.26140519199E+03  0.28659910180E+02  0.32501677127E+03  0.18800000000E+03 0.  0.
   -5000001    1    1    2    0    0 -0.33731835925E+02  0.26140519199E+03  0.32183039476E+03  0.45649678437E+03  0.18800000000E+03 0.  0.
<mgrwt>
<rscale>  0 0.69851269E+03</rscale>
<asrwt>0</asrwt>
<pdfrwt beam="1">  1        2 0.80857417E-01 0.69851269E+03</pdfrwt>
<pdfrwt beam="2">  1       -2 0.30787375E-01 0.69851269E+03</pdfrwt>
<totfact> 0.57037730E+02</totfact>
</mgrwt>
</event>
<event>
 4    1  0.5985962E-005  0.5415000E+03  0.7818608E-02  0.1003481E+00
         -2   -1    0    0    0  501 -0.00000000000E+00  0.00000000000E+00  0.14636255847E+03  0.14636255849E+03  0.25500000000E-02 0. -1.
          2   -1    0    0  501    0  0.00000000000E+00 -0.00000000000E+00 -0.50084922357E+03  0.50084922358E+03  0.25500000000E-02 0.  1.
    5000001    1    1    2    0    0 -0.40113993970E+01 -0.18761543374E+03 -0.11461183906E+03  0.28930177316E+03  0.18800000000E+03 0.  0.
   -5000001    1    1    2    0    0  0.40113993970E+01  0.18761543374E+03 -0.23987482604E+03  0.35791000890E+03  0.18800000000E+03 0.  0.
<mgrwt>
<rscale>  0 0.54150004E+03</rscale>
<asrwt>0</asrwt>
<pdfrwt beam="1">  1        2 0.71549888E-01 0.54150004E+03</pdfrwt>
<pdfrwt beam="2">  1       -2 0.20908937E-01 0.54150004E+03</pdfrwt>
<totfact> 0.13214286E+03</totfact>
</mgrwt>
</event>
<event>
 4    1  0.5985962E-005  0.6830845E+03  0.7818608E-02  0.9746605E-01
         -2   -1    0    0    0  501 -0.00000000000E+00  0.00000000000E+00  0.15157145845E+03  0.15157145847E+03  0.25500000000E-02 0. -1.
          2   -1    0    0  501    0  0.00000000000E+00 -0.00000000000E+00 -0.76961136183E+03  0.76961136184E+03  0.25500000000E-02 0.  1.
    5000001    1    1    2    0    0 -0.22207199315E+02  0.28390590460E+03 -0.28941264626E+03  0.44743647838E+03  0.18800000000E+03 0.  0.
   -5000001    1    1    2    0    0  0.22207199315E+02 -0.28390590460E+03 -0.32862725712E+03  0.47374634193E+03  0.18800000000E+03 0.  0.
<mgrwt>
<rscale>  0 0.68308452E+03</rscale>
<asrwt>0</asrwt>
<pdfrwt beam="1">  1        2 0.10994448E+00 0.68308452E+03</pdfrwt>
<pdfrwt beam="2">  1       -2 0.21653066E-01 0.68308452E+03</pdfrwt>
<totfact> 0.74345360E+02</totfact>
</mgrwt>
</event>
<event>
 4    1  0.5985962E-005  0.6184350E+03  0.7818608E-02  0.9867881E-01
          2   -1    0    0  501    0  0.00000000000E+00  0.00000000000E+00  0.21905245511E+04  0.21905245511E+04  0.25500000000E-02 0.  1.
         -2   -1    0    0    0  501 -0.00000000000E+00 -0.00000000000E+00 -0.43649570780E+02  0.43649570855E+02  0.25500000000E-02 0. -1.
    5000001    1    1    2    0    0 -0.27376271138E+02  0.23185387717E+03  0.79912104075E+03  0.85348937799E+03  0.18800000000E+03 0.  0.
   -5000001    1    1    2    0    0  0.27376271138E+02 -0.23185387717E+03  0.13477539395E+04  0.13806847439E+04  0.18800000000E+03 0.  0.
<mgrwt>
<rscale>  0 0.61843498E+03</rscale>
<asrwt>0</asrwt>
<pdfrwt beam="1">  1        2 0.31293204E+00 0.61843498E+03</pdfrwt>
<pdfrwt beam="2">  1       -2 0.62356537E-02 0.61843498E+03</pdfrwt>
<totfact> 0.96512698E+02</totfact>
</mgrwt>
</event>
<event>
 4    1  0.5985962E-005  0.4393176E+03  0.7818608E-02  0.1030956E+00
          2   -1    0    0  501    0  0.00000000000E+00  0.00000000000E+00  0.29396649142E+04  0.29396649142E+04  0.25500000000E-02 0.  1.
         -2   -1    0    0    0  501 -0.00000000000E+00 -0.00000000000E+00 -0.16413434024E+02  0.16413434222E+02  0.25500000000E-02 0. -1.
    5000001    1    1    2    0    0  0.10981525100E+03  0.24450074709E+02  0.13554896010E+04  0.13730816633E+04  0.18800000000E+03 0.  0.
   -5000001    1    1    2    0    0 -0.10981525100E+03 -0.24450074709E+02  0.15677618791E+04  0.15829966852E+04  0.18800000000E+03 0.  0.
<mgrwt>
<rscale>  0 0.43931764E+03</rscale>
<asrwt>0</asrwt>
<pdfrwt beam="1">  1        2 0.41995281E+00 0.43931764E+03</pdfrwt>
<pdfrwt beam="2">  1       -2 0.23447725E-02 0.43931764E+03</pdfrwt>
<totfact> 0.17948308E+03</totfact>
</mgrwt>
</event>
<event>
 4    1  0.5985962E-005  0.6760241E+03  0.7818608E-02  0.9759136E-01
          2   -1    0    0  501    0  0.00000000000E+00  0.00000000000E+00  0.11941740354E+04  0.11941740354E+04  0.25500000000E-02 0.  1.
         -2   -1    0    0    0  501 -0.00000000000E+00 -0.00000000000E+00 -0.95674628469E+02  0.95674628503E+02  0.25500000000E-02 0. -1.
    5000001    1    1    2    0    0  0.27562098654E+03 -0.46110604699E+02  0.49477858253E+03  0.59853401058E+03  0.18800000000E+03 0.  0.
   -5000001    1    1    2    0    0 -0.27562098654E+03  0.46110604699E+02  0.60372082439E+03  0.69131465332E+03  0.18800000000E+03 0.  0.
<mgrwt>
<rscale>  0 0.67602413E+03</rscale>
<asrwt>0</asrwt>
<pdfrwt beam="1">  1        2 0.17059629E+00 0.67602413E+03</pdfrwt>
<pdfrwt beam="2">  1       -2 0.13667804E-01 0.67602413E+03</pdfrwt>
<totfact> 0.88868529E+02</totfact>
</mgrwt>
</event>
<event>
 4    1  0.5985962E-005  0.5687283E+03  0.7818608E-02  0.9972497E-01
          2   -1    0    0  501    0  0.00000000000E+00  0.00000000000E+00  0.90203900291E+03  0.90203900291E+03  0.25500000000E-02 0.  1.
         -2   -1    0    0    0  501 -0.00000000000E+00 -0.00000000000E+00 -0.89644660803E+02  0.89644660840E+02  0.25500000000E-02 0. -1.
    5000001    1    1    2    0    0  0.16982268716E+01 -0.10272352582E+03  0.73224302629E+03  0.76294092581E+03  0.18800000000E+03 0.  0.
   -5000001    1    1    2    0    0 -0.16982268716E+01  0.10272352582E+03  0.80151315813E+02  0.22874273794E+03  0.18800000000E+03 0.  0.
<mgrwt>
<rscale>  0 0.56872834E+03</rscale>
<asrwt>0</asrwt>
<pdfrwt beam="1">  1        2 0.12886272E+00 0.56872834E+03</pdfrwt>
<pdfrwt beam="2">  1       -2 0.12806380E-01 0.56872834E+03</pdfrwt>
<totfact> 0.14851831E+03</totfact>
</mgrwt>
</event>
<event>
 4    1  0.5985962E-005  0.1183502E+04  0.7818608E-02  0.9127421E-01
         -2   -1    0    0    0  501 -0.00000000000E+00  0.00000000000E+00  0.13640470928E+03  0.13640470930E+03  0.25500000000E-02 0. -1.
          2   -1    0    0  501    0  0.00000000000E+00 -0.00000000000E+00 -0.25671332195E+04  0.25671332195E+04  0.25500000000E-02 0.  1.
    5000001    1    1    2    0    0 -0.38895217603E+03 -0.31519481314E+03 -0.63659014417E+03  0.83139796555E+03  0.18800000000E+03 0.  0.
   -5000001    1    1    2    0    0  0.38895217603E+03  0.31519481314E+03 -0.17941383661E+04  0.18721399633E+04  0.18800000000E+03 0.  0.
<mgrwt>
<rscale>  0 0.11835017E+04</rscale>
<asrwt>0</asrwt>
<pdfrwt beam="1">  1        2 0.36673329E+00 0.11835017E+04</pdfrwt>
<pdfrwt beam="2">  1       -2 0.19486389E-01 0.11835017E+04</pdfrwt>
<totfact> 0.90284346E+01</totfact>
</mgrwt>
</event>
<event>
 4    1  0.5985962E-005  0.6608318E+03  0.7818608E-02  0.9786664E-01
         -2   -1    0    0    0  501 -0.00000000000E+00  0.00000000000E+00  0.28741887341E+03  0.28741887342E+03  0.25500000000E-02 0.  1.
          2   -1    0    0  501    0  0.00000000000E+00 -0.00000000000E+00 -0.37984520318E+03  0.37984520318E+03  0.25500000000E-02 0. -1.
    5000001    1    1    2    0    0  0.25233372888E+03  0.43321000892E+02  0.45676252162E+02  0.32090394180E+03  0.18800000000E+03 0.  0.
   -5000001    1    1    2    0    0 -0.25233372888E+03 -0.43321000892E+02 -0.13810258193E+03  0.34636013481E+03  0.18800000000E+03 0.  0.
<mgrwt>
<rscale>  0 0.66083184E+03</rscale>
<asrwt>0</asrwt>
<pdfrwt beam="1">  1        2 0.54263600E-01 0.66083184E+03</pdfrwt>
<pdfrwt beam="2">  1       -2 0.41059839E-01 0.66083184E+03</pdfrwt>
<totfact> 0.51839450E+02</totfact>
</mgrwt>
</event>
<event>
 4    1  0.5985962E-005  0.7366114E+03  0.7818608E-02  0.9656592E-01
          2   -1    0    0  501    0  0.00000000000E+00  0.00000000000E+00  0.11342957509E+04  0.11342957509E+04  0.25500000000E-02 0.  1.
         -2   -1    0    0    0  501 -0.00000000000E+00 -0.00000000000E+00 -0.11958881433E+03  0.11958881436E+03  0.25500000000E-02 0. -1.
    5000001    1    1    2    0    0 -0.17475338609E+03  0.10637476343E+03  0.95811468389E+02  0.29390163953E+03  0.18800000000E+03 0.  0.
   -5000001    1    1    2    0    0  0.17475338609E+03 -0.10637476343E+03  0.91889546816E+03  0.95998292571E+03  0.18800000000E+03 0.  0.
<mgrwt>
<rscale>  0 0.73661139E+03</rscale>
<asrwt>0</asrwt>
<pdfrwt beam="1">  1        2 0.16204225E+00 0.73661139E+03</pdfrwt>
<pdfrwt beam="2">  1       -2 0.17084116E-01 0.73661139E+03</pdfrwt>
<totfact> 0.65762958E+02</totfact>
</mgrwt>
</event>
<event>
 4    1  0.5985962E-005  0.1867086E+04  0.7818608E-02  0.8671415E-01
         -2   -1    0    0    0  501 -0.00000000000E+00  0.00000000000E+00  0.38768224022E+03  0.38768224023E+03  0.25500000000E-02 0. -1.
          2   -1    0    0  501    0  0.00000000000E+00 -0.00000000000E+00 -0.22479826252E+04  0.22479826252E+04  0.25500000000E-02 0.  1.
    5000001    1    1    2    0    0 -0.70068612082E+03 -0.43108678822E+03 -0.14936817739E+04  0.17155833120E+04  0.18800000000E+03 0.  0.
   -5000001    1    1    2    0    0  0.70068612082E+03  0.43108678822E+03 -0.36661861108E+03  0.92008155338E+03  0.18800000000E+03 0.  0.
<mgrwt>
<rscale>  0 0.18670864E+04</rscale>
<asrwt>0</asrwt>
<pdfrwt beam="1">  1        2 0.32114037E+00 0.18670864E+04</pdfrwt>
<pdfrwt beam="2">  1       -2 0.55383178E-01 0.18670864E+04</pdfrwt>
<totfact> 0.17238642E+01</totfact>
</mgrwt>
</event>
<event>
 4    1  0.5985962E-005  0.6342632E+03  0.7818608E-02  0.9836765E-01
         -2   -1    0    0    0  501 -0.00000000000E+00  0.00000000000E+00  0.21113031072E+03  0.21113031073E+03  0.25500000000E-02 0. -1.
          2   -1    0    0  501    0  0.00000000000E+00 -0.00000000000E+00 -0.47635250635E+03  0.47635250636E+03  0.25500000000E-02 0.  1.
    5000001    1    1    2    0    0  0.36705423584E+02 -0.23476170807E+03 -0.31115968278E+02  0.30458586831E+03  0.18800000000E+03 0.  0.
   -5000001    1    1    2    0    0 -0.36705423584E+02  0.23476170807E+03 -0.23410622735E+03  0.38289694877E+03  0.18800000000E+03 0.  0.
<mgrwt>
<rscale>  0 0.63426320E+03</rscale>
<asrwt>0</asrwt>
<pdfrwt beam="1">  1        2 0.68050358E-01 0.63426320E+03</pdfrwt>
<pdfrwt beam="2">  1       -2 0.30161473E-01 0.63426320E+03</pdfrwt>
<totfact> 0.72336870E+02</totfact>
</mgrwt>
</event>
<event>
 4    1  0.5985962E-005  0.4876347E+03  0.7818608E-02  0.1017058E+00
          2   -1    0    0  501    0  0.00000000000E+00  0.00000000000E+00  0.82372330620E+03  0.82372330620E+03  0.25500000000E-02 0.  1.
         -2   -1    0    0    0  501 -0.00000000000E+00 -0.00000000000E+00 -0.72168517174E+02  0.72168517219E+02  0.25500000000E-02 0. -1.
    5000001    1    1    2    0    0  0.51764235595E+01  0.67223746734E+02  0.11884857788E+03  0.23241086883E+03  0.18800000000E+03 0.  0.
   -5000001    1    1    2    0    0 -0.51764235595E+01 -0.67223746734E+02  0.63270621115E+03  0.66348095459E+03  0.18800000000E+03 0.  0.
<mgrwt>
<rscale>  0 0.48763466E+03</rscale>
<asrwt>0</asrwt>
<pdfrwt beam="1">  1        2 0.11767476E+00 0.48763466E+03</pdfrwt>
<pdfrwt beam="2">  1       -2 0.10309788E-01 0.48763466E+03</pdfrwt>
<totfact> 0.23853365E+03</totfact>
</mgrwt>
</event>
<event>
 4    1  0.5985962E-005  0.6720721E+03  0.7818608E-02  0.9766222E-01
          2   -1    0    0  501    0  0.00000000000E+00  0.00000000000E+00  0.43981941023E+03  0.43981941024E+03  0.25500000000E-02 0.  1.
         -2   -1    0    0    0  501 -0.00000000000E+00 -0.00000000000E+00 -0.25674229089E+03  0.25674229091E+03  0.25500000000E-02 0. -1.
    5000001    1    1    2    0    0 -0.12119400111E+03 -0.16065828007E+03  0.29110936397E+03  0.40073398989E+03  0.18800000000E+03 0.  0.
   -5000001    1    1    2    0    0  0.12119400111E+03  0.16065828007E+03 -0.10803224464E+03  0.29582771125E+03  0.18800000000E+03 0.  0.
<mgrwt>
<rscale>  0 0.67207215E+03</rscale>
<asrwt>0</asrwt>
<pdfrwt beam="1">  1        2 0.62831344E-01 0.67207215E+03</pdfrwt>
<pdfrwt beam="2">  1       -2 0.36677470E-01 0.67207215E+03</pdfrwt>
<totfact> 0.54731322E+02</totfact>
</mgrwt>
</event>
<event>
 4    1  0.5985962E-005  0.6629824E+03  0.7818608E-02  0.9782719E-01
         -2   -1    0    0    0  501 -0.00000000000E+00  0.00000000000E+00  0.40287039479E+03  0.40287039480E+03  0.25500000000E-02 0. -1.
          2   -1    0    0  501    0  0.00000000000E+00 -0.00000000000E+00 -0.27275871682E+03  0.27275871683E+03  0.25500000000E-02 0.  1.
    5000001    1    1    2    0    0  0.26897604499E+03 -0.46342021501E+02  0.58090534536E+02  0.33647318755E+03  0.18800000000E+03 0.  0.
   -5000001    1    1    2    0    0 -0.26897604499E+03  0.46342021501E+02  0.72021143439E+02  0.33915592408E+03  0.18800000000E+03 0.  0.
<mgrwt>
<rscale>  0 0.66298239E+03</rscale>
<asrwt>0</asrwt>
<pdfrwt beam="1">  1        2 0.38965531E-01 0.66298239E+03</pdfrwt>
<pdfrwt beam="2">  1       -2 0.57552913E-01 0.66298239E+03</pdfrwt>
<totfact> 0.37833373E+02</totfact>
</mgrwt>
</event>
<event>
 4    1  0.5985962E-005  0.4722321E+03  0.7818608E-02  0.1021292E+00
         -2   -1    0    0    0  501 -0.00000000000E+00  0.00000000000E+00  0.46359037285E+03  0.46359037285E+03  0.25500000000E-02 0. -1.
          2   -1    0    0  501    0  0.00000000000E+00 -0.00000000000E+00 -0.12025873753E+03  0.12025873755E+03  0.25500000000E-02 0.  1.
    5000001    1    1    2    0    0 -0.17477201273E+02 -0.93057325330E+02  0.30391405708E+03  0.36969294347E+03  0.18800000000E+03 0.  0.
   -5000001    1    1    2    0    0  0.17477201273E+02  0.93057325330E+02  0.39417578239E+02  0.21415616693E+03  0.18800000000E+03 0.  0.
<mgrwt>
<rscale>  0 0.47223212E+03</rscale>
<asrwt>0</asrwt>
<pdfrwt beam="1">  1        2 0.17179819E-01 0.47223212E+03</pdfrwt>
<pdfrwt beam="2">  1       -2 0.66227198E-01 0.47223212E+03</pdfrwt>
<totfact> 0.71759042E+02</totfact>
</mgrwt>
</event>
<event>
 4    1  0.5985962E-005  0.4701551E+03  0.7818608E-02  0.1021876E+00
          2   -1    0    0  501    0  0.00000000000E+00  0.00000000000E+00  0.27543190140E+03  0.27543190141E+03  0.25500000000E-02 0.  1.
         -2   -1    0    0    0  501 -0.00000000000E+00 -0.00000000000E+00 -0.20063565073E+03  0.20063565074E+03  0.25500000000E-02 0. -1.
    5000001    1    1    2    0    0  0.76528134509E+02 -0.11280207770E+03  0.37890430264E+00  0.23221758692E+03  0.18800000000E+03 0.  0.
   -5000001    1    1    2    0    0 -0.76528134509E+02  0.11280207770E+03  0.74417346368E+02  0.24384996524E+03  0.18800000000E+03 0.  0.
<mgrwt>
<rscale>  0 0.47015512E+03</rscale>
<asrwt>0</asrwt>
<pdfrwt beam="1">  1        2 0.39347415E-01 0.47015512E+03</pdfrwt>
<pdfrwt beam="2">  1       -2 0.28662236E-01 0.47015512E+03</pdfrwt>
<totfact> 0.14579586E+03</totfact>
</mgrwt>
</event>
<event>
 4    1  0.5985962E-005  0.4920358E+03  0.7818608E-02  0.1015879E+00
          2   -1    0    0  501    0  0.00000000000E+00  0.00000000000E+00  0.26343940893E+03  0.26343940894E+03  0.25500000000E-02 0.  1.
         -2   -1    0    0    0  501 -0.00000000000E+00 -0.00000000000E+00 -0.22974844884E+03  0.22974844885E+03  0.25500000000E-02 0. -1.
    5000001    1    1    2    0    0 -0.33588173479E+02  0.11097144468E+03  0.12544106949E+03  0.25401237932E+03  0.18800000000E+03 0.  0.
   -5000001    1    1    2    0    0  0.33588173479E+02 -0.11097144468E+03 -0.91750109393E+02  0.23917547848E+03  0.18800000000E+03 0.  0.
<mgrwt>
<rscale>  0 0.49203575E+03</rscale>
<asrwt>0</asrwt>
<pdfrwt beam="1">  1        2 0.37634201E-01 0.49203575E+03</pdfrwt>
<pdfrwt beam="2">  1       -2 0.32821207E-01 0.49203575E+03</pdfrwt>
<totfact> 0.11926811E+03</totfact>
</mgrwt>
</event>
<event>
 4    1  0.5985962E-005  0.5072909E+03  0.7818608E-02  0.1011893E+00
         -2   -1    0    0    0  501 -0.00000000000E+00  0.00000000000E+00  0.40205531873E+02  0.40205531954E+02  0.25500000000E-02 0. -1.
          2   -1    0    0  501    0  0.00000000000E+00 -0.00000000000E+00 -0.16001782570E+04  0.16001782570E+04  0.25500000000E-02 0.  1.
    5000001    1    1    2    0    0 -0.55385370471E+02  0.91456914709E+02 -0.35148518598E+03  0.41269570203E+03  0.18800000000E+03 0.  0.
   -5000001    1    1    2    0    0  0.55385370471E+02 -0.91456914709E+02 -0.12084875392E+04  0.12276880870E+04  0.18800000000E+03 0.  0.
<mgrwt>
<rscale>  0 0.50729091E+03</rscale>
<asrwt>0</asrwt>
<pdfrwt beam="1">  1        2 0.22859685E+00 0.50729091E+03</pdfrwt>
<pdfrwt beam="2">  1       -2 0.57436484E-02 0.50729091E+03</pdfrwt>
<totfact> 0.21875859E+03</totfact>
</mgrwt>
</event>
<event>
 4    1  0.5985962E-005  0.6329513E+03  0.7818608E-02  0.9839306E-01
         -2   -1    0    0    0  501 -0.00000000000E+00  0.00000000000E+00  0.40014443812E+02  0.40014443893E+02  0.25500000000E-02 0.  1.
          2   -1    0    0  501    0  0.00000000000E+00 -0.00000000000E+00 -0.25030170435E+04  0.25030170435E+04  0.25500000000E-02 0. -1.
    5000001    1    1    2    0    0 -0.94282261524E+02  0.23541667391E+03 -0.13215810440E+04  0.13587606894E+04  0.18800000000E+03 0.  0.
   -5000001    1    1    2    0    0  0.94282261524E+02 -0.23541667391E+03 -0.11414215557E+04  0.11842707980E+04  0.18800000000E+03 0.  0.
<mgrwt>
<rscale>  0 0.63295129E+03</rscale>
<asrwt>0</asrwt>
<pdfrwt beam="1">  1        2 0.35757376E+00 0.63295129E+03</pdfrwt>
<pdfrwt beam="2">  1       -2 0.57163507E-02 0.63295129E+03</pdfrwt>
<totfact> 0.76635282E+02</totfact>
</mgrwt>
</event>
<event>
 4    1  0.5985962E-005  0.7191046E+03  0.7818608E-02  0.9685107E-01
         -2   -1    0    0    0  501 -0.00000000000E+00  0.00000000000E+00  0.28113144613E+03  0.28113144614E+03  0.25500000000E-02 0. -1.
          2   -1    0    0  501    0  0.00000000000E+00 -0.00000000000E+00 -0.45984837915E+03  0.45984837916E+03  0.25500000000E-02 0.  1.
    5000001    1    1    2    0    0  0.29717517232E+03 -0.73230804085E+02 -0.72807271474E+02  0.36649792972E+03  0.18800000000E+03 0.  0.
   -5000001    1    1    2    0    0 -0.29717517232E+03  0.73230804085E+02 -0.10590966155E+03  0.37448189558E+03  0.18800000000E+03 0.  0.
<mgrwt>
<rscale>  0 0.71910455E+03</rscale>
<asrwt>0</asrwt>
<pdfrwt beam="1">  1        2 0.65692626E-01 0.71910455E+03</pdfrwt>
<pdfrwt beam="2">  1       -2 0.40161635E-01 0.71910455E+03</pdfrwt>
<totfact> 0.43632862E+02</totfact>
</mgrwt>
</event>
<event>
 4    1  0.5985962E-005  0.6137033E+03  0.7818608E-02  0.9877377E-01
          2   -1    0    0  501    0  0.00000000000E+00  0.00000000000E+00  0.15935261085E+04  0.15935261085E+04  0.25500000000E-02 0.  1.
         -2   -1    0    0    0  501 -0.00000000000E+00 -0.00000000000E+00 -0.59087789441E+02  0.59087789496E+02  0.25500000000E-02 0. -1.
    5000001    1    1    2    0    0 -0.15209304336E+03  0.15828498159E+03  0.10448250141E+04  0.10840616861E+04  0.18800000000E+03 0.  0.
   -5000001    1    1    2    0    0  0.15209304336E+03 -0.15828498159E+03  0.48961330498E+03  0.56855221189E+03  0.18800000000E+03 0.  0.
<mgrwt>
<rscale>  0 0.61370330E+03</rscale>
<asrwt>0</asrwt>
<pdfrwt beam="1">  1        2 0.22764661E+00 0.61370330E+03</pdfrwt>
<pdfrwt beam="2">  1       -2 0.84411119E-02 0.61370330E+03</pdfrwt>
<totfact> 0.11967710E+03</totfact>
</mgrwt>
</event>
<event>
 4    1  0.5985962E-005  0.5234845E+03  0.7818608E-02  0.1007825E+00
         -2   -1    0    0    0  501 -0.00000000000E+00  0.00000000000E+00  0.65272291109E+02  0.65272291159E+02  0.25500000000E-02 0. -1.
          2   -1    0    0  501    0  0.00000000000E+00 -0.00000000000E+00 -0.10495879059E+04  0.10495879059E+04  0.25500000000E-02 0.  1.
    5000001    1    1    2    0    0  0.58267537889E+02 -0.12164214110E+03 -0.75275654526E+03  0.78751402076E+03  0.18800000000E+03 0.  0.
   -5000001    1    1    2    0    0 -0.58267537889E+02  0.12164214110E+03 -0.23155906956E+03  0.32734617633E+03  0.18800000000E+03 0.  0.
<mgrwt>
<rscale>  0 0.52348451E+03</rscale>
<asrwt>0</asrwt>
<pdfrwt beam="1">  1        2 0.14994112E+00 0.52348451E+03</pdfrwt>
<pdfrwt beam="2">  1       -2 0.93246137E-02 0.52348451E+03</pdfrwt>
<totfact> 0.20215852E+03</totfact>
</mgrwt>
</event>
<event>
 4    1  0.5985962E-005  0.5116049E+03  0.7818608E-02  0.1010793E+00
          2   -1    0    0  501    0  0.00000000000E+00  0.00000000000E+00  0.94995026605E+03  0.94995026605E+03  0.25500000000E-02 0.  1.
         -2   -1    0    0    0  501 -0.00000000000E+00 -0.00000000000E+00 -0.68882446413E+02  0.68882446460E+02  0.25500000000E-02 0. -1.
    5000001    1    1    2    0    0 -0.19785855431E+02 -0.16749806026E+03  0.52127508055E+03  0.57923983795E+03  0.18800000000E+03 0.  0.
   -5000001    1    1    2    0    0  0.19785855431E+02  0.16749806026E+03  0.35979273908E+03  0.43959287456E+03  0.18800000000E+03 0.  0.
<mgrwt>
<rscale>  0 0.51160492E+03</rscale>
<asrwt>0</asrwt>
<pdfrwt beam="1">  1        2 0.13570717E+00 0.51160492E+03</pdfrwt>
<pdfrwt beam="2">  1       -2 0.98403506E-02 0.51160492E+03</pdfrwt>
<totfact> 0.21306497E+03</totfact>
</mgrwt>
</event>
<event>
 4    1  0.5985962E-005  0.4279406E+03  0.7818608E-02  0.1034512E+00
          2   -1    0    0  501    0  0.00000000000E+00  0.00000000000E+00  0.32053900514E+02  0.32053900615E+02  0.25500000000E-02 0.  1.
         -2   -1    0    0    0  501 -0.00000000000E+00 -0.00000000000E+00 -0.14283218520E+04  0.14283218520E+04  0.25500000000E-02 0. -1.
    5000001    1    1    2    0    0 -0.67162861334E+02 -0.82452271472E+01 -0.43688973490E+03  0.48041177564E+03  0.18800000000E+03 0.  0.
   -5000001    1    1    2    0    0  0.67162861334E+02  0.82452271472E+01 -0.95937821660E+03  0.97996397699E+03  0.18800000000E+03 0.  0.
<mgrwt>
<rscale>  0 0.42794059E+03</rscale>
<asrwt>0</asrwt>
<pdfrwt beam="1">  1        2 0.45791296E-02 0.42794059E+03</pdfrwt>
<pdfrwt beam="2">  1       -2 0.20404594E+00 0.42794059E+03</pdfrwt>
<totfact> 0.24001254E+02</totfact>
</mgrwt>
</event>
<event>
 4    1  0.5985962E-005  0.8543054E+03  0.7818608E-02  0.9484577E-01
          2   -1    0    0  501    0  0.00000000000E+00  0.00000000000E+00  0.15278684777E+04  0.15278684777E+04  0.25500000000E-02 0.  1.
         -2   -1    0    0    0  501 -0.00000000000E+00 -0.00000000000E+00 -0.11942090200E+03  0.11942090202E+03  0.25500000000E-02 0. -1.
    5000001    1    1    2    0    0  0.20664674325E+03  0.31413867688E+03  0.85017681109E+03  0.94843586759E+03  0.18800000000E+03 0.  0.
   -5000001    1    1    2    0    0 -0.20664674325E+03 -0.31413867688E+03  0.55827076461E+03  0.69885351214E+03  0.18800000000E+03 0.  0.
<mgrwt>
<rscale>  0 0.85430541E+03</rscale>
<asrwt>0</asrwt>
<pdfrwt beam="1">  1        2 0.21826694E+00 0.85430541E+03</pdfrwt>
<pdfrwt beam="2">  1       -2 0.17060128E-01 0.85430541E+03</pdfrwt>
<totfact> 0.39935243E+02</totfact>
</mgrwt>
</event>
<event>
 4    1  0.5985962E-005  0.5755075E+03  0.7818608E-02  0.9957565E-01
         -2   -1    0    0    0  501 -0.00000000000E+00  0.00000000000E+00  0.49182351786E+03  0.49182351786E+03  0.25500000000E-02 0. -1.
          2   -1    0    0  501    0  0.00000000000E+00 -0.00000000000E+00 -0.16835760563E+03  0.16835760565E+03  0.25500000000E-02 0.  1.
    5000001    1    1    2    0    0  0.14550540205E+03 -0.15702251293E+03  0.20805107922E+03  0.35278483975E+03  0.18800000000E+03 0.  0.
   -5000001    1    1    2    0    0 -0.14550540205E+03  0.15702251293E+03  0.11541483301E+03  0.30739628376E+03  0.18800000000E+03 0.  0.
<mgrwt>
<rscale>  0 0.57550753E+03</rscale>
<asrwt>0</asrwt>
<pdfrwt beam="1">  1        2 0.24051087E-01 0.57550753E+03</pdfrwt>
<pdfrwt beam="2">  1       -2 0.70260503E-01 0.57550753E+03</pdfrwt>
<totfact> 0.42645911E+02</totfact>
</mgrwt>
</event>
<event>
 4    1  0.5985962E-005  0.3864719E+03  0.7818608E-02  0.1048567E+00
         -2   -1    0    0    0  501 -0.00000000000E+00  0.00000000000E+00  0.46846839435E+03  0.46846839436E+03  0.25500000000E-02 0. -1.
          2   -1    0    0  501    0  0.00000000000E+00 -0.00000000000E+00 -0.79706843628E+02  0.79706843669E+02  0.25500000000E-02 0.  1.
    5000001    1    1    2    0    0  0.35906717022E+01  0.38833357725E+02  0.16346029069E+03  0.25215905542E+03  0.18800000000E+03 0.  0.
   -5000001    1    1    2    0    0 -0.35906717022E+01 -0.38833357725E+02  0.22530126003E+03  0.29601618261E+03  0.18800000000E+03 0.  0.
<mgrwt>
<rscale>  0 0.38647192E+03</rscale>
<asrwt>0</asrwt>
<pdfrwt beam="1">  1        2 0.11386692E-01 0.38647192E+03</pdfrwt>
<pdfrwt beam="2">  1       -2 0.66924058E-01 0.38647192E+03</pdfrwt>
<totfact> 0.11534693E+03</totfact>
</mgrwt>
</event>
<event>
 4    1  0.5985962E-005  0.6485511E+03  0.7818608E-02  0.9809502E-01
          2   -1    0    0  501    0  0.00000000000E+00  0.00000000000E+00  0.10022273129E+03  0.10022273132E+03  0.25500000000E-02 0.  1.
         -2   -1    0    0    0  501 -0.00000000000E+00 -0.00000000000E+00 -0.10492093436E+04  0.10492093436E+04  0.25500000000E-02 0. -1.
    5000001    1    1    2    0    0 -0.24870701321E+03 -0.70191561785E+02 -0.37695852002E+03  0.49419000352E+03  0.18800000000E+03 0.  0.
   -5000001    1    1    2    0    0  0.24870701321E+03  0.70191561785E+02 -0.57202809229E+03  0.65524207140E+03  0.18800000000E+03 0.  0.
<mgrwt>
<rscale>  0 0.64855108E+03</rscale>
<asrwt>0</asrwt>
<pdfrwt beam="1">  1        2 0.14317534E-01 0.64855108E+03</pdfrwt>
<pdfrwt beam="2">  1       -2 0.14988704E+00 0.64855108E+03</pdfrwt>
<totfact> 0.12934986E+02</totfact>
</mgrwt>
</event>
<event>
 4    1  0.5985962E-005  0.5664482E+03  0.7818608E-02  0.9977569E-01
         -2   -1    0    0    0  501 -0.00000000000E+00  0.00000000000E+00  0.32082744542E+03  0.32082744543E+03  0.25500000000E-02 0.  1.
          2   -1    0    0  501    0  0.00000000000E+00 -0.00000000000E+00 -0.25002817012E+03  0.25002817013E+03  0.25500000000E-02 0. -1.
    5000001    1    1    2    0    0 -0.83226713058E+02  0.19451704480E+03  0.45888917853E+02  0.28672872069E+03  0.18800000000E+03 0.  0.
   -5000001    1    1    2    0    0  0.83226713058E+02 -0.19451704480E+03  0.24910357455E+02  0.28412689488E+03  0.18800000000E+03 0.  0.
<mgrwt>
<rscale>  0 0.56644823E+03</rscale>
<asrwt>0</asrwt>
<pdfrwt beam="1">  1        2 0.35718310E-01 0.56644823E+03</pdfrwt>
<pdfrwt beam="2">  1       -2 0.45832492E-01 0.56644823E+03</pdfrwt>
<totfact> 0.66396485E+02</totfact>
</mgrwt>
</event>
<event>
 4    1  0.5985962E-005  0.7699825E+03  0.7818608E-02  0.9604512E-01
          2   -1    0    0  501    0  0.00000000000E+00  0.00000000000E+00  0.17064682848E+04  0.17064682848E+04  0.25500000000E-02 0.  1.
         -2   -1    0    0    0  501 -0.00000000000E+00 -0.00000000000E+00 -0.86856726536E+02  0.86856726573E+02  0.25500000000E-02 0. -1.
    5000001    1    1    2    0    0 -0.18537770876E+03 -0.19525161208E+03  0.34175339322E+03  0.47394880389E+03  0.18800000000E+03 0.  0.
   -5000001    1    1    2    0    0  0.18537770876E+03  0.19525161208E+03  0.12778581650E+04  0.13193762075E+04  0.18800000000E+03 0.  0.
<mgrwt>
<rscale>  0 0.76998247E+03</rscale>
<asrwt>0</asrwt>
<pdfrwt beam="1">  1        2 0.24378115E+00 0.76998247E+03</pdfrwt>
<pdfrwt beam="2">  1       -2 0.12408105E-01 0.76998247E+03</pdfrwt>
<totfact> 0.55483999E+02</totfact>
</mgrwt>
</event>
<event>
 4    1  0.5985962E-005  0.5850553E+03  0.7818608E-02  0.9936906E-01
         -2   -1    0    0    0  501 -0.00000000000E+00  0.00000000000E+00  0.10808491404E+03  0.10808491407E+03  0.25500000000E-02 0. -1.
          2   -1    0    0  501    0  0.00000000000E+00 -0.00000000000E+00 -0.79171488609E+03  0.79171488609E+03  0.25500000000E-02 0.  1.
    5000001    1    1    2    0    0 -0.18852784869E+03  0.57521796795E+02 -0.50585940760E+03  0.57453393903E+03  0.18800000000E+03 0.  0.
   -5000001    1    1    2    0    0  0.18852784869E+03 -0.57521796795E+02 -0.17777056445E+03  0.32526586114E+03  0.18800000000E+03 0.  0.
<mgrwt>
<rscale>  0 0.58505533E+03</rscale>
<asrwt>0</asrwt>
<pdfrwt beam="1">  1        2 0.11310212E+00 0.58505533E+03</pdfrwt>
<pdfrwt beam="2">  1       -2 0.15440702E-01 0.58505533E+03</pdfrwt>
<totfact> 0.12875278E+03</totfact>
</mgrwt>
</event>
<event>
 4    1  0.5985962E-005  0.6829213E+03  0.7818608E-02  0.9746893E-01
          2   -1    0    0  501    0  0.00000000000E+00  0.00000000000E+00  0.21929743572E+04  0.21929743572E+04  0.25500000000E-02 0.  1.
         -2   -1    0    0    0  501 -0.00000000000E+00 -0.00000000000E+00 -0.53167687794E+02  0.53167687855E+02  0.25500000000E-02 0. -1.
    5000001    1    1    2    0    0 -0.31255691960E+02  0.27461794119E+03  0.84062667044E+03  0.90464862293E+03  0.18800000000E+03 0.  0.
   -5000001    1    1    2    0    0  0.31255691960E+02 -0.27461794119E+03  0.12991799989E+04  0.13414934221E+04  0.18800000000E+03 0.  0.
<mgrwt>
<rscale>  0 0.68292130E+03</rscale>
<asrwt>0</asrwt>
<pdfrwt beam="1">  1        2 0.31328199E+00 0.68292130E+03</pdfrwt>
<pdfrwt beam="2">  1       -2 0.75953854E-02 0.68292130E+03</pdfrwt>
<totfact> 0.70154350E+02</totfact>
</mgrwt>
</event>
<event>
 4    1  0.5985962E-005  0.6479032E+03  0.7818608E-02  0.9810722E-01
          2   -1    0    0  501    0  0.00000000000E+00  0.00000000000E+00  0.97723930955E+03  0.97723930955E+03  0.25500000000E-02 0.  1.
         -2   -1    0    0    0  501 -0.00000000000E+00 -0.00000000000E+00 -0.10738888518E+03  0.10738888521E+03  0.25500000000E-02 0. -1.
    5000001    1    1    2    0    0  0.14842964318E+03 -0.18385894877E+03  0.23851615039E+03  0.38479790282E+03  0.18800000000E+03 0.  0.
   -5000001    1    1    2    0    0 -0.14842964318E+03  0.18385894877E+03  0.63133427398E+03  0.69983029194E+03  0.18800000000E+03 0.  0.
<mgrwt>
<rscale>  0 0.64790320E+03</rscale>
<asrwt>0</asrwt>
<pdfrwt beam="1">  1        2 0.13960561E+00 0.64790320E+03</pdfrwt>
<pdfrwt beam="2">  1       -2 0.15341269E-01 0.64790320E+03</pdfrwt>
<totfact> 0.98289869E+02</totfact>
</mgrwt>
</event>
<event>
 4    1  0.5985962E-005  0.4960497E+03  0.7818608E-02  0.1014815E+00
          2   -1    0    0  501    0  0.00000000000E+00  0.00000000000E+00  0.52710789206E+03  0.52710789207E+03  0.25500000000E-02 0.  1.
         -2   -1    0    0    0  501 -0.00000000000E+00 -0.00000000000E+00 -0.11670540051E+03  0.11670540054E+03  0.25500000000E-02 0. -1.
    5000001    1    1    2    0    0  0.20623932073E+02 -0.10794171113E+03  0.35929184833E+03  0.42013258841E+03  0.18800000000E+03 0.  0.
   -5000001    1    1    2    0    0 -0.20623932073E+02  0.10794171113E+03  0.51110643229E+02  0.22368070419E+03  0.18800000000E+03 0.  0.
<mgrwt>
<rscale>  0 0.49604975E+03</rscale>
<asrwt>0</asrwt>
<pdfrwt beam="1">  1        2 0.75301127E-01 0.49604975E+03</pdfrwt>
<pdfrwt beam="2">  1       -2 0.16672200E-01 0.49604975E+03</pdfrwt>
<totfact> 0.18408546E+03</totfact>
</mgrwt>
</event>
<event>
 4    1  0.5985962E-005  0.7958182E+03  0.7818608E-02  0.9566090E-01
          2   -1    0    0  501    0  0.00000000000E+00  0.00000000000E+00  0.30201152216E+04  0.30201152216E+04  0.25500000000E-02 0.  1.
         -2   -1    0    0    0  501 -0.00000000000E+00 -0.00000000000E+00 -0.52425699576E+02  0.52425699638E+02  0.25500000000E-02 0. -1.
    5000001    1    1    2    0    0 -0.10590565356E+03 -0.31974231820E+03  0.11068127543E+04  0.11721047866E+04  0.18800000000E+03 0.  0.
   -5000001    1    1    2    0    0  0.10590565356E+03  0.31974231820E+03  0.18608767677E+04  0.19004361347E+04  0.18800000000E+03 0.  0.
<mgrwt>
<rscale>  0 0.79581820E+03</rscale>
<asrwt>0</asrwt>
<pdfrwt beam="1">  1        2 0.43144498E+00 0.79581820E+03</pdfrwt>
<pdfrwt beam="2">  1       -2 0.74893865E-02 0.79581820E+03</pdfrwt>
<totfact> 0.26218715E+02</totfact>
</mgrwt>
</event>
<event>
 4    1  0.5985962E-005  0.6729583E+03  0.7818608E-02  0.9764628E-01
         -2   -1    0    0    0  501 -0.00000000000E+00  0.00000000000E+00  0.29400225558E+02  0.29400225669E+02  0.25500000000E-02 0. -1.
          2   -1    0    0  501    0  0.00000000000E+00 -0.00000000000E+00 -0.38509300352E+04  0.38509300352E+04  0.25500000000E-02 0.  1.
    5000001    1    1    2    0    0 -0.17339703153E+03  0.18639096359E+03 -0.12516617779E+04  0.12910497001E+04  0.18800000000E+03 0.  0.
   -5000001    1    1    2    0    0  0.17339703153E+03 -0.18639096359E+03 -0.25698680317E+04  0.25892805608E+04  0.18800000000E+03 0.  0.
<mgrwt>
<rscale>  0 0.67295828E+03</rscale>
<asrwt>0</asrwt>
<pdfrwt beam="1">  1        2 0.55013254E+00 0.67295828E+03</pdfrwt>
<pdfrwt beam="2">  1       -2 0.42000347E-02 0.67295828E+03</pdfrwt>
<totfact> 0.21208514E+02</totfact>
</mgrwt>
</event>
<event>
 4    1  0.5985962E-005  0.5665289E+03  0.7818608E-02  0.9977389E-01
          2   -1    0    0  501    0  0.00000000000E+00  0.00000000000E+00  0.27926376313E+04  0.27926376313E+04  0.25500000000E-02 0.  1.
         -2   -1    0    0    0  501 -0.00000000000E+00 -0.00000000000E+00 -0.28732248590E+02  0.28732248704E+02  0.25500000000E-02 0. -1.
    5000001    1    1    2    0    0  0.16227393551E+03  0.13622168008E+03  0.13937193626E+04  0.14222119526E+04  0.18800000000E+03 0.  0.
   -5000001    1    1    2    0    0 -0.16227393551E+03 -0.13622168008E+03  0.13701860201E+04  0.13991579274E+04  0.18800000000E+03 0.  0.
<mgrwt>
<rscale>  0 0.56652894E+03</rscale>
<asrwt>0</asrwt>
<pdfrwt beam="1">  1        2 0.39894817E+00 0.56652894E+03</pdfrwt>
<pdfrwt beam="2">  1       -2 0.41046076E-02 0.56652894E+03</pdfrwt>
<totfact> 0.90955117E+02</totfact>
</mgrwt>
</event>
<event>
 4    1  0.5985962E-005  0.6031050E+03  0.7818608E-02  0.9898985E-01
         -2   -1    0    0    0  501 -0.00000000000E+00  0.00000000000E+00  0.79448587797E+02  0.79448587838E+02  0.25500000000E-02 0. -1.
          2   -1    0    0  501    0  0.00000000000E+00 -0.00000000000E+00 -0.11445627886E+04  0.11445627886E+04  0.25500000000E-02 0.  1.
    5000001    1    1    2    0    0  0.19338950308E+03 -0.13404746459E+03 -0.50234016005E+03  0.58571141278E+03  0.18800000000E+03 0.  0.
   -5000001    1    1    2    0    0 -0.19338950308E+03  0.13404746459E+03 -0.56277404076E+03  0.63829996367E+03  0.18800000000E+03 0.  0.
<mgrwt>
<rscale>  0 0.60310496E+03</rscale>
<asrwt>0</asrwt>
<pdfrwt beam="1">  1        2 0.16350896E+00 0.60310496E+03</pdfrwt>
<pdfrwt beam="2">  1       -2 0.11349799E-01 0.60310496E+03</pdfrwt>
<totfact> 0.12924017E+03</totfact>
</mgrwt>
</event>
<event>
 4    1  0.5985962E-005  0.7691704E+03  0.7818608E-02  0.9605746E-01
          2   -1    0    0  501    0  0.00000000000E+00  0.00000000000E+00  0.48801717780E+03  0.48801717781E+03  0.25500000000E-02 0. -1.
         -2   -1    0    0    0  501 -0.00000000000E+00 -0.00000000000E+00 -0.30307493334E+03  0.30307493335E+03  0.25500000000E-02 0.  1.
    5000001    1    1    2    0    0 -0.22499077120E+03 -0.20224744978E+03 -0.56703628184E+02  0.36067184464E+03  0.18800000000E+03 0.  0.
   -5000001    1    1    2    0    0  0.22499077120E+03  0.20224744978E+03  0.24164587264E+03  0.43042026652E+03  0.18800000000E+03 0.  0.
<mgrwt>
<rscale>  0 0.76917039E+03</rscale>
<asrwt>0</asrwt>
<pdfrwt beam="1">  1        2 0.69716738E-01 0.76917039E+03</pdfrwt>
<pdfrwt beam="2">  1       -2 0.43296420E-01 0.76917039E+03</pdfrwt>
<totfact> 0.35134784E+02</totfact>
</mgrwt>
</event>
<event>
 4    1  0.5985962E-005  0.3820456E+03  0.7818608E-02  0.1050180E+00
          2   -1    0    0  501    0  0.00000000000E+00  0.00000000000E+00  0.27256822723E+04  0.27256822723E+04  0.25500000000E-02 0.  1.
         -2   -1    0    0    0  501 -0.00000000000E+00 -0.00000000000E+00 -0.13387366890E+02  0.13387367133E+02  0.25500000000E-02 0. -1.
    5000001    1    1    2    0    0 -0.20035332920E+02 -0.27177798013E+02  0.13390881959E+04  0.13526423192E+04  0.18800000000E+03 0.  0.
   -5000001    1    1    2    0    0  0.20035332920E+02  0.27177798013E+02  0.13732067095E+04  0.13864273202E+04  0.18800000000E+03 0.  0.
<mgrwt>
<rscale>  0 0.38204559E+03</rscale>
<asrwt>0</asrwt>
<pdfrwt beam="1">  1        2 0.38938317E+00 0.38204559E+03</pdfrwt>
<pdfrwt beam="2">  1       -2 0.19124811E-02 0.38204559E+03</pdfrwt>
<totfact> 0.31632666E+03</totfact>
</mgrwt>
</event>
<event>
 4    1  0.5985962E-005  0.9674985E+03  0.7818608E-02  0.9344928E-01
          2   -1    0    0  501    0  0.00000000000E+00  0.00000000000E+00  0.12560815326E+04  0.12560815326E+04  0.25500000000E-02 0. -1.
         -2   -1    0    0    0  501 -0.00000000000E+00 -0.00000000000E+00 -0.18630424529E+03  0.18630424531E+03  0.25500000000E-02 0.  1.
    5000001    1    1    2    0    0  0.42559215476E+03  0.40111894958E+02  0.34671366591E+03  0.58162875826E+03  0.18800000000E+03 0.  0.
   -5000001    1    1    2    0    0 -0.42559215476E+03 -0.40111894958E+02  0.72306362144E+03  0.86075701970E+03  0.18800000000E+03 0.  0.
<mgrwt>
<rscale>  0 0.96749847E+03</rscale>
<asrwt>0</asrwt>
<pdfrwt beam="1">  1        2 0.17944021E+00 0.96749847E+03</pdfrwt>
<pdfrwt beam="2">  1       -2 0.26614893E-01 0.96749847E+03</pdfrwt>
<totfact> 0.25339591E+02</totfact>
</mgrwt>
</event>
<event>
 4    1  0.5985962E-005  0.5518700E+03  0.7818608E-02  0.1001062E+00
          2   -1    0    0  501    0  0.00000000000E+00  0.00000000000E+00  0.23756328387E+04  0.23756328387E+04  0.25500000000E-02 0.  1.
         -2   -1    0    0    0  501 -0.00000000000E+00 -0.00000000000E+00 -0.32050464234E+02  0.32050464335E+02  0.25500000000E-02 0. -1.
    5000001    1    1    2    0    0  0.18204699141E+03 -0.87364783097E+02  0.11924502132E+04  0.12239506621E+04  0.18800000000E+03 0.  0.
   -5000001    1    1    2    0    0 -0.18204699141E+03  0.87364783097E+02  0.11511321613E+04  0.11837326409E+04  0.18800000000E+03 0.  0.
<mgrwt>
<rscale>  0 0.55187004E+03</rscale>
<asrwt>0</asrwt>
<pdfrwt beam="1">  1        2 0.33937621E+00 0.55187004E+03</pdfrwt>
<pdfrwt beam="2">  1       -2 0.45786365E-02 0.55187004E+03</pdfrwt>
<totfact> 0.12635966E+03</totfact>
</mgrwt>
</event>
<event>
 4    1  0.5985962E-005  0.5810042E+03  0.7818608E-02  0.9945619E-01
         -2   -1    0    0    0  501 -0.00000000000E+00  0.00000000000E+00  0.38568987058E+02  0.38568987142E+02  0.25500000000E-02 0. -1.
          2   -1    0    0  501    0  0.00000000000E+00 -0.00000000000E+00 -0.21880654675E+04  0.21880654675E+04  0.25500000000E-02 0.  1.
    5000001    1    1    2    0    0 -0.11439775297E+03  0.17737763781E+03 -0.13317698020E+04  0.13614347130E+04  0.18800000000E+03 0.  0.
   -5000001    1    1    2    0    0  0.11439775297E+03 -0.17737763781E+03 -0.81772667839E+03  0.86519974158E+03  0.18800000000E+03 0.  0.
<mgrwt>
<rscale>  0 0.58100420E+03</rscale>
<asrwt>0</asrwt>
<pdfrwt beam="1">  1        2 0.31258070E+00 0.58100420E+03</pdfrwt>
<pdfrwt beam="2">  1       -2 0.55098567E-02 0.58100420E+03</pdfrwt>
<totfact> 0.11772493E+03</totfact>
</mgrwt>
</event>
<event>
 4    1  0.5985962E-005  0.6055298E+03  0.7818608E-02  0.9894000E-01
          2   -1    0    0  501    0  0.00000000000E+00  0.00000000000E+00  0.79010864166E+03  0.79010864166E+03  0.25500000000E-02 0.  1.
         -2   -1    0    0    0  501 -0.00000000000E+00 -0.00000000000E+00 -0.11601768187E+03  0.11601768190E+03  0.25500000000E-02 0. -1.
    5000001    1    1    2    0    0  0.21460209211E+03 -0.57256180871E+02  0.21193334120E+03  0.35998898497E+03  0.18800000000E+03 0.  0.
   -5000001    1    1    2    0    0 -0.21460209211E+03  0.57256180871E+02  0.46215761859E+03  0.54613733859E+03  0.18800000000E+03 0.  0.
<mgrwt>
<rscale>  0 0.60552976E+03</rscale>
<asrwt>0</asrwt>
<pdfrwt beam="1">  1        2 0.11287266E+00 0.60552976E+03</pdfrwt>
<pdfrwt beam="2">  1       -2 0.16573955E-01 0.60552976E+03</pdfrwt>
<totfact> 0.11444860E+03</totfact>
</mgrwt>
</event>
<event>
 4    1  0.5985962E-005  0.5614817E+03  0.7818608E-02  0.9988708E-01
         -2   -1    0    0    0  501 -0.00000000000E+00  0.00000000000E+00  0.84692869406E+03  0.84692869406E+03  0.25500000000E-02 0. -1.
          2   -1    0    0  501    0  0.00000000000E+00 -0.00000000000E+00 -0.93060278569E+02  0.93060278604E+02  0.25500000000E-02 0.  1.
    5000001    1    1    2    0    0  0.18158526045E+03  0.10152021112E+03  0.40012307527E+03  0.48859189048E+03  0.18800000000E+03 0.  0.
   -5000001    1    1    2    0    0 -0.18158526045E+03 -0.10152021112E+03  0.35374534021E+03  0.45139708218E+03  0.18800000000E+03 0.  0.
<mgrwt>
<rscale>  0 0.56148168E+03</rscale>
<asrwt>0</asrwt>
<pdfrwt beam="1">  1        2 0.13294326E-01 0.56148168E+03</pdfrwt>
<pdfrwt beam="2">  1       -2 0.12098981E+00 0.56148168E+03</pdfrwt>
<totfact> 0.24513823E+02</totfact>
</mgrwt>
</event>
<event>
 4    1  0.5985962E-005  0.1007861E+04  0.7818608E-02  0.9299965E-01
          2   -1    0    0  501    0  0.00000000000E+00  0.00000000000E+00  0.22964444667E+04  0.22964444667E+04  0.25500000000E-02 0.  1.
         -2   -1    0    0    0  501 -0.00000000000E+00 -0.00000000000E+00 -0.11058214126E+03  0.11058214129E+03  0.25500000000E-02 0. -1.
    5000001    1    1    2    0    0  0.35040575037E+03 -0.27349139649E+03  0.74667547966E+03  0.88907255372E+03  0.18800000000E+03 0.  0.
   -5000001    1    1    2    0    0 -0.35040575037E+03  0.27349139649E+03  0.14391868457E+04  0.15179540542E+04  0.18800000000E+03 0.  0.
<mgrwt>
<rscale>  0 0.10078606E+04</rscale>
<asrwt>0</asrwt>
<pdfrwt beam="1">  1        2 0.32806350E+00 0.10078606E+04</pdfrwt>
<pdfrwt beam="2">  1       -2 0.15797448E-01 0.10078606E+04</pdfrwt>
<totfact> 0.18190875E+02</totfact>
</mgrwt>
</event>
<event>
 4    1  0.5985962E-005  0.6094634E+03  0.7818608E-02  0.9885965E-01
          2   -1    0    0  501    0  0.00000000000E+00  0.00000000000E+00  0.13515695686E+04  0.13515695686E+04  0.25500000000E-02 0.  1.
         -2   -1    0    0    0  501 -0.00000000000E+00 -0.00000000000E+00 -0.68706350010E+02  0.68706350057E+02  0.25500000000E-02 0. -1.
    5000001    1    1    2    0    0  0.19882991062E+03 -0.79023869249E+02  0.38894037263E+03  0.48207542846E+03  0.18800000000E+03 0.  0.
   -5000001    1    1    2    0    0 -0.19882991062E+03  0.79023869249E+02  0.89392284595E+03  0.93820049018E+03  0.18800000000E+03 0.  0.
<mgrwt>
<rscale>  0 0.60946341E+03</rscale>
<asrwt>0</asrwt>
<pdfrwt beam="1">  1        2 0.19308135E+00 0.60946341E+03</pdfrwt>
<pdfrwt beam="2">  1       -2 0.98151935E-02 0.60946341E+03</pdfrwt>
<totfact> 0.12577557E+03</totfact>
</mgrwt>
</event>
<event>
 4    1  0.5985962E-005  0.6092715E+03  0.7818608E-02  0.9886355E-01
         -2   -1    0    0    0  501 -0.00000000000E+00  0.00000000000E+00  0.19480472397E+03  0.19480472398E+03  0.25500000000E-02 0. -1.
          2   -1    0    0  501    0  0.00000000000E+00 -0.00000000000E+00 -0.47638956050E+03  0.47638956050E+03  0.25500000000E-02 0.  1.
    5000001    1    1    2    0    0  0.78764462218E+02 -0.22031142229E+03 -0.19822522044E+03  0.35969181436E+03  0.18800000000E+03 0.  0.
   -5000001    1    1    2    0    0 -0.78764462218E+02  0.22031142229E+03 -0.83359616093E+02  0.31150247013E+03  0.18800000000E+03 0.  0.
<mgrwt>
<rscale>  0 0.60927149E+03</rscale>
<asrwt>0</asrwt>
<pdfrwt beam="1">  1        2 0.68055651E-01 0.60927149E+03</pdfrwt>
<pdfrwt beam="2">  1       -2 0.27829246E-01 0.60927149E+03</pdfrwt>
<totfact> 0.83897631E+02</totfact>
</mgrwt>
</event>
<event>
 4    1  0.5985962E-005  0.6386882E+03  0.7818608E-02  0.9828240E-01
          2   -1    0    0  501    0  0.00000000000E+00  0.00000000000E+00  0.10450477117E+04  0.10450477117E+04  0.25500000000E-02 0.  1.
         -2   -1    0    0    0  501 -0.00000000000E+00 -0.00000000000E+00 -0.97584694315E+02  0.97584694349E+02  0.25500000000E-02 0. -1.
    5000001    1    1    2    0    0  0.71885466641E+02 -0.55834187119E+02  0.41571745717E+02  0.21297226770E+03  0.18800000000E+03 0.  0.
   -5000001    1    1    2    0    0 -0.71885466641E+02  0.55834187119E+02  0.90589127169E+03  0.92966013838E+03  0.18800000000E+03 0.  0.
<mgrwt>
<rscale>  0 0.63868822E+03</rscale>
<asrwt>0</asrwt>
<pdfrwt beam="1">  1        2 0.14929253E+00 0.63868822E+03</pdfrwt>
<pdfrwt beam="2">  1       -2 0.13940671E-01 0.63868822E+03</pdfrwt>
<totfact> 0.10503233E+03</totfact>
</mgrwt>
</event>
<event>
 4    1  0.5985962E-005  0.5844938E+03  0.7818608E-02  0.9938109E-01
          2   -1    0    0  501    0  0.00000000000E+00  0.00000000000E+00  0.16675962030E+04  0.16675962030E+04  0.25500000000E-02 0.  1.
         -2   -1    0    0    0  501 -0.00000000000E+00 -0.00000000000E+00 -0.51216387056E+02  0.51216387119E+02  0.25500000000E-02 0. -1.
    5000001    1    1    2    0    0 -0.14300098863E+03  0.16218046022E+03  0.97743826914E+03  0.10185682866E+04  0.18800000000E+03 0.  0.
   -5000001    1    1    2    0    0  0.14300098863E+03 -0.16218046022E+03  0.63894154680E+03  0.70024430355E+03  0.18800000000E+03 0.  0.
<mgrwt>
<rscale>  0 0.58449381E+03</rscale>
<asrwt>0</asrwt>
<pdfrwt beam="1">  1        2 0.23822807E+00 0.58449381E+03</pdfrwt>
<pdfrwt beam="2">  1       -2 0.73166253E-02 0.58449381E+03</pdfrwt>
<totfact> 0.13785976E+03</totfact>
</mgrwt>
</event>
<event>
 4    1  0.5985962E-005  0.7414446E+03  0.7818608E-02  0.9648869E-01
          2   -1    0    0  501    0  0.00000000000E+00  0.00000000000E+00  0.30411083530E+04  0.30411083530E+04  0.25500000000E-02 0.  1.
         -2   -1    0    0    0  501 -0.00000000000E+00 -0.00000000000E+00 -0.45192417732E+02  0.45192417804E+02  0.25500000000E-02 0. -1.
    5000001    1    1    2    0    0 -0.31218962750E+03 -0.63948806541E+02  0.15946175348E+04  0.16369791983E+04  0.18800000000E+03 0.  0.
   -5000001    1    1    2    0    0  0.31218962750E+03  0.63948806541E+02  0.14012984005E+04  0.14493215726E+04  0.18800000000E+03 0.  0.
<mgrwt>
<rscale>  0 0.74144464E+03</rscale>
<asrwt>0</asrwt>
<pdfrwt beam="1">  1        2 0.43444407E+00 0.74144464E+03</pdfrwt>
<pdfrwt beam="2">  1       -2 0.64560593E-02 0.74144464E+03</pdfrwt>
<totfact> 0.32484454E+02</totfact>
</mgrwt>
</event>
<event>
 4    1  0.5985962E-005  0.4685765E+03  0.7818608E-02  0.1022323E+00
         -2   -1    0    0    0  501 -0.00000000000E+00  0.00000000000E+00  0.76314709199E+03  0.76314709199E+03  0.25500000000E-02 0. -1.
          2   -1    0    0  501    0  0.00000000000E+00 -0.00000000000E+00 -0.71927122775E+02  0.71927122821E+02  0.25500000000E-02 0.  1.
    5000001    1    1    2    0    0  0.11090426819E+03  0.72548891143E+02  0.26623166496E+03  0.35183291168E+03  0.18800000000E+03 0.  0.
   -5000001    1    1    2    0    0 -0.11090426819E+03 -0.72548891143E+02  0.42498830425E+03  0.48324130314E+03  0.18800000000E+03 0.  0.
<mgrwt>
<rscale>  0 0.46857646E+03</rscale>
<asrwt>0</asrwt>
<pdfrwt beam="1">  1        2 0.10275303E-01 0.46857646E+03</pdfrwt>
<pdfrwt beam="2">  1       -2 0.10902102E+00 0.46857646E+03</pdfrwt>
<totfact> 0.43548460E+02</totfact>
</mgrwt>
</event>
<event>
 4    1  0.5985962E-005  0.4026234E+03  0.7818608E-02  0.1042875E+00
         -2   -1    0    0    0  501 -0.00000000000E+00  0.00000000000E+00  0.12255316083E+02  0.12255316349E+02  0.25500000000E-02 0. -1.
          2   -1    0    0  501    0  0.00000000000E+00 -0.00000000000E+00 -0.33068425839E+04  0.33068425839E+04  0.25500000000E-02 0.  1.
    5000001    1    1    2    0    0 -0.41273228946E+01  0.71836724835E+02 -0.16291356031E+04  0.16415250114E+04  0.18800000000E+03 0.  0.
   -5000001    1    1    2    0    0  0.41273228946E+01 -0.71836724835E+02 -0.16654516648E+04  0.16775728889E+04  0.18800000000E+03 0.  0.
<mgrwt>
<rscale>  0 0.40262340E+03</rscale>
<asrwt>0</asrwt>
<pdfrwt beam="1">  1        2 0.47240551E+00 0.40262340E+03</pdfrwt>
<pdfrwt beam="2">  1       -2 0.17507616E-02 0.40262340E+03</pdfrwt>
<totfact> 0.17501328E+03</totfact>
</mgrwt>
</event>
<event>
 4    1  0.5985962E-005  0.4298505E+03  0.7818608E-02  0.1033907E+00
         -2   -1    0    0    0  501 -0.00000000000E+00  0.00000000000E+00  0.20320587305E+03  0.20320587307E+03  0.25500000000E-02 0. -1.
          2   -1    0    0  501    0  0.00000000000E+00 -0.00000000000E+00 -0.22732047257E+03  0.22732047259E+03  0.25500000000E-02 0.  1.
    5000001    1    1    2    0    0 -0.95885180983E+02 -0.10088174089E+02  0.27414258185E+02  0.21305229579E+03  0.18800000000E+03 0.  0.
   -5000001    1    1    2    0    0  0.95885180983E+02  0.10088174089E+02 -0.51528857706E+02  0.21747404987E+03  0.18800000000E+03 0.  0.
<mgrwt>
<rscale>  0 0.42985046E+03</rscale>
<asrwt>0</asrwt>
<pdfrwt beam="1">  1        2 0.32474353E-01 0.42985046E+03</pdfrwt>
<pdfrwt beam="2">  1       -2 0.29029411E-01 0.42985046E+03</pdfrwt>
<totfact> 0.17589926E+03</totfact>
</mgrwt>
</event>
<event>
 4    1  0.5985962E-005  0.5499053E+03  0.7818608E-02  0.1001516E+00
         -2   -1    0    0    0  501 -0.00000000000E+00  0.00000000000E+00  0.90095333329E+02  0.90095333366E+02  0.25500000000E-02 0. -1.
          2   -1    0    0  501    0  0.00000000000E+00 -0.00000000000E+00 -0.83909957011E+03  0.83909957011E+03  0.25500000000E-02 0.  1.
    5000001    1    1    2    0    0 -0.12119516297E+03 -0.18967115902E+02 -0.10622788699E+03  0.24834730316E+03  0.18800000000E+03 0.  0.
   -5000001    1    1    2    0    0  0.12119516297E+03  0.18967115902E+02 -0.64277634978E+03  0.68084760032E+03  0.18800000000E+03 0.  0.
<mgrwt>
<rscale>  0 0.54990528E+03</rscale>
<asrwt>0</asrwt>
<pdfrwt beam="1">  1        2 0.11987136E+00 0.54990528E+03</pdfrwt>
<pdfrwt beam="2">  1       -2 0.12870762E-01 0.54990528E+03</pdfrwt>
<totfact> 0.16203383E+03</totfact>
</mgrwt>
</event>
<event>
 4    1  0.5985962E-005  0.6107225E+03  0.7818608E-02  0.9883407E-01
         -2   -1    0    0    0  501 -0.00000000000E+00  0.00000000000E+00  0.50734997148E+02  0.50734997212E+02  0.25500000000E-02 0. -1.
          2   -1    0    0  501    0  0.00000000000E+00 -0.00000000000E+00 -0.18378931826E+04  0.18378931826E+04  0.25500000000E-02 0.  1.
    5000001    1    1    2    0    0 -0.21248414132E+03 -0.10736012075E+03 -0.78530806651E+03  0.84186012209E+03  0.18800000000E+03 0.  0.
   -5000001    1    1    2    0    0  0.21248414132E+03  0.10736012075E+03 -0.10018501189E+04  0.10467680577E+04  0.18800000000E+03 0.  0.
<mgrwt>
<rscale>  0 0.61072254E+03</rscale>
<asrwt>0</asrwt>
<pdfrwt beam="1">  1        2 0.26255613E+00 0.61072254E+03</pdfrwt>
<pdfrwt beam="2">  1       -2 0.72478579E-02 0.61072254E+03</pdfrwt>
<totfact> 0.11458811E+03</totfact>
</mgrwt>
</event>
<event>
 4    1  0.5985962E-005  0.4707461E+03  0.7818608E-02  0.1021710E+00
          2   -1    0    0  501    0  0.00000000000E+00  0.00000000000E+00  0.22330587671E+04  0.22330587671E+04  0.25500000000E-02 0.  1.
         -2   -1    0    0    0  501 -0.00000000000E+00 -0.00000000000E+00 -0.24809228009E+02  0.24809228140E+02  0.25500000000E-02 0. -1.
    5000001    1    1    2    0    0  0.13170417559E+03 -0.45422335366E+02  0.12261528849E+04  0.12482804475E+04  0.18800000000E+03 0.  0.
   -5000001    1    1    2    0    0 -0.13170417559E+03  0.45422335366E+02  0.98209665422E+03  0.10095875478E+04  0.18800000000E+03 0.  0.
<mgrwt>
<rscale>  0 0.47074606E+03</rscale>
<asrwt>0</asrwt>
<pdfrwt beam="1">  1        2 0.31900807E+00 0.47074606E+03</pdfrwt>
<pdfrwt beam="2">  1       -2 0.35441790E-02 0.47074606E+03</pdfrwt>
<totfact> 0.22165639E+03</totfact>
</mgrwt>
</event>
<event>
 4    1  0.5985962E-005  0.5962567E+03  0.7818608E-02  0.9913203E-01
         -2   -1    0    0    0  501 -0.00000000000E+00  0.00000000000E+00  0.13117836690E+03  0.13117836692E+03  0.25500000000E-02 0. -1.
          2   -1    0    0  501    0  0.00000000000E+00 -0.00000000000E+00 -0.67755466225E+03  0.67755466225E+03  0.25500000000E-02 0.  1.
    5000001    1    1    2    0    0  0.20894859148E+03 -0.87384148023E+02 -0.20897944598E+03  0.36098741259E+03  0.18800000000E+03 0.  0.
   -5000001    1    1    2    0    0 -0.20894859148E+03  0.87384148023E+02 -0.33739684937E+03  0.44774561658E+03  0.18800000000E+03 0.  0.
<mgrwt>
<rscale>  0 0.59625670E+03</rscale>
<asrwt>0</asrwt>
<pdfrwt beam="1">  1        2 0.96793521E-01 0.59625670E+03</pdfrwt>
<pdfrwt beam="2">  1       -2 0.18739767E-01 0.59625670E+03</pdfrwt>
<totfact> 0.11222122E+03</totfact>
</mgrwt>
</event>
<event>
 4    1  0.5985962E-005  0.5529051E+03  0.7818608E-02  0.1000824E+00
          2   -1    0    0  501    0  0.00000000000E+00  0.00000000000E+00  0.24946480236E+03  0.24946480237E+03  0.25500000000E-02 0.  1.
         -2   -1    0    0    0  501 -0.00000000000E+00 -0.00000000000E+00 -0.30635986041E+03  0.30635986042E+03  0.25500000000E-02 0. -1.
    5000001    1    1    2    0    0  0.16008915792E+02  0.20177698841E+03 -0.17819874448E+02  0.27682446850E+03  0.18800000000E+03 0.  0.
   -5000001    1    1    2    0    0 -0.16008915792E+02 -0.20177698841E+03 -0.39075183603E+02  0.27900019428E+03  0.18800000000E+03 0.  0.
<mgrwt>
<rscale>  0 0.55290506E+03</rscale>
<asrwt>0</asrwt>
<pdfrwt beam="1">  1        2 0.35637829E-01 0.55290506E+03</pdfrwt>
<pdfrwt beam="2">  1       -2 0.43765694E-01 0.55290506E+03</pdfrwt>
<totfact> 0.72940975E+02</totfact>
</mgrwt>
</event>
<event>
 4    1  0.5985962E-005  0.6229834E+03  0.7818608E-02  0.9858838E-01
          2   -1    0    0  501    0  0.00000000000E+00  0.00000000000E+00  0.13273560177E+04  0.13273560177E+04  0.25500000000E-02 0.  1.
         -2   -1    0    0    0  501 -0.00000000000E+00 -0.00000000000E+00 -0.73098016442E+02  0.73098016487E+02  0.25500000000E-02 0. -1.
    5000001    1    1    2    0    0  0.14054858627E+03 -0.18034001149E+03  0.40910201768E+03  0.50496028133E+03  0.18800000000E+03 0.  0.
   -5000001    1    1    2    0    0 -0.14054858627E+03  0.18034001149E+03  0.84515598355E+03  0.89549375284E+03  0.18800000000E+03 0.  0.
<mgrwt>
<rscale>  0 0.62298344E+03</rscale>
<asrwt>0</asrwt>
<pdfrwt beam="1">  1        2 0.18962228E+00 0.62298344E+03</pdfrwt>
<pdfrwt beam="2">  1       -2 0.10442574E-01 0.62298344E+03</pdfrwt>
<totfact> 0.11715721E+03</totfact>
</mgrwt>
</event>
<event>
 4    1  0.5985962E-005  0.5274383E+03  0.7818608E-02  0.1006855E+00
         -2   -1    0    0    0  501 -0.00000000000E+00  0.00000000000E+00  0.59164884929E+03  0.59164884930E+03  0.25500000000E-02 0. -1.
          2   -1    0    0  501    0  0.00000000000E+00 -0.00000000000E+00 -0.11754910301E+03  0.11754910303E+03  0.25500000000E-02 0.  1.
    5000001    1    1    2    0    0  0.34366867600E+02 -0.17902738592E+03  0.19513118112E+03  0.32657627646E+03  0.18800000000E+03 0.  0.
   -5000001    1    1    2    0    0 -0.34366867600E+02  0.17902738592E+03  0.27896856517E+03  0.38262167588E+03  0.18800000000E+03 0.  0.
<mgrwt>
<rscale>  0 0.52743831E+03</rscale>
<asrwt>0</asrwt>
<pdfrwt beam="1">  1        2 0.16792729E-01 0.52743831E+03</pdfrwt>
<pdfrwt beam="2">  1       -2 0.84521265E-01 0.52743831E+03</pdfrwt>
<totfact> 0.43110773E+02</totfact>
</mgrwt>
</event>
<event>
 4    1  0.5985962E-005  0.4991870E+03  0.7818608E-02  0.1013991E+00
         -2   -1    0    0    0  501 -0.00000000000E+00  0.00000000000E+00  0.49327407347E+02  0.49327407413E+02  0.25500000000E-02 0. -1.
          2   -1    0    0  501    0  0.00000000000E+00 -0.00000000000E+00 -0.12629269955E+04  0.12629269955E+04  0.25500000000E-02 0.  1.
    5000001    1    1    2    0    0  0.32864675640E+02  0.13346968678E+03 -0.37081367056E+03  0.43788242996E+03  0.18800000000E+03 0.  0.
   -5000001    1    1    2    0    0 -0.32864675640E+02 -0.13346968678E+03 -0.84278591755E+03  0.87437197292E+03  0.18800000000E+03 0.  0.
<mgrwt>
<rscale>  0 0.49918700E+03</rscale>
<asrwt>0</asrwt>
<pdfrwt beam="1">  1        2 0.18041812E+00 0.49918700E+03</pdfrwt>
<pdfrwt beam="2">  1       -2 0.70467733E-02 0.49918700E+03</pdfrwt>
<totfact> 0.23894389E+03</totfact>
</mgrwt>
</event>
<event>
 4    1  0.5985962E-005  0.4772436E+03  0.7818608E-02  0.1019895E+00
          2   -1    0    0  501    0  0.00000000000E+00  0.00000000000E+00  0.11812170973E+04  0.11812170973E+04  0.25500000000E-02 0.  1.
         -2   -1    0    0    0  501 -0.00000000000E+00 -0.00000000000E+00 -0.48204821119E+02  0.48204821187E+02  0.25500000000E-02 0. -1.
    5000001    1    1    2    0    0 -0.26404492085E+02 -0.14203529633E+03  0.49713629963E+03  0.55078101185E+03  0.18800000000E+03 0.  0.
   -5000001    1    1    2    0    0  0.26404492085E+02  0.14203529633E+03  0.63587597655E+03  0.67864090663E+03  0.18800000000E+03 0.  0.
<mgrwt>
<rscale>  0 0.47724358E+03</rscale>
<asrwt>0</asrwt>
<pdfrwt beam="1">  1        2 0.16874528E+00 0.47724358E+03</pdfrwt>
<pdfrwt beam="2">  1       -2 0.68864039E-02 0.47724358E+03</pdfrwt>
<totfact> 0.27491180E+03</totfact>
</mgrwt>
</event>
<event>
 4    1  0.5985962E-005  0.5443176E+03  0.7818608E-02  0.1002818E+00
          2   -1    0    0  501    0  0.00000000000E+00  0.00000000000E+00  0.29458091158E+04  0.29458091158E+04  0.25500000000E-02 0.  1.
         -2   -1    0    0    0  501 -0.00000000000E+00 -0.00000000000E+00 -0.25144331327E+02  0.25144331456E+02  0.25500000000E-02 0. -1.
    5000001    1    1    2    0    0 -0.10525728334E+03  0.89142534430E+02  0.69423023328E+03  0.73234220412E+03  0.18800000000E+03 0.  0.
   -5000001    1    1    2    0    0  0.10525728334E+03 -0.89142534430E+02  0.22264345512E+04  0.22386112431E+04  0.18800000000E+03 0.  0.
<mgrwt>
<rscale>  0 0.54431756E+03</rscale>
<asrwt>0</asrwt>
<pdfrwt beam="1">  1        2 0.42083022E+00 0.54431756E+03</pdfrwt>
<pdfrwt beam="2">  1       -2 0.35920444E-02 0.54431756E+03</pdfrwt>
<totfact> 0.92626179E+02</totfact>
</mgrwt>
</event>
<event>
 4    1  0.5985962E-005  0.4582878E+03  0.7818608E-02  0.1025279E+00
          2   -1    0    0  501    0  0.00000000000E+00  0.00000000000E+00  0.63014337063E+03  0.63014337064E+03  0.25500000000E-02 0.  1.
         -2   -1    0    0    0  501 -0.00000000000E+00 -0.00000000000E+00 -0.83325364841E+02  0.83325364880E+02  0.25500000000E-02 0. -1.
    5000001    1    1    2    0    0 -0.54533503133E+02  0.11906704083E+03  0.26800188136E+03  0.35259023184E+03  0.18800000000E+03 0.  0.
   -5000001    1    1    2    0    0  0.54533503133E+02 -0.11906704083E+03  0.27881612444E+03  0.36087850368E+03  0.18800000000E+03 0.  0.
<mgrwt>
<rscale>  0 0.45828780E+03</rscale>
<asrwt>0</asrwt>
<pdfrwt beam="1">  1        2 0.90020483E-01 0.45828780E+03</pdfrwt>
<pdfrwt beam="2">  1       -2 0.11903623E-01 0.45828780E+03</pdfrwt>
<totfact> 0.26211117E+03</totfact>
</mgrwt>
</event>
<event>
 4    1  0.5985962E-005  0.8606480E+03  0.7818608E-02  0.9476156E-01
          2   -1    0    0  501    0  0.00000000000E+00  0.00000000000E+00  0.89104889668E+03  0.89104889669E+03  0.25500000000E-02 0.  1.
         -2   -1    0    0    0  501 -0.00000000000E+00 -0.00000000000E+00 -0.20782106659E+03  0.20782106660E+03  0.25500000000E-02 0. -1.
    5000001    1    1    2    0    0 -0.34783896456E+03 -0.16982319488E+03  0.34377668215E+03  0.55077969278E+03  0.18800000000E+03 0.  0.
   -5000001    1    1    2    0    0  0.34783896456E+03  0.16982319488E+03  0.33945114794E+03  0.54809027051E+03  0.18800000000E+03 0.  0.
<mgrwt>
<rscale>  0 0.86064797E+03</rscale>
<asrwt>0</asrwt>
<pdfrwt beam="1">  1        2 0.12729270E+00 0.86064797E+03</pdfrwt>
<pdfrwt beam="2">  1       -2 0.29688724E-01 0.86064797E+03</pdfrwt>
<totfact> 0.34491718E+02</totfact>
</mgrwt>
</event>
<event>
 4    1  0.5985962E-005  0.4128252E+03  0.7818608E-02  0.1039427E+00
          2   -1    0    0  501    0  0.00000000000E+00  0.00000000000E+00  0.85453763319E+03  0.85453763319E+03  0.25500000000E-02 0.  1.
         -2   -1    0    0    0  501 -0.00000000000E+00 -0.00000000000E+00 -0.49858725585E+02  0.49858725650E+02  0.25500000000E-02 0. -1.
    5000001    1    1    2    0    0  0.74256241127E+02  0.13782953327E+02  0.31586178371E+03  0.37525541376E+03  0.18800000000E+03 0.  0.
   -5000001    1    1    2    0    0 -0.74256241127E+02 -0.13782953327E+02  0.48881712390E+03  0.52914094508E+03  0.18800000000E+03 0.  0.
<mgrwt>
<rscale>  0 0.41282518E+03</rscale>
<asrwt>0</asrwt>
<pdfrwt beam="1">  1        2 0.12207680E+00 0.41282518E+03</pdfrwt>
<pdfrwt beam="2">  1       -2 0.71226752E-02 0.41282518E+03</pdfrwt>
<totfact> 0.40928089E+03</totfact>
</mgrwt>
</event>
<event>
 4    1  0.5985962E-005  0.5084155E+03  0.7818608E-02  0.1011605E+00
         -2   -1    0    0    0  501 -0.00000000000E+00  0.00000000000E+00  0.27888498821E+03  0.27888498823E+03  0.25500000000E-02 0. -1.
          2   -1    0    0  501    0  0.00000000000E+00 -0.00000000000E+00 -0.23171413158E+03  0.23171413160E+03  0.25500000000E-02 0.  1.
    5000001    1    1    2    0    0  0.78007170584E+02 -0.14992378456E+03 -0.32751509172E+01  0.25281808965E+03  0.18800000000E+03 0.  0.
   -5000001    1    1    2    0    0 -0.78007170584E+02  0.14992378456E+03  0.50446007547E+02  0.25778103017E+03  0.18800000000E+03 0.  0.
<mgrwt>
<rscale>  0 0.50841555E+03</rscale>
<asrwt>0</asrwt>
<pdfrwt beam="1">  1        2 0.33102019E-01 0.50841555E+03</pdfrwt>
<pdfrwt beam="2">  1       -2 0.39840712E-01 0.50841555E+03</pdfrwt>
<totfact> 0.95128809E+02</totfact>
</mgrwt>
</event>
<event>
 4    1  0.5985962E-005  0.1359100E+04  0.7818608E-02  0.8983968E-01
          2   -1    0    0  501    0  0.00000000000E+00  0.00000000000E+00  0.11531968217E+04  0.11531968217E+04  0.25500000000E-02 0.  1.
         -2   -1    0    0    0  501 -0.00000000000E+00 -0.00000000000E+00 -0.40044155811E+03  0.40044155812E+03  0.25500000000E-02 0. -1.
    5000001    1    1    2    0    0  0.28063548390E+02 -0.15111229083E+03  0.11019069175E+04  0.11283462864E+04  0.18800000000E+03 0.  0.
   -5000001    1    1    2    0    0 -0.28063548390E+02  0.15111229083E+03 -0.34915165399E+03  0.42529209335E+03  0.18800000000E+03 0.  0.
<mgrwt>
<rscale>  0 0.13590996E+04</rscale>
<asrwt>0</asrwt>
<pdfrwt beam="1">  1        2 0.16474240E+00 0.13590996E+04</pdfrwt>
<pdfrwt beam="2">  1       -2 0.57205936E-01 0.13590996E+04</pdfrwt>
<totfact> 0.63626010E+01</totfact>
</mgrwt>
</event>
<event>
 4    1  0.5985962E-005  0.4348418E+03  0.7818608E-02  0.1032341E+00
          2   -1    0    0  501    0  0.00000000000E+00  0.00000000000E+00  0.12785476526E+03  0.12785476529E+03  0.25500000000E-02 0.  1.
         -2   -1    0    0    0  501 -0.00000000000E+00 -0.00000000000E+00 -0.36973086889E+03  0.36973086890E+03  0.25500000000E-02 0. -1.
    5000001    1    1    2    0    0 -0.32279785928E+02  0.59978830192E+02 -0.23247427626E+02  0.20130545830E+03  0.18800000000E+03 0.  0.
   -5000001    1    1    2    0    0  0.32279785928E+02 -0.59978830192E+02 -0.21862867600E+03  0.29628017588E+03  0.18800000000E+03 0.  0.
<mgrwt>
<rscale>  0 0.43484183E+03</rscale>
<asrwt>0</asrwt>
<pdfrwt beam="1">  1        2 0.18264967E-01 0.43484183E+03</pdfrwt>
<pdfrwt beam="2">  1       -2 0.52818695E-01 0.43484183E+03</pdfrwt>
<totfact> 0.10698898E+03</totfact>
</mgrwt>
</event>
<event>
 4    1  0.5985962E-005  0.8532859E+03  0.7818608E-02  0.9485937E-01
          2   -1    0    0  501    0  0.00000000000E+00  0.00000000000E+00  0.24768170623E+04  0.24768170623E+04  0.25500000000E-02 0.  1.
         -2   -1    0    0    0  501 -0.00000000000E+00 -0.00000000000E+00 -0.73491178824E+02  0.73491178868E+02  0.25500000000E-02 0. -1.
    5000001    1    1    2    0    0 -0.10237057324E+03  0.28680048814E+03  0.18958516337E+04  0.19293345151E+04  0.18800000000E+03 0.  0.
   -5000001    1    1    2    0    0  0.10237057324E+03 -0.28680048814E+03  0.50747424983E+03  0.62097372610E+03  0.18800000000E+03 0.  0.
<mgrwt>
<rscale>  0 0.85328590E+03</rscale>
<asrwt>0</asrwt>
<pdfrwt beam="1">  1        2 0.35383095E+00 0.85328590E+03</pdfrwt>
<pdfrwt beam="2">  1       -2 0.10498742E-01 0.85328590E+03</pdfrwt>
<totfact> 0.29410148E+02</totfact>
</mgrwt>
</event>
<event>
 4    1  0.5985962E-005  0.6791843E+03  0.7818608E-02  0.9753507E-01
          2   -1    0    0  501    0  0.00000000000E+00  0.00000000000E+00  0.52824767773E+03  0.52824767774E+03  0.25500000000E-02 0.  1.
         -2   -1    0    0    0  501 -0.00000000000E+00 -0.00000000000E+00 -0.21831203715E+03  0.21831203717E+03  0.25500000000E-02 0. -1.
    5000001    1    1    2    0    0 -0.26441859148E+03 -0.70514315896E+01  0.26495332137E+03  0.41894054079E+03  0.18800000000E+03 0.  0.
   -5000001    1    1    2    0    0  0.26441859148E+03  0.70514315896E+01  0.44982319211E+02  0.32761917412E+03  0.18800000000E+03 0.  0.
<mgrwt>
<rscale>  0 0.67918430E+03</rscale>
<asrwt>0</asrwt>
<pdfrwt beam="1">  1        2 0.75463954E-01 0.67918430E+03</pdfrwt>
<pdfrwt beam="2">  1       -2 0.31187434E-01 0.67918430E+03</pdfrwt>
<totfact> 0.60353551E+02</totfact>
</mgrwt>
</event>
<event>
 4    1  0.5985962E-005  0.4909885E+03  0.7818608E-02  0.1016158E+00
          2   -1    0    0  501    0  0.00000000000E+00  0.00000000000E+00  0.45287079232E+03  0.45287079233E+03  0.25500000000E-02 0.  1.
         -2   -1    0    0    0  501 -0.00000000000E+00 -0.00000000000E+00 -0.13307866167E+03  0.13307866169E+03  0.25500000000E-02 0. -1.
    5000001    1    1    2    0    0 -0.22888115025E+02 -0.13731050591E+03  0.71026070426E+02  0.24447237783E+03  0.18800000000E+03 0.  0.
   -5000001    1    1    2    0    0  0.22888115025E+02  0.13731050591E+03  0.24876606022E+03  0.34147707619E+03  0.18800000000E+03 0.  0.
<mgrwt>
<rscale>  0 0.49098855E+03</rscale>
<asrwt>0</asrwt>
<pdfrwt beam="1">  1        2 0.64695828E-01 0.49098855E+03</pdfrwt>
<pdfrwt beam="2">  1       -2 0.19011237E-01 0.49098855E+03</pdfrwt>
<totfact> 0.17453635E+03</totfact>
</mgrwt>
</event>
<event>
 4    1  0.5985962E-005  0.9364686E+03  0.7818608E-02  0.9381108E-01
          2   -1    0    0  501    0  0.00000000000E+00  0.00000000000E+00  0.50497989120E+03  0.50497989121E+03  0.25500000000E-02 0.  1.
         -2   -1    0    0    0  501 -0.00000000000E+00 -0.00000000000E+00 -0.43416251233E+03  0.43416251234E+03  0.25500000000E-02 0. -1.
    5000001    1    1    2    0    0 -0.30032627934E+03 -0.24899919185E+03 -0.14315268419E+03  0.45610652549E+03  0.18800000000E+03 0.  0.
   -5000001    1    1    2    0    0  0.30032627934E+03  0.24899919185E+03  0.21397006306E+03  0.48303587806E+03  0.18800000000E+03 0.  0.
<mgrwt>
<rscale>  0 0.93646855E+03</rscale>
<asrwt>0</asrwt>
<pdfrwt beam="1">  1        2 0.72139985E-01 0.93646855E+03</pdfrwt>
<pdfrwt beam="2">  1       -2 0.62023216E-01 0.93646855E+03</pdfrwt>
<totfact> 0.16056236E+02</totfact>
</mgrwt>
</event>
<event>
 4    1  0.5985962E-005  0.8100322E+03  0.7818608E-02  0.9545608E-01
          2   -1    0    0  501    0  0.00000000000E+00  0.00000000000E+00  0.82794737144E+03  0.82794737145E+03  0.25500000000E-02 0.  1.
         -2   -1    0    0    0  501 -0.00000000000E+00 -0.00000000000E+00 -0.19812615987E+03  0.19812615989E+03  0.25500000000E-02 0. -1.
    5000001    1    1    2    0    0  0.83899325981E+01 -0.35229440712E+03  0.39999988794E+03  0.56526599987E+03  0.18800000000E+03 0.  0.
   -5000001    1    1    2    0    0 -0.83899325981E+01  0.35229440712E+03  0.22982132363E+03  0.46080753146E+03  0.18800000000E+03 0.  0.
<mgrwt>
<rscale>  0 0.81003218E+03</rscale>
<asrwt>0</asrwt>
<pdfrwt beam="1">  1        2 0.11827820E+00 0.81003218E+03</pdfrwt>
<pdfrwt beam="2">  1       -2 0.28303737E-01 0.81003218E+03</pdfrwt>
<totfact> 0.41612819E+02</totfact>
</mgrwt>
</event>
<event>
 4    1  0.5985962E-005  0.7272242E+03  0.7818608E-02  0.9671775E-01
         -2   -1    0    0    0  501 -0.00000000000E+00  0.00000000000E+00  0.66460339473E+02  0.66460339522E+02  0.25500000000E-02 0. -1.
          2   -1    0    0  501    0  0.00000000000E+00 -0.00000000000E+00 -0.19893635137E+04  0.19893635137E+04  0.25500000000E-02 0.  1.
    5000001    1    1    2    0    0 -0.45380781678E+02  0.29708223873E+03 -0.11902859042E+04  0.12419508065E+04  0.18800000000E+03 0.  0.
   -5000001    1    1    2    0    0  0.45380781678E+02 -0.29708223873E+03 -0.73261727000E+03  0.81387304675E+03  0.18800000000E+03 0.  0.
<mgrwt>
<rscale>  0 0.72722424E+03</rscale>
<asrwt>0</asrwt>
<pdfrwt beam="1">  1        2 0.28419475E+00 0.72722424E+03</pdfrwt>
<pdfrwt beam="2">  1       -2 0.94943354E-02 0.72722424E+03</pdfrwt>
<totfact> 0.61949896E+02</totfact>
</mgrwt>
</event>
<event>
 4    1  0.5985962E-005  0.1391296E+04  0.7818608E-02  0.8960143E-01
          2   -1    0    0  501    0  0.00000000000E+00  0.00000000000E+00  0.61006149811E+03  0.61006149811E+03  0.25500000000E-02 0.  1.
         -2   -1    0    0    0  501 -0.00000000000E+00 -0.00000000000E+00 -0.79324167818E+03  0.79324167818E+03  0.25500000000E-02 0. -1.
    5000001    1    1    2    0    0  0.44588325924E+03  0.42337182760E+03 -0.35945047031E+03  0.73661674288E+03  0.18800000000E+03 0.  0.
   -5000001    1    1    2    0    0 -0.44588325924E+03 -0.42337182760E+03  0.17627029024E+03  0.66668643342E+03  0.18800000000E+03 0.  0.
<mgrwt>
<rscale>  0 0.13912961E+04</rscale>
<asrwt>0</asrwt>
<pdfrwt beam="1">  1        2 0.87151643E-01 0.13912961E+04</pdfrwt>
<pdfrwt beam="2">  1       -2 0.11332024E+00 0.13912961E+04</pdfrwt>
<totfact> 0.31717568E+01</totfact>
</mgrwt>
</event>
<event>
 4    1  0.5985962E-005  0.7280239E+03  0.7818608E-02  0.9670472E-01
          2   -1    0    0  501    0  0.00000000000E+00  0.00000000000E+00  0.31088001441E+04  0.31088001441E+04  0.25500000000E-02 0.  1.
         -2   -1    0    0    0  501 -0.00000000000E+00 -0.00000000000E+00 -0.42622461366E+02  0.42622461442E+02  0.25500000000E-02 0. -1.
    5000001    1    1    2    0    0 -0.53194415493E+01 -0.29165216546E+03  0.20086872394E+04  0.20384449239E+04  0.18800000000E+03 0.  0.
   -5000001    1    1    2    0    0  0.53194415493E+01  0.29165216546E+03  0.10574904433E+04  0.11129776816E+04  0.18800000000E+03 0.  0.
<mgrwt>
<rscale>  0 0.72802394E+03</rscale>
<asrwt>0</asrwt>
<pdfrwt beam="1">  1        2 0.44411440E+00 0.72802394E+03</pdfrwt>
<pdfrwt beam="2">  1       -2 0.60889217E-02 0.72802394E+03</pdfrwt>
<totfact> 0.32723185E+02</totfact>
</mgrwt>
</event>
<event>
 4    1  0.5985962E-005  0.4827562E+03  0.7818608E-02  0.1018380E+00
          2   -1    0    0  501    0  0.00000000000E+00  0.00000000000E+00  0.11569840484E+04  0.11569840484E+04  0.25500000000E-02 0.  1.
         -2   -1    0    0    0  501 -0.00000000000E+00 -0.00000000000E+00 -0.50357987150E+02  0.50357987214E+02  0.25500000000E-02 0. -1.
    5000001    1    1    2    0    0 -0.58530709279E+02  0.12855457343E+03  0.68954551284E+03  0.72853904258E+03  0.18800000000E+03 0.  0.
   -5000001    1    1    2    0    0  0.58530709279E+02 -0.12855457343E+03  0.41708054838E+03  0.47880299301E+03  0.18800000000E+03 0.  0.
<mgrwt>
<rscale>  0 0.48275620E+03</rscale>
<asrwt>0</asrwt>
<pdfrwt beam="1">  1        2 0.16528341E+00 0.48275620E+03</pdfrwt>
<pdfrwt beam="2">  1       -2 0.71939993E-02 0.48275620E+03</pdfrwt>
<totfact> 0.26482310E+03</totfact>
</mgrwt>
</event>
<event>
 4    1  0.5985962E-005  0.4093326E+03  0.7818608E-02  0.1040595E+00
          2   -1    0    0  501    0  0.00000000000E+00  0.00000000000E+00  0.38288994984E+04  0.38288994984E+04  0.25500000000E-02 0.  1.
         -2   -1    0    0    0  501 -0.00000000000E+00 -0.00000000000E+00 -0.10940033818E+02  0.10940034115E+02  0.25500000000E-02 0. -1.
    5000001    1    1    2    0    0  0.34067207677E+02 -0.73159856228E+02  0.19615046059E+04  0.19721453440E+04  0.18800000000E+03 0.  0.
   -5000001    1    1    2    0    0 -0.34067207677E+02  0.73159856228E+02  0.18564548587E+04  0.18676941885E+04  0.18800000000E+03 0.  0.
<mgrwt>
<rscale>  0 0.40933258E+03</rscale>
<asrwt>0</asrwt>
<pdfrwt beam="1">  1        2 0.54698563E+00 0.40933258E+03</pdfrwt>
<pdfrwt beam="2">  1       -2 0.15628620E-02 0.40933258E+03</pdfrwt>
<totfact> 0.10102631E+03</totfact>
</mgrwt>
</event>
<event>
 4    1  0.5985962E-005  0.7982442E+03  0.7818608E-02  0.9562562E-01
         -2   -1    0    0    0  501 -0.00000000000E+00  0.00000000000E+00  0.20469276340E+03  0.20469276342E+03  0.25500000000E-02 0. -1.
          2   -1    0    0  501    0  0.00000000000E+00 -0.00000000000E+00 -0.77823191281E+03  0.77823191282E+03  0.25500000000E-02 0.  1.
    5000001    1    1    2    0    0 -0.34594687562E+03  0.37833422710E+02 -0.22110419459E+03  0.45314641507E+03  0.18800000000E+03 0.  0.
   -5000001    1    1    2    0    0  0.34594687562E+03 -0.37833422710E+02 -0.35243495482E+03  0.52977826116E+03  0.18800000000E+03 0.  0.
<mgrwt>
<rscale>  0 0.79824418E+03</rscale>
<asrwt>0</asrwt>
<pdfrwt beam="1">  1        2 0.11117599E+00 0.79824418E+03</pdfrwt>
<pdfrwt beam="2">  1       -2 0.29241824E-01 0.79824418E+03</pdfrwt>
<totfact> 0.42464326E+02</totfact>
</mgrwt>
</event>
<event>
 4    1  0.5985962E-005  0.6732039E+03  0.7818608E-02  0.9764187E-01
          2   -1    0    0  501    0  0.00000000000E+00  0.00000000000E+00  0.18444813522E+03  0.18444813524E+03  0.25500000000E-02 0.  1.
         -2   -1    0    0    0  501 -0.00000000000E+00 -0.00000000000E+00 -0.61426956199E+03  0.61426956199E+03  0.25500000000E-02 0. -1.
    5000001    1    1    2    0    0  0.20497776989E+02  0.27844743008E+03 -0.21720673608E+03  0.40059442879E+03  0.18800000000E+03 0.  0.
   -5000001    1    1    2    0    0 -0.20497776989E+02 -0.27844743008E+03 -0.21261469068E+03  0.39812326844E+03  0.18800000000E+03 0.  0.
<mgrwt>
<rscale>  0 0.67320391E+03</rscale>
<asrwt>0</asrwt>
<pdfrwt beam="1">  1        2 0.26349734E-01 0.67320391E+03</pdfrwt>
<pdfrwt beam="2">  1       -2 0.87752793E-01 0.67320391E+03</pdfrwt>
<totfact> 0.23344554E+02</totfact>
</mgrwt>
</event>
<event>
 4    1  0.5985962E-005  0.6601241E+03  0.7818608E-02  0.9787965E-01
         -2   -1    0    0    0  501 -0.00000000000E+00  0.00000000000E+00  0.27818001555E+03  0.27818001556E+03  0.25500000000E-02 0. -1.
          2   -1    0    0  501    0  0.00000000000E+00 -0.00000000000E+00 -0.39162036160E+03  0.39162036161E+03  0.25500000000E-02 0.  1.
    5000001    1    1    2    0    0  0.11004771798E+03  0.24489897481E+03 -0.17279449742E+02  0.32822033374E+03  0.18800000000E+03 0.  0.
   -5000001    1    1    2    0    0 -0.11004771798E+03 -0.24489897481E+03 -0.96160896309E+02  0.34158004344E+03  0.18800000000E+03 0.  0.
<mgrwt>
<rscale>  0 0.66012410E+03</rscale>
<asrwt>0</asrwt>
<pdfrwt beam="1">  1        2 0.55945766E-01 0.66012410E+03</pdfrwt>
<pdfrwt beam="2">  1       -2 0.39740002E-01 0.66012410E+03</pdfrwt>
<totfact> 0.53400863E+02</totfact>
</mgrwt>
</event>
<event>
 4    1  0.5985962E-005  0.7352913E+03  0.7818608E-02  0.9658713E-01
         -2   -1    0    0    0  501 -0.00000000000E+00  0.00000000000E+00  0.43228466109E+02  0.43228466185E+02  0.25500000000E-02 0. -1.
          2   -1    0    0  501    0  0.00000000000E+00 -0.00000000000E+00 -0.31267202307E+04  0.31267202307E+04  0.25500000000E-02 0.  1.
    5000001    1    1    2    0    0  0.16310196329E+03 -0.12964261297E+03 -0.25656760348E+04  0.25809779102E+04  0.18800000000E+03 0.  0.
   -5000001    1    1    2    0    0 -0.16310196329E+03  0.12964261297E+03 -0.51781572984E+03  0.58897078671E+03  0.18800000000E+03 0.  0.
<mgrwt>
<rscale>  0 0.73529129E+03</rscale>
<asrwt>0</asrwt>
<pdfrwt beam="1">  1        2 0.44667418E+00 0.73529129E+03</pdfrwt>
<pdfrwt beam="2">  1       -2 0.61754971E-02 0.73529129E+03</pdfrwt>
<totfact> 0.31254254E+02</totfact>
</mgrwt>
</event>
<event>
 4    1  0.5985962E-005  0.4853421E+03  0.7818608E-02  0.1017677E+00
          2   -1    0    0  501    0  0.00000000000E+00  0.00000000000E+00  0.98376548752E+02  0.98376548785E+02  0.25500000000E-02 0.  1.
         -2   -1    0    0    0  501 -0.00000000000E+00 -0.00000000000E+00 -0.59861062809E+03  0.59861062810E+03  0.25500000000E-02 0. -1.
    5000001    1    1    2    0    0 -0.87906309118E+02 -0.72899531963E+02 -0.10293952425E+03  0.24286293788E+03  0.18800000000E+03 0.  0.
   -5000001    1    1    2    0    0  0.87906309118E+02  0.72899531963E+02 -0.39729455509E+03  0.45412423900E+03  0.18800000000E+03 0.  0.
<mgrwt>
<rscale>  0 0.48534214E+03</rscale>
<asrwt>0</asrwt>
<pdfrwt beam="1">  1        2 0.14053793E-01 0.48534214E+03</pdfrwt>
<pdfrwt beam="2">  1       -2 0.85515802E-01 0.48534214E+03</pdfrwt>
<totfact> 0.52039922E+02</totfact>
</mgrwt>
</event>
<event>
 4    1  0.5985962E-005  0.6178772E+03  0.7818608E-02  0.9868995E-01
         -2   -1    0    0    0  501 -0.00000000000E+00  0.00000000000E+00  0.10184732378E+03  0.10184732381E+03  0.25500000000E-02 0. -1.
          2   -1    0    0  501    0  0.00000000000E+00 -0.00000000000E+00 -0.93711890653E+03  0.93711890653E+03  0.25500000000E-02 0.  1.
    5000001    1    1    2    0    0  0.16167269501E+02 -0.20532538024E+03 -0.19405726332E+03  0.33973830196E+03  0.18800000000E+03 0.  0.
   -5000001    1    1    2    0    0 -0.16167269501E+02  0.20532538024E+03 -0.64121431944E+03  0.69922792838E+03  0.18800000000E+03 0.  0.
<mgrwt>
<rscale>  0 0.61787718E+03</rscale>
<asrwt>0</asrwt>
<pdfrwt beam="1">  1        2 0.13387412E+00 0.61787718E+03</pdfrwt>
<pdfrwt beam="2">  1       -2 0.14549618E-01 0.61787718E+03</pdfrwt>
<totfact> 0.11393546E+03</totfact>
</mgrwt>
</event>
<event>
 4    1  0.5985962E-005  0.4915640E+03  0.7818608E-02  0.1016005E+00
          2   -1    0    0  501    0  0.00000000000E+00  0.00000000000E+00  0.59354788445E+03  0.59354788446E+03  0.25500000000E-02 0.  1.
         -2   -1    0    0    0  501 -0.00000000000E+00 -0.00000000000E+00 -0.10177575997E+03  0.10177576000E+03  0.25500000000E-02 0. -1.
    5000001    1    1    2    0    0  0.12545059030E+03  0.63934535064E+02  0.14349924084E+03  0.27524808356E+03  0.18800000000E+03 0.  0.
   -5000001    1    1    2    0    0 -0.12545059030E+03 -0.63934535064E+02  0.34827288364E+03  0.42007556090E+03  0.18800000000E+03 0.  0.
<mgrwt>
<rscale>  0 0.49156398E+03</rscale>
<asrwt>0</asrwt>
<pdfrwt beam="1">  1        2 0.84792558E-01 0.49156398E+03</pdfrwt>
<pdfrwt beam="2">  1       -2 0.14539394E-01 0.49156398E+03</pdfrwt>
<totfact> 0.20212878E+03</totfact>
</mgrwt>
</event>
<event>
 4    1  0.5985962E-005  0.8796806E+03  0.7818608E-02  0.9451344E-01
         -2   -1    0    0    0  501 -0.00000000000E+00  0.00000000000E+00  0.64500843137E+02  0.64500843187E+02  0.25500000000E-02 0. -1.
          2   -1    0    0  501    0  0.00000000000E+00 -0.00000000000E+00 -0.29993329019E+04  0.29993329019E+04  0.25500000000E-02 0.  1.
    5000001    1    1    2    0    0  0.30478440780E+03 -0.21582849197E+03 -0.19429301817E+04  0.19874096619E+04  0.18800000000E+03 0.  0.
   -5000001    1    1    2    0    0 -0.30478440780E+03  0.21582849197E+03 -0.99190187711E+03  0.10764240832E+04  0.18800000000E+03 0.  0.
<mgrwt>
<rscale>  0 0.87968063E+03</rscale>
<asrwt>0</asrwt>
<pdfrwt beam="1">  1        2 0.42847604E+00 0.87968063E+03</pdfrwt>
<pdfrwt beam="2">  1       -2 0.92144080E-02 0.87968063E+03</pdfrwt>
<totfact> 0.19132957E+02</totfact>
</mgrwt>
</event>
<event>
 4    1  0.5985962E-005  0.4649492E+03  0.7818608E-02  0.1023356E+00
         -2   -1    0    0    0  501 -0.00000000000E+00  0.00000000000E+00  0.39328993209E+02  0.39328993292E+02  0.25500000000E-02 0. -1.
          2   -1    0    0  501    0  0.00000000000E+00 -0.00000000000E+00 -0.13741627798E+04  0.13741627798E+04  0.25500000000E-02 0.  1.
    5000001    1    1    2    0    0  0.26045095110E+02 -0.11438675690E+03 -0.45379151666E+03  0.50500833431E+03  0.18800000000E+03 0.  0.
   -5000001    1    1    2    0    0 -0.26045095110E+02  0.11438675690E+03 -0.88104226998E+03  0.90848343883E+03  0.18800000000E+03 0.  0.
<mgrwt>
<rscale>  0 0.46494920E+03</rscale>
<asrwt>0</asrwt>
<pdfrwt beam="1">  1        2 0.19630894E+00 0.46494920E+03</pdfrwt>
<pdfrwt beam="2">  1       -2 0.56184285E-02 0.46494920E+03</pdfrwt>
<totfact> 0.29674851E+03</totfact>
</mgrwt>
</event>
<event>
 4    1  0.5985962E-005  0.6781952E+03  0.7818608E-02  0.9755265E-01
         -2   -1    0    0    0  501 -0.00000000000E+00  0.00000000000E+00  0.83526761328E+02  0.83526761366E+02  0.25500000000E-02 0. -1.
          2   -1    0    0  501    0  0.00000000000E+00 -0.00000000000E+00 -0.13766509567E+04  0.13766509567E+04  0.25500000000E-02 0.  1.
    5000001    1    1    2    0    0 -0.11995400350E+03 -0.15844640345E+03 -0.10779700881E+04  0.11121410596E+04  0.18800000000E+03 0.  0.
   -5000001    1    1    2    0    0  0.11995400350E+03  0.15844640345E+03 -0.21515410726E+03  0.34803665841E+03  0.18800000000E+03 0.  0.
<mgrwt>
<rscale>  0 0.67819524E+03</rscale>
<asrwt>0</asrwt>
<pdfrwt beam="1">  1        2 0.19666441E+00 0.67819524E+03</pdfrwt>
<pdfrwt beam="2">  1       -2 0.11932395E-01 0.67819524E+03</pdfrwt>
<totfact> 0.88399328E+02</totfact>
</mgrwt>
</event>
<event>
 4    1  0.5985962E-005  0.4337669E+03  0.7818608E-02  0.1032677E+00
         -2   -1    0    0    0  501 -0.00000000000E+00  0.00000000000E+00  0.10183044823E+03  0.10183044827E+03  0.25500000000E-02 0. -1.
          2   -1    0    0  501    0  0.00000000000E+00 -0.00000000000E+00 -0.46192895786E+03  0.46192895787E+03  0.25500000000E-02 0.  1.
    5000001    1    1    2    0    0 -0.45660032523E+02  0.94766667195E+02 -0.14745666440E+03  0.26106134845E+03  0.18800000000E+03 0.  0.
   -5000001    1    1    2    0    0  0.45660032523E+02 -0.94766667195E+02 -0.21264184523E+03  0.30269805768E+03  0.18800000000E+03 0.  0.
<mgrwt>
<rscale>  0 0.43376691E+03</rscale>
<asrwt>0</asrwt>
<pdfrwt beam="1">  1        2 0.65989850E-01 0.43376691E+03</pdfrwt>
<pdfrwt beam="2">  1       -2 0.14547207E-01 0.43376691E+03</pdfrwt>
<totfact> 0.26828066E+03</totfact>
</mgrwt>
</event>
<event>
 4    1  0.5985962E-005  0.7731806E+03  0.7818608E-02  0.9599669E-01
         -2   -1    0    0    0  501 -0.00000000000E+00  0.00000000000E+00  0.14749475166E+03  0.14749475168E+03  0.25500000000E-02 0. -1.
          2   -1    0    0  501    0  0.00000000000E+00 -0.00000000000E+00 -0.10132704223E+04  0.10132704223E+04  0.25500000000E-02 0.  1.
    5000001    1    1    2    0    0 -0.14708559887E+03 -0.15062284671E+03 -0.36290679287E+02  0.28457411820E+03  0.18800000000E+03 0.  0.
   -5000001    1    1    2    0    0  0.14708559887E+03  0.15062284671E+03 -0.82948499133E+03  0.87619105576E+03  0.18800000000E+03 0.  0.
<mgrwt>
<rscale>  0 0.77318062E+03</rscale>
<asrwt>0</asrwt>
<pdfrwt beam="1">  1        2 0.14475291E+00 0.77318062E+03</pdfrwt>
<pdfrwt beam="2">  1       -2 0.21070679E-01 0.77318062E+03</pdfrwt>
<totfact> 0.53817498E+02</totfact>
</mgrwt>
</event>
<event>
 4    1  0.5985962E-005  0.4906386E+03  0.7818608E-02  0.1016252E+00
          2   -1    0    0  501    0  0.00000000000E+00  0.00000000000E+00  0.77482310426E+03  0.77482310426E+03  0.25500000000E-02 0. -1.
         -2   -1    0    0    0  501 -0.00000000000E+00 -0.00000000000E+00 -0.77671365374E+02  0.77671365416E+02  0.25500000000E-02 0.  1.
    5000001    1    1    2    0    0 -0.77816547331E+02  0.12762914130E+03  0.43532938929E+03  0.49719240735E+03  0.18800000000E+03 0.  0.
   -5000001    1    1    2    0    0  0.77816547331E+02 -0.12762914130E+03  0.26182234960E+03  0.35530206233E+03  0.18800000000E+03 0.  0.
<mgrwt>
<rscale>  0 0.49063864E+03</rscale>
<asrwt>0</asrwt>
<pdfrwt beam="1">  1        2 0.11068902E+00 0.49063864E+03</pdfrwt>
<pdfrwt beam="2">  1       -2 0.11095909E-01 0.49063864E+03</pdfrwt>
<totfact> 0.22881219E+03</totfact>
</mgrwt>
</event>
<event>
 4    1  0.5985962E-005  0.5382697E+03  0.7818608E-02  0.1004246E+00
         -2   -1    0    0    0  501 -0.00000000000E+00  0.00000000000E+00  0.50974790727E+02  0.50974790791E+02  0.25500000000E-02 0. -1.
          2   -1    0    0  501    0  0.00000000000E+00 -0.00000000000E+00 -0.14209683655E+04  0.14209683655E+04  0.25500000000E-02 0.  1.
    5000001    1    1    2    0    0  0.35326425525E+02 -0.16021080530E+03 -0.40916821287E+03  0.47924741512E+03  0.18800000000E+03 0.  0.
   -5000001    1    1    2    0    0 -0.35326425525E+02  0.16021080530E+03 -0.96082536193E+03  0.99269574120E+03  0.18800000000E+03 0.  0.
<mgrwt>
<rscale>  0 0.53826969E+03</rscale>
<asrwt>0</asrwt>
<pdfrwt beam="1">  1        2 0.20299546E+00 0.53826969E+03</pdfrwt>
<pdfrwt beam="2">  1       -2 0.72821138E-02 0.53826969E+03</pdfrwt>
<totfact> 0.18657575E+03</totfact>
</mgrwt>
</event>
<event>
 4    1  0.5985962E-005  0.4117973E+03  0.7818608E-02  0.1039770E+00
         -2   -1    0    0    0  501 -0.00000000000E+00  0.00000000000E+00  0.29595247619E+02  0.29595247729E+02  0.25500000000E-02 0. -1.
          2   -1    0    0  501    0  0.00000000000E+00 -0.00000000000E+00 -0.14324686432E+04  0.14324686432E+04  0.25500000000E-02 0.  1.
    5000001    1    1    2    0    0 -0.31282529918E+02 -0.28571590819E+02 -0.44405191025E+03  0.48406717662E+03  0.18800000000E+03 0.  0.
   -5000001    1    1    2    0    0  0.31282529918E+02  0.28571590819E+02 -0.95882148533E+03  0.97799671431E+03  0.18800000000E+03 0.  0.
<mgrwt>
<rscale>  0 0.41179735E+03</rscale>
<asrwt>0</asrwt>
<pdfrwt beam="1">  1        2 0.20463833E+00 0.41179735E+03</pdfrwt>
<pdfrwt beam="2">  1       -2 0.42278934E-02 0.41179735E+03</pdfrwt>
<totfact> 0.42827639E+03</totfact>
</mgrwt>
</event>
<event>
 4    1  0.5985962E-005  0.6321394E+03  0.7818608E-02  0.9840883E-01
         -2   -1    0    0    0  501 -0.00000000000E+00  0.00000000000E+00  0.25950191168E+02  0.25950191293E+02  0.25500000000E-02 0. -1.
          2   -1    0    0  501    0  0.00000000000E+00 -0.00000000000E+00 -0.38496848013E+04  0.38496848013E+04  0.25500000000E-02 0.  1.
    5000001    1    1    2    0    0 -0.20480267502E+03 -0.10138914486E+02 -0.99203364662E+03  0.10303017467E+04  0.18800000000E+03 0.  0.
   -5000001    1    1    2    0    0  0.20480267502E+03  0.10138914486E+02 -0.28317009635E+04  0.28453332459E+04  0.18800000000E+03 0.  0.
<mgrwt>
<rscale>  0 0.63213940E+03</rscale>
<asrwt>0</asrwt>
<pdfrwt beam="1">  1        2 0.54995461E+00 0.63213940E+03</pdfrwt>
<pdfrwt beam="2">  1       -2 0.37071726E-02 0.63213940E+03</pdfrwt>
<totfact> 0.25885187E+02</totfact>
</mgrwt>
</event>
<event>
 4    1  0.5985962E-005  0.6665399E+03  0.7818608E-02  0.9776229E-01
          2   -1    0    0  501    0  0.00000000000E+00  0.00000000000E+00  0.30498561288E+03  0.30498561289E+03  0.25500000000E-02 0.  1.
         -2   -1    0    0    0  501 -0.00000000000E+00 -0.00000000000E+00 -0.36417737071E+03  0.36417737072E+03  0.25500000000E-02 0. -1.
    5000001    1    1    2    0    0  0.21949569065E+03  0.16455096317E+03 -0.78431008380E+01  0.33265731906E+03  0.18800000000E+03 0.  0.
   -5000001    1    1    2    0    0 -0.21949569065E+03 -0.16455096317E+03 -0.51348656997E+02  0.33650566455E+03  0.18800000000E+03 0.  0.
<mgrwt>
<rscale>  0 0.66653990E+03</rscale>
<asrwt>0</asrwt>
<pdfrwt beam="1">  1        2 0.43569373E-01 0.66653990E+03</pdfrwt>
<pdfrwt beam="2">  1       -2 0.52025339E-01 0.66653990E+03</pdfrwt>
<totfact> 0.41187432E+02</totfact>
</mgrwt>
</event>
<event>
 4    1  0.5985962E-005  0.6555760E+03  0.7818608E-02  0.9796372E-01
          2   -1    0    0  501    0  0.00000000000E+00  0.00000000000E+00  0.95502526632E+02  0.95502526667E+02  0.25500000000E-02 0.  1.
         -2   -1    0    0    0  501 -0.00000000000E+00 -0.00000000000E+00 -0.11250486282E+04  0.11250486282E+04  0.25500000000E-02 0. -1.
    5000001    1    1    2    0    0  0.25217553019E+03  0.35332976317E+02 -0.35613648587E+03  0.47646417894E+03  0.18800000000E+03 0.  0.
   -5000001    1    1    2    0    0 -0.25217553019E+03 -0.35332976317E+02 -0.67340961572E+03  0.74408697595E+03  0.18800000000E+03 0.  0.
<mgrwt>
<rscale>  0 0.65557604E+03</rscale>
<asrwt>0</asrwt>
<pdfrwt beam="1">  1        2 0.13643219E-01 0.65557604E+03</pdfrwt>
<pdfrwt beam="2">  1       -2 0.16072122E+00 0.65557604E+03</pdfrwt>
<totfact> 0.11387244E+02</totfact>
</mgrwt>
</event>
<event>
 4    1  0.5985962E-005  0.4215339E+03  0.7818608E-02  0.1036568E+00
          2   -1    0    0  501    0  0.00000000000E+00  0.00000000000E+00  0.94871771835E+03  0.94871771835E+03  0.25500000000E-02 0.  1.
         -2   -1    0    0    0  501 -0.00000000000E+00 -0.00000000000E+00 -0.46823939115E+02  0.46823939184E+02  0.25500000000E-02 0. -1.
    5000001    1    1    2    0    0 -0.23820678261E+02  0.89840644835E+02  0.50048289626E+03  0.54264711888E+03  0.18800000000E+03 0.  0.
   -5000001    1    1    2    0    0  0.23820678261E+02 -0.89840644835E+02  0.40141088297E+03  0.45289453866E+03  0.18800000000E+03 0.  0.
<mgrwt>
<rscale>  0 0.42153387E+03</rscale>
<asrwt>0</asrwt>
<pdfrwt beam="1">  1        2 0.13553109E+00 0.42153387E+03</pdfrwt>
<pdfrwt beam="2">  1       -2 0.66891346E-02 0.42153387E+03</pdfrwt>
<totfact> 0.39343387E+03</totfact>
</mgrwt>
</event>
<event>
 4    1  0.5985962E-005  0.5385657E+03  0.7818608E-02  0.1004176E+00
         -2   -1    0    0    0  501 -0.00000000000E+00  0.00000000000E+00  0.62566186082E+02  0.62566186134E+02  0.25500000000E-02 0. -1.
          2   -1    0    0  501    0  0.00000000000E+00 -0.00000000000E+00 -0.11589845818E+04  0.11589845818E+04  0.25500000000E-02 0.  1.
    5000001    1    1    2    0    0 -0.11773879920E+01  0.17678152121E+03 -0.37375053585E+03  0.45418779765E+03  0.18800000000E+03 0.  0.
   -5000001    1    1    2    0    0  0.11773879920E+01 -0.17678152121E+03 -0.72266785991E+03  0.76736297033E+03  0.18800000000E+03 0.  0.
<mgrwt>
<rscale>  0 0.53856567E+03</rscale>
<asrwt>0</asrwt>
<pdfrwt beam="1">  1        2 0.16556921E+00 0.53856567E+03</pdfrwt>
<pdfrwt beam="2">  1       -2 0.89380273E-02 0.53856567E+03</pdfrwt>
<totfact> 0.18700476E+03</totfact>
</mgrwt>
</event>
<event>
 4    1  0.5985962E-005  0.8298470E+03  0.7818608E-02  0.9517792E-01
         -2   -1    0    0    0  501 -0.00000000000E+00  0.00000000000E+00  0.16769570212E+03  0.16769570214E+03  0.25500000000E-02 0. -1.
          2   -1    0    0  501    0  0.00000000000E+00 -0.00000000000E+00 -0.10266304078E+04  0.10266304078E+04  0.25500000000E-02 0.  1.
    5000001    1    1    2    0    0 -0.13261086017E+03 -0.32662848468E+03 -0.59067006688E+03  0.71309672216E+03  0.18800000000E+03 0.  0.
   -5000001    1    1    2    0    0  0.13261086017E+03  0.32662848468E+03 -0.26826463880E+03  0.48122938779E+03  0.18800000000E+03 0.  0.
<mgrwt>
<rscale>  0 0.82984699E+03</rscale>
<asrwt>0</asrwt>
<pdfrwt beam="1">  1        2 0.14666148E+00 0.82984699E+03</pdfrwt>
<pdfrwt beam="2">  1       -2 0.23956529E-01 0.82984699E+03</pdfrwt>
<totfact> 0.41945529E+02</totfact>
</mgrwt>
</event>
<event>
 4    1  0.5985962E-005  0.5119834E+03  0.7818608E-02  0.1010698E+00
          2   -1    0    0  501    0  0.00000000000E+00  0.00000000000E+00  0.24755216390E+03  0.24755216392E+03  0.25500000000E-02 0.  1.
         -2   -1    0    0    0  501 -0.00000000000E+00 -0.00000000000E+00 -0.26471900398E+03  0.26471900399E+03  0.25500000000E-02 0. -1.
    5000001    1    1    2    0    0 -0.12742296433E+03  0.11001843669E+03  0.34418564127E+02  0.25469453431E+03  0.18800000000E+03 0.  0.
   -5000001    1    1    2    0    0  0.12742296433E+03 -0.11001843669E+03 -0.51585404203E+02  0.25757663360E+03  0.18800000000E+03 0.  0.
<mgrwt>
<rscale>  0 0.51198345E+03</rscale>
<asrwt>0</asrwt>
<pdfrwt beam="1">  1        2 0.35364595E-01 0.51198345E+03</pdfrwt>
<pdfrwt beam="2">  1       -2 0.37817001E-01 0.51198345E+03</pdfrwt>
<totfact> 0.97730735E+02</totfact>
</mgrwt>
</event>
<event>
 4    1  0.5985962E-005  0.7571468E+03  0.7818608E-02  0.9624204E-01
          2   -1    0    0  501    0  0.00000000000E+00  0.00000000000E+00  0.34842841988E+03  0.34842841989E+03  0.25500000000E-02 0.  1.
         -2   -1    0    0    0  501 -0.00000000000E+00 -0.00000000000E+00 -0.41132645054E+03  0.41132645055E+03  0.25500000000E-02 0. -1.
    5000001    1    1    2    0    0 -0.73988499154E+02 -0.30709673570E+03  0.59367554276E+02  0.37235897946E+03  0.18800000000E+03 0.  0.
   -5000001    1    1    2    0    0  0.73988499154E+02  0.30709673570E+03 -0.12226558494E+03  0.38739589097E+03  0.18800000000E+03 0.  0.
<mgrwt>
<rscale>  0 0.75714682E+03</rscale>
<asrwt>0</asrwt>
<pdfrwt beam="1">  1        2 0.49775489E-01 0.75714682E+03</pdfrwt>
<pdfrwt beam="2">  1       -2 0.58760921E-01 0.75714682E+03</pdfrwt>
<totfact> 0.27537008E+02</totfact>
</mgrwt>
</event>
<event>
 4    1  0.5985962E-005  0.7812506E+03  0.7818608E-02  0.9587560E-01
          2   -1    0    0  501    0  0.00000000000E+00  0.00000000000E+00  0.89875981051E+02  0.89875981087E+02  0.25500000000E-02 0.  1.
         -2   -1    0    0    0  501 -0.00000000000E+00 -0.00000000000E+00 -0.16977629947E+04  0.16977629947E+04  0.25500000000E-02 0. -1.
    5000001    1    1    2    0    0  0.22773675644E+03  0.67594979508E+02 -0.23968183669E+03  0.38629586372E+03  0.18800000000E+03 0.  0.
   -5000001    1    1    2    0    0 -0.22773675644E+03 -0.67594979508E+02 -0.13682051769E+04  0.14013431120E+04  0.18800000000E+03 0.  0.
<mgrwt>
<rscale>  0 0.78125057E+03</rscale>
<asrwt>0</asrwt>
<pdfrwt beam="1">  1        2 0.12839427E-01 0.78125057E+03</pdfrwt>
<pdfrwt beam="2">  1       -2 0.24253755E+00 0.78125057E+03</pdfrwt>
<totfact> 0.35516946E+01</totfact>
</mgrwt>
</event>
<event>
 4    1  0.5985962E-005  0.4932924E+03  0.7818608E-02  0.1015545E+00
         -2   -1    0    0    0  501 -0.00000000000E+00  0.00000000000E+00  0.17325442897E+03  0.17325442899E+03  0.25500000000E-02 0. -1.
          2   -1    0    0  501    0  0.00000000000E+00 -0.00000000000E+00 -0.35112725669E+03  0.35112725670E+03  0.25500000000E-02 0.  1.
    5000001    1    1    2    0    0 -0.62451489797E+01  0.54525084785E+02 -0.24831333781E+03  0.31625227350E+03  0.18800000000E+03 0.  0.
   -5000001    1    1    2    0    0  0.62451489797E+01 -0.54525084785E+02  0.70440510095E+02  0.20812941219E+03  0.18800000000E+03 0.  0.
<mgrwt>
<rscale>  0 0.49329242E+03</rscale>
<asrwt>0</asrwt>
<pdfrwt beam="1">  1        2 0.50161037E-01 0.49329242E+03</pdfrwt>
<pdfrwt beam="2">  1       -2 0.24750633E-01 0.49329242E+03</pdfrwt>
<totfact> 0.14560970E+03</totfact>
</mgrwt>
</event>
<event>
 4    1  0.5985962E-005  0.1504840E+04  0.7818608E-02  0.8881241E-01
          2   -1    0    0  501    0  0.00000000000E+00  0.00000000000E+00  0.11442091087E+04  0.11442091087E+04  0.25500000000E-02 0.  1.
         -2   -1    0    0    0  501 -0.00000000000E+00 -0.00000000000E+00 -0.49478347639E+03  0.49478347639E+03  0.25500000000E-02 0. -1.
    5000001    1    1    2    0    0 -0.60647029833E+03 -0.20261542732E+03  0.70503046981E+03  0.97019132005E+03  0.18800000000E+03 0.  0.
   -5000001    1    1    2    0    0  0.60647029833E+03  0.20261542732E+03 -0.55604837520E+02  0.66880126502E+03  0.18800000000E+03 0.  0.
<mgrwt>
<rscale>  0 0.15048399E+04</rscale>
<asrwt>0</asrwt>
<pdfrwt beam="1">  1        2 0.16345844E+00 0.15048399E+04</pdfrwt>
<pdfrwt beam="2">  1       -2 0.70683354E-01 0.15048399E+04</pdfrwt>
<totfact> 0.40527726E+01</totfact>
</mgrwt>
</event>
<event>
 4    1  0.5985962E-005  0.5403058E+03  0.7818608E-02  0.1003763E+00
         -2   -1    0    0    0  501 -0.00000000000E+00  0.00000000000E+00  0.45477324367E+02  0.45477324438E+02  0.25500000000E-02 0. -1.
          2   -1    0    0  501    0  0.00000000000E+00 -0.00000000000E+00 -0.16048127558E+04  0.16048127558E+04  0.25500000000E-02 0.  1.
    5000001    1    1    2    0    0 -0.14730498904E+03  0.11605084081E+03 -0.93152924747E+03  0.96863682376E+03  0.18800000000E+03 0.  0.
   -5000001    1    1    2    0    0  0.14730498904E+03 -0.11605084081E+03 -0.62780618394E+03  0.68165325646E+03  0.18800000000E+03 0.  0.
<mgrwt>
<rscale>  0 0.54030580E+03</rscale>
<asrwt>0</asrwt>
<pdfrwt beam="1">  1        2 0.22925893E+00 0.54030580E+03</pdfrwt>
<pdfrwt beam="2">  1       -2 0.64967616E-02 0.54030580E+03</pdfrwt>
<totfact> 0.17929249E+03</totfact>
</mgrwt>
</event>
<event>
 4    1  0.5985962E-005  0.5558342E+03  0.7818608E-02  0.1000153E+00
         -2   -1    0    0    0  501 -0.00000000000E+00  0.00000000000E+00  0.29769932858E+02  0.29769932967E+02  0.25500000000E-02 0. -1.
          2   -1    0    0  501    0  0.00000000000E+00 -0.00000000000E+00 -0.25944936327E+04  0.25944936327E+04  0.25500000000E-02 0.  1.
    5000001    1    1    2    0    0 -0.18917819983E+03  0.45977985337E+01 -0.16506349887E+04  0.16720494601E+04  0.18800000000E+03 0.  0.
   -5000001    1    1    2    0    0  0.18917819983E+03 -0.45977985337E+01 -0.91408871117E+03  0.95221410562E+03  0.18800000000E+03 0.  0.
<mgrwt>
<rscale>  0 0.55583415E+03</rscale>
<asrwt>0</asrwt>
<pdfrwt beam="1">  1        2 0.37064180E+00 0.55583415E+03</pdfrwt>
<pdfrwt beam="2">  1       -2 0.42528492E-02 0.55583415E+03</pdfrwt>
<totfact> 0.10938238E+03</totfact>
</mgrwt>
</event>
<event>
 4    1  0.5985962E-005  0.6740051E+03  0.7818608E-02  0.9762749E-01
         -2   -1    0    0    0  501 -0.00000000000E+00  0.00000000000E+00  0.82791609544E+02  0.82791609583E+02  0.25500000000E-02 0. -1.
          2   -1    0    0  501    0  0.00000000000E+00 -0.00000000000E+00 -0.13717662207E+04  0.13717662207E+04  0.25500000000E-02 0.  1.
    5000001    1    1    2    0    0  0.32268368798E+02 -0.24679728830E+03 -0.91981469494E+03  0.97126372431E+03  0.18800000000E+03 0.  0.
   -5000001    1    1    2    0    0 -0.32268368798E+02  0.24679728830E+03 -0.36915991626E+03  0.48329410602E+03  0.18800000000E+03 0.  0.
<mgrwt>
<rscale>  0 0.67400514E+03</rscale>
<asrwt>0</asrwt>
<pdfrwt beam="1">  1        2 0.19596659E+00 0.67400514E+03</pdfrwt>
<pdfrwt beam="2">  1       -2 0.11827374E-01 0.67400514E+03</pdfrwt>
<totfact> 0.90254870E+02</totfact>
</mgrwt>
</event>
<event>
 4    1  0.5985962E-005  0.8275655E+03  0.7818608E-02  0.9520953E-01
         -2   -1    0    0    0  501 -0.00000000000E+00  0.00000000000E+00  0.98981403008E+02  0.98981403041E+02  0.25500000000E-02 0. -1.
          2   -1    0    0  501    0  0.00000000000E+00 -0.00000000000E+00 -0.17297811074E+04  0.17297811074E+04  0.25500000000E-02 0.  1.
    5000001    1    1    2    0    0  0.34812245920E+03 -0.85462012359E+02 -0.10052270186E+04  0.10836597072E+04  0.18800000000E+03 0.  0.
   -5000001    1    1    2    0    0 -0.34812245920E+03  0.85462012359E+02 -0.62557268586E+03  0.74510280328E+03  0.18800000000E+03 0.  0.
<mgrwt>
<rscale>  0 0.82756549E+03</rscale>
<asrwt>0</asrwt>
<pdfrwt beam="1">  1        2 0.24711157E+00 0.82756549E+03</pdfrwt>
<pdfrwt beam="2">  1       -2 0.14140201E-01 0.82756549E+03</pdfrwt>
<totfact> 0.43247360E+02</totfact>
</mgrwt>
</event>
<event>
 4    1  0.5985962E-005  0.4892852E+03  0.7818608E-02  0.1016614E+00
          2   -1    0    0  501    0  0.00000000000E+00  0.00000000000E+00  0.81835000641E+03  0.81835000641E+03  0.25500000000E-02 0.  1.
         -2   -1    0    0    0  501 -0.00000000000E+00 -0.00000000000E+00 -0.73134967811E+02  0.73134967855E+02  0.25500000000E-02 0. -1.
    5000001    1    1    2    0    0  0.13051579397E+03  0.85249965927E+02  0.34657933308E+03  0.42398486209E+03  0.18800000000E+03 0.  0.
   -5000001    1    1    2    0    0 -0.13051579397E+03 -0.85249965927E+02  0.39863570552E+03  0.46750011217E+03  0.18800000000E+03 0.  0.
<mgrwt>
<rscale>  0 0.48928520E+03</rscale>
<asrwt>0</asrwt>
<pdfrwt beam="1">  1        2 0.11690713E+00 0.48928520E+03</pdfrwt>
<pdfrwt beam="2">  1       -2 0.10447854E-01 0.48928520E+03</pdfrwt>
<totfact> 0.23542065E+03</totfact>
</mgrwt>
</event>
<event>
 4    1  0.5985962E-005  0.4552706E+03  0.7818608E-02  0.1026162E+00
         -2   -1    0    0    0  501 -0.00000000000E+00  0.00000000000E+00  0.25542537040E+03  0.25542537042E+03  0.25500000000E-02 0. -1.
          2   -1    0    0  501    0  0.00000000000E+00 -0.00000000000E+00 -0.20286876353E+03  0.20286876354E+03  0.25500000000E-02 0.  1.
    5000001    1    1    2    0    0  0.83621786691E+02 -0.88757589033E+02 -0.14029050913E+02  0.22452466922E+03  0.18800000000E+03 0.  0.
   -5000001    1    1    2    0    0 -0.83621786691E+02  0.88757589033E+02  0.66585657789E+02  0.23376946474E+03  0.18800000000E+03 0.  0.
<mgrwt>
<rscale>  0 0.45527060E+03</rscale>
<asrwt>0</asrwt>
<pdfrwt beam="1">  1        2 0.28981252E-01 0.45527060E+03</pdfrwt>
<pdfrwt beam="2">  1       -2 0.36489339E-01 0.45527060E+03</pdfrwt>
<totfact> 0.13050058E+03</totfact>
</mgrwt>
</event>
<event>
 4    1  0.5985962E-005  0.7444268E+03  0.7818608E-02  0.9644135E-01
          2   -1    0    0  501    0  0.00000000000E+00  0.00000000000E+00  0.40683232339E+03  0.40683232340E+03  0.25500000000E-02 0.  1.
         -2   -1    0    0    0  501 -0.00000000000E+00 -0.00000000000E+00 -0.34054035495E+03  0.34054035496E+03  0.25500000000E-02 0. -1.
    5000001    1    1    2    0    0 -0.23363218405E+03  0.15448291497E+03  0.19108940390E+03  0.38769592301E+03  0.18800000000E+03 0.  0.
   -5000001    1    1    2    0    0  0.23363218405E+03 -0.15448291497E+03 -0.12479743546E+03  0.35967675534E+03  0.18800000000E+03 0.  0.
<mgrwt>
<rscale>  0 0.74442682E+03</rscale>
<asrwt>0</asrwt>
<pdfrwt beam="1">  1        2 0.58118903E-01 0.74442682E+03</pdfrwt>
<pdfrwt beam="2">  1       -2 0.48648622E-01 0.74442682E+03</pdfrwt>
<totfact> 0.34204104E+02</totfact>
</mgrwt>
</event>
<event>
 4    1  0.5985962E-005  0.4655976E+03  0.7818608E-02  0.1023170E+00
         -2   -1    0    0    0  501 -0.00000000000E+00  0.00000000000E+00  0.97436094453E+02  0.97436094486E+02  0.25500000000E-02 0. -1.
          2   -1    0    0  501    0  0.00000000000E+00 -0.00000000000E+00 -0.55621371708E+03  0.55621371709E+03  0.25500000000E-02 0.  1.
    5000001    1    1    2    0    0  0.11402750291E+03  0.72112584050E+02 -0.26514806733E+03  0.35192327830E+03  0.18800000000E+03 0.  0.
   -5000001    1    1    2    0    0 -0.11402750291E+03 -0.72112584050E+02 -0.19362955530E+03  0.30172653328E+03  0.18800000000E+03 0.  0.
<mgrwt>
<rscale>  0 0.46559765E+03</rscale>
<asrwt>0</asrwt>
<pdfrwt beam="1">  1        2 0.79459100E-01 0.46559765E+03</pdfrwt>
<pdfrwt beam="2">  1       -2 0.13919442E-01 0.46559765E+03</pdfrwt>
<totfact> 0.23422255E+03</totfact>
</mgrwt>
</event>
<event>
 4    1  0.5985962E-005  0.5780568E+03  0.7818608E-02  0.9952007E-01
          2   -1    0    0  501    0  0.00000000000E+00  0.00000000000E+00  0.77217357526E+03  0.77217357527E+03  0.25500000000E-02 0.  1.
         -2   -1    0    0    0  501 -0.00000000000E+00 -0.00000000000E+00 -0.10818474546E+03  0.10818474549E+03  0.25500000000E-02 0. -1.
    5000001    1    1    2    0    0  0.56377166540E+02 -0.17182953002E+03  0.14245064691E+03  0.29722038810E+03  0.18800000000E+03 0.  0.
   -5000001    1    1    2    0    0 -0.56377166540E+02  0.17182953002E+03  0.52153818289E+03  0.58313793266E+03  0.18800000000E+03 0.  0.
<mgrwt>
<rscale>  0 0.57805675E+03</rscale>
<asrwt>0</asrwt>
<pdfrwt beam="1">  1        2 0.11031051E+00 0.57805675E+03</pdfrwt>
<pdfrwt beam="2">  1       -2 0.15454963E-01 0.57805675E+03</pdfrwt>
<totfact> 0.13269594E+03</totfact>
</mgrwt>
</event>
<event>
 4    1  0.5985962E-005  0.4406912E+03  0.7818608E-02  0.1030535E+00
         -2   -1    0    0    0  501 -0.00000000000E+00  0.00000000000E+00  0.12999096695E+03  0.12999096698E+03  0.25500000000E-02 0. -1.
          2   -1    0    0  501    0  0.00000000000E+00 -0.00000000000E+00 -0.37350423658E+03  0.37350423659E+03  0.25500000000E-02 0.  1.
    5000001    1    1    2    0    0  0.10494267880E+02  0.29407179081E+02 -0.24812320010E+03  0.31286424255E+03  0.18800000000E+03 0.  0.
   -5000001    1    1    2    0    0 -0.10494267880E+02 -0.29407179081E+02  0.46099304708E+01  0.19063096102E+03  0.18800000000E+03 0.  0.
<mgrwt>
<rscale>  0 0.44069117E+03</rscale>
<asrwt>0</asrwt>
<pdfrwt beam="1">  1        2 0.53357748E-01 0.44069117E+03</pdfrwt>
<pdfrwt beam="2">  1       -2 0.18570138E-01 0.44069117E+03</pdfrwt>
<totfact> 0.22464550E+03</totfact>
</mgrwt>
</event>
<event>
 4    1  0.5985962E-005  0.5037317E+03  0.7818608E-02  0.1012809E+00
         -2   -1    0    0    0  501 -0.00000000000E+00  0.00000000000E+00  0.15869726196E+03  0.15869726199E+03  0.25500000000E-02 0. -1.
          2   -1    0    0  501    0  0.00000000000E+00 -0.00000000000E+00 -0.39973228212E+03  0.39973228213E+03  0.25500000000E-02 0.  1.
    5000001    1    1    2    0    0  0.53052902682E+02  0.10660267672E+03 -0.25128206190E+03  0.33565669336E+03  0.18800000000E+03 0.  0.
   -5000001    1    1    2    0    0 -0.53052902682E+02 -0.10660267672E+03  0.10247041741E+02  0.22277285075E+03  0.18800000000E+03 0.  0.
<mgrwt>
<rscale>  0 0.50373175E+03</rscale>
<asrwt>0</asrwt>
<pdfrwt beam="1">  1        2 0.57104611E-01 0.50373175E+03</pdfrwt>
<pdfrwt beam="2">  1       -2 0.22671038E-01 0.50373175E+03</pdfrwt>
<totfact> 0.14750256E+03</totfact>
</mgrwt>
</event>
<event>
 4    1  0.5985962E-005  0.4246455E+03  0.7818608E-02  0.1035565E+00
         -2   -1    0    0    0  501 -0.00000000000E+00  0.00000000000E+00  0.56659104480E+02  0.56659104537E+02  0.25500000000E-02 0. -1.
          2   -1    0    0  501    0  0.00000000000E+00 -0.00000000000E+00 -0.79565224743E+03  0.79565224744E+03  0.25500000000E-02 0.  1.
    5000001    1    1    2    0    0 -0.80869780186E+02  0.54717515118E+02 -0.39809465618E+03  0.45095153075E+03  0.18800000000E+03 0.  0.
   -5000001    1    1    2    0    0  0.80869780186E+02 -0.54717515118E+02 -0.34089848677E+03  0.40135982122E+03  0.18800000000E+03 0.  0.
<mgrwt>
<rscale>  0 0.42464547E+03</rscale>
<asrwt>0</asrwt>
<pdfrwt beam="1">  1        2 0.11366460E+00 0.42464547E+03</pdfrwt>
<pdfrwt beam="2">  1       -2 0.80941583E-02 0.42464547E+03</pdfrwt>
<totfact> 0.36664860E+03</totfact>
</mgrwt>
</event>
<event>
 4    1  0.5985962E-005  0.6612623E+03  0.7818608E-02  0.9785873E-01
         -2   -1    0    0    0  501 -0.00000000000E+00  0.00000000000E+00  0.15520066521E+03  0.15520066523E+03  0.25500000000E-02 0. -1.
          2   -1    0    0  501    0  0.00000000000E+00 -0.00000000000E+00 -0.70435879269E+03  0.70435879270E+03  0.25500000000E-02 0.  1.
    5000001    1    1    2    0    0 -0.20325845243E+03 -0.13731782576E+03 -0.42729532558E+03  0.52734758842E+03  0.18800000000E+03 0.  0.
   -5000001    1    1    2    0    0  0.20325845243E+03  0.13731782576E+03 -0.12186280190E+03  0.33221186951E+03  0.18800000000E+03 0.  0.
<mgrwt>
<rscale>  0 0.66126229E+03</rscale>
<asrwt>0</asrwt>
<pdfrwt beam="1">  1        2 0.10062268E+00 0.66126229E+03</pdfrwt>
<pdfrwt beam="2">  1       -2 0.22171524E-01 0.66126229E+03</pdfrwt>
<totfact> 0.79677046E+02</totfact>
</mgrwt>
</event>
<event>
 4    1  0.5985962E-005  0.4854586E+03  0.7818608E-02  0.1017646E+00
          2   -1    0    0  501    0  0.00000000000E+00  0.00000000000E+00  0.36645344036E+03  0.36645344037E+03  0.25500000000E-02 0.  1.
         -2   -1    0    0    0  501 -0.00000000000E+00 -0.00000000000E+00 -0.16077761169E+03  0.16077761171E+03  0.25500000000E-02 0. -1.
    5000001    1    1    2    0    0  0.38550382578E+02  0.14710590544E+03  0.12580543062E+03  0.27257528462E+03  0.18800000000E+03 0.  0.
   -5000001    1    1    2    0    0 -0.38550382578E+02 -0.14710590544E+03  0.79870398056E+02  0.25465576746E+03  0.18800000000E+03 0.  0.
<mgrwt>
<rscale>  0 0.48545858E+03</rscale>
<asrwt>0</asrwt>
<pdfrwt beam="1">  1        2 0.52350492E-01 0.48545858E+03</pdfrwt>
<pdfrwt beam="2">  1       -2 0.22968230E-01 0.48545858E+03</pdfrwt>
<totfact> 0.15863197E+03</totfact>
</mgrwt>
</event>
<event>
 4    1  0.5985962E-005  0.6335238E+03  0.7818608E-02  0.9838196E-01
          2   -1    0    0  501    0  0.00000000000E+00  0.00000000000E+00  0.17584464003E+04  0.17584464003E+04  0.25500000000E-02 0.  1.
         -2   -1    0    0    0  501 -0.00000000000E+00 -0.00000000000E+00 -0.57060647061E+02  0.57060647118E+02  0.25500000000E-02 0. -1.
    5000001    1    1    2    0    0  0.24177448216E+03 -0.66410035962E+02  0.71846826769E+03  0.78384044599E+03  0.18800000000E+03 0.  0.
   -5000001    1    1    2    0    0 -0.24177448216E+03  0.66410035962E+02  0.98291748555E+03  0.10316666014E+04  0.18800000000E+03 0.  0.
<mgrwt>
<rscale>  0 0.63352376E+03</rscale>
<asrwt>0</asrwt>
<pdfrwt beam="1">  1        2 0.25120659E+00 0.63352376E+03</pdfrwt>
<pdfrwt beam="2">  1       -2 0.81515224E-02 0.63352376E+03</pdfrwt>
<totfact> 0.10414979E+03</totfact>
</mgrwt>
</event>
<event>
 4    1  0.5985962E-005  0.6464631E+03  0.7818608E-02  0.9813439E-01
          2   -1    0    0  501    0  0.00000000000E+00  0.00000000000E+00  0.83095742187E+03  0.83095742188E+03  0.25500000000E-02 0.  1.
         -2   -1    0    0    0  501 -0.00000000000E+00 -0.00000000000E+00 -0.12573285655E+03  0.12573285657E+03  0.25500000000E-02 0. -1.
    5000001    1    1    2    0    0  0.19909801504E+03  0.82329587045E+02  0.12956444898E+03  0.31392535249E+03  0.18800000000E+03 0.  0.
   -5000001    1    1    2    0    0 -0.19909801504E+03 -0.82329587045E+02  0.57566011634E+03  0.64276492596E+03  0.18800000000E+03 0.  0.
<mgrwt>
<rscale>  0 0.64646315E+03</rscale>
<asrwt>0</asrwt>
<pdfrwt beam="1">  1        2 0.11870820E+00 0.64646315E+03</pdfrwt>
<pdfrwt beam="2">  1       -2 0.17961837E-01 0.64646315E+03</pdfrwt>
<totfact> 0.93399766E+02</totfact>
</mgrwt>
</event>
<event>
 4    1  0.5985962E-005  0.9061552E+03  0.7818608E-02  0.9417920E-01
         -2   -1    0    0    0  501 -0.00000000000E+00  0.00000000000E+00  0.18957226711E+03  0.18957226713E+03  0.25500000000E-02 0.  1.
          2   -1    0    0  501    0  0.00000000000E+00 -0.00000000000E+00 -0.10828551031E+04  0.10828551031E+04  0.25500000000E-02 0. -1.
    5000001    1    1    2    0    0  0.14846749951E+03 -0.35998756548E+03 -0.25667555392E+03  0.50285185263E+03  0.18800000000E+03 0.  0.
   -5000001    1    1    2    0    0 -0.14846749951E+03  0.35998756548E+03 -0.63660728203E+03  0.76957551757E+03  0.18800000000E+03 0.  0.
<mgrwt>
<rscale>  0 0.90615517E+03</rscale>
<asrwt>0</asrwt>
<pdfrwt beam="1">  1        2 0.15469358E+00 0.90615517E+03</pdfrwt>
<pdfrwt beam="2">  1       -2 0.27081753E-01 0.90615517E+03</pdfrwt>
<totfact> 0.30971464E+02</totfact>
</mgrwt>
</event>
<event>
 4    1  0.5985962E-005  0.5188435E+03  0.7818608E-02  0.1008974E+00
         -2   -1    0    0    0  501 -0.00000000000E+00  0.00000000000E+00  0.31601871240E+02  0.31601871342E+02  0.25500000000E-02 0. -1.
          2   -1    0    0  501    0  0.00000000000E+00 -0.00000000000E+00 -0.21296094893E+04  0.21296094893E+04  0.25500000000E-02 0.  1.
    5000001    1    1    2    0    0  0.68839125618E+02 -0.15118870205E+03 -0.13240110560E+04  0.13475704528E+04  0.18800000000E+03 0.  0.
   -5000001    1    1    2    0    0 -0.68839125618E+02  0.15118870205E+03 -0.77399656208E+03  0.81364090787E+03  0.18800000000E+03 0.  0.
<mgrwt>
<rscale>  0 0.51884350E+03</rscale>
<asrwt>0</asrwt>
<pdfrwt beam="1">  1        2 0.30422984E+00 0.51884350E+03</pdfrwt>
<pdfrwt beam="2">  1       -2 0.45145544E-02 0.51884350E+03</pdfrwt>
<totfact> 0.17205018E+03</totfact>
</mgrwt>
</event>
<event>
 4    1  0.5985962E-005  0.6671265E+03  0.7818608E-02  0.9775163E-01
         -2   -1    0    0    0  501 -0.00000000000E+00  0.00000000000E+00  0.13455505211E+04  0.13455505211E+04  0.25500000000E-02 0. -1.
          2   -1    0    0  501    0  0.00000000000E+00 -0.00000000000E+00 -0.82690644955E+02  0.82690644995E+02  0.25500000000E-02 0.  1.
    5000001    1    1    2    0    0 -0.73544886733E+02  0.26144886321E+03  0.53202087188E+03  0.62622245772E+03  0.18800000000E+03 0.  0.
   -5000001    1    1    2    0    0  0.73544886733E+02 -0.26144886321E+03  0.73083900430E+03  0.80201870841E+03  0.18800000000E+03 0.  0.
<mgrwt>
<rscale>  0 0.66712650E+03</rscale>
<asrwt>0</asrwt>
<pdfrwt beam="1">  1        2 0.11812951E-01 0.66712650E+03</pdfrwt>
<pdfrwt beam="2">  1       -2 0.19222148E+00 0.66712650E+03</pdfrwt>
<totfact> 0.82340073E+01</totfact>
</mgrwt>
</event>
<event>
 4    1  0.5985962E-005  0.1034932E+04  0.7818608E-02  0.9271041E-01
         -2   -1    0    0    0  501 -0.00000000000E+00  0.00000000000E+00  0.55389619413E+03  0.55389619414E+03  0.25500000000E-02 0. -1.
          2   -1    0    0  501    0  0.00000000000E+00 -0.00000000000E+00 -0.48343163585E+03  0.48343163586E+03  0.25500000000E-02 0.  1.
    5000001    1    1    2    0    0 -0.40206094740E+03 -0.11554764676E+03  0.27541736424E+03  0.53497942822E+03  0.18800000000E+03 0.  0.
   -5000001    1    1    2    0    0  0.40206094740E+03  0.11554764676E+03 -0.20495280596E+03  0.50234840177E+03  0.18800000000E+03 0.  0.
<mgrwt>
<rscale>  0 0.10349318E+04</rscale>
<asrwt>0</asrwt>
<pdfrwt beam="1">  1        2 0.69061662E-01 0.10349318E+04</pdfrwt>
<pdfrwt beam="2">  1       -2 0.79128028E-01 0.10349318E+04</pdfrwt>
<totfact> 0.98636854E+01</totfact>
</mgrwt>
</event>
<event>
 4    1  0.5985962E-005  0.6807092E+03  0.7818608E-02  0.9750803E-01
          2   -1    0    0  501    0  0.00000000000E+00  0.00000000000E+00  0.23225591931E+04  0.23225591931E+04  0.25500000000E-02 0.  1.
         -2   -1    0    0    0  501 -0.00000000000E+00 -0.00000000000E+00 -0.49876551681E+02  0.49876551746E+02  0.25500000000E-02 0. -1.
    5000001    1    1    2    0    0 -0.28110594705E+03  0.67220714390E+01  0.10044764421E+04  0.10598974774E+04  0.18800000000E+03 0.  0.
   -5000001    1    1    2    0    0  0.28110594705E+03 -0.67220714390E+01  0.12682061993E+04  0.13125382675E+04  0.18800000000E+03 0.  0.
<mgrwt>
<rscale>  0 0.68070917E+03</rscale>
<asrwt>0</asrwt>
<pdfrwt beam="1">  1        2 0.33179422E+00 0.68070917E+03</pdfrwt>
<pdfrwt beam="2">  1       -2 0.71252207E-02 0.68070917E+03</pdfrwt>
<totfact> 0.66758343E+02</totfact>
</mgrwt>
</event>
<event>
 4    1  0.5985962E-005  0.4956100E+03  0.7818608E-02  0.1014931E+00
          2   -1    0    0  501    0  0.00000000000E+00  0.00000000000E+00  0.32067373029E+04  0.32067373029E+04  0.25500000000E-02 0.  1.
         -2   -1    0    0    0  501 -0.00000000000E+00 -0.00000000000E+00 -0.19149469569E+02  0.19149469738E+02  0.25500000000E-02 0. -1.
    5000001    1    1    2    0    0  0.29042802918E+02 -0.14487070853E+03  0.11703480492E+04  0.11945248272E+04  0.18800000000E+03 0.  0.
   -5000001    1    1    2    0    0 -0.29042802918E+02  0.14487070853E+03  0.20172397842E+04  0.20313619455E+04  0.18800000000E+03 0.  0.
<mgrwt>
<rscale>  0 0.49561000E+03</rscale>
<asrwt>0</asrwt>
<pdfrwt beam="1">  1        2 0.45810527E+00 0.49561000E+03</pdfrwt>
<pdfrwt beam="2">  1       -2 0.27356389E-02 0.49561000E+03</pdfrwt>
<totfact> 0.10120983E+03</totfact>
</mgrwt>
</event>
<event>
 4    1  0.5985962E-005  0.5289398E+03  0.7818608E-02  0.1006490E+00
         -2   -1    0    0    0  501 -0.00000000000E+00  0.00000000000E+00  0.43255561766E+03  0.43255561767E+03  0.25500000000E-02 0. -1.
          2   -1    0    0  501    0  0.00000000000E+00 -0.00000000000E+00 -0.16170022347E+03  0.16170022349E+03  0.25500000000E-02 0.  1.
    5000001    1    1    2    0    0  0.85706458728E+02 -0.97944538958E+02 -0.13880043586E+02  0.22907506497E+03  0.18800000000E+03 0.  0.
   -5000001    1    1    2    0    0 -0.85706458728E+02  0.97944538958E+02  0.28473543778E+03  0.36518077620E+03  0.18800000000E+03 0.  0.
<mgrwt>
<rscale>  0 0.52893985E+03</rscale>
<asrwt>0</asrwt>
<pdfrwt beam="1">  1        2 0.23100032E-01 0.52893985E+03</pdfrwt>
<pdfrwt beam="2">  1       -2 0.61793659E-01 0.52893985E+03</pdfrwt>
<totfact> 0.58842931E+02</totfact>
</mgrwt>
</event>
<event>
 4    1  0.5985962E-005  0.7260126E+03  0.7818608E-02  0.9673753E-01
         -2   -1    0    0    0  501 -0.00000000000E+00  0.00000000000E+00  0.40001392538E+03  0.40001392539E+03  0.25500000000E-02 0. -1.
          2   -1    0    0  501    0  0.00000000000E+00 -0.00000000000E+00 -0.32942242783E+03  0.32942242784E+03  0.25500000000E-02 0.  1.
    5000001    1    1    2    0    0 -0.14212549643E+03  0.24643668018E+03  0.16037728608E+03  0.37682299288E+03  0.18800000000E+03 0.  0.
   -5000001    1    1    2    0    0  0.14212549643E+03 -0.24643668018E+03 -0.89785788529E+02  0.35261336034E+03  0.18800000000E+03 0.  0.
<mgrwt>
<rscale>  0 0.72601256E+03</rscale>
<asrwt>0</asrwt>
<pdfrwt beam="1">  1        2 0.47060347E-01 0.72601256E+03</pdfrwt>
<pdfrwt beam="2">  1       -2 0.57144847E-01 0.72601256E+03</pdfrwt>
<totfact> 0.31099138E+02</totfact>
</mgrwt>
</event>
<event>
 4    1  0.5985962E-005  0.4445442E+03  0.7818608E-02  0.1029362E+00
          2   -1    0    0  501    0  0.00000000000E+00  0.00000000000E+00  0.16972363191E+04  0.16972363191E+04  0.25500000000E-02 0.  1.
         -2   -1    0    0    0  501 -0.00000000000E+00 -0.00000000000E+00 -0.29109023737E+02  0.29109023849E+02  0.25500000000E-02 0. -1.
    5000001    1    1    2    0    0 -0.14521481577E+02 -0.11493815826E+03  0.73587885024E+03  0.76829898860E+03  0.18800000000E+03 0.  0.
   -5000001    1    1    2    0    0  0.14521481577E+02  0.11493815826E+03  0.93224844509E+03  0.95804635431E+03  0.18800000000E+03 0.  0.
<mgrwt>
<rscale>  0 0.44454423E+03</rscale>
<asrwt>0</asrwt>
<pdfrwt beam="1">  1        2 0.24246234E+00 0.44454423E+03</pdfrwt>
<pdfrwt beam="2">  1       -2 0.41584318E-02 0.44454423E+03</pdfrwt>
<totfact> 0.32177021E+03</totfact>
</mgrwt>
</event>
<event>
 4    1  0.5985962E-005  0.5406285E+03  0.7818608E-02  0.1003687E+00
          2   -1    0    0  501    0  0.00000000000E+00  0.00000000000E+00  0.14240012969E+04  0.14240012969E+04  0.25500000000E-02 0.  1.
         -2   -1    0    0    0  501 -0.00000000000E+00 -0.00000000000E+00 -0.51313015815E+02  0.51313015879E+02  0.25500000000E-02 0. -1.
    5000001    1    1    2    0    0 -0.13494909825E+03  0.10975535785E+03  0.92217279582E+03  0.95708106398E+03  0.18800000000E+03 0.  0.
   -5000001    1    1    2    0    0  0.13494909825E+03 -0.10975535785E+03  0.45051548529E+03  0.51823324882E+03  0.18800000000E+03 0.  0.
<mgrwt>
<rscale>  0 0.54062853E+03</rscale>
<asrwt>0</asrwt>
<pdfrwt beam="1">  1        2 0.20342877E+00 0.54062853E+03</pdfrwt>
<pdfrwt beam="2">  1       -2 0.73304305E-02 0.54062853E+03</pdfrwt>
<totfact> 0.18394714E+03</totfact>
</mgrwt>
</event>
<event>
 4    1  0.5985962E-005  0.5790894E+03  0.7818608E-02  0.9949764E-01
         -2   -1    0    0    0  501 -0.00000000000E+00  0.00000000000E+00  0.75453954702E+02  0.75453954745E+02  0.25500000000E-02 0. -1.
          2   -1    0    0  501    0  0.00000000000E+00 -0.00000000000E+00 -0.11110899349E+04  0.11110899349E+04  0.25500000000E-02 0.  1.
    5000001    1    1    2    0    0  0.34402192545E+02  0.19339209307E+03 -0.31386326689E+03  0.41525674325E+03  0.18800000000E+03 0.  0.
   -5000001    1    1    2    0    0 -0.34402192545E+02 -0.19339209307E+03 -0.72177271327E+03  0.77128714636E+03  0.18800000000E+03 0.  0.
<mgrwt>
<rscale>  0 0.57908939E+03</rscale>
<asrwt>0</asrwt>
<pdfrwt beam="1">  1        2 0.15872712E+00 0.57908939E+03</pdfrwt>
<pdfrwt beam="2">  1       -2 0.10779137E-01 0.57908939E+03</pdfrwt>
<totfact> 0.14705761E+03</totfact>
</mgrwt>
</event>
<event>
 4    1  0.5985962E-005  0.6613607E+03  0.7818608E-02  0.9785692E-01
          2   -1    0    0  501    0  0.00000000000E+00  0.00000000000E+00  0.50088280856E+03  0.50088280857E+03  0.25500000000E-02 0. -1.
         -2   -1    0    0    0  501 -0.00000000000E+00 -0.00000000000E+00 -0.21831351306E+03  0.21831351307E+03  0.25500000000E-02 0.  1.
    5000001    1    1    2    0    0  0.14090330423E+03 -0.28706008180E+02  0.39240710660E+03  0.45826314859E+03  0.18800000000E+03 0.  0.
   -5000001    1    1    2    0    0 -0.14090330423E+03  0.28706008180E+02 -0.10983781109E+03  0.26093317304E+03  0.18800000000E+03 0.  0.
<mgrwt>
<rscale>  0 0.66136067E+03</rscale>
<asrwt>0</asrwt>
<pdfrwt beam="1">  1        2 0.71554687E-01 0.66136067E+03</pdfrwt>
<pdfrwt beam="2">  1       -2 0.31187645E-01 0.66136067E+03</pdfrwt>
<totfact> 0.64174562E+02</totfact>
</mgrwt>
</event>
<event>
 4    1  0.5985962E-005  0.6097690E+03  0.7818608E-02  0.9885343E-01
          2   -1    0    0  501    0  0.00000000000E+00  0.00000000000E+00  0.19172764673E+04  0.19172764673E+04  0.25500000000E-02 0. -1.
         -2   -1    0    0    0  501 -0.00000000000E+00 -0.00000000000E+00 -0.48482605502E+02  0.48482605569E+02  0.25500000000E-02 0.  1.
    5000001    1    1    2    0    0  0.10186405186E+03 -0.17372348277E+03  0.13553982815E+04  0.13831141077E+04  0.18800000000E+03 0.  0.
   -5000001    1    1    2    0    0 -0.10186405186E+03  0.17372348277E+03  0.51339558032E+03  0.58264496515E+03  0.18800000000E+03 0.  0.
<mgrwt>
<rscale>  0 0.60976900E+03</rscale>
<asrwt>0</asrwt>
<pdfrwt beam="1">  1        2 0.27389664E+00 0.60976900E+03</pdfrwt>
<pdfrwt beam="2">  1       -2 0.69260864E-02 0.60976900E+03</pdfrwt>
<totfact> 0.11230020E+03</totfact>
</mgrwt>
</event>
<event>
 4    1  0.5985962E-005  0.4582851E+03  0.7818608E-02  0.1025280E+00
         -2   -1    0    0    0  501 -0.00000000000E+00  0.00000000000E+00  0.24365394193E+02  0.24365394326E+02  0.25500000000E-02 0. -1.
          2   -1    0    0  501    0  0.00000000000E+00 -0.00000000000E+00 -0.21549537909E+04  0.21549537909E+04  0.25500000000E-02 0.  1.
    5000001    1    1    2    0    0  0.10813170245E+03  0.13138888677E+02 -0.71918872873E+03  0.75129323370E+03  0.18800000000E+03 0.  0.
   -5000001    1    1    2    0    0 -0.10813170245E+03 -0.13138888677E+02 -0.14113996680E+04  0.14280259515E+04  0.18800000000E+03 0.  0.
<mgrwt>
<rscale>  0 0.45828506E+03</rscale>
<asrwt>0</asrwt>
<pdfrwt beam="1">  1        2 0.30785042E+00 0.45828506E+03</pdfrwt>
<pdfrwt beam="2">  1       -2 0.34807720E-02 0.45828506E+03</pdfrwt>
<totfact> 0.24935949E+03</totfact>
</mgrwt>
</event>
<event>
 4    1  0.5985962E-005  0.5703138E+03  0.7818608E-02  0.9968984E-01
         -2   -1    0    0    0  501 -0.00000000000E+00  0.00000000000E+00  0.81288180348E+02  0.81288180388E+02  0.25500000000E-02 0. -1.
          2   -1    0    0  501    0  0.00000000000E+00 -0.00000000000E+00 -0.10003232483E+04  0.10003232483E+04  0.25500000000E-02 0.  1.
    5000001    1    1    2    0    0  0.15541578516E+03 -0.10413380254E+03 -0.65817779714E+03  0.70960547332E+03  0.18800000000E+03 0.  0.
   -5000001    1    1    2    0    0 -0.15541578516E+03  0.10413380254E+03 -0.26085727084E+03  0.37200595541E+03  0.18800000000E+03 0.  0.
<mgrwt>
<rscale>  0 0.57031380E+03</rscale>
<asrwt>0</asrwt>
<pdfrwt beam="1">  1        2 0.14290331E+00 0.57031380E+03</pdfrwt>
<pdfrwt beam="2">  1       -2 0.11612598E-01 0.57031380E+03</pdfrwt>
<totfact> 0.15146871E+03</totfact>
</mgrwt>
</event>
<event>
 4    1  0.5985962E-005  0.8660825E+03  0.7818608E-02  0.9469002E-01
          2   -1    0    0  501    0  0.00000000000E+00  0.00000000000E+00  0.58937832530E+03  0.58937832531E+03  0.25500000000E-02 0.  1.
         -2   -1    0    0    0  501 -0.00000000000E+00 -0.00000000000E+00 -0.31817376477E+03  0.31817376478E+03  0.25500000000E-02 0. -1.
    5000001    1    1    2    0    0  0.13308792644E+03  0.30437823862E+03  0.34989913820E+03  0.51781455679E+03  0.18800000000E+03 0.  0.
   -5000001    1    1    2    0    0 -0.13308792644E+03 -0.30437823862E+03 -0.78694577663E+02  0.38973753330E+03  0.18800000000E+03 0.  0.
<mgrwt>
<rscale>  0 0.86608249E+03</rscale>
<asrwt>0</asrwt>
<pdfrwt beam="1">  1        2 0.84196903E-01 0.86608249E+03</pdfrwt>
<pdfrwt beam="2">  1       -2 0.45453395E-01 0.86608249E+03</pdfrwt>
<totfact> 0.25530040E+02</totfact>
</mgrwt>
</event>
<event>
 4    1  0.5985962E-005  0.8376333E+03  0.7818608E-02  0.9507087E-01
          2   -1    0    0  501    0  0.00000000000E+00  0.00000000000E+00  0.48265811025E+03  0.48265811026E+03  0.25500000000E-02 0.  1.
         -2   -1    0    0    0  501 -0.00000000000E+00 -0.00000000000E+00 -0.36341956492E+03  0.36341956493E+03  0.25500000000E-02 0. -1.
    5000001    1    1    2    0    0 -0.16902446933E+03  0.89395077932E+02 -0.26534230688E+03  0.37724168779E+03  0.18800000000E+03 0.  0.
   -5000001    1    1    2    0    0  0.16902446933E+03 -0.89395077932E+02  0.38458085221E+03  0.46883598740E+03  0.18800000000E+03 0.  0.
<mgrwt>
<rscale>  0 0.83763333E+03</rscale>
<asrwt>0</asrwt>
<pdfrwt beam="1">  1        2 0.68951159E-01 0.83763333E+03</pdfrwt>
<pdfrwt beam="2">  1       -2 0.51917080E-01 0.83763333E+03</pdfrwt>
<totfact> 0.24623797E+02</totfact>
</mgrwt>
</event>
<event>
 4    1  0.5985962E-005  0.9223313E+03  0.7818608E-02  0.9398089E-01
         -2   -1    0    0    0  501 -0.00000000000E+00  0.00000000000E+00  0.16148988610E+03  0.16148988612E+03  0.25500000000E-02 0. -1.
          2   -1    0    0  501    0  0.00000000000E+00 -0.00000000000E+00 -0.13169478895E+04  0.13169478895E+04  0.25500000000E-02 0.  1.
    5000001    1    1    2    0    0 -0.31441735084E+03  0.17711116318E+02 -0.10258572159E+04  0.10894489348E+04  0.18800000000E+03 0.  0.
   -5000001    1    1    2    0    0  0.31441735084E+03 -0.17711116318E+02 -0.12960078751E+03  0.38898884081E+03  0.18800000000E+03 0.  0.
<mgrwt>
<rscale>  0 0.92233132E+03</rscale>
<asrwt>0</asrwt>
<pdfrwt beam="1">  1        2 0.18813541E+00 0.92233132E+03</pdfrwt>
<pdfrwt beam="2">  1       -2 0.23069984E-01 0.92233132E+03</pdfrwt>
<totfact> 0.30425812E+02</totfact>
</mgrwt>
</event>
<event>
 4    1  0.5985962E-005  0.4586076E+03  0.7818608E-02  0.1025186E+00
          2   -1    0    0  501    0  0.00000000000E+00  0.00000000000E+00  0.24230450004E+03  0.24230450005E+03  0.25500000000E-02 0.  1.
         -2   -1    0    0    0  501 -0.00000000000E+00 -0.00000000000E+00 -0.21700067013E+03  0.21700067014E+03  0.25500000000E-02 0. -1.
    5000001    1    1    2    0    0 -0.18816247578E+02  0.11107760953E+03  0.80163288908E+02  0.23337189077E+03  0.18800000000E+03 0.  0.
   -5000001    1    1    2    0    0  0.18816247578E+02 -0.11107760953E+03 -0.54859459000E+02  0.22593327943E+03  0.18800000000E+03 0.  0.
<mgrwt>
<rscale>  0 0.45860763E+03</rscale>
<asrwt>0</asrwt>
<pdfrwt beam="1">  1        2 0.34614928E-01 0.45860763E+03</pdfrwt>
<pdfrwt beam="2">  1       -2 0.31000096E-01 0.45860763E+03</pdfrwt>
<totfact> 0.14537224E+03</totfact>
</mgrwt>
</event>
<event>
 4    1  0.5985962E-005  0.2062072E+04  0.7818608E-02  0.8578138E-01
          2   -1    0    0  501    0  0.00000000000E+00  0.00000000000E+00  0.39660644775E+04  0.39660644775E+04  0.25500000000E-02 0.  1.
         -2   -1    0    0    0  501 -0.00000000000E+00 -0.00000000000E+00 -0.26803266731E+03  0.26803266732E+03  0.25500000000E-02 0. -1.
    5000001    1    1    2    0    0 -0.74807491032E+03 -0.44831579538E+03  0.78784818449E+03  0.11902318621E+04  0.18800000000E+03 0.  0.
   -5000001    1    1    2    0    0  0.74807491032E+03  0.44831579538E+03  0.29101836257E+04  0.30438652827E+04  0.18800000000E+03 0.  0.
<mgrwt>
<rscale>  0 0.20620716E+04</rscale>
<asrwt>0</asrwt>
<pdfrwt beam="1">  1        2 0.56658064E+00 0.20620716E+04</pdfrwt>
<pdfrwt beam="2">  1       -2 0.38290381E-01 0.20620716E+04</pdfrwt>
<totfact> 0.36115586E+00</totfact>
</mgrwt>
</event>
<event>
 4    1  0.5985962E-005  0.4697993E+03  0.7818608E-02  0.1021977E+00
          2   -1    0    0  501    0  0.00000000000E+00  0.00000000000E+00  0.38013164131E+04  0.38013164132E+04  0.25500000000E-02 0.  1.
         -2   -1    0    0    0  501 -0.00000000000E+00 -0.00000000000E+00 -0.14515458354E+02  0.14515458578E+02  0.25500000000E-02 0. -1.
    5000001    1    1    2    0    0 -0.25569866669E+02 -0.11648047193E+03  0.25018835861E+04  0.25117696942E+04  0.18800000000E+03 0.  0.
   -5000001    1    1    2    0    0  0.25569866669E+02  0.11648047193E+03  0.12849173687E+04  0.13040621775E+04  0.18800000000E+03 0.  0.
<mgrwt>
<rscale>  0 0.46979932E+03</rscale>
<asrwt>0</asrwt>
<pdfrwt beam="1">  1        2 0.54304632E+00 0.46979932E+03</pdfrwt>
<pdfrwt beam="2">  1       -2 0.20736327E-02 0.46979932E+03</pdfrwt>
<totfact> 0.68460154E+02</totfact>
</mgrwt>
</event>
<event>
 4    1  0.5985962E-005  0.1050608E+04  0.7818608E-02  0.9254717E-01
          2   -1    0    0  501    0  0.00000000000E+00  0.00000000000E+00  0.23188973852E+04  0.23188973852E+04  0.25500000000E-02 0.  1.
         -2   -1    0    0    0  501 -0.00000000000E+00 -0.00000000000E+00 -0.11899801832E+03  0.11899801835E+03  0.25500000000E-02 0. -1.
    5000001    1    1    2    0    0  0.23323233298E+03 -0.17780727625E+03  0.20122998431E+04  0.20422309878E+04  0.18800000000E+03 0.  0.
   -5000001    1    1    2    0    0 -0.23323233298E+03  0.17780727625E+03  0.18759952376E+03  0.39566441582E+03  0.18800000000E+03 0.  0.
<mgrwt>
<rscale>  0 0.10506078E+04</rscale>
<asrwt>0</asrwt>
<pdfrwt beam="1">  1        2 0.33127108E+00 0.10506078E+04</pdfrwt>
<pdfrwt beam="2">  1       -2 0.16999715E-01 0.10506078E+04</pdfrwt>
<totfact> 0.15569406E+02</totfact>
</mgrwt>
</event>
<event>
 4    1  0.5985962E-005  0.7399140E+03  0.7818608E-02  0.9651308E-01
         -2   -1    0    0    0  501 -0.00000000000E+00  0.00000000000E+00  0.82891694211E+02  0.82891694250E+02  0.25500000000E-02 0. -1.
          2   -1    0    0  501    0  0.00000000000E+00 -0.00000000000E+00 -0.16511690423E+04  0.16511690423E+04  0.25500000000E-02 0.  1.
    5000001    1    1    2    0    0  0.30982484303E+03  0.74382557936E+02 -0.78421645912E+03  0.86710071678E+03  0.18800000000E+03 0.  0.
   -5000001    1    1    2    0    0 -0.30982484303E+03 -0.74382557936E+02 -0.78406088901E+03  0.86696001981E+03  0.18800000000E+03 0.  0.
<mgrwt>
<rscale>  0 0.73991405E+03</rscale>
<asrwt>0</asrwt>
<pdfrwt beam="1">  1        2 0.23588127E+00 0.73991405E+03</pdfrwt>
<pdfrwt beam="2">  1       -2 0.11841672E-01 0.73991405E+03</pdfrwt>
<totfact> 0.64099773E+02</totfact>
</mgrwt>
</event>
<event>
 4    1  0.5985962E-005  0.5933732E+03  0.7818608E-02  0.9919251E-01
         -2   -1    0    0    0  501 -0.00000000000E+00  0.00000000000E+00  0.57231993783E+02  0.57231993840E+02  0.25500000000E-02 0. -1.
          2   -1    0    0  501    0  0.00000000000E+00 -0.00000000000E+00 -0.15380023491E+04  0.15380023491E+04  0.25500000000E-02 0.  1.
    5000001    1    1    2    0    0  0.12657037709E+03 -0.19116676096E+03 -0.71166185612E+03  0.77095485491E+03  0.18800000000E+03 0.  0.
   -5000001    1    1    2    0    0 -0.12657037709E+03  0.19116676096E+03 -0.76910849915E+03  0.82427948799E+03  0.18800000000E+03 0.  0.
<mgrwt>
<rscale>  0 0.59337321E+03</rscale>
<asrwt>0</asrwt>
<pdfrwt beam="1">  1        2 0.21971460E+00 0.59337321E+03</pdfrwt>
<pdfrwt beam="2">  1       -2 0.81760001E-02 0.59337321E+03</pdfrwt>
<totfact> 0.13463925E+03</totfact>
</mgrwt>
</event>
<event>
 4    1  0.5985962E-005  0.5919684E+03  0.7818608E-02  0.9922210E-01
          2   -1    0    0  501    0  0.00000000000E+00  0.00000000000E+00  0.31734123842E+04  0.31734123842E+04  0.25500000000E-02 0.  1.
         -2   -1    0    0    0  501 -0.00000000000E+00 -0.00000000000E+00 -0.27606453057E+02  0.27606453175E+02  0.25500000000E-02 0. -1.
    5000001    1    1    2    0    0 -0.21882829788E+03  0.25280688937E+01  0.19303835898E+04  0.19518240236E+04  0.18800000000E+03 0.  0.
   -5000001    1    1    2    0    0  0.21882829788E+03 -0.25280688937E+01  0.12154223413E+04  0.12491948138E+04  0.18800000000E+03 0.  0.
<mgrwt>
<rscale>  0 0.59196845E+03</rscale>
<asrwt>0</asrwt>
<pdfrwt beam="1">  1        2 0.45334438E+00 0.59196845E+03</pdfrwt>
<pdfrwt beam="2">  1       -2 0.39437812E-02 0.59196845E+03</pdfrwt>
<totfact> 0.59955001E+02</totfact>
</mgrwt>
</event>
<event>
 4    1  0.5985962E-005  0.8254642E+03  0.7818608E-02  0.9523873E-01
         -2   -1    0    0    0  501 -0.00000000000E+00  0.00000000000E+00  0.15563075565E+03  0.15563075567E+03  0.25500000000E-02 0. -1.
          2   -1    0    0  501    0  0.00000000000E+00 -0.00000000000E+00 -0.10945637415E+04  0.10945637415E+04  0.25500000000E-02 0.  1.
    5000001    1    1    2    0    0  0.30299041753E+03  0.20769322277E+03 -0.48159358900E+03  0.63420505585E+03  0.18800000000E+03 0.  0.
   -5000001    1    1    2    0    0 -0.30299041753E+03 -0.20769322277E+03 -0.45733939684E+03  0.61598944131E+03  0.18800000000E+03 0.  0.
<mgrwt>
<rscale>  0 0.82546419E+03</rscale>
<asrwt>0</asrwt>
<pdfrwt beam="1">  1        2 0.15636624E+00 0.82546419E+03</pdfrwt>
<pdfrwt beam="2">  1       -2 0.22232966E-01 0.82546419E+03</pdfrwt>
<totfact> 0.43652756E+02</totfact>
</mgrwt>
</event>
<event>
 4    1  0.5985962E-005  0.8565285E+03  0.7818608E-02  0.9481616E-01
         -2   -1    0    0    0  501 -0.00000000000E+00  0.00000000000E+00  0.98094659568E+02  0.98094659601E+02  0.25500000000E-02 0. -1.
          2   -1    0    0  501    0  0.00000000000E+00 -0.00000000000E+00 -0.18697271314E+04  0.18697271314E+04  0.25500000000E-02 0.  1.
    5000001    1    1    2    0    0 -0.32048141761E+03  0.13167096408E+03 -0.12703931311E+04  0.13301459655E+04  0.18800000000E+03 0.  0.
   -5000001    1    1    2    0    0  0.32048141761E+03 -0.13167096408E+03 -0.50123934073E+03  0.63767582557E+03  0.18800000000E+03 0.  0.
<mgrwt>
<rscale>  0 0.85652845E+03</rscale>
<asrwt>0</asrwt>
<pdfrwt beam="1">  1        2 0.26710385E+00 0.85652845E+03</pdfrwt>
<pdfrwt beam="2">  1       -2 0.14013524E-01 0.85652845E+03</pdfrwt>
<totfact> 0.37177135E+02</totfact>
</mgrwt>
</event>
<event>
 4    1  0.5985962E-005  0.5413440E+03  0.7818608E-02  0.1003518E+00
          2   -1    0    0  501    0  0.00000000000E+00  0.00000000000E+00  0.26290281068E+04  0.26290281068E+04  0.25500000000E-02 0.  1.
         -2   -1    0    0    0  501 -0.00000000000E+00 -0.00000000000E+00 -0.27867073217E+02  0.27867073333E+02  0.25500000000E-02 0. -1.
    5000001    1    1    2    0    0 -0.86649079797E+02 -0.11951579931E+03  0.19238573936E+04  0.19386498808E+04  0.18800000000E+03 0.  0.
   -5000001    1    1    2    0    0  0.86649079797E+02  0.11951579931E+03  0.67730363992E+03  0.71824529930E+03  0.18800000000E+03 0.  0.
<mgrwt>
<rscale>  0 0.54134395E+03</rscale>
<asrwt>0</asrwt>
<pdfrwt beam="1">  1        2 0.37557539E+00 0.54134395E+03</pdfrwt>
<pdfrwt beam="2">  1       -2 0.39810110E-02 0.54134395E+03</pdfrwt>
<totfact> 0.11630474E+03</totfact>
</mgrwt>
</event>
<event>
 4    1  0.5985962E-005  0.8785891E+03  0.7818608E-02  0.9452749E-01
         -2   -1    0    0    0  501 -0.00000000000E+00  0.00000000000E+00  0.10648630633E+03  0.10648630636E+03  0.25500000000E-02 0. -1.
          2   -1    0    0  501    0  0.00000000000E+00 -0.00000000000E+00 -0.18122490740E+04  0.18122490740E+04  0.25500000000E-02 0.  1.
    5000001    1    1    2    0    0  0.33850433217E+03  0.19663490367E+03 -0.70826215625E+03  0.83080066816E+03  0.18800000000E+03 0.  0.
   -5000001    1    1    2    0    0 -0.33850433217E+03 -0.19663490367E+03 -0.99750061144E+03  0.10879347122E+04  0.18800000000E+03 0.  0.
<mgrwt>
<rscale>  0 0.87858912E+03</rscale>
<asrwt>0</asrwt>
<pdfrwt beam="1">  1        2 0.25889271E+00 0.87858912E+03</pdfrwt>
<pdfrwt beam="2">  1       -2 0.15212331E-01 0.87858912E+03</pdfrwt>
<totfact> 0.34575230E+02</totfact>
</mgrwt>
</event>
<event>
 4    1  0.5985962E-005  0.7351492E+03  0.7818608E-02  0.9658941E-01
         -2   -1    0    0    0  501 -0.00000000000E+00  0.00000000000E+00  0.13102738019E+03  0.13102738022E+03  0.25500000000E-02 0. -1.
          2   -1    0    0  501    0  0.00000000000E+00 -0.00000000000E+00 -0.10311667133E+04  0.10311667133E+04  0.25500000000E-02 0.  1.
    5000001    1    1    2    0    0  0.30325319788E+03  0.75818834294E+01 -0.58921619828E+03  0.68886843105E+03  0.18800000000E+03 0.  0.
   -5000001    1    1    2    0    0 -0.30325319788E+03 -0.75818834294E+01 -0.31092313482E+03  0.47332566247E+03  0.18800000000E+03 0.  0.
<mgrwt>
<rscale>  0 0.73514916E+03</rscale>
<asrwt>0</asrwt>
<pdfrwt beam="1">  1        2 0.14730953E+00 0.73514916E+03</pdfrwt>
<pdfrwt beam="2">  1       -2 0.18718198E-01 0.73514916E+03</pdfrwt>
<totfact> 0.64643335E+02</totfact>
</mgrwt>
</event>
<event>
 4    1  0.5985962E-005  0.7437914E+03  0.7818608E-02  0.9645141E-01
         -2   -1    0    0    0  501 -0.00000000000E+00  0.00000000000E+00  0.14675517315E+03  0.14675517318E+03  0.25500000000E-02 0. -1.
          2   -1    0    0  501    0  0.00000000000E+00 -0.00000000000E+00 -0.94242953748E+03  0.94242953748E+03  0.25500000000E-02 0.  1.
    5000001    1    1    2    0    0 -0.97998215483E+02  0.30548596536E+03 -0.38891958642E+03  0.53807784750E+03  0.18800000000E+03 0.  0.
   -5000001    1    1    2    0    0  0.97998215483E+02 -0.30548596536E+03 -0.40675477790E+03  0.55110686315E+03  0.18800000000E+03 0.  0.
<mgrwt>
<rscale>  0 0.74379140E+03</rscale>
<asrwt>0</asrwt>
<pdfrwt beam="1">  1        2 0.13463279E+00 0.74379140E+03</pdfrwt>
<pdfrwt beam="2">  1       -2 0.20965025E-01 0.74379140E+03</pdfrwt>
<totfact> 0.60155488E+02</totfact>
</mgrwt>
</event>
<event>
 4    1  0.5985962E-005  0.4873100E+03  0.7818608E-02  0.1017145E+00
          2   -1    0    0  501    0  0.00000000000E+00  0.00000000000E+00  0.14099292002E+03  0.14099292005E+03  0.25500000000E-02 0.  1.
         -2   -1    0    0    0  501 -0.00000000000E+00 -0.00000000000E+00 -0.42106911307E+03  0.42106911308E+03  0.25500000000E-02 0. -1.
    5000001    1    1    2    0    0 -0.14252033115E+03  0.12697385981E+02 -0.20876446332E+03  0.31527744852E+03  0.18800000000E+03 0.  0.
   -5000001    1    1    2    0    0  0.14252033115E+03 -0.12697385981E+02 -0.71311729734E+02  0.24678458461E+03  0.18800000000E+03 0.  0.
<mgrwt>
<rscale>  0 0.48731002E+03</rscale>
<asrwt>0</asrwt>
<pdfrwt beam="1">  1        2 0.20141846E-01 0.48731002E+03</pdfrwt>
<pdfrwt beam="2">  1       -2 0.60152730E-01 0.48731002E+03</pdfrwt>
<totfact> 0.72977859E+02</totfact>
</mgrwt>
</event>
<event>
 4    1  0.5985962E-005  0.6340604E+03  0.7818608E-02  0.9837157E-01
         -2   -1    0    0    0  501 -0.00000000000E+00  0.00000000000E+00  0.64817496229E+02  0.64817496279E+02  0.25500000000E-02 0. -1.
          2   -1    0    0  501    0  0.00000000000E+00 -0.00000000000E+00 -0.15506328571E+04  0.15506328571E+04  0.25500000000E-02 0.  1.
    5000001    1    1    2    0    0  0.19019968693E+03  0.17013739055E+03 -0.75931804338E+03  0.82281865777E+03  0.18800000000E+03 0.  0.
   -5000001    1    1    2    0    0 -0.19019968693E+03 -0.17013739055E+03 -0.72649731752E+03  0.79263169564E+03  0.18800000000E+03 0.  0.
<mgrwt>
<rscale>  0 0.63406037E+03</rscale>
<asrwt>0</asrwt>
<pdfrwt beam="1">  1        2 0.22151896E+00 0.63406037E+03</pdfrwt>
<pdfrwt beam="2">  1       -2 0.92596433E-02 0.63406037E+03</pdfrwt>
<totfact> 0.10844794E+03</totfact>
</mgrwt>
</event>
<event>
 4    1  0.5985962E-005  0.4499028E+03  0.7818608E-02  0.1027751E+00
          2   -1    0    0  501    0  0.00000000000E+00  0.00000000000E+00  0.18337393647E+04  0.18337393647E+04  0.25500000000E-02 0.  1.
         -2   -1    0    0    0  501 -0.00000000000E+00 -0.00000000000E+00 -0.27595595903E+02  0.27595596021E+02  0.25500000000E-02 0. -1.
    5000001    1    1    2    0    0  0.61622857366E+02 -0.70212985808E+02  0.12374403407E+04  0.12551214430E+04  0.18800000000E+03 0.  0.
   -5000001    1    1    2    0    0 -0.61622857366E+02  0.70212985808E+02  0.56870342817E+03  0.60621351778E+03  0.18800000000E+03 0.  0.
<mgrwt>
<rscale>  0 0.44990279E+03</rscale>
<asrwt>0</asrwt>
<pdfrwt beam="1">  1        2 0.26196280E+00 0.44990279E+03</pdfrwt>
<pdfrwt beam="2">  1       -2 0.39422275E-02 0.44990279E+03</pdfrwt>
<totfact> 0.29821704E+03</totfact>
</mgrwt>
</event>
<event>
 4    1  0.5985962E-005  0.6630968E+03  0.7818608E-02  0.9782510E-01
          2   -1    0    0  501    0  0.00000000000E+00  0.00000000000E+00  0.15375635317E+04  0.15375635317E+04  0.25500000000E-02 0.  1.
         -2   -1    0    0    0  501 -0.00000000000E+00 -0.00000000000E+00 -0.71492543251E+02  0.71492543297E+02  0.25500000000E-02 0. -1.
    5000001    1    1    2    0    0 -0.75916126959E+00 -0.27295973449E+03  0.71234055976E+03  0.78567211103E+03  0.18800000000E+03 0.  0.
   -5000001    1    1    2    0    0  0.75916126959E+00  0.27295973449E+03  0.75373042869E+03  0.82338396397E+03  0.18800000000E+03 0.  0.
<mgrwt>
<rscale>  0 0.66309676E+03</rscale>
<asrwt>0</asrwt>
<pdfrwt beam="1">  1        2 0.21965191E+00 0.66309676E+03</pdfrwt>
<pdfrwt beam="2">  1       -2 0.10213222E-01 0.66309676E+03</pdfrwt>
<totfact> 0.93866486E+02</totfact>
</mgrwt>
</event>
<event>
 4    1  0.5985962E-005  0.6659895E+03  0.7818608E-02  0.9777230E-01
         -2   -1    0    0    0  501 -0.00000000000E+00  0.00000000000E+00  0.17630109903E+03  0.17630109904E+03  0.25500000000E-02 0. -1.
          2   -1    0    0  501    0  0.00000000000E+00 -0.00000000000E+00 -0.62895524730E+03  0.62895524730E+03  0.25500000000E-02 0.  1.
    5000001    1    1    2    0    0  0.19985217882E+03  0.10344054686E+03 -0.35529776915E+02  0.29537637881E+03  0.18800000000E+03 0.  0.
   -5000001    1    1    2    0    0 -0.19985217882E+03 -0.10344054686E+03 -0.41712437136E+03  0.50987996754E+03  0.18800000000E+03 0.  0.
<mgrwt>
<rscale>  0 0.66598949E+03</rscale>
<asrwt>0</asrwt>
<pdfrwt beam="1">  1        2 0.89850748E-01 0.66598949E+03</pdfrwt>
<pdfrwt beam="2">  1       -2 0.25185872E-01 0.66598949E+03</pdfrwt>
<totfact> 0.72784649E+02</totfact>
</mgrwt>
</event>
<event>
 4    1  0.5985962E-005  0.6211571E+03  0.7818608E-02  0.9862459E-01
          2   -1    0    0  501    0  0.00000000000E+00  0.00000000000E+00  0.40122968133E+04  0.40122968133E+04  0.25500000000E-02 0.  1.
         -2   -1    0    0    0  501 -0.00000000000E+00 -0.00000000000E+00 -0.24040851975E+02  0.24040852110E+02  0.25500000000E-02 0. -1.
    5000001    1    1    2    0    0 -0.78666458682E+02  0.22095546967E+03  0.14863900101E+04  0.15164791438E+04  0.18800000000E+03 0.  0.
   -5000001    1    1    2    0    0  0.78666458682E+02 -0.22095546967E+03  0.25018659512E+04  0.25198585216E+04  0.18800000000E+03 0.  0.
<mgrwt>
<rscale>  0 0.62115709E+03</rscale>
<asrwt>0</asrwt>
<pdfrwt beam="1">  1        2 0.57318442E+00 0.62115709E+03</pdfrwt>
<pdfrwt beam="2">  1       -2 0.34344124E-02 0.62115709E+03</pdfrwt>
<totfact> 0.22794715E+02</totfact>
</mgrwt>
</event>
<event>
 4    1  0.5985962E-005  0.9019792E+03  0.7818608E-02  0.9423111E-01
          2   -1    0    0  501    0  0.00000000000E+00  0.00000000000E+00  0.98562430920E+03  0.98562430921E+03  0.25500000000E-02 0.  1.
         -2   -1    0    0    0  501 -0.00000000000E+00 -0.00000000000E+00 -0.20635817152E+03  0.20635817154E+03  0.25500000000E-02 0. -1.
    5000001    1    1    2    0    0 -0.36301945902E+03 -0.16507077944E+03  0.51511571582E+03  0.67802631995E+03  0.18800000000E+03 0.  0.
   -5000001    1    1    2    0    0  0.36301945902E+03  0.16507077944E+03  0.26415042186E+03  0.51395616080E+03  0.18800000000E+03 0.  0.
<mgrwt>
<rscale>  0 0.90197922E+03</rscale>
<asrwt>0</asrwt>
<pdfrwt beam="1">  1        2 0.14080348E+00 0.90197922E+03</pdfrwt>
<pdfrwt beam="2">  1       -2 0.29479738E-01 0.90197922E+03</pdfrwt>
<totfact> 0.30354730E+02</totfact>
</mgrwt>
</event>
<event>
 4    1  0.5985962E-005  0.6122581E+03  0.7818608E-02  0.9880296E-01
         -2   -1    0    0    0  501 -0.00000000000E+00  0.00000000000E+00  0.85138352146E+02  0.85138352184E+02  0.25500000000E-02 0. -1.
          2   -1    0    0  501    0  0.00000000000E+00 -0.00000000000E+00 -0.11007377598E+04  0.11007377598E+04  0.25500000000E-02 0.  1.
    5000001    1    1    2    0    0  0.91938001006E+02  0.21857764907E+03 -0.41815260631E+03  0.51616313978E+03  0.18800000000E+03 0.  0.
   -5000001    1    1    2    0    0 -0.91938001006E+02 -0.21857764907E+03 -0.59744680131E+03  0.66971297218E+03  0.18800000000E+03 0.  0.
<mgrwt>
<rscale>  0 0.61225811E+03</rscale>
<asrwt>0</asrwt>
<pdfrwt beam="1">  1        2 0.15724824E+00 0.61225811E+03</pdfrwt>
<pdfrwt beam="2">  1       -2 0.12162622E-01 0.61225811E+03</pdfrwt>
<totfact> 0.12223719E+03</totfact>
</mgrwt>
</event>
<event>
 4    1  0.5985962E-005  0.7199019E+03  0.7818608E-02  0.9683790E-01
          2   -1    0    0  501    0  0.00000000000E+00  0.00000000000E+00  0.16044430506E+04  0.16044430506E+04  0.25500000000E-02 0.  1.
         -2   -1    0    0    0  501 -0.00000000000E+00 -0.00000000000E+00 -0.80753673510E+02  0.80753673551E+02  0.25500000000E-02 0. -1.
    5000001    1    1    2    0    0 -0.29863912526E+03  0.39527641513E+02  0.62389395994E+03  0.71786867520E+03  0.18800000000E+03 0.  0.
   -5000001    1    1    2    0    0  0.29863912526E+03 -0.39527641513E+02  0.89979541717E+03  0.96732804898E+03  0.18800000000E+03 0.  0.
<mgrwt>
<rscale>  0 0.71990186E+03</rscale>
<asrwt>0</asrwt>
<pdfrwt beam="1">  1        2 0.22920615E+00 0.71990186E+03</pdfrwt>
<pdfrwt beam="2">  1       -2 0.11536239E-01 0.71990186E+03</pdfrwt>
<totfact> 0.70812050E+02</totfact>
</mgrwt>
</event>
<event>
 4    1  0.5985962E-005  0.7061396E+03  0.7818608E-02  0.9706790E-01
         -2   -1    0    0    0  501 -0.00000000000E+00  0.00000000000E+00  0.37519261319E+02  0.37519261405E+02  0.25500000000E-02 0. -1.
          2   -1    0    0  501    0  0.00000000000E+00 -0.00000000000E+00 -0.33225146750E+04  0.33225146750E+04  0.25500000000E-02 0.  1.
    5000001    1    1    2    0    0 -0.18856644261E+03  0.11834628266E+03 -0.69379983563E+03  0.75250605168E+03  0.18800000000E+03 0.  0.
   -5000001    1    1    2    0    0  0.18856644261E+03 -0.11834628266E+03 -0.25911955780E+04  0.26075278847E+04  0.18800000000E+03 0.  0.
<mgrwt>
<rscale>  0 0.70613964E+03</rscale>
<asrwt>0</asrwt>
<pdfrwt beam="1">  1        2 0.47464477E+00 0.70613964E+03</pdfrwt>
<pdfrwt beam="2">  1       -2 0.53598966E-02 0.70613964E+03</pdfrwt>
<totfact> 0.30316467E+02</totfact>
</mgrwt>
</event>
<event>
 4    1  0.5985962E-005  0.5626750E+03  0.7818608E-02  0.9986020E-01
         -2   -1    0    0    0  501 -0.00000000000E+00  0.00000000000E+00  0.42056968551E+02  0.42056968628E+02  0.25500000000E-02 0. -1.
          2   -1    0    0  501    0  0.00000000000E+00 -0.00000000000E+00 -0.18819897998E+04  0.18819897998E+04  0.25500000000E-02 0.  1.
    5000001    1    1    2    0    0  0.17094290095E+03 -0.10780985648E+03 -0.11060790504E+04  0.11399996958E+04  0.18800000000E+03 0.  0.
   -5000001    1    1    2    0    0 -0.17094290095E+03  0.10780985648E+03 -0.73385378086E+03  0.78404707271E+03  0.18800000000E+03 0.  0.
<mgrwt>
<rscale>  0 0.56267499E+03</rscale>
<asrwt>0</asrwt>
<pdfrwt beam="1">  1        2 0.26885563E+00 0.56267499E+03</pdfrwt>
<pdfrwt beam="2">  1       -2 0.60081395E-02 0.56267499E+03</pdfrwt>
<totfact> 0.14661383E+03</totfact>
</mgrwt>
</event>
<event>
 4    1  0.5985962E-005  0.6275658E+03  0.7818608E-02  0.9849811E-01
         -2   -1    0    0    0  501 -0.00000000000E+00  0.00000000000E+00  0.40894349168E+03  0.40894349169E+03  0.25500000000E-02 0. -1.
          2   -1    0    0  501    0  0.00000000000E+00 -0.00000000000E+00 -0.24076601651E+03  0.24076601653E+03  0.25500000000E-02 0.  1.
    5000001    1    1    2    0    0 -0.60901973422E+02 -0.21945514744E+03  0.19387819333E+03  0.35327378328E+03  0.18800000000E+03 0.  0.
   -5000001    1    1    2    0    0  0.60901973422E+02  0.21945514744E+03 -0.25700718154E+02  0.29643572494E+03  0.18800000000E+03 0.  0.
<mgrwt>
<rscale>  0 0.62756576E+03</rscale>
<asrwt>0</asrwt>
<pdfrwt beam="1">  1        2 0.34395145E-01 0.62756576E+03</pdfrwt>
<pdfrwt beam="2">  1       -2 0.58420499E-01 0.62756576E+03</pdfrwt>
<totfact> 0.42161970E+02</totfact>
</mgrwt>
</event>
<event>
 4    1  0.5985962E-005  0.5095176E+03  0.7818608E-02  0.1011324E+00
         -2   -1    0    0    0  501 -0.00000000000E+00  0.00000000000E+00  0.63562825857E+02  0.63562825908E+02  0.25500000000E-02 0.  1.
          2   -1    0    0  501    0  0.00000000000E+00 -0.00000000000E+00 -0.10210690841E+04  0.10210690841E+04  0.25500000000E-02 0. -1.
    5000001    1    1    2    0    0 -0.76441329720E+02 -0.98156461098E+02 -0.73134862731E+03  0.76530567907E+03  0.18800000000E+03 0.  0.
   -5000001    1    1    2    0    0  0.76441329720E+02  0.98156461098E+02 -0.22615763096E+03  0.31932623097E+03  0.18800000000E+03 0.  0.
<mgrwt>
<rscale>  0 0.50951756E+03</rscale>
<asrwt>0</asrwt>
<pdfrwt beam="1">  1        2 0.14586700E+00 0.50951756E+03</pdfrwt>
<pdfrwt beam="2">  1       -2 0.90804043E-02 0.50951756E+03</pdfrwt>
<totfact> 0.21939069E+03</totfact>
</mgrwt>
</event>
<event>
 4    1  0.5985962E-005  0.7041691E+03  0.7818608E-02  0.9710129E-01
         -2   -1    0    0    0  501 -0.00000000000E+00  0.00000000000E+00  0.15781638557E+03  0.15781638559E+03  0.25500000000E-02 0. -1.
          2   -1    0    0  501    0  0.00000000000E+00 -0.00000000000E+00 -0.78549207219E+03  0.78549207219E+03  0.25500000000E-02 0.  1.
    5000001    1    1    2    0    0  0.17521399065E+03  0.16401923260E+03 -0.54976533935E+03  0.62863994427E+03  0.18800000000E+03 0.  0.
   -5000001    1    1    2    0    0 -0.17521399065E+03 -0.16401923260E+03 -0.77910347263E+02  0.31466851351E+03  0.18800000000E+03 0.  0.
<mgrwt>
<rscale>  0 0.70416907E+03</rscale>
<asrwt>0</asrwt>
<pdfrwt beam="1">  1        2 0.11221315E+00 0.70416907E+03</pdfrwt>
<pdfrwt beam="2">  1       -2 0.22545198E-01 0.70416907E+03</pdfrwt>
<totfact> 0.67406982E+02</totfact>
</mgrwt>
</event>
<event>
 4    1  0.5985962E-005  0.6318432E+03  0.7818608E-02  0.9841459E-01
         -2   -1    0    0    0  501 -0.00000000000E+00  0.00000000000E+00  0.37860332557E+03  0.37860332558E+03  0.25500000000E-02 0. -1.
          2   -1    0    0  501    0  0.00000000000E+00 -0.00000000000E+00 -0.26361748228E+03  0.26361748229E+03  0.25500000000E-02 0.  1.
    5000001    1    1    2    0    0  0.13775378788E+03 -0.21304735477E+03  0.47473326837E+02  0.31931645465E+03  0.18800000000E+03 0.  0.
   -5000001    1    1    2    0    0 -0.13775378788E+03  0.21304735477E+03  0.67512516457E+02  0.32290435322E+03  0.18800000000E+03 0.  0.
<mgrwt>
<rscale>  0 0.63184319E+03</rscale>
<asrwt>0</asrwt>
<pdfrwt beam="1">  1        2 0.37659640E-01 0.63184319E+03</pdfrwt>
<pdfrwt beam="2">  1       -2 0.54086189E-01 0.63184319E+03</pdfrwt>
<totfact> 0.44728646E+02</totfact>
</mgrwt>
</event>
<event>
 4    1  0.5985962E-005  0.7369374E+03  0.7818608E-02  0.9656069E-01
          2   -1    0    0  501    0  0.00000000000E+00  0.00000000000E+00  0.11459492753E+04  0.11459492753E+04  0.25500000000E-02 0.  1.
         -2   -1    0    0    0  501 -0.00000000000E+00 -0.00000000000E+00 -0.11847748074E+03  0.11847748077E+03  0.25500000000E-02 0. -1.
    5000001    1    1    2    0    0  0.17110846885E+03  0.25044459177E+03  0.67122019151E+03  0.76018494273E+03  0.18800000000E+03 0.  0.
   -5000001    1    1    2    0    0 -0.17110846885E+03 -0.25044459177E+03  0.35625160307E+03  0.50424181337E+03  0.18800000000E+03 0.  0.
<mgrwt>
<rscale>  0 0.73693740E+03</rscale>
<asrwt>0</asrwt>
<pdfrwt beam="1">  1        2 0.16370704E+00 0.73693740E+03</pdfrwt>
<pdfrwt beam="2">  1       -2 0.16925355E-01 0.73693740E+03</pdfrwt>
<totfact> 0.65796639E+02</totfact>
</mgrwt>
</event>
<event>
 4    1  0.5985962E-005  0.7676930E+03  0.7818608E-02  0.9607994E-01
         -2   -1    0    0    0  501 -0.00000000000E+00  0.00000000000E+00  0.34081037280E+02  0.34081037376E+02  0.25500000000E-02 0. -1.
          2   -1    0    0  501    0  0.00000000000E+00 -0.00000000000E+00 -0.43231709313E+04  0.43231709313E+04  0.25500000000E-02 0.  1.
    5000001    1    1    2    0    0 -0.10513192960E+03  0.31328935640E+03 -0.18446832105E+04  0.18834550938E+04  0.18800000000E+03 0.  0.
   -5000001    1    1    2    0    0  0.10513192960E+03 -0.31328935640E+03 -0.24444066836E+04  0.24737968749E+04  0.18800000000E+03 0.  0.
<mgrwt>
<rscale>  0 0.76769304E+03</rscale>
<asrwt>0</asrwt>
<pdfrwt beam="1">  1        2 0.61759550E+00 0.76769304E+03</pdfrwt>
<pdfrwt beam="2">  1       -2 0.48687224E-02 0.76769304E+03</pdfrwt>
<totfact> 0.78824362E+01</totfact>
</mgrwt>
</event>
<event>
 4    1  0.5985962E-005  0.4853682E+03  0.7818608E-02  0.1017670E+00
         -2   -1    0    0    0  501 -0.00000000000E+00  0.00000000000E+00  0.90484089899E+02  0.90484089935E+02  0.25500000000E-02 0. -1.
          2   -1    0    0  501    0  0.00000000000E+00 -0.00000000000E+00 -0.65089419446E+03  0.65089419447E+03  0.25500000000E-02 0.  1.
    5000001    1    1    2    0    0 -0.36913612267E+02  0.11842709210E+03 -0.14219222096E+03  0.26636482241E+03  0.18800000000E+03 0.  0.
   -5000001    1    1    2    0    0  0.36913612267E+02 -0.11842709210E+03 -0.41821788360E+03  0.47501346199E+03  0.18800000000E+03 0.  0.
<mgrwt>
<rscale>  0 0.48536819E+03</rscale>
<asrwt>0</asrwt>
<pdfrwt beam="1">  1        2 0.92984882E-01 0.48536819E+03</pdfrwt>
<pdfrwt beam="2">  1       -2 0.12926299E-01 0.48536819E+03</pdfrwt>
<totfact> 0.22040432E+03</totfact>
</mgrwt>
</event>
<event>
 4    1  0.5985962E-005  0.6363434E+03  0.7818608E-02  0.9832748E-01
         -2   -1    0    0    0  501 -0.00000000000E+00  0.00000000000E+00  0.63807750602E+03  0.63807750602E+03  0.25500000000E-02 0. -1.
          2   -1    0    0  501    0  0.00000000000E+00 -0.00000000000E+00 -0.15865349847E+03  0.15865349850E+03  0.25500000000E-02 0.  1.
    5000001    1    1    2    0    0 -0.24045711373E+03 -0.89823324815E+02  0.24118037831E+03  0.39924908028E+03  0.18800000000E+03 0.  0.
   -5000001    1    1    2    0    0  0.24045711373E+03  0.89823324815E+02  0.23824362923E+03  0.39748192424E+03  0.18800000000E+03 0.  0.
<mgrwt>
<rscale>  0 0.63634339E+03</rscale>
<asrwt>0</asrwt>
<pdfrwt beam="1">  1        2 0.22664785E-01 0.63634339E+03</pdfrwt>
<pdfrwt beam="2">  1       -2 0.91153930E-01 0.63634339E+03</pdfrwt>
<totfact> 0.25459671E+02</totfact>
</mgrwt>
</event>
<event>
 4    1  0.5985962E-005  0.4985407E+03  0.7818608E-02  0.1014161E+00
         -2   -1    0    0    0  501 -0.00000000000E+00  0.00000000000E+00  0.21628674722E+03  0.21628674723E+03  0.25500000000E-02 0. -1.
          2   -1    0    0  501    0  0.00000000000E+00 -0.00000000000E+00 -0.28728387808E+03  0.28728387809E+03  0.25500000000E-02 0.  1.
    5000001    1    1    2    0    0  0.10872747620E+03  0.57656520683E+02 -0.14450287642E+03  0.26715355089E+03  0.18800000000E+03 0.  0.
   -5000001    1    1    2    0    0 -0.10872747620E+03 -0.57656520683E+02  0.73505745556E+02  0.23641707444E+03  0.18800000000E+03 0.  0.
<mgrwt>
<rscale>  0 0.49854065E+03</rscale>
<asrwt>0</asrwt>
<pdfrwt beam="1">  1        2 0.41040554E-01 0.49854065E+03</pdfrwt>
<pdfrwt beam="2">  1       -2 0.30898107E-01 0.49854065E+03</pdfrwt>
<totfact> 0.12129727E+03</totfact>
</mgrwt>
</event>
<event>
 4    1  0.5985962E-005  0.5720621E+03  0.7818608E-02  0.9965126E-01
          2   -1    0    0  501    0  0.00000000000E+00  0.00000000000E+00  0.17836040836E+04  0.17836040836E+04  0.25500000000E-02 0.  1.
         -2   -1    0    0    0  501 -0.00000000000E+00 -0.00000000000E+00 -0.45869916039E+02  0.45869916110E+02  0.25500000000E-02 0. -1.
    5000001    1    1    2    0    0  0.15912965556E+03  0.12729782890E+03  0.10937046673E+04  0.11282999973E+04  0.18800000000E+03 0.  0.
   -5000001    1    1    2    0    0 -0.15912965556E+03 -0.12729782890E+03  0.64402950024E+03  0.70117400244E+03  0.18800000000E+03 0.  0.
<mgrwt>
<rscale>  0 0.57206213E+03</rscale>
<asrwt>0</asrwt>
<pdfrwt beam="1">  1        2 0.25480056E+00 0.57206213E+03</pdfrwt>
<pdfrwt beam="2">  1       -2 0.65528459E-02 0.57206213E+03</pdfrwt>
<totfact> 0.14335243E+03</totfact>
</mgrwt>
</event>
<event>
 4    1  0.5985962E-005  0.5318939E+03  0.7818608E-02  0.1005774E+00
         -2   -1    0    0    0  501 -0.00000000000E+00  0.00000000000E+00  0.89235921358E+02  0.89235921394E+02  0.25500000000E-02 0. -1.
          2   -1    0    0  501    0  0.00000000000E+00 -0.00000000000E+00 -0.79259322104E+03  0.79259322105E+03  0.25500000000E-02 0.  1.
    5000001    1    1    2    0    0  0.22782114255E+02 -0.17126968383E+03 -0.22837407497E+03  0.34256539149E+03  0.18800000000E+03 0.  0.
   -5000001    1    1    2    0    0 -0.22782114255E+02  0.17126968383E+03 -0.47498322471E+03  0.53926375095E+03  0.18800000000E+03 0.  0.
<mgrwt>
<rscale>  0 0.53189392E+03</rscale>
<asrwt>0</asrwt>
<pdfrwt beam="1">  1        2 0.11322760E+00 0.53189392E+03</pdfrwt>
<pdfrwt beam="2">  1       -2 0.12747989E-01 0.53189392E+03</pdfrwt>
<totfact> 0.17712278E+03</totfact>
</mgrwt>
</event>
<event>
 4    1  0.5985962E-005  0.7170872E+03  0.7818608E-02  0.9688449E-01
         -2   -1    0    0    0  501 -0.00000000000E+00  0.00000000000E+00  0.10067893871E+03  0.10067893874E+03  0.25500000000E-02 0. -1.
          2   -1    0    0  501    0  0.00000000000E+00 -0.00000000000E+00 -0.12768658163E+04  0.12768658163E+04  0.25500000000E-02 0.  1.
    5000001    1    1    2    0    0 -0.15239863054E+03 -0.26451446145E+03 -0.58034895840E+03  0.68215991998E+03  0.18800000000E+03 0.  0.
   -5000001    1    1    2    0    0  0.15239863054E+03  0.26451446145E+03 -0.59583791922E+03  0.69538483510E+03  0.18800000000E+03 0.  0.
<mgrwt>
<rscale>  0 0.71708715E+03</rscale>
<asrwt>0</asrwt>
<pdfrwt beam="1">  1        2 0.18240939E+00 0.71708715E+03</pdfrwt>
<pdfrwt beam="2">  1       -2 0.14382706E-01 0.71708715E+03</pdfrwt>
<totfact> 0.73263395E+02</totfact>
</mgrwt>
</event>
<event>
 4    1  0.5985962E-005  0.4953736E+03  0.7818608E-02  0.1014994E+00
         -2   -1    0    0    0  501 -0.00000000000E+00  0.00000000000E+00  0.26896987354E+02  0.26896987475E+02  0.25500000000E-02 0. -1.
          2   -1    0    0  501    0  0.00000000000E+00 -0.00000000000E+00 -0.22808783491E+04  0.22808783491E+04  0.25500000000E-02 0.  1.
    5000001    1    1    2    0    0  0.14291972524E+03 -0.36905757878E+02 -0.82447657207E+03  0.85842512820E+03  0.18800000000E+03 0.  0.
   -5000001    1    1    2    0    0 -0.14291972524E+03  0.36905757878E+02 -0.14295047897E+04  0.14493502084E+04  0.18800000000E+03 0.  0.
<mgrwt>
<rscale>  0 0.49537362E+03</rscale>
<asrwt>0</asrwt>
<pdfrwt beam="1">  1        2 0.32583964E+00 0.49537362E+03</pdfrwt>
<pdfrwt beam="2">  1       -2 0.38424282E-02 0.49537362E+03</pdfrwt>
<totfact> 0.18522307E+03</totfact>
</mgrwt>
</event>
<event>
 4    1  0.5985962E-005  0.5219161E+03  0.7818608E-02  0.1008212E+00
         -2   -1    0    0    0  501 -0.00000000000E+00  0.00000000000E+00  0.18330942652E+03  0.18330942654E+03  0.25500000000E-02 0. -1.
          2   -1    0    0  501    0  0.00000000000E+00 -0.00000000000E+00 -0.37149814929E+03  0.37149814930E+03  0.25500000000E-02 0.  1.
    5000001    1    1    2    0    0  0.10755619419E+03 -0.14129525080E+03 -0.13126103061E+03  0.29001058767E+03  0.18800000000E+03 0.  0.
   -5000001    1    1    2    0    0 -0.10755619419E+03  0.14129525080E+03 -0.56927692166E+02  0.26479698816E+03  0.18800000000E+03 0.  0.
<mgrwt>
<rscale>  0 0.52191613E+03</rscale>
<asrwt>0</asrwt>
<pdfrwt beam="1">  1        2 0.53071164E-01 0.52191613E+03</pdfrwt>
<pdfrwt beam="2">  1       -2 0.26187061E-01 0.52191613E+03</pdfrwt>
<totfact> 0.12368450E+03</totfact>
</mgrwt>
</event>
<event>
 4    1  0.5985962E-005  0.7017064E+03  0.7818608E-02  0.9714319E-01
          2   -1    0    0  501    0  0.00000000000E+00  0.00000000000E+00  0.15828890725E+04  0.15828890725E+04  0.25500000000E-02 0.  1.
         -2   -1    0    0    0  501 -0.00000000000E+00 -0.00000000000E+00 -0.77767898827E+02  0.77767898869E+02  0.25500000000E-02 0. -1.
    5000001    1    1    2    0    0 -0.24499199832E+03  0.10173096603E+03  0.44053121202E+03  0.54752353142E+03  0.18800000000E+03 0.  0.
   -5000001    1    1    2    0    0  0.24499199832E+03 -0.10173096603E+03  0.10645899616E+04  0.11131334399E+04  0.18800000000E+03 0.  0.
<mgrwt>
<rscale>  0 0.70170637E+03</rscale>
<asrwt>0</asrwt>
<pdfrwt beam="1">  1        2 0.22612703E+00 0.70170637E+03</pdfrwt>
<pdfrwt beam="2">  1       -2 0.11109699E-01 0.70170637E+03</pdfrwt>
<totfact> 0.77362802E+02</totfact>
</mgrwt>
</event>
<event>
 4    1  0.5985962E-005  0.5239234E+03  0.7818608E-02  0.1007717E+00
         -2   -1    0    0    0  501 -0.00000000000E+00  0.00000000000E+00  0.37112494074E+02  0.37112494162E+02  0.25500000000E-02 0. -1.
          2   -1    0    0  501    0  0.00000000000E+00 -0.00000000000E+00 -0.18490792290E+04  0.18490792290E+04  0.25500000000E-02 0.  1.
    5000001    1    1    2    0    0  0.11629497085E+03 -0.13211318748E+03 -0.73326994554E+03  0.77717901900E+03  0.18800000000E+03 0.  0.
   -5000001    1    1    2    0    0 -0.11629497085E+03  0.13211318748E+03 -0.10786967894E+04  0.11090127042E+04  0.18800000000E+03 0.  0.
<mgrwt>
<rscale>  0 0.52392344E+03</rscale>
<asrwt>0</asrwt>
<pdfrwt beam="1">  1        2 0.26415412E+00 0.52392344E+03</pdfrwt>
<pdfrwt beam="2">  1       -2 0.53017861E-02 0.52392344E+03</pdfrwt>
<totfact> 0.18534869E+03</totfact>
</mgrwt>
</event>
<event>
 4    1  0.5985962E-005  0.4729848E+03  0.7818608E-02  0.1021081E+00
          2   -1    0    0  501    0  0.00000000000E+00  0.00000000000E+00  0.22735003140E+03  0.22735003142E+03  0.25500000000E-02 0.  1.
         -2   -1    0    0    0  501 -0.00000000000E+00 -0.00000000000E+00 -0.24600240185E+03  0.24600240186E+03  0.25500000000E-02 0. -1.
    5000001    1    1    2    0    0  0.42051491892E+02  0.99128412757E+02  0.85562508885E+02  0.23293714412E+03  0.18800000000E+03 0.  0.
   -5000001    1    1    2    0    0 -0.42051491892E+02 -0.99128412757E+02 -0.10421487933E+03  0.24041528915E+03  0.18800000000E+03 0.  0.
<mgrwt>
<rscale>  0 0.47298479E+03</rscale>
<asrwt>0</asrwt>
<pdfrwt beam="1">  1        2 0.32478576E-01 0.47298479E+03</pdfrwt>
<pdfrwt beam="2">  1       -2 0.35143200E-01 0.47298479E+03</pdfrwt>
<totfact> 0.12344916E+03</totfact>
</mgrwt>
</event>
<event>
 4    1  0.5985962E-005  0.1236067E+04  0.7818608E-02  0.9081860E-01
          2   -1    0    0  501    0  0.00000000000E+00  0.00000000000E+00  0.82521838307E+03  0.82521838307E+03  0.25500000000E-02 0.  1.
         -2   -1    0    0    0  501 -0.00000000000E+00 -0.00000000000E+00 -0.46286592816E+03  0.46286592816E+03  0.25500000000E-02 0. -1.
    5000001    1    1    2    0    0  0.27220553326E+03  0.38843805542E+03  0.54462492799E+03  0.74628432076E+03  0.18800000000E+03 0.  0.
   -5000001    1    1    2    0    0 -0.27220553326E+03 -0.38843805542E+03 -0.18227247307E+03  0.54179999047E+03  0.18800000000E+03 0.  0.
<mgrwt>
<rscale>  0 0.12360671E+04</rscale>
<asrwt>0</asrwt>
<pdfrwt beam="1">  1        2 0.11788834E+00 0.12360671E+04</pdfrwt>
<pdfrwt beam="2">  1       -2 0.66123704E-01 0.12360671E+04</pdfrwt>
<totfact> 0.75690975E+01</totfact>
</mgrwt>
</event>
<event>
 4    1  0.5985962E-005  0.1246229E+04  0.7818608E-02  0.9073328E-01
         -2   -1    0    0    0  501 -0.00000000000E+00  0.00000000000E+00  0.15578030844E+03  0.15578030846E+03  0.25500000000E-02 0. -1.
          2   -1    0    0  501    0  0.00000000000E+00 -0.00000000000E+00 -0.24924313331E+04  0.24924313331E+04  0.25500000000E-02 0.  1.
    5000001    1    1    2    0    0 -0.40790563596E+03  0.28511568596E+03 -0.47893489195E+03  0.71582162090E+03  0.18800000000E+03 0.  0.
   -5000001    1    1    2    0    0  0.40790563596E+03 -0.28511568596E+03 -0.18577161327E+04  0.19323900207E+04  0.18800000000E+03 0.  0.
<mgrwt>
<rscale>  0 0.12462291E+04</rscale>
<asrwt>0</asrwt>
<pdfrwt beam="1">  1        2 0.35606159E+00 0.12462291E+04</pdfrwt>
<pdfrwt beam="2">  1       -2 0.22254331E-01 0.12462291E+04</pdfrwt>
<totfact> 0.77736582E+01</totfact>
</mgrwt>
</event>
<event>
 4    1  0.5985962E-005  0.4949907E+03  0.7818608E-02  0.1015095E+00
         -2   -1    0    0    0  501 -0.00000000000E+00  0.00000000000E+00  0.40564559827E+02  0.40564559907E+02  0.25500000000E-02 0. -1.
          2   -1    0    0  501    0  0.00000000000E+00 -0.00000000000E+00 -0.15100358672E+04  0.15100358672E+04  0.25500000000E-02 0.  1.
    5000001    1    1    2    0    0 -0.11946722040E+03 -0.10353714555E+03 -0.63984453065E+03  0.68537389844E+03  0.18800000000E+03 0.  0.
   -5000001    1    1    2    0    0  0.11946722040E+03  0.10353714555E+03 -0.82962677677E+03  0.86522652871E+03  0.18800000000E+03 0.  0.
<mgrwt>
<rscale>  0 0.49499067E+03</rscale>
<asrwt>0</asrwt>
<pdfrwt beam="1">  1        2 0.21571937E+00 0.49499067E+03</pdfrwt>
<pdfrwt beam="2">  1       -2 0.57949381E-02 0.49499067E+03</pdfrwt>
<totfact> 0.24009010E+03</totfact>
</mgrwt>
</event>
<event>
 4    1  0.5985962E-005  0.6278166E+03  0.7818608E-02  0.9849319E-01
         -2   -1    0    0    0  501 -0.00000000000E+00  0.00000000000E+00  0.41860247974E+02  0.41860248052E+02  0.25500000000E-02 0. -1.
          2   -1    0    0  501    0  0.00000000000E+00 -0.00000000000E+00 -0.23539852596E+04  0.23539852596E+04  0.25500000000E-02 0.  1.
    5000001    1    1    2    0    0  0.23961636845E+03  0.16829678560E+02 -0.14389517284E+04  0.14709266871E+04  0.18800000000E+03 0.  0.
   -5000001    1    1    2    0    0 -0.23961636845E+03 -0.16829678560E+02 -0.87317328326E+03  0.92491882061E+03  0.18800000000E+03 0.  0.
<mgrwt>
<rscale>  0 0.62781656E+03</rscale>
<asrwt>0</asrwt>
<pdfrwt beam="1">  1        2 0.33628353E+00 0.62781656E+03</pdfrwt>
<pdfrwt beam="2">  1       -2 0.59800369E-02 0.62781656E+03</pdfrwt>
<totfact> 0.85135267E+02</totfact>
</mgrwt>
</event>
<event>
 4    1  0.5985962E-005  0.1043309E+04  0.7818608E-02  0.9262279E-01
         -2   -1    0    0    0  501 -0.00000000000E+00  0.00000000000E+00  0.12651288490E+03  0.12651288493E+03  0.25500000000E-02 0.  1.
          2   -1    0    0  501    0  0.00000000000E+00 -0.00000000000E+00 -0.21509553727E+04  0.21509553727E+04  0.25500000000E-02 0. -1.
    5000001    1    1    2    0    0  0.44094759060E+03 -0.17778526647E+03 -0.12384170741E+04  0.13397996970E+04  0.18800000000E+03 0.  0.
   -5000001    1    1    2    0    0 -0.44094759060E+03  0.17778526647E+03 -0.78602541372E+03  0.93766856066E+03  0.18800000000E+03 0.  0.
<mgrwt>
<rscale>  0 0.10433093E+04</rscale>
<asrwt>0</asrwt>
<pdfrwt beam="1">  1        2 0.30727932E+00 0.10433093E+04</pdfrwt>
<pdfrwt beam="2">  1       -2 0.18073271E-01 0.10433093E+04</pdfrwt>
<totfact> 0.17089672E+02</totfact>
</mgrwt>
</event>
<event>
 4    1  0.5985962E-005  0.4072157E+03  0.7818608E-02  0.1041309E+00
          2   -1    0    0  501    0  0.00000000000E+00  0.00000000000E+00  0.13573136270E+04  0.13573136270E+04  0.25500000000E-02 0.  1.
         -2   -1    0    0    0  501 -0.00000000000E+00 -0.00000000000E+00 -0.30542802606E+02  0.30542802713E+02  0.25500000000E-02 0. -1.
    5000001    1    1    2    0    0  0.71804681516E+02 -0.21247767009E+02  0.73995778185E+03  0.76713030106E+03  0.18800000000E+03 0.  0.
   -5000001    1    1    2    0    0 -0.71804681516E+02  0.21247767009E+02  0.58681304255E+03  0.62072612866E+03  0.18800000000E+03 0.  0.
<mgrwt>
<rscale>  0 0.40721573E+03</rscale>
<asrwt>0</asrwt>
<pdfrwt beam="1">  1        2 0.19390198E+00 0.40721573E+03</pdfrwt>
<pdfrwt beam="2">  1       -2 0.43632568E-02 0.40721573E+03</pdfrwt>
<totfact> 0.44687171E+03</totfact>
</mgrwt>
</event>
<event>
 4    1  0.5985962E-005  0.4732210E+03  0.7818608E-02  0.1021015E+00
          2   -1    0    0  501    0  0.00000000000E+00  0.00000000000E+00  0.40096406035E+03  0.40096406036E+03  0.25500000000E-02 0.  1.
         -2   -1    0    0    0  501 -0.00000000000E+00 -0.00000000000E+00 -0.13962481453E+03  0.13962481455E+03  0.25500000000E-02 0. -1.
    5000001    1    1    2    0    0  0.33836057753E+02 -0.13583152967E+03  0.93733222433E+02  0.25243811171E+03  0.18800000000E+03 0.  0.
   -5000001    1    1    2    0    0 -0.33836057753E+02  0.13583152967E+03  0.16760602339E+03  0.28815076320E+03  0.18800000000E+03 0.  0.
<mgrwt>
<rscale>  0 0.47322102E+03</rscale>
<asrwt>0</asrwt>
<pdfrwt beam="1">  1        2 0.57280580E-01 0.47322102E+03</pdfrwt>
<pdfrwt beam="2">  1       -2 0.19946402E-01 0.47322102E+03</pdfrwt>
<totfact> 0.18381442E+03</totfact>
</mgrwt>
</event>
<event>
 4    1  0.5985962E-005  0.4997623E+03  0.7818608E-02  0.1013841E+00
          2   -1    0    0  501    0  0.00000000000E+00  0.00000000000E+00  0.75172021663E+03  0.75172021663E+03  0.25500000000E-02 0.  1.
         -2   -1    0    0    0  501 -0.00000000000E+00 -0.00000000000E+00 -0.83063593793E+02  0.83063593832E+02  0.25500000000E-02 0. -1.
    5000001    1    1    2    0    0  0.12084423707E+03  0.10332793087E+03  0.26313499505E+03  0.36036650310E+03  0.18800000000E+03 0.  0.
   -5000001    1    1    2    0    0 -0.12084423707E+03 -0.10332793087E+03  0.40552162778E+03  0.47441730737E+03  0.18800000000E+03 0.  0.
<mgrwt>
<rscale>  0 0.49976227E+03</rscale>
<asrwt>0</asrwt>
<pdfrwt beam="1">  1        2 0.10738860E+00 0.49976227E+03</pdfrwt>
<pdfrwt beam="2">  1       -2 0.11866228E-01 0.49976227E+03</pdfrwt>
<totfact> 0.21297295E+03</totfact>
</mgrwt>
</event>
<event>
 4    1  0.5985962E-005  0.5659997E+03  0.7818608E-02  0.9978570E-01
         -2   -1    0    0    0  501 -0.00000000000E+00  0.00000000000E+00  0.41684934926E+02  0.41684935004E+02  0.25500000000E-02 0. -1.
          2   -1    0    0  501    0  0.00000000000E+00 -0.00000000000E+00 -0.19212912630E+04  0.19212912630E+04  0.25500000000E-02 0.  1.
    5000001    1    1    2    0    0  0.19389530185E+03  0.84341211834E+02 -0.91897305521E+03  0.96154266899E+03  0.18800000000E+03 0.  0.
   -5000001    1    1    2    0    0 -0.19389530185E+03 -0.84341211834E+02 -0.96063327283E+03  0.10014335290E+04  0.18800000000E+03 0.  0.
<mgrwt>
<rscale>  0 0.56599965E+03</rscale>
<asrwt>0</asrwt>
<pdfrwt beam="1">  1        2 0.27447012E+00 0.56599965E+03</pdfrwt>
<pdfrwt beam="2">  1       -2 0.59549919E-02 0.56599965E+03</pdfrwt>
<totfact> 0.14204210E+03</totfact>
</mgrwt>
</event>
<event>
 4    1  0.5985962E-005  0.5383160E+03  0.7818608E-02  0.1004235E+00
          2   -1    0    0  501    0  0.00000000000E+00  0.00000000000E+00  0.34767780743E+04  0.34767780743E+04  0.25500000000E-02 0.  1.
         -2   -1    0    0    0  501 -0.00000000000E+00 -0.00000000000E+00 -0.20837114903E+02  0.20837115059E+02  0.25500000000E-02 0. -1.
    5000001    1    1    2    0    0 -0.73757997775E+02 -0.15511834886E+03  0.22943973359E+04  0.23084854514E+04  0.18800000000E+03 0.  0.
   -5000001    1    1    2    0    0  0.73757997775E+02  0.15511834886E+03  0.11615436235E+04  0.11891297379E+04  0.18800000000E+03 0.  0.
<mgrwt>
<rscale>  0 0.53831598E+03</rscale>
<asrwt>0</asrwt>
<pdfrwt beam="1">  1        2 0.49668335E+00 0.53831598E+03</pdfrwt>
<pdfrwt beam="2">  1       -2 0.29767261E-02 0.53831598E+03</pdfrwt>
<totfact> 0.62063709E+02</totfact>
</mgrwt>
</event>
<event>
 4    1  0.5985962E-005  0.4909091E+03  0.7818608E-02  0.1016179E+00
          2   -1    0    0  501    0  0.00000000000E+00  0.00000000000E+00  0.33865415227E+03  0.33865415228E+03  0.25500000000E-02 0.  1.
         -2   -1    0    0    0  501 -0.00000000000E+00 -0.00000000000E+00 -0.17790399599E+03  0.17790399601E+03  0.25500000000E-02 0. -1.
    5000001    1    1    2    0    0 -0.91868886101E+02  0.11455584839E+03  0.19553749137E+02  0.23935179911E+03  0.18800000000E+03 0.  0.
   -5000001    1    1    2    0    0  0.91868886101E+02 -0.11455584839E+03  0.14119640714E+03  0.27720634918E+03  0.18800000000E+03 0.  0.
<mgrwt>
<rscale>  0 0.49090906E+03</rscale>
<asrwt>0</asrwt>
<pdfrwt beam="1">  1        2 0.48379163E-01 0.49090906E+03</pdfrwt>
<pdfrwt beam="2">  1       -2 0.25414857E-01 0.49090906E+03</pdfrwt>
<totfact> 0.14449641E+03</totfact>
</mgrwt>
</event>
<event>
 4    1  0.5985962E-005  0.4825384E+03  0.7818608E-02  0.1018440E+00
         -2   -1    0    0    0  501 -0.00000000000E+00  0.00000000000E+00  0.58338482549E+02  0.58338482605E+02  0.25500000000E-02 0. -1.
          2   -1    0    0  501    0  0.00000000000E+00 -0.00000000000E+00 -0.99781178064E+03  0.99781178064E+03  0.25500000000E-02 0.  1.
    5000001    1    1    2    0    0  0.13978556709E+03 -0.22257910577E+02 -0.35327179161E+03  0.42447659311E+03  0.18800000000E+03 0.  0.
   -5000001    1    1    2    0    0 -0.13978556709E+03  0.22257910577E+02 -0.58620150648E+03  0.63167367014E+03  0.18800000000E+03 0.  0.
<mgrwt>
<rscale>  0 0.48253839E+03</rscale>
<asrwt>0</asrwt>
<pdfrwt beam="1">  1        2 0.14254453E+00 0.48253839E+03</pdfrwt>
<pdfrwt beam="2">  1       -2 0.83340695E-02 0.48253839E+03</pdfrwt>
<totfact> 0.25983606E+03</totfact>
</mgrwt>
</event>
<event>
 4    1  0.5985962E-005  0.4317042E+03  0.7818608E-02  0.1033323E+00
         -2   -1    0    0    0  501 -0.00000000000E+00  0.00000000000E+00  0.25163779391E+02  0.25163779520E+02  0.25500000000E-02 0. -1.
          2   -1    0    0  501    0  0.00000000000E+00 -0.00000000000E+00 -0.18515552397E+04  0.18515552397E+04  0.25500000000E-02 0.  1.
    5000001    1    1    2    0    0 -0.55845067964E+02  0.87998769324E+02 -0.99856910112E+03  0.10214434418E+04  0.18800000000E+03 0.  0.
   -5000001    1    1    2    0    0  0.55845067964E+02 -0.87998769324E+02 -0.82782235922E+03  0.85527557748E+03  0.18800000000E+03 0.  0.
<mgrwt>
<rscale>  0 0.43170419E+03</rscale>
<asrwt>0</asrwt>
<pdfrwt beam="1">  1        2 0.26450780E+00 0.43170419E+03</pdfrwt>
<pdfrwt beam="2">  1       -2 0.35948268E-02 0.43170419E+03</pdfrwt>
<totfact> 0.33632556E+03</totfact>
</mgrwt>
</event>
<event>
 4    1  0.5985962E-005  0.5754964E+03  0.7818608E-02  0.9957589E-01
          2   -1    0    0  501    0  0.00000000000E+00  0.00000000000E+00  0.33331293572E+03  0.33331293573E+03  0.25500000000E-02 0.  1.
         -2   -1    0    0    0  501 -0.00000000000E+00 -0.00000000000E+00 -0.24841225839E+03  0.24841225840E+03  0.25500000000E-02 0. -1.
    5000001    1    1    2    0    0 -0.21671902520E+03  0.19418024960E+01  0.20209636599E+02  0.28761664745E+03  0.18800000000E+03 0.  0.
   -5000001    1    1    2    0    0  0.21671902520E+03 -0.19418024960E+01  0.64691040728E+02  0.29410854668E+03  0.18800000000E+03 0.  0.
<mgrwt>
<rscale>  0 0.57549637E+03</rscale>
<asrwt>0</asrwt>
<pdfrwt beam="1">  1        2 0.47616134E-01 0.57549637E+03</pdfrwt>
<pdfrwt beam="2">  1       -2 0.35487465E-01 0.57549637E+03</pdfrwt>
<totfact> 0.79445249E+02</totfact>
</mgrwt>
</event>
<event>
 4    1  0.5985962E-005  0.5084078E+03  0.7818608E-02  0.1011607E+00
         -2   -1    0    0    0  501 -0.00000000000E+00  0.00000000000E+00  0.22396625269E+03  0.22396625270E+03  0.25500000000E-02 0.  1.
          2   -1    0    0  501    0  0.00000000000E+00 -0.00000000000E+00 -0.28852387664E+03  0.28852387665E+03  0.25500000000E-02 0. -1.
    5000001    1    1    2    0    0  0.43921071803E+02 -0.68708662992E+02 -0.18390494806E+03  0.27534518488E+03  0.18800000000E+03 0.  0.
   -5000001    1    1    2    0    0 -0.43921071803E+02  0.68708662992E+02  0.11934732410E+03  0.23714494447E+03  0.18800000000E+03 0.  0.
<mgrwt>
<rscale>  0 0.50840776E+03</rscale>
<asrwt>0</asrwt>
<pdfrwt beam="1">  1        2 0.41217696E-01 0.50840776E+03</pdfrwt>
<pdfrwt beam="2">  1       -2 0.31995179E-01 0.50840776E+03</pdfrwt>
<totfact> 0.11316182E+03</totfact>
</mgrwt>
</event>
<event>
 4    1  0.5985962E-005  0.4639342E+03  0.7818608E-02  0.1023646E+00
         -2   -1    0    0    0  501 -0.00000000000E+00  0.00000000000E+00  0.46498933160E+02  0.46498933229E+02  0.25500000000E-02 0. -1.
          2   -1    0    0  501    0  0.00000000000E+00 -0.00000000000E+00 -0.11572036842E+04  0.11572036842E+04  0.25500000000E-02 0.  1.
    5000001    1    1    2    0    0  0.46910139276E+02 -0.12722282968E+03 -0.53236057364E+03  0.58063584968E+03  0.18800000000E+03 0.  0.
   -5000001    1    1    2    0    0 -0.46910139276E+02  0.12722282968E+03 -0.57834417743E+03  0.62306676779E+03  0.18800000000E+03 0.  0.
<mgrwt>
<rscale>  0 0.46393421E+03</rscale>
<asrwt>0</asrwt>
<pdfrwt beam="1">  1        2 0.16531479E+00 0.46393421E+03</pdfrwt>
<pdfrwt beam="2">  1       -2 0.66427055E-02 0.46393421E+03</pdfrwt>
<totfact> 0.30005597E+03</totfact>
</mgrwt>
</event>
<event>
 4    1  0.5985962E-005  0.4554238E+03  0.7818608E-02  0.1026117E+00
         -2   -1    0    0    0  501 -0.00000000000E+00  0.00000000000E+00  0.29473675092E+02  0.29473675202E+02  0.25500000000E-02 0. -1.
          2   -1    0    0  501    0  0.00000000000E+00 -0.00000000000E+00 -0.17592887701E+04  0.17592887701E+04  0.25500000000E-02 0.  1.
    5000001    1    1    2    0    0 -0.10240110094E+03  0.73699829378E+02 -0.76941905247E+03  0.80203948072E+03  0.18800000000E+03 0.  0.
   -5000001    1    1    2    0    0  0.10240110094E+03 -0.73699829378E+02 -0.96039604256E+03  0.98672296461E+03  0.18800000000E+03 0.  0.
<mgrwt>
<rscale>  0 0.45542378E+03</rscale>
<asrwt>0</asrwt>
<pdfrwt beam="1">  1        2 0.25132690E+00 0.45542378E+03</pdfrwt>
<pdfrwt beam="2">  1       -2 0.42105261E-02 0.45542378E+03</pdfrwt>
<totfact> 0.29379399E+03</totfact>
</mgrwt>
</event>
<event>
 4    1  0.5985962E-005  0.4216880E+03  0.7818608E-02  0.1036518E+00
          2   -1    0    0  501    0  0.00000000000E+00  0.00000000000E+00  0.14865498432E+03  0.14865498434E+03  0.25500000000E-02 0.  1.
         -2   -1    0    0    0  501 -0.00000000000E+00 -0.00000000000E+00 -0.29904949431E+03  0.29904949432E+03  0.25500000000E-02 0. -1.
    5000001    1    1    2    0    0  0.28746220572E+02  0.89675310908E+02 -0.58640539087E+02  0.21829044736E+03  0.18800000000E+03 0.  0.
   -5000001    1    1    2    0    0 -0.28746220572E+02 -0.89675310908E+02 -0.91753970905E+02  0.22941403131E+03  0.18800000000E+03 0.  0.
<mgrwt>
<rscale>  0 0.42168803E+03</rscale>
<asrwt>0</asrwt>
<pdfrwt beam="1">  1        2 0.21236426E-01 0.42168803E+03</pdfrwt>
<pdfrwt beam="2">  1       -2 0.42721356E-01 0.42168803E+03</pdfrwt>
<totfact> 0.13702333E+03</totfact>
</mgrwt>
</event>
<event>
 4    1  0.5985962E-005  0.5792451E+03  0.7818608E-02  0.9949427E-01
         -2   -1    0    0    0  501 -0.00000000000E+00  0.00000000000E+00  0.67663431287E+02  0.67663431335E+02  0.25500000000E-02 0. -1.
          2   -1    0    0  501    0  0.00000000000E+00 -0.00000000000E+00 -0.12396831018E+04  0.12396831018E+04  0.25500000000E-02 0.  1.
    5000001    1    1    2    0    0 -0.14493995760E+03  0.24440301046E+02 -0.95640476911E+03  0.98572765103E+03  0.18800000000E+03 0.  0.
   -5000001    1    1    2    0    0  0.14493995760E+03 -0.24440301046E+02 -0.21561490141E+03  0.32161888212E+03  0.18800000000E+03 0.  0.
<mgrwt>
<rscale>  0 0.57924507E+03</rscale>
<asrwt>0</asrwt>
<pdfrwt beam="1">  1        2 0.17709757E+00 0.57924507E+03</pdfrwt>
<pdfrwt beam="2">  1       -2 0.96662053E-02 0.57924507E+03</pdfrwt>
<totfact> 0.14846976E+03</totfact>
</mgrwt>
</event>
<event>
 4    1  0.5985962E-005  0.5888168E+03  0.7818608E-02  0.9928883E-01
          2   -1    0    0  501    0  0.00000000000E+00  0.00000000000E+00  0.15223271768E+04  0.15223271768E+04  0.25500000000E-02 0.  1.
         -2   -1    0    0    0  501 -0.00000000000E+00 -0.00000000000E+00 -0.56936703848E+02  0.56936703905E+02  0.25500000000E-02 0. -1.
    5000001    1    1    2    0    0 -0.10922837362E+03 -0.15601862942E+03  0.10618361425E+04  0.10950400193E+04  0.18800000000E+03 0.  0.
   -5000001    1    1    2    0    0  0.10922837362E+03  0.15601862942E+03  0.40355433040E+03  0.48422386136E+03  0.18800000000E+03 0.  0.
<mgrwt>
<rscale>  0 0.58881675E+03</rscale>
<asrwt>0</asrwt>
<pdfrwt beam="1">  1        2 0.21747533E+00 0.58881675E+03</pdfrwt>
<pdfrwt beam="2">  1       -2 0.81338141E-02 0.58881675E+03</pdfrwt>
<totfact> 0.13834240E+03</totfact>
</mgrwt>
</event>
<event>
 4    1  0.5985962E-005  0.4869700E+03  0.7818608E-02  0.1017237E+00
         -2   -1    0    0    0  501 -0.00000000000E+00  0.00000000000E+00  0.10096760390E+03  0.10096760393E+03  0.25500000000E-02 0. -1.
          2   -1    0    0  501    0  0.00000000000E+00 -0.00000000000E+00 -0.58716789721E+03  0.58716789722E+03  0.25500000000E-02 0.  1.
    5000001    1    1    2    0    0  0.11176193318E+03 -0.10221187224E+03 -0.19834849354E+03  0.31244859005E+03  0.18800000000E+03 0.  0.
   -5000001    1    1    2    0    0 -0.11176193318E+03  0.10221187224E+03 -0.28785179977E+03  0.37568691109E+03  0.18800000000E+03 0.  0.
<mgrwt>
<rscale>  0 0.48696996E+03</rscale>
<asrwt>0</asrwt>
<pdfrwt beam="1">  1        2 0.83881127E-01 0.48696996E+03</pdfrwt>
<pdfrwt beam="2">  1       -2 0.14423944E-01 0.48696996E+03</pdfrwt>
<totfact> 0.20741917E+03</totfact>
</mgrwt>
</event>
<event>
 4    1  0.5985962E-005  0.4489443E+03  0.7818608E-02  0.1028037E+00
         -2   -1    0    0    0  501 -0.00000000000E+00  0.00000000000E+00  0.31599785473E+02  0.31599785576E+02  0.25500000000E-02 0. -1.
          2   -1    0    0  501    0  0.00000000000E+00 -0.00000000000E+00 -0.15945595579E+04  0.15945595579E+04  0.25500000000E-02 0.  1.
    5000001    1    1    2    0    0 -0.10520936238E+02  0.68454100717E+02 -0.41481370588E+03  0.46066372181E+03  0.18800000000E+03 0.  0.
   -5000001    1    1    2    0    0  0.10520936238E+02 -0.68454100717E+02 -0.11481460666E+04  0.11654956217E+04  0.18800000000E+03 0.  0.
<mgrwt>
<rscale>  0 0.44894427E+03</rscale>
<asrwt>0</asrwt>
<pdfrwt beam="1">  1        2 0.22779417E+00 0.44894427E+03</pdfrwt>
<pdfrwt beam="2">  1       -2 0.45142561E-02 0.44894427E+03</pdfrwt>
<totfact> 0.31979525E+03</totfact>
</mgrwt>
</event>
<event>
 4    1  0.5985962E-005  0.5612481E+03  0.7818608E-02  0.9989235E-01
          2   -1    0    0  501    0  0.00000000000E+00  0.00000000000E+00  0.64044986955E+03  0.64044986956E+03  0.25500000000E-02 0.  1.
         -2   -1    0    0    0  501 -0.00000000000E+00 -0.00000000000E+00 -0.12296021131E+03  0.12296021134E+03  0.25500000000E-02 0. -1.
    5000001    1    1    2    0    0  0.75254611697E+02  0.19392554382E+03  0.24291275922E+03  0.37097302021E+03  0.18800000000E+03 0.  0.
   -5000001    1    1    2    0    0 -0.75254611697E+02 -0.19392554382E+03  0.27457689902E+03  0.39243706069E+03  0.18800000000E+03 0.  0.
<mgrwt>
<rscale>  0 0.56124808E+03</rscale>
<asrwt>0</asrwt>
<pdfrwt beam="1">  1        2 0.91492837E-01 0.56124808E+03</pdfrwt>
<pdfrwt beam="2">  1       -2 0.17565745E-01 0.56124808E+03</pdfrwt>
<totfact> 0.13424774E+03</totfact>
</mgrwt>
</event>
<event>
 4    1  0.5985962E-005  0.4770695E+03  0.7818608E-02  0.1019944E+00
          2   -1    0    0  501    0  0.00000000000E+00  0.00000000000E+00  0.36626774021E+04  0.36626774021E+04  0.25500000000E-02 0.  1.
         -2   -1    0    0    0  501 -0.00000000000E+00 -0.00000000000E+00 -0.15534762204E+02  0.15534762413E+02  0.25500000000E-02 0. -1.
    5000001    1    1    2    0    0 -0.13148849060E+03  0.59183744474E+02  0.20365246412E+04  0.20502606061E+04  0.18800000000E+03 0.  0.
   -5000001    1    1    2    0    0  0.13148849060E+03 -0.59183744474E+02  0.16106179987E+04  0.16279515584E+04  0.18800000000E+03 0.  0.
<mgrwt>
<rscale>  0 0.47706948E+03</rscale>
<asrwt>0</asrwt>
<pdfrwt beam="1">  1        2 0.52323996E+00 0.47706948E+03</pdfrwt>
<pdfrwt beam="2">  1       -2 0.22192503E-02 0.47706948E+03</pdfrwt>
<totfact> 0.75312056E+02</totfact>
</mgrwt>
</event>
<event>
 4    1  0.5985962E-005  0.9131551E+03  0.7818608E-02  0.9409285E-01
          2   -1    0    0  501    0  0.00000000000E+00  0.00000000000E+00  0.47674701697E+03  0.47674701698E+03  0.25500000000E-02 0.  1.
         -2   -1    0    0    0  501 -0.00000000000E+00 -0.00000000000E+00 -0.43726137325E+03  0.43726137326E+03  0.25500000000E-02 0. -1.
    5000001    1    1    2    0    0 -0.36880085210E+03  0.19110429200E+03 -0.44486768954E+01  0.45595910963E+03  0.18800000000E+03 0.  0.
   -5000001    1    1    2    0    0  0.36880085210E+03 -0.19110429200E+03  0.43934320622E+02  0.45804928060E+03  0.18800000000E+03 0.  0.
<mgrwt>
<rscale>  0 0.91315509E+03</rscale>
<asrwt>0</asrwt>
<pdfrwt beam="1">  1        2 0.68106717E-01 0.91315509E+03</pdfrwt>
<pdfrwt beam="2">  1       -2 0.62465910E-01 0.91315509E+03</pdfrwt>
<totfact> 0.16910507E+02</totfact>
</mgrwt>
</event>
<event>
 4    1  0.5985962E-005  0.9884077E+03  0.7818608E-02  0.9321351E-01
          2   -1    0    0  501    0  0.00000000000E+00  0.00000000000E+00  0.10171249381E+03  0.10171249384E+03  0.25500000000E-02 0.  1.
         -2   -1    0    0    0  501 -0.00000000000E+00 -0.00000000000E+00 -0.24012529031E+04  0.24012529031E+04  0.25500000000E-02 0. -1.
    5000001    1    1    2    0    0  0.17546874073E+03  0.29459052206E+03 -0.19150196887E+04  0.19545376084E+04  0.18800000000E+03 0.  0.
   -5000001    1    1    2    0    0 -0.17546874073E+03 -0.29459052206E+03 -0.38452072064E+03  0.54842778856E+03  0.18800000000E+03 0.  0.
<mgrwt>
<rscale>  0 0.98840765E+03</rscale>
<asrwt>0</asrwt>
<pdfrwt beam="1">  1        2 0.14530358E-01 0.98840765E+03</pdfrwt>
<pdfrwt beam="2">  1       -2 0.34303609E+00 0.98840765E+03</pdfrwt>
<totfact> 0.73585463E+00</totfact>
</mgrwt>
</event>
<event>
 4    1  0.5985962E-005  0.7378896E+03  0.7818608E-02  0.9654544E-01
         -2   -1    0    0    0  501 -0.00000000000E+00  0.00000000000E+00  0.33710345137E+03  0.33710345138E+03  0.25500000000E-02 0. -1.
          2   -1    0    0  501    0  0.00000000000E+00 -0.00000000000E+00 -0.40379375002E+03  0.40379375002E+03  0.25500000000E-02 0.  1.
    5000001    1    1    2    0    0 -0.10646244620E+03 -0.28555435786E+03  0.55903156694E+02  0.36241510271E+03  0.18800000000E+03 0.  0.
   -5000001    1    1    2    0    0  0.10646244620E+03  0.28555435786E+03 -0.12259345534E+03  0.37848209870E+03  0.18800000000E+03 0.  0.
<mgrwt>
<rscale>  0 0.73788960E+03</rscale>
<asrwt>0</asrwt>
<pdfrwt beam="1">  1        2 0.57684821E-01 0.73788960E+03</pdfrwt>
<pdfrwt beam="2">  1       -2 0.48157636E-01 0.73788960E+03</pdfrwt>
<totfact> 0.35213056E+02</totfact>
</mgrwt>
</event>
<event>
 4    1  0.5985962E-005  0.6006112E+03  0.7818608E-02  0.9904139E-01
         -2   -1    0    0    0  501 -0.00000000000E+00  0.00000000000E+00  0.42706320748E+03  0.42706320749E+03  0.25500000000E-02 0. -1.
          2   -1    0    0  501    0  0.00000000000E+00 -0.00000000000E+00 -0.21117118814E+03  0.21117118816E+03  0.25500000000E-02 0.  1.
    5000001    1    1    2    0    0  0.12093254326E+03 -0.16634688306E+03 -0.11067375995E+02  0.27885919805E+03  0.18800000000E+03 0.  0.
   -5000001    1    1    2    0    0 -0.12093254326E+03  0.16634688306E+03  0.22695939533E+03  0.35937519760E+03  0.18800000000E+03 0.  0.
<mgrwt>
<rscale>  0 0.60061117E+03</rscale>
<asrwt>0</asrwt>
<pdfrwt beam="1">  1        2 0.30167312E-01 0.60061117E+03</pdfrwt>
<pdfrwt beam="2">  1       -2 0.61009030E-01 0.60061117E+03</pdfrwt>
<totfact> 0.44600538E+02</totfact>
</mgrwt>
</event>
<event>
 4    1  0.5985962E-005  0.4433503E+03  0.7818608E-02  0.1029724E+00
          2   -1    0    0  501    0  0.00000000000E+00  0.00000000000E+00  0.28454324965E+04  0.28454324965E+04  0.25500000000E-02 0.  1.
         -2   -1    0    0    0  501 -0.00000000000E+00 -0.00000000000E+00 -0.17269739190E+02  0.17269739379E+02  0.25500000000E-02 0. -1.
    5000001    1    1    2    0    0  0.32204411695E+01  0.74563986042E+02  0.19997015923E+04  0.20099056240E+04  0.18800000000E+03 0.  0.
   -5000001    1    1    2    0    0 -0.32204411695E+01 -0.74563986042E+02  0.82846116501E+03  0.85279661185E+03  0.18800000000E+03 0.  0.
<mgrwt>
<rscale>  0 0.44335032E+03</rscale>
<asrwt>0</asrwt>
<pdfrwt beam="1">  1        2 0.40649082E+00 0.44335032E+03</pdfrwt>
<pdfrwt beam="2">  1       -2 0.24671028E-02 0.44335032E+03</pdfrwt>
<totfact> 0.18654461E+03</totfact>
</mgrwt>
</event>
<event>
 4    1  0.5985962E-005  0.1036618E+04  0.7818608E-02  0.9269270E-01
         -2   -1    0    0    0  501 -0.00000000000E+00  0.00000000000E+00  0.62303632293E+02  0.62303632345E+02  0.25500000000E-02 0. -1.
          2   -1    0    0  501    0  0.00000000000E+00 -0.00000000000E+00 -0.43118578695E+04  0.43118578695E+04  0.25500000000E-02 0.  1.
    5000001    1    1    2    0    0 -0.39027190063E+03  0.28194190425E+03 -0.22880404964E+04  0.23456932252E+04  0.18800000000E+03 0.  0.
   -5000001    1    1    2    0    0  0.39027190063E+03 -0.28194190425E+03 -0.19615137408E+04  0.20284682766E+04  0.18800000000E+03 0.  0.
<mgrwt>
<rscale>  0 0.10366184E+04</rscale>
<asrwt>0</asrwt>
<pdfrwt beam="1">  1        2 0.61597951E+00 0.10366184E+04</pdfrwt>
<pdfrwt beam="2">  1       -2 0.89005216E-02 0.10366184E+04</pdfrwt>
<totfact> 0.29724384E+01</totfact>
</mgrwt>
</event>
<event>
 4    1  0.5985962E-005  0.7463838E+03  0.7818608E-02  0.9641041E-01
         -2   -1    0    0    0  501 -0.00000000000E+00  0.00000000000E+00  0.14477028912E+03  0.14477028914E+03  0.25500000000E-02 0. -1.
          2   -1    0    0  501    0  0.00000000000E+00 -0.00000000000E+00 -0.96202186917E+03  0.96202186917E+03  0.25500000000E-02 0.  1.
    5000001    1    1    2    0    0 -0.65581909999E+02 -0.29236368211E+03 -0.23222827734E+03  0.42314475340E+03  0.18800000000E+03 0.  0.
   -5000001    1    1    2    0    0  0.65581909999E+02  0.29236368211E+03 -0.58502330271E+03  0.68364740491E+03  0.18800000000E+03 0.  0.
<mgrwt>
<rscale>  0 0.74638377E+03</rscale>
<asrwt>0</asrwt>
<pdfrwt beam="1">  1        2 0.13743169E+00 0.74638377E+03</pdfrwt>
<pdfrwt beam="2">  1       -2 0.20681470E-01 0.74638377E+03</pdfrwt>
<totfact> 0.59880803E+02</totfact>
</mgrwt>
</event>
<event>
 4    1  0.5985962E-005  0.1148889E+04  0.7818608E-02  0.9158809E-01
         -2   -1    0    0    0  501 -0.00000000000E+00  0.00000000000E+00  0.36077752037E+03  0.36077752037E+03  0.25500000000E-02 0. -1.
          2   -1    0    0  501    0  0.00000000000E+00 -0.00000000000E+00 -0.91465409175E+03  0.91465409175E+03  0.25500000000E-02 0.  1.
    5000001    1    1    2    0    0  0.45870342292E+03  0.24864273204E+03 -0.44312860302E+03  0.70988660870E+03  0.18800000000E+03 0.  0.
   -5000001    1    1    2    0    0 -0.45870342292E+03 -0.24864273204E+03 -0.11074796836E+03  0.56554500342E+03  0.18800000000E+03 0.  0.
<mgrwt>
<rscale>  0 0.11488893E+04</rscale>
<asrwt>0</asrwt>
<pdfrwt beam="1">  1        2 0.13066487E+00 0.11488893E+04</pdfrwt>
<pdfrwt beam="2">  1       -2 0.51539646E-01 0.11488893E+04</pdfrwt>
<totfact> 0.11199280E+02</totfact>
</mgrwt>
</event>
<event>
 4    1  0.5985962E-005  0.8772787E+03  0.7818608E-02  0.9454439E-01
         -2   -1    0    0    0  501 -0.00000000000E+00  0.00000000000E+00  0.18467037769E+03  0.18467037771E+03  0.25500000000E-02 0. -1.
          2   -1    0    0  501    0  0.00000000000E+00 -0.00000000000E+00 -0.10418804969E+04  0.10418804969E+04  0.25500000000E-02 0.  1.
    5000001    1    1    2    0    0 -0.25909808496E+03  0.19065386981E+03 -0.10497538545E+03  0.38709759397E+03  0.18800000000E+03 0.  0.
   -5000001    1    1    2    0    0  0.25909808496E+03 -0.19065386981E+03 -0.75223473375E+03  0.83945328064E+03  0.18800000000E+03 0.  0.
<mgrwt>
<rscale>  0 0.87727867E+03</rscale>
<asrwt>0</asrwt>
<pdfrwt beam="1">  1        2 0.14884007E+00 0.87727867E+03</pdfrwt>
<pdfrwt beam="2">  1       -2 0.26381483E-01 0.87727867E+03</pdfrwt>
<totfact> 0.34422990E+02</totfact>
</mgrwt>
</event>
<event>
 4    1  0.5985962E-005  0.8247890E+03  0.7818608E-02  0.9524813E-01
          2   -1    0    0  501    0  0.00000000000E+00  0.00000000000E+00  0.52788649573E+03  0.52788649573E+03  0.25500000000E-02 0.  1.
         -2   -1    0    0    0  501 -0.00000000000E+00 -0.00000000000E+00 -0.32217007129E+03  0.32217007130E+03  0.25500000000E-02 0. -1.
    5000001    1    1    2    0    0  0.42846766002E+02  0.36423895812E+03  0.87593465062E+02  0.42133416559E+03  0.18800000000E+03 0.  0.
   -5000001    1    1    2    0    0 -0.42846766002E+02 -0.36423895812E+03  0.11812295938E+03  0.42872240144E+03  0.18800000000E+03 0.  0.
<mgrwt>
<rscale>  0 0.82478902E+03</rscale>
<asrwt>0</asrwt>
<pdfrwt beam="1">  1        2 0.75412357E-01 0.82478902E+03</pdfrwt>
<pdfrwt beam="2">  1       -2 0.46024296E-01 0.82478902E+03</pdfrwt>
<totfact> 0.28371879E+02</totfact>
</mgrwt>
</event>
<event>
 4    1  0.5985962E-005  0.7956494E+03  0.7818608E-02  0.9566336E-01
         -2   -1    0    0    0  501 -0.00000000000E+00  0.00000000000E+00  0.18392913666E+03  0.18392913667E+03  0.25500000000E-02 0. -1.
          2   -1    0    0  501    0  0.00000000000E+00 -0.00000000000E+00 -0.86046448636E+03  0.86046448636E+03  0.25500000000E-02 0.  1.
    5000001    1    1    2    0    0 -0.22004586877E+03  0.25892563253E+03 -0.45162471498E+03  0.59562702317E+03  0.18800000000E+03 0.  0.
   -5000001    1    1    2    0    0  0.22004586877E+03 -0.25892563253E+03 -0.22491063472E+03  0.44876659986E+03  0.18800000000E+03 0.  0.
<mgrwt>
<rscale>  0 0.79564940E+03</rscale>
<asrwt>0</asrwt>
<pdfrwt beam="1">  1        2 0.12292350E+00 0.79564940E+03</pdfrwt>
<pdfrwt beam="2">  1       -2 0.26275591E-01 0.79564940E+03</pdfrwt>
<totfact> 0.45341017E+02</totfact>
</mgrwt>
</event>
<event>
 4    1  0.5985962E-005  0.6497720E+03  0.7818608E-02  0.9807207E-01
          2   -1    0    0  501    0  0.00000000000E+00  0.00000000000E+00  0.22379992772E+03  0.22379992773E+03  0.25500000000E-02 0.  1.
         -2   -1    0    0    0  501 -0.00000000000E+00 -0.00000000000E+00 -0.47163063364E+03  0.47163063364E+03  0.25500000000E-02 0. -1.
    5000001    1    1    2    0    0 -0.23661772966E+03 -0.86889212393E+01  0.33676900768E+01  0.30235540127E+03  0.18800000000E+03 0.  0.
   -5000001    1    1    2    0    0  0.23661772966E+03  0.86889212393E+01 -0.25119839600E+03  0.39307516010E+03  0.18800000000E+03 0.  0.
<mgrwt>
<rscale>  0 0.64977197E+03</rscale>
<asrwt>0</asrwt>
<pdfrwt beam="1">  1        2 0.31971418E-01 0.64977197E+03</pdfrwt>
<pdfrwt beam="2">  1       -2 0.67375804E-01 0.64977197E+03</pdfrwt>
<totfact> 0.33774017E+02</totfact>
</mgrwt>
</event>
<event>
 4    1  0.5985962E-005  0.4561267E+03  0.7818608E-02  0.1025911E+00
          2   -1    0    0  501    0  0.00000000000E+00  0.00000000000E+00  0.11422824453E+04  0.11422824453E+04  0.25500000000E-02 0.  1.
         -2   -1    0    0    0  501 -0.00000000000E+00 -0.00000000000E+00 -0.45534179418E+02  0.45534179489E+02  0.25500000000E-02 0. -1.
    5000001    1    1    2    0    0  0.11631803653E+03 -0.52339572825E+02  0.49631890815E+03  0.54584409412E+03  0.18800000000E+03 0.  0.
   -5000001    1    1    2    0    0 -0.11631803653E+03  0.52339572825E+02  0.60042935774E+03  0.64197253068E+03  0.18800000000E+03 0.  0.
<mgrwt>
<rscale>  0 0.45612671E+03</rscale>
<asrwt>0</asrwt>
<pdfrwt beam="1">  1        2 0.16318322E+00 0.45612671E+03</pdfrwt>
<pdfrwt beam="2">  1       -2 0.65048822E-02 0.45612671E+03</pdfrwt>
<totfact> 0.31612534E+03</totfact>
</mgrwt>
</event>
<event>
 4    1  0.5985962E-005  0.4804305E+03  0.7818608E-02  0.1019017E+00
          2   -1    0    0  501    0  0.00000000000E+00  0.00000000000E+00  0.25004515731E+04  0.25004515731E+04  0.25500000000E-02 0.  1.
         -2   -1    0    0    0  501 -0.00000000000E+00 -0.00000000000E+00 -0.23077176572E+02  0.23077176713E+02  0.25500000000E-02 0. -1.
    5000001    1    1    2    0    0  0.46380123435E+02 -0.10427788651E+03  0.17461686654E+04  0.17599642046E+04  0.18800000000E+03 0.  0.
   -5000001    1    1    2    0    0 -0.46380123435E+02  0.10427788651E+03  0.73120573110E+03  0.76356454518E+03  0.18800000000E+03 0.  0.
<mgrwt>
<rscale>  0 0.48043048E+03</rscale>
<asrwt>0</asrwt>
<pdfrwt beam="1">  1        2 0.35720719E+00 0.48043048E+03</pdfrwt>
<pdfrwt beam="2">  1       -2 0.32967412E-02 0.48043048E+03</pdfrwt>
<totfact> 0.18127045E+03</totfact>
</mgrwt>
</event>
<event>
 4    1  0.5985962E-005  0.3983689E+03  0.7818608E-02  0.1044346E+00
          2   -1    0    0  501    0  0.00000000000E+00  0.00000000000E+00  0.34124744803E+03  0.34124744804E+03  0.25500000000E-02 0.  1.
         -2   -1    0    0    0  501 -0.00000000000E+00 -0.00000000000E+00 -0.11626297142E+03  0.11626297145E+03  0.25500000000E-02 0. -1.
    5000001    1    1    2    0    0 -0.15225624430E+02  0.60564784562E+02  0.88662621685E+02  0.21703680161E+03  0.18800000000E+03 0.  0.
   -5000001    1    1    2    0    0  0.15225624430E+02 -0.60564784562E+02  0.13632185492E+03  0.24047361788E+03  0.18800000000E+03 0.  0.
<mgrwt>
<rscale>  0 0.39836889E+03</rscale>
<asrwt>0</asrwt>
<pdfrwt beam="1">  1        2 0.48749635E-01 0.39836889E+03</pdfrwt>
<pdfrwt beam="2">  1       -2 0.16608996E-01 0.39836889E+03</pdfrwt>
<totfact> 0.29933216E+03</totfact>
</mgrwt>
</event>
<event>
 4    1  0.5985962E-005  0.5658473E+03  0.7818608E-02  0.9978910E-01
          2   -1    0    0  501    0  0.00000000000E+00  0.00000000000E+00  0.13610889244E+04  0.13610889244E+04  0.25500000000E-02 0.  1.
         -2   -1    0    0    0  501 -0.00000000000E+00 -0.00000000000E+00 -0.58810110074E+02  0.58810110129E+02  0.25500000000E-02 0. -1.
    5000001    1    1    2    0    0 -0.18646367044E+02 -0.18046851666E+03  0.37872691860E+03  0.46010287043E+03  0.18800000000E+03 0.  0.
   -5000001    1    1    2    0    0  0.18646367044E+02  0.18046851666E+03  0.92355189569E+03  0.95979616406E+03  0.18800000000E+03 0.  0.
<mgrwt>
<rscale>  0 0.56584729E+03</rscale>
<asrwt>0</asrwt>
<pdfrwt beam="1">  1        2 0.19444126E+00 0.56584729E+03</pdfrwt>
<pdfrwt beam="2">  1       -2 0.84014448E-02 0.56584729E+03</pdfrwt>
<totfact> 0.15983329E+03</totfact>
</mgrwt>
</event>
<event>
 4    1  0.5985962E-005  0.6211668E+03  0.7818608E-02  0.9862439E-01
          2   -1    0    0  501    0  0.00000000000E+00  0.00000000000E+00  0.21220890838E+04  0.21220890838E+04  0.25500000000E-02 0.  1.
         -2   -1    0    0    0  501 -0.00000000000E+00 -0.00000000000E+00 -0.45456179678E+02  0.45456179750E+02  0.25500000000E-02 0. -1.
    5000001    1    1    2    0    0  0.18130021588E+03 -0.14554565856E+03  0.13316140346E+04  0.13647685679E+04  0.18800000000E+03 0.  0.
   -5000001    1    1    2    0    0 -0.18130021588E+03  0.14554565856E+03  0.74501886953E+03  0.80277669558E+03  0.18800000000E+03 0.  0.
<mgrwt>
<rscale>  0 0.62116685E+03</rscale>
<asrwt>0</asrwt>
<pdfrwt beam="1">  1        2 0.30315556E+00 0.62116685E+03</pdfrwt>
<pdfrwt beam="2">  1       -2 0.64937405E-02 0.62116685E+03</pdfrwt>
<totfact> 0.98012728E+02</totfact>
</mgrwt>
</event>
<event>
 4    1  0.5985962E-005  0.5284903E+03  0.7818608E-02  0.1006599E+00
         -2   -1    0    0    0  501 -0.00000000000E+00  0.00000000000E+00  0.51997158848E+02  0.51997158911E+02  0.25500000000E-02 0. -1.
          2   -1    0    0  501    0  0.00000000000E+00 -0.00000000000E+00 -0.13428716220E+04  0.13428716220E+04  0.25500000000E-02 0.  1.
    5000001    1    1    2    0    0 -0.12734967375E+01 -0.18474837006E+03 -0.59620603361E+03  0.65187362007E+03  0.18800000000E+03 0.  0.
   -5000001    1    1    2    0    0  0.12734967375E+01  0.18474837006E+03 -0.69466842957E+03  0.74299516087E+03  0.18800000000E+03 0.  0.
<mgrwt>
<rscale>  0 0.52849034E+03</rscale>
<asrwt>0</asrwt>
<pdfrwt beam="1">  1        2 0.19183878E+00 0.52849034E+03</pdfrwt>
<pdfrwt beam="2">  1       -2 0.74281664E-02 0.52849034E+03</pdfrwt>
<totfact> 0.19896372E+03</totfact>
</mgrwt>
</event>
<event>
 4    1  0.5985962E-005  0.7841702E+03  0.7818608E-02  0.9583217E-01
          2   -1    0    0  501    0  0.00000000000E+00  0.00000000000E+00  0.43671225437E+04  0.43671225437E+04  0.25500000000E-02 0.  1.
         -2   -1    0    0    0  501 -0.00000000000E+00 -0.00000000000E+00 -0.35201838648E+02  0.35201838740E+02  0.25500000000E-02 0. -1.
    5000001    1    1    2    0    0  0.24401065918E+03 -0.23978363860E+03  0.23721817378E+04  0.24040856042E+04  0.18800000000E+03 0.  0.
   -5000001    1    1    2    0    0 -0.24401065918E+03  0.23978363860E+03  0.19597389672E+04  0.19982387782E+04  0.18800000000E+03 0.  0.
<mgrwt>
<rscale>  0 0.78417025E+03</rscale>
<asrwt>0</asrwt>
<pdfrwt beam="1">  1        2 0.62387422E+00 0.78417025E+03</pdfrwt>
<pdfrwt beam="2">  1       -2 0.50288375E-02 0.78417025E+03</pdfrwt>
<totfact> 0.69362151E+01</totfact>
</mgrwt>
</event>
<event>
 4    1  0.5985962E-005  0.5465989E+03  0.7818608E-02  0.1002284E+00
          2   -1    0    0  501    0  0.00000000000E+00  0.00000000000E+00  0.10549678834E+04  0.10549678834E+04  0.25500000000E-02 0.  1.
         -2   -1    0    0    0  501 -0.00000000000E+00 -0.00000000000E+00 -0.70800827428E+02  0.70800827474E+02  0.25500000000E-02 0. -1.
    5000001    1    1    2    0    0  0.98269697176E+02 -0.16748602822E+03  0.40867412094E+03  0.48996636635E+03  0.18800000000E+03 0.  0.
   -5000001    1    1    2    0    0 -0.98269697176E+02  0.16748602822E+03  0.57549293508E+03  0.63580234457E+03  0.18800000000E+03 0.  0.
<mgrwt>
<rscale>  0 0.54659894E+03</rscale>
<asrwt>0</asrwt>
<pdfrwt beam="1">  1        2 0.15070969E+00 0.54659894E+03</pdfrwt>
<pdfrwt beam="2">  1       -2 0.10114405E-01 0.54659894E+03</pdfrwt>
<totfact> 0.17597070E+03</totfact>
</mgrwt>
</event>
<event>
 4    1  0.5985962E-005  0.5851435E+03  0.7818608E-02  0.9936717E-01
          2   -1    0    0  501    0  0.00000000000E+00  0.00000000000E+00  0.12879868136E+04  0.12879868136E+04  0.25500000000E-02 0.  1.
         -2   -1    0    0    0  501 -0.00000000000E+00 -0.00000000000E+00 -0.66458926188E+02  0.66458926237E+02  0.25500000000E-02 0. -1.
    5000001    1    1    2    0    0 -0.16102085700E+02 -0.21307176975E+03  0.45385083579E+03  0.53570835104E+03  0.18800000000E+03 0.  0.
   -5000001    1    1    2    0    0  0.16102085700E+02  0.21307176975E+03  0.76767705165E+03  0.81873738883E+03  0.18800000000E+03 0.  0.
<mgrwt>
<rscale>  0 0.58514347E+03</rscale>
<asrwt>0</asrwt>
<pdfrwt beam="1">  1        2 0.18399811E+00 0.58514347E+03</pdfrwt>
<pdfrwt beam="2">  1       -2 0.94941327E-02 0.58514347E+03</pdfrwt>
<totfact> 0.14376602E+03</totfact>
</mgrwt>
</event>
<event>
 4    1  0.5985962E-005  0.1037127E+04  0.7818608E-02  0.9268736E-01
          2   -1    0    0  501    0  0.00000000000E+00  0.00000000000E+00  0.66214046012E+03  0.66214046012E+03  0.25500000000E-02 0.  1.
         -2   -1    0    0    0  501 -0.00000000000E+00 -0.00000000000E+00 -0.40611948307E+03  0.40611948307E+03  0.25500000000E-02 0. -1.
    5000001    1    1    2    0    0 -0.44653883233E+03 -0.64140752658E+02 -0.50551972676E+02  0.49133539143E+03  0.18800000000E+03 0.  0.
   -5000001    1    1    2    0    0  0.44653883233E+03  0.64140752658E+02  0.30657294973E+03  0.57692455177E+03  0.18800000000E+03 0.  0.
<mgrwt>
<rscale>  0 0.10371271E+04</rscale>
<asrwt>0</asrwt>
<pdfrwt beam="1">  1        2 0.94591493E-01 0.10371271E+04</pdfrwt>
<pdfrwt beam="2">  1       -2 0.58017070E-01 0.10371271E+04</pdfrwt>
<totfact> 0.13356467E+02</totfact>
</mgrwt>
</event>
<event>
 4    1  0.5985962E-005  0.1047435E+04  0.7818608E-02  0.9257996E-01
         -2   -1    0    0    0  501 -0.00000000000E+00  0.00000000000E+00  0.12106347011E+03  0.12106347014E+03  0.25500000000E-02 0. -1.
          2   -1    0    0  501    0  0.00000000000E+00 -0.00000000000E+00 -0.22655905009E+04  0.22655905009E+04  0.25500000000E-02 0.  1.
    5000001    1    1    2    0    0  0.40209530726E+03 -0.20713933525E+03 -0.64996587005E+03  0.81387159464E+03  0.18800000000E+03 0.  0.
   -5000001    1    1    2    0    0 -0.40209530726E+03  0.20713933525E+03 -0.14945611607E+04  0.15727823764E+04  0.18800000000E+03 0.  0.
<mgrwt>
<rscale>  0 0.10474354E+04</rscale>
<asrwt>0</asrwt>
<pdfrwt beam="1">  1        2 0.32365576E+00 0.10474354E+04</pdfrwt>
<pdfrwt beam="2">  1       -2 0.17294783E-01 0.10474354E+04</pdfrwt>
<totfact> 0.16103374E+02</totfact>
</mgrwt>
</event>
<event>
 4    1  0.5985962E-005  0.5881132E+03  0.7818608E-02  0.9930379E-01
         -2   -1    0    0    0  501 -0.00000000000E+00  0.00000000000E+00  0.26841699514E+02  0.26841699636E+02  0.25500000000E-02 0. -1.
          2   -1    0    0  501    0  0.00000000000E+00 -0.00000000000E+00 -0.32214536649E+04  0.32214536649E+04  0.25500000000E-02 0.  1.
    5000001    1    1    2    0    0  0.13906480128E+03 -0.13770663888E+03 -0.22227551197E+04  0.22392602483E+04  0.18800000000E+03 0.  0.
   -5000001    1    1    2    0    0 -0.13906480128E+03  0.13770663888E+03 -0.97185684568E+03  0.10090351163E+04  0.18800000000E+03 0.  0.
<mgrwt>
<rscale>  0 0.58811323E+03</rscale>
<asrwt>0</asrwt>
<pdfrwt beam="1">  1        2 0.46020742E+00 0.58811323E+03</pdfrwt>
<pdfrwt beam="2">  1       -2 0.38345305E-02 0.58811323E+03</pdfrwt>
<totfact> 0.58852558E+02</totfact>
</mgrwt>
</event>
<event>
 4    1  0.5985962E-005  0.4107644E+03  0.7818608E-02  0.1040115E+00
          2   -1    0    0  501    0  0.00000000000E+00  0.00000000000E+00  0.16340060606E+04  0.16340060606E+04  0.25500000000E-02 0.  1.
         -2   -1    0    0    0  501 -0.00000000000E+00 -0.00000000000E+00 -0.25814991013E+02  0.25814991139E+02  0.25500000000E-02 0. -1.
    5000001    1    1    2    0    0  0.71379833738E+02  0.36795803403E+02  0.72441468550E+03  0.75270820932E+03  0.18800000000E+03 0.  0.
   -5000001    1    1    2    0    0 -0.71379833738E+02 -0.36795803403E+02  0.88377638409E+03  0.90711284242E+03  0.18800000000E+03 0.  0.
<mgrwt>
<rscale>  0 0.41076442E+03</rscale>
<asrwt>0</asrwt>
<pdfrwt beam="1">  1        2 0.23342944E+00 0.41076442E+03</pdfrwt>
<pdfrwt beam="2">  1       -2 0.36878558E-02 0.41076442E+03</pdfrwt>
<totfact> 0.41582226E+03</totfact>
</mgrwt>
</event>
<event>
 4    1  0.5985962E-005  0.8557984E+03  0.7818608E-02  0.9482587E-01
          2   -1    0    0  501    0  0.00000000000E+00  0.00000000000E+00  0.11681528634E+04  0.11681528634E+04  0.25500000000E-02 0.  1.
         -2   -1    0    0    0  501 -0.00000000000E+00 -0.00000000000E+00 -0.15674123189E+03  0.15674123191E+03  0.25500000000E-02 0. -1.
    5000001    1    1    2    0    0  0.35413438221E+03 -0.12069028801E+03  0.36918485087E+03  0.55822823325E+03  0.18800000000E+03 0.  0.
   -5000001    1    1    2    0    0 -0.35413438221E+03  0.12069028801E+03  0.64222678067E+03  0.76666586209E+03  0.18800000000E+03 0.  0.
<mgrwt>
<rscale>  0 0.85579838E+03</rscale>
<asrwt>0</asrwt>
<pdfrwt beam="1">  1        2 0.16687898E+00 0.85579838E+03</pdfrwt>
<pdfrwt beam="2">  1       -2 0.22391605E-01 0.85579838E+03</pdfrwt>
<totfact> 0.39009734E+02</totfact>
</mgrwt>
</event>
<event>
 4    1  0.5985962E-005  0.5675352E+03  0.7818608E-02  0.9975148E-01
          2   -1    0    0  501    0  0.00000000000E+00  0.00000000000E+00  0.14681912393E+04  0.14681912393E+04  0.25500000000E-02 0.  1.
         -2   -1    0    0    0  501 -0.00000000000E+00 -0.00000000000E+00 -0.54845755682E+02  0.54845755741E+02  0.25500000000E-02 0. -1.
    5000001    1    1    2    0    0 -0.46799045478E+02  0.20104360454E+03  0.84275467254E+03  0.88779959432E+03  0.18800000000E+03 0.  0.
   -5000001    1    1    2    0    0  0.46799045478E+02 -0.20104360454E+03  0.57059081103E+03  0.63523740068E+03  0.18800000000E+03 0.  0.
<mgrwt>
<rscale>  0 0.56753523E+03</rscale>
<asrwt>0</asrwt>
<pdfrwt beam="1">  1        2 0.20974162E+00 0.56753523E+03</pdfrwt>
<pdfrwt beam="2">  1       -2 0.78351074E-02 0.56753523E+03</pdfrwt>
<totfact> 0.15679757E+03</totfact>
</mgrwt>
</event>
<event>
 4    1  0.5985962E-005  0.8218875E+03  0.7818608E-02  0.9528865E-01
         -2   -1    0    0    0  501 -0.00000000000E+00  0.00000000000E+00  0.93677375767E+02  0.93677375802E+02  0.25500000000E-02 0. -1.
          2   -1    0    0  501    0  0.00000000000E+00 -0.00000000000E+00 -0.18027274316E+04  0.18027274316E+04  0.25500000000E-02 0.  1.
    5000001    1    1    2    0    0 -0.23748537121E+03 -0.31641568765E+02 -0.14911701076E+04  0.15219503212E+04  0.18800000000E+03 0.  0.
   -5000001    1    1    2    0    0  0.23748537121E+03  0.31641568765E+02 -0.21787994830E+03  0.37445448627E+03  0.18800000000E+03 0.  0.
<mgrwt>
<rscale>  0 0.82188752E+03</rscale>
<asrwt>0</asrwt>
<pdfrwt beam="1">  1        2 0.25753247E+00 0.82188752E+03</pdfrwt>
<pdfrwt beam="2">  1       -2 0.13382483E-01 0.82188752E+03</pdfrwt>
<totfact> 0.43544853E+02</totfact>
</mgrwt>
</event>
<event>
 4    1  0.5985962E-005  0.4861757E+03  0.7818608E-02  0.1017452E+00
         -2   -1    0    0    0  501 -0.00000000000E+00  0.00000000000E+00  0.21775485144E+03  0.21775485146E+03  0.25500000000E-02 0. -1.
          2   -1    0    0  501    0  0.00000000000E+00 -0.00000000000E+00 -0.27136796680E+03  0.27136796682E+03  0.25500000000E-02 0.  1.
    5000001    1    1    2    0    0  0.11955443752E+03 -0.72710862780E+02  0.38141408356E+02  0.23744241434E+03  0.18800000000E+03 0.  0.
   -5000001    1    1    2    0    0 -0.11955443752E+03  0.72710862780E+02 -0.91754523720E+02  0.25168040393E+03  0.18800000000E+03 0.  0.
<mgrwt>
<rscale>  0 0.48617565E+03</rscale>
<asrwt>0</asrwt>
<pdfrwt beam="1">  1        2 0.38766852E-01 0.48617565E+03</pdfrwt>
<pdfrwt beam="2">  1       -2 0.31107836E-01 0.48617565E+03</pdfrwt>
<totfact> 0.12752406E+03</totfact>
</mgrwt>
</event>
<event>
 4    1  0.5985962E-005  0.8380513E+03  0.7818608E-02  0.9506516E-01
          2   -1    0    0  501    0  0.00000000000E+00  0.00000000000E+00  0.41381000254E+03  0.41381000255E+03  0.25500000000E-02 0.  1.
         -2   -1    0    0    0  501 -0.00000000000E+00 -0.00000000000E+00 -0.42430700954E+03  0.42430700954E+03  0.25500000000E-02 0. -1.
    5000001    1    1    2    0    0  0.36287115392E+03  0.17948372960E+02 -0.96034841418E+02  0.42019556067E+03  0.18800000000E+03 0.  0.
   -5000001    1    1    2    0    0 -0.36287115392E+03 -0.17948372960E+02  0.85537834420E+02  0.41792145142E+03  0.18800000000E+03 0.  0.
<mgrwt>
<rscale>  0 0.83805127E+03</rscale>
<asrwt>0</asrwt>
<pdfrwt beam="1">  1        2 0.59115714E-01 0.83805127E+03</pdfrwt>
<pdfrwt beam="2">  1       -2 0.60615287E-01 0.83805127E+03</pdfrwt>
<totfact> 0.21222989E+02</totfact>
</mgrwt>
</event>
<event>
 4    1  0.5985962E-005  0.7097676E+03  0.7818608E-02  0.9700673E-01
         -2   -1    0    0    0  501 -0.00000000000E+00  0.00000000000E+00  0.42059608155E+02  0.42059608232E+02  0.25500000000E-02 0. -1.
          2   -1    0    0  501    0  0.00000000000E+00 -0.00000000000E+00 -0.29943815494E+04  0.29943815494E+04  0.25500000000E-02 0.  1.
    5000001    1    1    2    0    0  0.20588227525E+03 -0.21608590320E+03 -0.16428351255E+04  0.16802773219E+04  0.18800000000E+03 0.  0.
   -5000001    1    1    2    0    0 -0.20588227525E+03  0.21608590320E+03 -0.13094868158E+04  0.13561638358E+04  0.18800000000E+03 0.  0.
<mgrwt>
<rscale>  0 0.70976761E+03</rscale>
<asrwt>0</asrwt>
<pdfrwt beam="1">  1        2 0.42776866E+00 0.70976761E+03</pdfrwt>
<pdfrwt beam="2">  1       -2 0.60085174E-02 0.70976761E+03</pdfrwt>
<totfact> 0.38706287E+02</totfact>
</mgrwt>
</event>
<event>
 4    1  0.5985962E-005  0.3914435E+03  0.7818608E-02  0.1046783E+00
          2   -1    0    0  501    0  0.00000000000E+00  0.00000000000E+00  0.85638093770E+03  0.85638093770E+03  0.25500000000E-02 0.  1.
         -2   -1    0    0    0  501 -0.00000000000E+00 -0.00000000000E+00 -0.44731267823E+02  0.44731267895E+02  0.25500000000E-02 0. -1.
    5000001    1    1    2    0    0  0.40621754997E+02 -0.14805452899E+02  0.48195455926E+03  0.51912765829E+03  0.18800000000E+03 0.  0.
   -5000001    1    1    2    0    0 -0.40621754997E+02  0.14805452899E+02  0.32969511062E+03  0.38198454730E+03  0.18800000000E+03 0.  0.
<mgrwt>
<rscale>  0 0.39144351E+03</rscale>
<asrwt>0</asrwt>
<pdfrwt beam="1">  1        2 0.12234012E+00 0.39144351E+03</pdfrwt>
<pdfrwt beam="2">  1       -2 0.63901817E-02 0.39144351E+03</pdfrwt>
<totfact> 0.48311523E+03</totfact>
</mgrwt>
</event>
<event>
 4    1  0.5985962E-005  0.4757698E+03  0.7818608E-02  0.1020304E+00
         -2   -1    0    0    0  501 -0.00000000000E+00  0.00000000000E+00  0.62921306002E+03  0.62921306003E+03  0.25500000000E-02 0. -1.
          2   -1    0    0  501    0  0.00000000000E+00 -0.00000000000E+00 -0.89936520181E+02  0.89936520217E+02  0.25500000000E-02 0.  1.
    5000001    1    1    2    0    0  0.10866053078E+03  0.90681107931E+02  0.21694914578E+03  0.32006422190E+03  0.18800000000E+03 0.  0.
   -5000001    1    1    2    0    0 -0.10866053078E+03 -0.90681107931E+02  0.32232739406E+03  0.39908535835E+03  0.18800000000E+03 0.  0.
<mgrwt>
<rscale>  0 0.47576983E+03</rscale>
<asrwt>0</asrwt>
<pdfrwt beam="1">  1        2 0.12848074E-01 0.47576983E+03</pdfrwt>
<pdfrwt beam="2">  1       -2 0.89887579E-01 0.47576983E+03</pdfrwt>
<totfact> 0.51840261E+02</totfact>
</mgrwt>
</event>
<event>
 4    1  0.5985962E-005  0.6713340E+03  0.7818608E-02  0.9767551E-01
          2   -1    0    0  501    0  0.00000000000E+00  0.00000000000E+00  0.45832401088E+03  0.45832401089E+03  0.25500000000E-02 0.  1.
         -2   -1    0    0    0  501 -0.00000000000E+00 -0.00000000000E+00 -0.24583553518E+03  0.24583553519E+03  0.25500000000E-02 0. -1.
    5000001    1    1    2    0    0 -0.44043961233E+02 -0.26163508017E+03  0.19359620088E+03  0.37843926156E+03  0.18800000000E+03 0.  0.
   -5000001    1    1    2    0    0  0.44043961233E+02  0.26163508017E+03  0.18892274826E+02  0.32572028452E+03  0.18800000000E+03 0.  0.
<mgrwt>
<rscale>  0 0.67133398E+03</rscale>
<asrwt>0</asrwt>
<pdfrwt beam="1">  1        2 0.65474858E-01 0.67133398E+03</pdfrwt>
<pdfrwt beam="2">  1       -2 0.35119363E-01 0.67133398E+03</pdfrwt>
<totfact> 0.56760600E+02</totfact>
</mgrwt>
</event>
<event>
 4    1  0.5985962E-005  0.8248410E+03  0.7818608E-02  0.9524741E-01
         -2   -1    0    0    0  501 -0.00000000000E+00  0.00000000000E+00  0.20580627541E+03  0.20580627542E+03  0.25500000000E-02 0. -1.
          2   -1    0    0  501    0  0.00000000000E+00 -0.00000000000E+00 -0.82646003666E+03  0.82646003666E+03  0.25500000000E-02 0.  1.
    5000001    1    1    2    0    0  0.35369624594E+03 -0.83999400212E+00 -0.18742150405E+03  0.44223586486E+03  0.18800000000E+03 0.  0.
   -5000001    1    1    2    0    0 -0.35369624594E+03  0.83999400212E+00 -0.43323225720E+03  0.59003044723E+03  0.18800000000E+03 0.  0.
<mgrwt>
<rscale>  0 0.82484098E+03</rscale>
<asrwt>0</asrwt>
<pdfrwt beam="1">  1        2 0.11806572E+00 0.82484098E+03</pdfrwt>
<pdfrwt beam="2">  1       -2 0.29400897E-01 0.82484098E+03</pdfrwt>
<totfact> 0.38861807E+02</totfact>
</mgrwt>
</event>
<event>
 4    1  0.5985962E-005  0.7249873E+03  0.7818608E-02  0.9675430E-01
         -2   -1    0    0    0  501 -0.00000000000E+00  0.00000000000E+00  0.30668915843E+02  0.30668915949E+02  0.25500000000E-02 0. -1.
          2   -1    0    0  501    0  0.00000000000E+00 -0.00000000000E+00 -0.42845216729E+04  0.42845216729E+04  0.25500000000E-02 0.  1.
    5000001    1    1    2    0    0  0.23687478767E+03  0.19393360946E+03 -0.24147101542E+04  0.24412883973E+04  0.18800000000E+03 0.  0.
   -5000001    1    1    2    0    0 -0.23687478767E+03 -0.19393360946E+03 -0.18391426029E+04  0.18739021916E+04  0.18800000000E+03 0.  0.
<mgrwt>
<rscale>  0 0.72498727E+03</rscale>
<asrwt>0</asrwt>
<pdfrwt beam="1">  1        2 0.61207414E+00 0.72498727E+03</pdfrwt>
<pdfrwt beam="2">  1       -2 0.43812764E-02 0.72498727E+03</pdfrwt>
<totfact> 0.99714451E+01</totfact>
</mgrwt>
</event>
<event>
 4    1  0.5985962E-005  0.6583143E+03  0.7818608E-02  0.9791302E-01
          2   -1    0    0  501    0  0.00000000000E+00  0.00000000000E+00  0.89272687468E+03  0.89272687468E+03  0.25500000000E-02 0.  1.
         -2   -1    0    0    0  501 -0.00000000000E+00 -0.00000000000E+00 -0.12136347879E+03  0.12136347881E+03  0.25500000000E-02 0. -1.
    5000001    1    1    2    0    0  0.14707974942E+03 -0.20892106647E+03  0.25033387521E+03  0.40409344684E+03  0.18800000000E+03 0.  0.
   -5000001    1    1    2    0    0 -0.14707974942E+03  0.20892106647E+03  0.52102952068E+03  0.60999690665E+03  0.18800000000E+03 0.  0.
<mgrwt>
<rscale>  0 0.65831433E+03</rscale>
<asrwt>0</asrwt>
<pdfrwt beam="1">  1        2 0.12753241E+00 0.65831433E+03</pdfrwt>
<pdfrwt beam="2">  1       -2 0.17337639E-01 0.65831433E+03</pdfrwt>
<totfact> 0.90272315E+02</totfact>
</mgrwt>
</event>
<event>
 4    1  0.5985962E-005  0.1226601E+04  0.7818608E-02  0.9089886E-01
          2   -1    0    0  501    0  0.00000000000E+00  0.00000000000E+00  0.43280397980E+04  0.43280397980E+04  0.25500000000E-02 0.  1.
         -2   -1    0    0    0  501 -0.00000000000E+00 -0.00000000000E+00 -0.86907163203E+02  0.86907163240E+02  0.25500000000E-02 0. -1.
    5000001    1    1    2    0    0 -0.30124990598E+03 -0.32119453113E+03  0.74114211654E+03  0.88235654335E+03  0.18800000000E+03 0.  0.
   -5000001    1    1    2    0    0  0.30124990598E+03  0.32119453113E+03  0.34999905182E+04  0.35325904179E+04  0.18800000000E+03 0.  0.
<mgrwt>
<rscale>  0 0.12266013E+04</rscale>
<asrwt>0</asrwt>
<pdfrwt beam="1">  1        2 0.61829135E+00 0.12266013E+04</pdfrwt>
<pdfrwt beam="2">  1       -2 0.12415310E-01 0.12266013E+04</pdfrwt>
<totfact> 0.16338155E+01</totfact>
</mgrwt>
</event>
<event>
 4    1  0.5985962E-005  0.5674746E+03  0.7818608E-02  0.9975283E-01
          2   -1    0    0  501    0  0.00000000000E+00  0.00000000000E+00  0.19817678056E+03  0.19817678057E+03  0.25500000000E-02 0. -1.
         -2   -1    0    0    0  501 -0.00000000000E+00 -0.00000000000E+00 -0.40623759040E+03  0.40623759041E+03  0.25500000000E-02 0.  1.
    5000001    1    1    2    0    0  0.10282096175E+03  0.14089000455E+03 -0.23334502011E+03  0.34672185101E+03  0.18800000000E+03 0.  0.
   -5000001    1    1    2    0    0 -0.10282096175E+03 -0.14089000455E+03  0.25284210271E+02  0.25769251997E+03  0.18800000000E+03 0.  0.
<mgrwt>
<rscale>  0 0.56747461E+03</rscale>
<asrwt>0</asrwt>
<pdfrwt beam="1">  1        2 0.28310969E-01 0.56747461E+03</pdfrwt>
<pdfrwt beam="2">  1       -2 0.58033941E-01 0.56747461E+03</pdfrwt>
<totfact> 0.53229030E+02</totfact>
</mgrwt>
</event>
<event>
 4    1  0.5985962E-005  0.6193477E+03  0.7818608E-02  0.9866059E-01
         -2   -1    0    0    0  501 -0.00000000000E+00  0.00000000000E+00  0.15647325469E+03  0.15647325471E+03  0.25500000000E-02 0. -1.
          2   -1    0    0  501    0  0.00000000000E+00 -0.00000000000E+00 -0.61287087458E+03  0.61287087459E+03  0.25500000000E-02 0.  1.
    5000001    1    1    2    0    0  0.84296517112E+02  0.16150695253E+03 -0.22717683678E+02  0.26277460239E+03  0.18800000000E+03 0.  0.
   -5000001    1    1    2    0    0 -0.84296517112E+02 -0.16150695253E+03 -0.43367993622E+03  0.50656952690E+03  0.18800000000E+03 0.  0.
<mgrwt>
<rscale>  0 0.61934772E+03</rscale>
<asrwt>0</asrwt>
<pdfrwt beam="1">  1        2 0.87552981E-01 0.61934772E+03</pdfrwt>
<pdfrwt beam="2">  1       -2 0.22353322E-01 0.61934772E+03</pdfrwt>
<totfact> 0.92954705E+02</totfact>
</mgrwt>
</event>
<event>
 4    1  0.5985962E-005  0.6698953E+03  0.7818608E-02  0.9770147E-01
          2   -1    0    0  501    0  0.00000000000E+00  0.00000000000E+00  0.96475275748E+02  0.96475275781E+02  0.25500000000E-02 0.  1.
         -2   -1    0    0    0  501 -0.00000000000E+00 -0.00000000000E+00 -0.11628877868E+04  0.11628877868E+04  0.25500000000E-02 0. -1.
    5000001    1    1    2    0    0  0.14739885586E+03 -0.40951013302E+02 -0.96780399901E+03  0.99769333400E+03  0.18800000000E+03 0.  0.
   -5000001    1    1    2    0    0 -0.14739885586E+03  0.40951013302E+02 -0.98608512004E+02  0.26166972855E+03  0.18800000000E+03 0.  0.
<mgrwt>
<rscale>  0 0.66989528E+03</rscale>
<asrwt>0</asrwt>
<pdfrwt beam="1">  1        2 0.13782183E-01 0.66989528E+03</pdfrwt>
<pdfrwt beam="2">  1       -2 0.16612682E+00 0.66989528E+03</pdfrwt>
<totfact> 0.10271532E+02</totfact>
</mgrwt>
</event>
<event>
 4    1  0.5985962E-005  0.5118312E+03  0.7818608E-02  0.1010736E+00
         -2   -1    0    0    0  501 -0.00000000000E+00  0.00000000000E+00  0.59162286642E+02  0.59162286697E+02  0.25500000000E-02 0. -1.
          2   -1    0    0  501    0  0.00000000000E+00 -0.00000000000E+00 -0.11070024610E+04  0.11070024610E+04  0.25500000000E-02 0.  1.
    5000001    1    1    2    0    0  0.71257084697E+02 -0.90317635286E+02 -0.82023646765E+03  0.84933309734E+03  0.18800000000E+03 0.  0.
   -5000001    1    1    2    0    0 -0.71257084697E+02  0.90317635286E+02 -0.22760370669E+03  0.31683165034E+03  0.18800000000E+03 0.  0.
<mgrwt>
<rscale>  0 0.51183121E+03</rscale>
<asrwt>0</asrwt>
<pdfrwt beam="1">  1        2 0.15814320E+00 0.51183121E+03</pdfrwt>
<pdfrwt beam="2">  1       -2 0.84517559E-02 0.51183121E+03</pdfrwt>
<totfact> 0.21903968E+03</totfact>
</mgrwt>
</event>
<event>
 4    1  0.5985962E-005  0.7478560E+03  0.7818608E-02  0.9638720E-01
         -2   -1    0    0    0  501 -0.00000000000E+00  0.00000000000E+00  0.13511039773E+03  0.13511039775E+03  0.25500000000E-02 0. -1.
          2   -1    0    0  501    0  0.00000000000E+00 -0.00000000000E+00 -0.10348732856E+04  0.10348732856E+04  0.25500000000E-02 0.  1.
    5000001    1    1    2    0    0 -0.88825146826E+02  0.30042658995E+03 -0.57437178832E+03  0.68072975099E+03  0.18800000000E+03 0.  0.
   -5000001    1    1    2    0    0  0.88825146826E+02 -0.30042658995E+03 -0.32539109953E+03  0.48925393234E+03  0.18800000000E+03 0.  0.
<mgrwt>
<rscale>  0 0.74785598E+03</rscale>
<asrwt>0</asrwt>
<pdfrwt beam="1">  1        2 0.14783904E+00 0.74785598E+03</pdfrwt>
<pdfrwt beam="2">  1       -2 0.19301486E-01 0.74785598E+03</pdfrwt>
<totfact> 0.60943684E+02</totfact>
</mgrwt>
</event>
<event>
 4    1  0.5985962E-005  0.5897846E+03  0.7818608E-02  0.9926829E-01
         -2   -1    0    0    0  501 -0.00000000000E+00  0.00000000000E+00  0.54075830372E+02  0.54075830432E+02  0.25500000000E-02 0. -1.
          2   -1    0    0  501    0  0.00000000000E+00 -0.00000000000E+00 -0.16081390813E+04  0.16081390813E+04  0.25500000000E-02 0.  1.
    5000001    1    1    2    0    0  0.85180273017E+02 -0.16965643896E+03 -0.11287995028E+04  0.11599876309E+04  0.18800000000E+03 0.  0.
   -5000001    1    1    2    0    0 -0.85180273017E+02  0.16965643896E+03 -0.42526374808E+03  0.50222728084E+03  0.18800000000E+03 0.  0.
<mgrwt>
<rscale>  0 0.58978456E+03</rscale>
<asrwt>0</asrwt>
<pdfrwt beam="1">  1        2 0.22973412E+00 0.58978456E+03</pdfrwt>
<pdfrwt beam="2">  1       -2 0.77251196E-02 0.58978456E+03</pdfrwt>
<totfact> 0.13561669E+03</totfact>
</mgrwt>
</event>
<event>
 4    1  0.5985962E-005  0.5000656E+03  0.7818608E-02  0.1013762E+00
          2   -1    0    0  501    0  0.00000000000E+00  0.00000000000E+00  0.95935411924E+03  0.95935411925E+03  0.25500000000E-02 0. -1.
         -2   -1    0    0    0  501 -0.00000000000E+00 -0.00000000000E+00 -0.65165086837E+02  0.65165086887E+02  0.25500000000E-02 0.  1.
    5000001    1    1    2    0    0  0.11497992584E+03 -0.89631753116E+02  0.60470550670E+03  0.64982073247E+03  0.18800000000E+03 0.  0.
   -5000001    1    1    2    0    0 -0.11497992584E+03  0.89631753116E+02  0.28948352570E+03  0.37469847366E+03  0.18800000000E+03 0.  0.
<mgrwt>
<rscale>  0 0.50006557E+03</rscale>
<asrwt>0</asrwt>
<pdfrwt beam="1">  1        2 0.13705059E+00 0.50006557E+03</pdfrwt>
<pdfrwt beam="2">  1       -2 0.93092983E-02 0.50006557E+03</pdfrwt>
<totfact> 0.22985729E+03</totfact>
</mgrwt>
</event>
<event>
 4    1  0.5985962E-005  0.5419783E+03  0.7818608E-02  0.1003368E+00
         -2   -1    0    0    0  501 -0.00000000000E+00  0.00000000000E+00  0.93391174853E+02  0.93391174888E+02  0.25500000000E-02 0.  1.
          2   -1    0    0  501    0  0.00000000000E+00 -0.00000000000E+00 -0.78631758079E+03  0.78631758079E+03  0.25500000000E-02 0. -1.
    5000001    1    1    2    0    0  0.12786578090E+03  0.10032749408E+03 -0.17107457864E+03  0.30170478195E+03  0.18800000000E+03 0.  0.
   -5000001    1    1    2    0    0 -0.12786578090E+03 -0.10032749408E+03 -0.52185182730E+03  0.57800397373E+03  0.18800000000E+03 0.  0.
<mgrwt>
<rscale>  0 0.54197831E+03</rscale>
<asrwt>0</asrwt>
<pdfrwt beam="1">  1        2 0.11233108E+00 0.54197831E+03</pdfrwt>
<pdfrwt beam="2">  1       -2 0.13341597E-01 0.54197831E+03</pdfrwt>
<totfact> 0.16592132E+03</totfact>
</mgrwt>
</event>
<event>
 4    1  0.5985962E-005  0.5719607E+03  0.7818608E-02  0.9965349E-01
          2   -1    0    0  501    0  0.00000000000E+00  0.00000000000E+00  0.22239570909E+03  0.22239570911E+03  0.25500000000E-02 0.  1.
         -2   -1    0    0    0  501 -0.00000000000E+00 -0.00000000000E+00 -0.36774435296E+03  0.36774435297E+03  0.25500000000E-02 0. -1.
    5000001    1    1    2    0    0  0.53165296517E+02 -0.18417671585E+03  0.28908779227E+02  0.27005060439E+03  0.18800000000E+03 0.  0.
   -5000001    1    1    2    0    0 -0.53165296517E+02  0.18417671585E+03 -0.17425742309E+03  0.32008945768E+03  0.18800000000E+03 0.  0.
<mgrwt>
<rscale>  0 0.57196072E+03</rscale>
<asrwt>0</asrwt>
<pdfrwt beam="1">  1        2 0.31770816E-01 0.57196072E+03</pdfrwt>
<pdfrwt beam="2">  1       -2 0.52534908E-01 0.57196072E+03</pdfrwt>
<totfact> 0.57439798E+02</totfact>
</mgrwt>
</event>
<event>
 4    1  0.5985962E-005  0.6919073E+03  0.7818608E-02  0.9731173E-01
          2   -1    0    0  501    0  0.00000000000E+00  0.00000000000E+00  0.20282925902E+03  0.20282925903E+03  0.25500000000E-02 0.  1.
         -2   -1    0    0    0  501 -0.00000000000E+00 -0.00000000000E+00 -0.59007232982E+03  0.59007232982E+03  0.25500000000E-02 0. -1.
    5000001    1    1    2    0    0 -0.27700271374E+03  0.64435014515E+01 -0.29331332268E+03  0.44513899784E+03  0.18800000000E+03 0.  0.
   -5000001    1    1    2    0    0  0.27700271374E+03 -0.64435014515E+01 -0.93929748118E+02  0.34776259102E+03  0.18800000000E+03 0.  0.
<mgrwt>
<rscale>  0 0.69190732E+03</rscale>
<asrwt>0</asrwt>
<pdfrwt beam="1">  1        2 0.28975609E-01 0.69190732E+03</pdfrwt>
<pdfrwt beam="2">  1       -2 0.84296047E-01 0.69190732E+03</pdfrwt>
<totfact> 0.22953557E+02</totfact>
</mgrwt>
</event>
<event>
 4    1  0.5985962E-005  0.4607570E+03  0.7818608E-02  0.1024562E+00
          2   -1    0    0  501    0  0.00000000000E+00  0.00000000000E+00  0.21951864828E+03  0.21951864829E+03  0.25500000000E-02 0.  1.
         -2   -1    0    0    0  501 -0.00000000000E+00 -0.00000000000E+00 -0.24177560303E+03  0.24177560305E+03  0.25500000000E-02 0. -1.
    5000001    1    1    2    0    0  0.10058439716E+02 -0.97085969915E+02 -0.10180668612E+03  0.23502225236E+03  0.18800000000E+03 0.  0.
   -5000001    1    1    2    0    0 -0.10058439716E+02  0.97085969915E+02  0.79549731364E+02  0.22627199898E+03  0.18800000000E+03 0.  0.
<mgrwt>
<rscale>  0 0.46075700E+03</rscale>
<asrwt>0</asrwt>
<pdfrwt beam="1">  1        2 0.31359807E-01 0.46075700E+03</pdfrwt>
<pdfrwt beam="2">  1       -2 0.34539372E-01 0.46075700E+03</pdfrwt>
<totfact> 0.13259317E+03</totfact>
</mgrwt>
</event>
<event>
 4    1  0.5985962E-005  0.4942129E+03  0.7818608E-02  0.1015301E+00
          2   -1    0    0  501    0  0.00000000000E+00  0.00000000000E+00  0.18715709697E+03  0.18715709699E+03  0.25500000000E-02 0.  1.
         -2   -1    0    0    0  501 -0.00000000000E+00 -0.00000000000E+00 -0.32625851831E+03  0.32625851832E+03  0.25500000000E-02 0. -1.
    5000001    1    1    2    0    0  0.59378422185E+02 -0.14684108859E+03 -0.95615311859E+02  0.26376957781E+03  0.18800000000E+03 0.  0.
   -5000001    1    1    2    0    0 -0.59378422185E+02  0.14684108859E+03 -0.43486109475E+02  0.24964603749E+03  0.18800000000E+03 0.  0.
<mgrwt>
<rscale>  0 0.49421290E+03</rscale>
<asrwt>0</asrwt>
<pdfrwt beam="1">  1        2 0.26736728E-01 0.49421290E+03</pdfrwt>
<pdfrwt beam="2">  1       -2 0.46608360E-01 0.49421290E+03</pdfrwt>
<totfact> 0.88813520E+02</totfact>
</mgrwt>
</event>
<event>
 4    1  0.5985962E-005  0.6955743E+03  0.7818608E-02  0.9724831E-01
          2   -1    0    0  501    0  0.00000000000E+00  0.00000000000E+00  0.23933259227E+03  0.23933259228E+03  0.25500000000E-02 0.  1.
         -2   -1    0    0    0  501 -0.00000000000E+00 -0.00000000000E+00 -0.50538830739E+03  0.50538830739E+03  0.25500000000E-02 0. -1.
    5000001    1    1    2    0    0  0.15000937358E+03 -0.64702424246E+02 -0.39291887355E+03  0.46520797183E+03  0.18800000000E+03 0.  0.
   -5000001    1    1    2    0    0 -0.15000937358E+03  0.64702424246E+02  0.12686315843E+03  0.27951292784E+03  0.18800000000E+03 0.  0.
<mgrwt>
<rscale>  0 0.69557428E+03</rscale>
<asrwt>0</asrwt>
<pdfrwt beam="1">  1        2 0.34190371E-01 0.69557428E+03</pdfrwt>
<pdfrwt beam="2">  1       -2 0.72198329E-01 0.69557428E+03</pdfrwt>
<totfact> 0.26922656E+02</totfact>
</mgrwt>
</event>
<event>
 4    1  0.5985962E-005  0.4827406E+03  0.7818608E-02  0.1018385E+00
         -2   -1    0    0    0  501 -0.00000000000E+00  0.00000000000E+00  0.26173394188E+03  0.26173394189E+03  0.25500000000E-02 0. -1.
          2   -1    0    0  501    0  0.00000000000E+00 -0.00000000000E+00 -0.22259104903E+03  0.22259104905E+03  0.25500000000E-02 0.  1.
    5000001    1    1    2    0    0  0.14727701785E+03  0.42227911619E+00  0.54685375356E+02  0.24500038487E+03  0.18800000000E+03 0.  0.
   -5000001    1    1    2    0    0 -0.14727701785E+03 -0.42227911619E+00 -0.15542482513E+02  0.23932460607E+03  0.18800000000E+03 0.  0.
<mgrwt>
<rscale>  0 0.48274065E+03</rscale>
<asrwt>0</asrwt>
<pdfrwt beam="1">  1        2 0.31798721E-01 0.48274065E+03</pdfrwt>
<pdfrwt beam="2">  1       -2 0.37390563E-01 0.48274065E+03</pdfrwt>
<totfact> 0.11236498E+03</totfact>
</mgrwt>
</event>
<event>
 4    1  0.5985962E-005  0.4137703E+03  0.7818608E-02  0.1039113E+00
          2   -1    0    0  501    0  0.00000000000E+00  0.00000000000E+00  0.89859002587E+03  0.89859002588E+03  0.25500000000E-02 0.  1.
         -2   -1    0    0    0  501 -0.00000000000E+00 -0.00000000000E+00 -0.47631805347E+02  0.47631805415E+02  0.25500000000E-02 0. -1.
    5000001    1    1    2    0    0 -0.80557054754E+02  0.11206425427E+02  0.49185398347E+03  0.53280330714E+03  0.18800000000E+03 0.  0.
   -5000001    1    1    2    0    0  0.80557054754E+02 -0.11206425427E+02  0.35910423705E+03  0.41341852415E+03  0.18800000000E+03 0.  0.
<mgrwt>
<rscale>  0 0.41377030E+03</rscale>
<asrwt>0</asrwt>
<pdfrwt beam="1">  1        2 0.12837000E+00 0.41377030E+03</pdfrwt>
<pdfrwt beam="2">  1       -2 0.68045439E-02 0.41377030E+03</pdfrwt>
<totfact> 0.41173928E+03</totfact>
</mgrwt>
</event>
<event>
 4    1  0.5985962E-005  0.4209280E+03  0.7818608E-02  0.1036765E+00
          2   -1    0    0  501    0  0.00000000000E+00  0.00000000000E+00  0.13864786638E+04  0.13864786638E+04  0.25500000000E-02 0.  1.
         -2   -1    0    0    0  501 -0.00000000000E+00 -0.00000000000E+00 -0.31947904947E+02  0.31947905049E+02  0.25500000000E-02 0. -1.
    5000001    1    1    2    0    0 -0.10658523434E+02  0.87481602766E+02  0.56129205215E+03  0.59846420340E+03  0.18800000000E+03 0.  0.
   -5000001    1    1    2    0    0  0.10658523434E+02 -0.87481602766E+02  0.79323870669E+03  0.81996236544E+03  0.18800000000E+03 0.  0.
<mgrwt>
<rscale>  0 0.42092797E+03</rscale>
<asrwt>0</asrwt>
<pdfrwt beam="1">  1        2 0.19806835E+00 0.42092797E+03</pdfrwt>
<pdfrwt beam="2">  1       -2 0.45639871E-02 0.42092797E+03</pdfrwt>
<totfact> 0.40272505E+03</totfact>
</mgrwt>
</event>
<event>
 4    1  0.5985962E-005  0.5790676E+03  0.7818608E-02  0.9949812E-01
          2   -1    0    0  501    0  0.00000000000E+00  0.00000000000E+00  0.12951174175E+04  0.12951174175E+04  0.25500000000E-02 0.  1.
         -2   -1    0    0    0  501 -0.00000000000E+00 -0.00000000000E+00 -0.64727576186E+02  0.64727576236E+02  0.25500000000E-02 0. -1.
    5000001    1    1    2    0    0  0.11686538752E+03  0.14452355309E+03  0.89246997114E+03  0.93080138890E+03  0.18800000000E+03 0.  0.
   -5000001    1    1    2    0    0 -0.11686538752E+03 -0.14452355309E+03  0.33791987021E+03  0.42904360487E+03  0.18800000000E+03 0.  0.
<mgrwt>
<rscale>  0 0.57906757E+03</rscale>
<asrwt>0</asrwt>
<pdfrwt beam="1">  1        2 0.18501676E+00 0.57906757E+03</pdfrwt>
<pdfrwt beam="2">  1       -2 0.92467971E-02 0.57906757E+03</pdfrwt>
<totfact> 0.14870274E+03</totfact>
</mgrwt>
</event>
<event>
 4    1  0.5985962E-005  0.9019466E+03  0.7818608E-02  0.9423151E-01
          2   -1    0    0  501    0  0.00000000000E+00  0.00000000000E+00  0.25413952307E+04  0.25413952307E+04  0.25500000000E-02 0.  1.
         -2   -1    0    0    0  501 -0.00000000000E+00 -0.00000000000E+00 -0.80025702664E+02  0.80025702704E+02  0.25500000000E-02 0. -1.
    5000001    1    1    2    0    0 -0.23146196293E+03  0.14929538840E+03  0.21130508139E+04  0.21392034722E+04  0.18800000000E+03 0.  0.
   -5000001    1    1    2    0    0  0.23146196293E+03 -0.14929538840E+03  0.34831871409E+03  0.48221746118E+03  0.18800000000E+03 0.  0.
<mgrwt>
<rscale>  0 0.90194665E+03</rscale>
<asrwt>0</asrwt>
<pdfrwt beam="1">  1        2 0.36305640E+00 0.90194665E+03</pdfrwt>
<pdfrwt beam="2">  1       -2 0.11432245E-01 0.90194665E+03</pdfrwt>
<totfact> 0.23573733E+02</totfact>
</mgrwt>
</event>
<event>
 4    1  0.5985962E-005  0.1159013E+04  0.7818608E-02  0.9149509E-01
         -2   -1    0    0    0  501 -0.00000000000E+00  0.00000000000E+00  0.74023265193E+03  0.74023265193E+03  0.25500000000E-02 0. -1.
          2   -1    0    0  501    0  0.00000000000E+00 -0.00000000000E+00 -0.45367853783E+03  0.45367853784E+03  0.25500000000E-02 0.  1.
    5000001    1    1    2    0    0 -0.88370335663E+02 -0.26308793452E+03 -0.34367118599E+03  0.48008172387E+03  0.18800000000E+03 0.  0.
   -5000001    1    1    2    0    0  0.88370335663E+02  0.26308793452E+03  0.63022530009E+03  0.71382946590E+03  0.18800000000E+03 0.  0.
<mgrwt>
<rscale>  0 0.11590128E+04</rscale>
<asrwt>0</asrwt>
<pdfrwt beam="1">  1        2 0.64811220E-01 0.11590128E+04</pdfrwt>
<pdfrwt beam="2">  1       -2 0.10574752E+00 0.11590128E+04</pdfrwt>
<totfact> 0.53692071E+01</totfact>
</mgrwt>
</event>
<event>
 4    1  0.5985962E-005  0.5205592E+03  0.7818608E-02  0.1008548E+00
          2   -1    0    0  501    0  0.00000000000E+00  0.00000000000E+00  0.26136325877E+04  0.26136325877E+04  0.25500000000E-02 0.  1.
         -2   -1    0    0    0  501 -0.00000000000E+00 -0.00000000000E+00 -0.25920042254E+02  0.25920042379E+02  0.25500000000E-02 0. -1.
    5000001    1    1    2    0    0  0.10283191875E+03  0.93101059300E+01  0.54621403086E+03  0.58681756032E+03  0.18800000000E+03 0.  0.
   -5000001    1    1    2    0    0 -0.10283191875E+03 -0.93101059300E+01  0.20414985145E+04  0.20527350697E+04  0.18800000000E+03 0.  0.
<mgrwt>
<rscale>  0 0.52055919E+03</rscale>
<asrwt>0</asrwt>
<pdfrwt beam="1">  1        2 0.37337610E+00 0.52055919E+03</pdfrwt>
<pdfrwt beam="2">  1       -2 0.37028630E-02 0.52055919E+03</pdfrwt>
<totfact> 0.13253528E+03</totfact>
</mgrwt>
</event>
<event>
 4    1  0.5985962E-005  0.4235252E+03  0.7818608E-02  0.1035925E+00
         -2   -1    0    0    0  501 -0.00000000000E+00  0.00000000000E+00  0.65967704069E+02  0.65967704118E+02  0.25500000000E-02 0. -1.
          2   -1    0    0  501    0  0.00000000000E+00 -0.00000000000E+00 -0.67977815657E+03  0.67977815657E+03  0.25500000000E-02 0.  1.
    5000001    1    1    2    0    0 -0.16943515588E+02 -0.94319482675E+02 -0.33821376507E+03  0.39864244432E+03  0.18800000000E+03 0.  0.
   -5000001    1    1    2    0    0  0.16943515588E+02  0.94319482675E+02 -0.27559668743E+03  0.34710341637E+03  0.18800000000E+03 0.  0.
<mgrwt>
<rscale>  0 0.42352523E+03</rscale>
<asrwt>0</asrwt>
<pdfrwt beam="1">  1        2 0.97111161E-01 0.42352523E+03</pdfrwt>
<pdfrwt beam="2">  1       -2 0.94239581E-02 0.42352523E+03</pdfrwt>
<totfact> 0.34915724E+03</totfact>
</mgrwt>
</event>
<event>
 4    1  0.5985962E-005  0.4148012E+03  0.7818608E-02  0.1038772E+00
         -2   -1    0    0    0  501 -0.00000000000E+00  0.00000000000E+00  0.41996075070E+02  0.41996075147E+02  0.25500000000E-02 0. -1.
          2   -1    0    0  501    0  0.00000000000E+00 -0.00000000000E+00 -0.10242625138E+04  0.10242625138E+04  0.25500000000E-02 0.  1.
    5000001    1    1    2    0    0  0.58831268647E+02 -0.61501561539E+02 -0.54427826539E+03  0.58208795763E+03  0.18800000000E+03 0.  0.
   -5000001    1    1    2    0    0 -0.58831268647E+02  0.61501561539E+02 -0.43798817329E+03  0.48417063127E+03  0.18800000000E+03 0.  0.
<mgrwt>
<rscale>  0 0.41480118E+03</rscale>
<asrwt>0</asrwt>
<pdfrwt beam="1">  1        2 0.14632320E+00 0.41480118E+03</pdfrwt>
<pdfrwt beam="2">  1       -2 0.59994399E-02 0.41480118E+03</pdfrwt>
<totfact> 0.41942605E+03</totfact>
</mgrwt>
</event>
<event>
 4    1  0.5985962E-005  0.1269140E+04  0.7818608E-02  0.9054402E-01
         -2   -1    0    0    0  501 -0.00000000000E+00  0.00000000000E+00  0.15148735679E+03  0.15148735681E+03  0.25500000000E-02 0. -1.
          2   -1    0    0  501    0  0.00000000000E+00 -0.00000000000E+00 -0.26581698448E+04  0.26581698448E+04  0.25500000000E-02 0.  1.
    5000001    1    1    2    0    0  0.45008494637E+03 -0.38241661284E+03 -0.95209634437E+03  0.11360679441E+04  0.18800000000E+03 0.  0.
   -5000001    1    1    2    0    0 -0.45008494637E+03  0.38241661284E+03 -0.15545861436E+04  0.16735892575E+04  0.18800000000E+03 0.  0.
<mgrwt>
<rscale>  0 0.12691401E+04</rscale>
<asrwt>0</asrwt>
<pdfrwt beam="1">  1        2 0.37973852E+00 0.12691401E+04</pdfrwt>
<pdfrwt beam="2">  1       -2 0.21641053E-01 0.12691401E+04</pdfrwt>
<totfact> 0.66681133E+01</totfact>
</mgrwt>
</event>
<event>
 4    1  0.5985962E-005  0.4597118E+03  0.7818608E-02  0.1024865E+00
         -2   -1    0    0    0  501 -0.00000000000E+00  0.00000000000E+00  0.77692276860E+02  0.77692276902E+02  0.25500000000E-02 0.  1.
          2   -1    0    0  501    0  0.00000000000E+00 -0.00000000000E+00 -0.68003851076E+03  0.68003851076E+03  0.25500000000E-02 0. -1.
    5000001    1    1    2    0    0  0.13197875150E+03  0.82235083341E+01 -0.29799261840E+03  0.37633710628E+03  0.18800000000E+03 0.  0.
   -5000001    1    1    2    0    0 -0.13197875150E+03 -0.82235083341E+01 -0.30435361550E+03  0.38139368139E+03  0.18800000000E+03 0.  0.
<mgrwt>
<rscale>  0 0.45971182E+03</rscale>
<asrwt>0</asrwt>
<pdfrwt beam="1">  1        2 0.97148355E-01 0.45971182E+03</pdfrwt>
<pdfrwt beam="2">  1       -2 0.11098897E-01 0.45971182E+03</pdfrwt>
<totfact> 0.26832239E+03</totfact>
</mgrwt>
</event>
<event>
 4    1  0.5985962E-005  0.1567273E+04  0.7818608E-02  0.8840910E-01
          2   -1    0    0  501    0  0.00000000000E+00  0.00000000000E+00  0.28298720119E+04  0.28298720119E+04  0.25500000000E-02 0. -1.
         -2   -1    0    0    0  501 -0.00000000000E+00 -0.00000000000E+00 -0.21700134672E+03  0.21700134674E+03  0.25500000000E-02 0.  1.
    5000001    1    1    2    0    0 -0.67965039692E+03 -0.31839039239E+03  0.15480386093E+04  0.17306255054E+04  0.18800000000E+03 0.  0.
   -5000001    1    1    2    0    0  0.67965039692E+03  0.31839039239E+03  0.10648320560E+04  0.13162478533E+04  0.18800000000E+03 0.  0.
<mgrwt>
<rscale>  0 0.15672728E+04</rscale>
<asrwt>0</asrwt>
<pdfrwt beam="1">  1        2 0.40426742E+00 0.15672728E+04</pdfrwt>
<pdfrwt beam="2">  1       -2 0.31000193E-01 0.15672728E+04</pdfrwt>
<totfact> 0.27296471E+01</totfact>
</mgrwt>
</event>
<event>
 4    1  0.5985962E-005  0.6937821E+03  0.7818608E-02  0.9727925E-01
         -2   -1    0    0    0  501 -0.00000000000E+00  0.00000000000E+00  0.31362939694E+03  0.31362939695E+03  0.25500000000E-02 0. -1.
          2   -1    0    0  501    0  0.00000000000E+00 -0.00000000000E+00 -0.38368024722E+03  0.38368024723E+03  0.25500000000E-02 0.  1.
    5000001    1    1    2    0    0  0.19938709266E+03  0.17690657025E+03 -0.15368609941E+03  0.36057532426E+03  0.18800000000E+03 0.  0.
   -5000001    1    1    2    0    0 -0.19938709266E+03 -0.17690657025E+03  0.83635249125E+02  0.33673431992E+03  0.18800000000E+03 0.  0.
<mgrwt>
<rscale>  0 0.69378211E+03</rscale>
<asrwt>0</asrwt>
<pdfrwt beam="1">  1        2 0.54811464E-01 0.69378211E+03</pdfrwt>
<pdfrwt beam="2">  1       -2 0.44804200E-01 0.69378211E+03</pdfrwt>
<totfact> 0.43130149E+02</totfact>
</mgrwt>
</event>
<event>
 4    1  0.5985962E-005  0.5478772E+03  0.7818608E-02  0.1001986E+00
         -2   -1    0    0    0  501 -0.00000000000E+00  0.00000000000E+00  0.18379933082E+02  0.18379933259E+02  0.25500000000E-02 0. -1.
          2   -1    0    0  501    0  0.00000000000E+00 -0.00000000000E+00 -0.40828423013E+04  0.40828423013E+04  0.25500000000E-02 0.  1.
    5000001    1    1    2    0    0  0.16333492737E+03  0.64938618050E+02 -0.27345697673E+04  0.27466545350E+04  0.18800000000E+03 0.  0.
   -5000001    1    1    2    0    0 -0.16333492737E+03 -0.64938618050E+02 -0.13298926009E+04  0.13545676995E+04  0.18800000000E+03 0.  0.
<mgrwt>
<rscale>  0 0.54787724E+03</rscale>
<asrwt>0</asrwt>
<pdfrwt beam="1">  1        2 0.58326261E+00 0.54787724E+03</pdfrwt>
<pdfrwt beam="2">  1       -2 0.26257074E-02 0.54787724E+03</pdfrwt>
<totfact> 0.31055882E+02</totfact>
</mgrwt>
</event>
<event>
 4    1  0.5985962E-005  0.4264320E+03  0.7818608E-02  0.1034993E+00
         -2   -1    0    0    0  501 -0.00000000000E+00  0.00000000000E+00  0.63812933681E+02  0.63812933732E+02  0.25500000000E-02 0. -1.
          2   -1    0    0  501    0  0.00000000000E+00 -0.00000000000E+00 -0.71241142372E+03  0.71241142372E+03  0.25500000000E-02 0.  1.
    5000001    1    1    2    0    0 -0.16235810397E+02 -0.95512247806E+02 -0.37350978394E+03  0.42923158052E+03  0.18800000000E+03 0.  0.
   -5000001    1    1    2    0    0  0.16235810397E+02  0.95512247806E+02 -0.27508870610E+03  0.34699277694E+03  0.18800000000E+03 0.  0.
<mgrwt>
<rscale>  0 0.42643200E+03</rscale>
<asrwt>0</asrwt>
<pdfrwt beam="1">  1        2 0.10177306E+00 0.42643200E+03</pdfrwt>
<pdfrwt beam="2">  1       -2 0.91161338E-02 0.42643200E+03</pdfrwt>
<totfact> 0.34796972E+03</totfact>
</mgrwt>
</event>
<event>
 4    1  0.5985962E-005  0.5679483E+03  0.7818608E-02  0.9974229E-01
          2   -1    0    0  501    0  0.00000000000E+00  0.00000000000E+00  0.20008162039E+03  0.20008162041E+03  0.25500000000E-02 0.  1.
         -2   -1    0    0    0  501 -0.00000000000E+00 -0.00000000000E+00 -0.40304213686E+03  0.40304213686E+03  0.25500000000E-02 0. -1.
    5000001    1    1    2    0    0  0.75236899150E+02  0.19903109978E+03 -0.10661217682E+03  0.30328884899E+03  0.18800000000E+03 0.  0.
   -5000001    1    1    2    0    0 -0.75236899150E+02 -0.19903109978E+03 -0.96348339647E+02  0.29983490829E+03  0.18800000000E+03 0.  0.
<mgrwt>
<rscale>  0 0.56794832E+03</rscale>
<asrwt>0</asrwt>
<pdfrwt beam="1">  1        2 0.28583089E-01 0.56794832E+03</pdfrwt>
<pdfrwt beam="2">  1       -2 0.57577448E-01 0.56794832E+03</pdfrwt>
<totfact> 0.53531611E+02</totfact>
</mgrwt>
</event>
<event>
 4    1  0.5985962E-005  0.4955727E+03  0.7818608E-02  0.1014941E+00
         -2   -1    0    0    0  501 -0.00000000000E+00  0.00000000000E+00  0.17708878990E+03  0.17708878992E+03  0.25500000000E-02 0. -1.
          2   -1    0    0  501    0  0.00000000000E+00 -0.00000000000E+00 -0.34670784024E+03  0.34670784025E+03  0.25500000000E-02 0.  1.
    5000001    1    1    2    0    0 -0.28475395537E+02 -0.12753263765E+03  0.15342759504E+02  0.22946638552E+03  0.18800000000E+03 0.  0.
   -5000001    1    1    2    0    0  0.28475395537E+02  0.12753263765E+03 -0.18496180984E+03  0.29433024465E+03  0.18800000000E+03 0.  0.
<mgrwt>
<rscale>  0 0.49557269E+03</rscale>
<asrwt>0</asrwt>
<pdfrwt beam="1">  1        2 0.49529691E-01 0.49557269E+03</pdfrwt>
<pdfrwt beam="2">  1       -2 0.25298399E-01 0.49557269E+03</pdfrwt>
<totfact> 0.14198406E+03</totfact>
</mgrwt>
</event>
<event>
 4    1  0.5985962E-005  0.7482813E+03  0.7818608E-02  0.9638051E-01
         -2   -1    0    0    0  501 -0.00000000000E+00  0.00000000000E+00  0.16074754534E+03  0.16074754536E+03  0.25500000000E-02 0. -1.
          2   -1    0    0  501    0  0.00000000000E+00 -0.00000000000E+00 -0.87081399142E+03  0.87081399143E+03  0.25500000000E-02 0.  1.
    5000001    1    1    2    0    0 -0.29343875776E+03  0.18712974424E+02 -0.54091462896E+03  0.64373062362E+03  0.18800000000E+03 0.  0.
   -5000001    1    1    2    0    0  0.29343875776E+03 -0.18712974424E+02 -0.16915181713E+03  0.38783091316E+03  0.18800000000E+03 0.  0.
<mgrwt>
<rscale>  0 0.74828126E+03</rscale>
<asrwt>0</asrwt>
<pdfrwt beam="1">  1        2 0.12440200E+00 0.74828126E+03</pdfrwt>
<pdfrwt beam="2">  1       -2 0.22963935E-01 0.74828126E+03</pdfrwt>
<totfact> 0.56962462E+02</totfact>
</mgrwt>
</event>
<event>
 4    1  0.5985962E-005  0.5724921E+03  0.7818608E-02  0.9964179E-01
          2   -1    0    0  501    0  0.00000000000E+00  0.00000000000E+00  0.47704544224E+03  0.47704544224E+03  0.25500000000E-02 0.  1.
         -2   -1    0    0    0  501 -0.00000000000E+00 -0.00000000000E+00 -0.17175888798E+03  0.17175888800E+03  0.25500000000E-02 0. -1.
    5000001    1    1    2    0    0 -0.10259318417E+03  0.83009576340E+02 -0.40938027141E+02  0.23331496581E+03  0.18800000000E+03 0.  0.
   -5000001    1    1    2    0    0  0.10259318417E+03 -0.83009576340E+02  0.34622458139E+03  0.41548936444E+03  0.18800000000E+03 0.  0.
<mgrwt>
<rscale>  0 0.57249208E+03</rscale>
<asrwt>0</asrwt>
<pdfrwt beam="1">  1        2 0.68149350E-01 0.57249208E+03</pdfrwt>
<pdfrwt beam="2">  1       -2 0.24536983E-01 0.57249208E+03</pdfrwt>
<totfact> 0.10520805E+03</totfact>
</mgrwt>
</event>
<event>
 4    1  0.5985962E-005  0.6928572E+03  0.7818608E-02  0.9729526E-01
         -2   -1    0    0    0  501 -0.00000000000E+00  0.00000000000E+00  0.51726589092E+03  0.51726589092E+03  0.25500000000E-02 0. -1.
          2   -1    0    0  501    0  0.00000000000E+00 -0.00000000000E+00 -0.23201369950E+03  0.23201369951E+03  0.25500000000E-02 0.  1.
    5000001    1    1    2    0    0 -0.30390215339E+02  0.18896103485E+03 -0.94400379339E+02  0.28440335705E+03  0.18800000000E+03 0.  0.
   -5000001    1    1    2    0    0  0.30390215339E+02 -0.18896103485E+03  0.37965257076E+03  0.46487623339E+03  0.18800000000E+03 0.  0.
<mgrwt>
<rscale>  0 0.69285719E+03</rscale>
<asrwt>0</asrwt>
<pdfrwt beam="1">  1        2 0.33144814E-01 0.69285719E+03</pdfrwt>
<pdfrwt beam="2">  1       -2 0.73895128E-01 0.69285719E+03</pdfrwt>
<totfact> 0.26488887E+02</totfact>
</mgrwt>
</event>
<event>
 4    1  0.5985962E-005  0.5490917E+03  0.7818608E-02  0.1001704E+00
         -2   -1    0    0    0  501 -0.00000000000E+00  0.00000000000E+00  0.23211184825E+03  0.23211184827E+03  0.25500000000E-02 0. -1.
          2   -1    0    0  501    0  0.00000000000E+00 -0.00000000000E+00 -0.32473755750E+03  0.32473755751E+03  0.25500000000E-02 0.  1.
    5000001    1    1    2    0    0 -0.15859362336E+03 -0.80839208844E+02 -0.13895178246E+03  0.29383415885E+03  0.18800000000E+03 0.  0.
   -5000001    1    1    2    0    0  0.15859362336E+03  0.80839208844E+02  0.46326073218E+02  0.26301524693E+03  0.18800000000E+03 0.  0.
<mgrwt>
<rscale>  0 0.54909174E+03</rscale>
<asrwt>0</asrwt>
<pdfrwt beam="1">  1        2 0.46391079E-01 0.54909174E+03</pdfrwt>
<pdfrwt beam="2">  1       -2 0.33158836E-01 0.54909174E+03</pdfrwt>
<totfact> 0.92944872E+02</totfact>
</mgrwt>
</event>
<event>
 4    1  0.5985962E-005  0.6051152E+03  0.7818608E-02  0.9894850E-01
          2   -1    0    0  501    0  0.00000000000E+00  0.00000000000E+00  0.77083527962E+03  0.77083527962E+03  0.25500000000E-02 0.  1.
         -2   -1    0    0    0  501 -0.00000000000E+00 -0.00000000000E+00 -0.11875571687E+03  0.11875571690E+03  0.25500000000E-02 0. -1.
    5000001    1    1    2    0    0  0.13002836308E+03  0.14890753305E+03  0.51837413528E+03  0.58577860385E+03  0.18800000000E+03 0.  0.
   -5000001    1    1    2    0    0 -0.13002836308E+03 -0.14890753305E+03  0.13370542746E+03  0.30381239267E+03  0.18800000000E+03 0.  0.
<mgrwt>
<rscale>  0 0.60511518E+03</rscale>
<asrwt>0</asrwt>
<pdfrwt beam="1">  1        2 0.11011933E+00 0.60511518E+03</pdfrwt>
<pdfrwt beam="2">  1       -2 0.16965102E-01 0.60511518E+03</pdfrwt>
<totfact> 0.11348428E+03</totfact>
</mgrwt>
</event>
<event>
 4    1  0.5985962E-005  0.7193425E+03  0.7818608E-02  0.9684714E-01
         -2   -1    0    0    0  501 -0.00000000000E+00  0.00000000000E+00  0.23562685856E+03  0.23562685858E+03  0.25500000000E-02 0. -1.
          2   -1    0    0  501    0  0.00000000000E+00 -0.00000000000E+00 -0.54901816361E+03  0.54901816362E+03  0.25500000000E-02 0.  1.
    5000001    1    1    2    0    0  0.12438425342E+03  0.27511970085E+03 -0.21500023587E+03  0.41560966509E+03  0.18800000000E+03 0.  0.
   -5000001    1    1    2    0    0 -0.12438425342E+03 -0.27511970085E+03 -0.98391069176E+02  0.36903535710E+03  0.18800000000E+03 0.  0.
<mgrwt>
<rscale>  0 0.71934255E+03</rscale>
<asrwt>0</asrwt>
<pdfrwt beam="1">  1        2 0.78431166E-01 0.71934255E+03</pdfrwt>
<pdfrwt beam="2">  1       -2 0.33660980E-01 0.71934255E+03</pdfrwt>
<totfact> 0.49970206E+02</totfact>
</mgrwt>
</event>
<event>
 4    1  0.5985962E-005  0.1133348E+04  0.7818608E-02  0.9173284E-01
          2   -1    0    0  501    0  0.00000000000E+00  0.00000000000E+00  0.31596066929E+04  0.31596066929E+04  0.25500000000E-02 0.  1.
         -2   -1    0    0    0  501 -0.00000000000E+00 -0.00000000000E+00 -0.10163278550E+03  0.10163278553E+03  0.25500000000E-02 0. -1.
    5000001    1    1    2    0    0 -0.19394769870E+02  0.50039441932E+03  0.20673604510E+04  0.21354376522E+04  0.18800000000E+03 0.  0.
   -5000001    1    1    2    0    0  0.19394769870E+02 -0.50039441932E+03  0.99061345638E+03  0.11258018262E+04  0.18800000000E+03 0.  0.
<mgrwt>
<rscale>  0 0.11333484E+04</rscale>
<asrwt>0</asrwt>
<pdfrwt beam="1">  1        2 0.45137237E+00 0.11333484E+04</pdfrwt>
<pdfrwt beam="2">  1       -2 0.14518970E-01 0.11333484E+04</pdfrwt>
<totfact> 0.71596355E+01</totfact>
</mgrwt>
</event>
<event>
 4    1  0.5985962E-005  0.6443332E+03  0.7818608E-02  0.9817471E-01
          2   -1    0    0  501    0  0.00000000000E+00  0.00000000000E+00  0.10210633997E+04  0.10210633997E+04  0.25500000000E-02 0.  1.
         -2   -1    0    0    0  501 -0.00000000000E+00 -0.00000000000E+00 -0.10165020661E+03  0.10165020664E+03  0.25500000000E-02 0. -1.
    5000001    1    1    2    0    0  0.20921252103E+03 -0.15113909243E+03  0.53433526344E+03  0.62247174873E+03  0.18800000000E+03 0.  0.
   -5000001    1    1    2    0    0 -0.20921252103E+03  0.15113909243E+03  0.38507792969E+03  0.50024185765E+03  0.18800000000E+03 0.  0.
<mgrwt>
<rscale>  0 0.64433316E+03</rscale>
<asrwt>0</asrwt>
<pdfrwt beam="1">  1        2 0.14586621E+00 0.64433316E+03</pdfrwt>
<pdfrwt beam="2">  1       -2 0.14521457E-01 0.64433316E+03</pdfrwt>
<totfact> 0.10137946E+03</totfact>
</mgrwt>
</event>
<event>
 4    1  0.5985962E-005  0.5253017E+03  0.7818608E-02  0.1007378E+00
         -2   -1    0    0    0  501 -0.00000000000E+00  0.00000000000E+00  0.94642054509E+03  0.94642054509E+03  0.25500000000E-02 0. -1.
          2   -1    0    0  501    0  0.00000000000E+00 -0.00000000000E+00 -0.72890932185E+02  0.72890932229E+02  0.25500000000E-02 0.  1.
    5000001    1    1    2    0    0 -0.10760684370E+03  0.12801305523E+03  0.58294119198E+03  0.63492598658E+03  0.18800000000E+03 0.  0.
   -5000001    1    1    2    0    0  0.10760684370E+03 -0.12801305523E+03  0.29058842092E+03  0.38438549075E+03  0.18800000000E+03 0.  0.
<mgrwt>
<rscale>  0 0.52530173E+03</rscale>
<asrwt>0</asrwt>
<pdfrwt beam="1">  1        2 0.10412991E-01 0.52530173E+03</pdfrwt>
<pdfrwt beam="2">  1       -2 0.13520293E+00 0.52530173E+03</pdfrwt>
<totfact> 0.25178966E+02</totfact>
</mgrwt>
</event>
<event>
 4    1  0.5985962E-005  0.1299083E+04  0.7818608E-02  0.9030293E-01
         -2   -1    0    0    0  501 -0.00000000000E+00  0.00000000000E+00  0.21491374779E+03  0.21491374780E+03  0.25500000000E-02 0. -1.
          2   -1    0    0  501    0  0.00000000000E+00 -0.00000000000E+00 -0.19631314656E+04  0.19631314656E+04  0.25500000000E-02 0.  1.
    5000001    1    1    2    0    0 -0.39831156276E+03  0.13905068712E+03 -0.16398092764E+04  0.17036154665E+04  0.18800000000E+03 0.  0.
   -5000001    1    1    2    0    0  0.39831156276E+03 -0.13905068712E+03 -0.10840844141E+03  0.47442974694E+03  0.18800000000E+03 0.  0.
<mgrwt>
<rscale>  0 0.12990827E+04</rscale>
<asrwt>0</asrwt>
<pdfrwt beam="1">  1        2 0.28044734E+00 0.12990827E+04</pdfrwt>
<pdfrwt beam="2">  1       -2 0.30701965E-01 0.12990827E+04</pdfrwt>
<totfact> 0.80728734E+01</totfact>
</mgrwt>
</event>
<event>
 4    1  0.5985962E-005  0.4366951E+03  0.7818608E-02  0.1031766E+00
         -2   -1    0    0    0  501 -0.00000000000E+00  0.00000000000E+00  0.99963068253E+02  0.99963068286E+02  0.25500000000E-02 0.  1.
          2   -1    0    0  501    0  0.00000000000E+00 -0.00000000000E+00 -0.47693276080E+03  0.47693276081E+03  0.25500000000E-02 0. -1.
    5000001    1    1    2    0    0  0.88886814959E+02  0.59373533649E+02 -0.22823898879E+03  0.31442506003E+03  0.18800000000E+03 0.  0.
   -5000001    1    1    2    0    0 -0.88886814959E+02 -0.59373533649E+02 -0.14873070376E+03  0.26247076906E+03  0.18800000000E+03 0.  0.
<mgrwt>
<rscale>  0 0.43669514E+03</rscale>
<asrwt>0</asrwt>
<pdfrwt beam="1">  1        2 0.68133251E-01 0.43669514E+03</pdfrwt>
<pdfrwt beam="2">  1       -2 0.14280438E-01 0.43669514E+03</pdfrwt>
<totfact> 0.26699756E+03</totfact>
</mgrwt>
</event>
<event>
 4    1  0.5985962E-005  0.5404845E+03  0.7818608E-02  0.1003721E+00
          2   -1    0    0  501    0  0.00000000000E+00  0.00000000000E+00  0.57213866778E+03  0.57213866779E+03  0.25500000000E-02 0.  1.
         -2   -1    0    0    0  501 -0.00000000000E+00 -0.00000000000E+00 -0.12764540624E+03  0.12764540626E+03  0.25500000000E-02 0. -1.
    5000001    1    1    2    0    0 -0.85329865434E+02  0.15516013311E+03  0.11922755462E+03  0.28445573052E+03  0.18800000000E+03 0.  0.
   -5000001    1    1    2    0    0  0.85329865434E+02 -0.15516013311E+03  0.32526570692E+03  0.41532834353E+03  0.18800000000E+03 0.  0.
<mgrwt>
<rscale>  0 0.54048450E+03</rscale>
<asrwt>0</asrwt>
<pdfrwt beam="1">  1        2 0.81734098E-01 0.54048450E+03</pdfrwt>
<pdfrwt beam="2">  1       -2 0.18235058E-01 0.54048450E+03</pdfrwt>
<totfact> 0.14378197E+03</totfact>
</mgrwt>
</event>
<event>
 4    1  0.5985962E-005  0.7473459E+03  0.7818608E-02  0.9639523E-01
         -2   -1    0    0    0  501 -0.00000000000E+00  0.00000000000E+00  0.10971007873E+03  0.10971007876E+03  0.25500000000E-02 0. -1.
          2   -1    0    0  501    0  0.00000000000E+00 -0.00000000000E+00 -0.12727315138E+04  0.12727315138E+04  0.25500000000E-02 0.  1.
    5000001    1    1    2    0    0 -0.31742770486E+03 -0.33017763537E+02 -0.49019431230E+03  0.61439806667E+03  0.18800000000E+03 0.  0.
   -5000001    1    1    2    0    0  0.31742770486E+03  0.33017763537E+02 -0.67282712276E+03  0.76804352587E+03  0.18800000000E+03 0.  0.
<mgrwt>
<rscale>  0 0.74734590E+03</rscale>
<asrwt>0</asrwt>
<pdfrwt beam="1">  1        2 0.18181878E+00 0.74734590E+03</pdfrwt>
<pdfrwt beam="2">  1       -2 0.15672869E-01 0.74734590E+03</pdfrwt>
<totfact> 0.63615965E+02</totfact>
</mgrwt>
</event>
<event>
 4    1  0.5985962E-005  0.5569395E+03  0.7818608E-02  0.9999003E-01
         -2   -1    0    0    0  501 -0.00000000000E+00  0.00000000000E+00  0.27702681319E+02  0.27702681437E+02  0.25500000000E-02 0. -1.
          2   -1    0    0  501    0  0.00000000000E+00 -0.00000000000E+00 -0.27992023972E+04  0.27992023972E+04  0.25500000000E-02 0.  1.
    5000001    1    1    2    0    0 -0.20268227912E+03 -0.20928560860E+02 -0.12530686959E+04  0.12833718353E+04  0.18800000000E+03 0.  0.
   -5000001    1    1    2    0    0  0.20268227912E+03  0.20928560860E+02 -0.15184310200E+04  0.15435332434E+04  0.18800000000E+03 0.  0.
<mgrwt>
<rscale>  0 0.55693954E+03</rscale>
<asrwt>0</asrwt>
<pdfrwt beam="1">  1        2 0.39988588E+00 0.55693954E+03</pdfrwt>
<pdfrwt beam="2">  1       -2 0.39575277E-02 0.55693954E+03</pdfrwt>
<totfact> 0.95506360E+02</totfact>
</mgrwt>
</event>
<event>
 4    1  0.5985962E-005  0.4936062E+03  0.7818608E-02  0.1015461E+00
         -2   -1    0    0    0  501 -0.00000000000E+00  0.00000000000E+00  0.76759489003E+03  0.76759489003E+03  0.25500000000E-02 0. -1.
          2   -1    0    0  501    0  0.00000000000E+00 -0.00000000000E+00 -0.79354074291E+02  0.79354074332E+02  0.25500000000E-02 0.  1.
    5000001    1    1    2    0    0 -0.52427472765E+02  0.77281131377E+02  0.12141287807E+03  0.24249969099E+03  0.18800000000E+03 0.  0.
   -5000001    1    1    2    0    0  0.52427472765E+02 -0.77281131377E+02  0.56682793767E+03  0.60444927338E+03  0.18800000000E+03 0.  0.
<mgrwt>
<rscale>  0 0.49360625E+03</rscale>
<asrwt>0</asrwt>
<pdfrwt beam="1">  1        2 0.11336296E-01 0.49360625E+03</pdfrwt>
<pdfrwt beam="2">  1       -2 0.10965641E+00 0.49360625E+03</pdfrwt>
<totfact> 0.37965233E+02</totfact>
</mgrwt>
</event>
<event>
 4    1  0.5985962E-005  0.4142551E+03  0.7818608E-02  0.1038952E+00
          2   -1    0    0  501    0  0.00000000000E+00  0.00000000000E+00  0.15540626128E+04  0.15540626128E+04  0.25500000000E-02 0.  1.
         -2   -1    0    0    0  501 -0.00000000000E+00 -0.00000000000E+00 -0.27606241022E+02  0.27606241140E+02  0.25500000000E-02 0. -1.
    5000001    1    1    2    0    0  0.48233544361E+02 -0.72266790037E+02  0.77459524034E+03  0.80180468326E+03  0.18800000000E+03 0.  0.
   -5000001    1    1    2    0    0 -0.48233544361E+02  0.72266790037E+02  0.75186113143E+03  0.77986417068E+03  0.18800000000E+03 0.  0.
<mgrwt>
<rscale>  0 0.41425513E+03</rscale>
<asrwt>0</asrwt>
<pdfrwt beam="1">  1        2 0.22200891E+00 0.41425513E+03</pdfrwt>
<pdfrwt beam="2">  1       -2 0.39437494E-02 0.41425513E+03</pdfrwt>
<totfact> 0.41227436E+03</totfact>
</mgrwt>
</event>
<event>
 4    1  0.5985962E-005  0.5574246E+03  0.7818608E-02  0.9997899E-01
         -2   -1    0    0    0  501 -0.00000000000E+00  0.00000000000E+00  0.22180358755E+03  0.22180358756E+03  0.25500000000E-02 0. -1.
          2   -1    0    0  501    0  0.00000000000E+00 -0.00000000000E+00 -0.35022227921E+03  0.35022227921E+03  0.25500000000E-02 0.  1.
    5000001    1    1    2    0    0 -0.81114000975E+02  0.17299418013E+03 -0.14256442444E+03  0.30360349575E+03  0.18800000000E+03 0.  0.
   -5000001    1    1    2    0    0  0.81114000975E+02 -0.17299418013E+03  0.14145732783E+02  0.26842237103E+03  0.18800000000E+03 0.  0.
<mgrwt>
<rscale>  0 0.55742464E+03</rscale>
<asrwt>0</asrwt>
<pdfrwt beam="1">  1        2 0.50031754E-01 0.55742464E+03</pdfrwt>
<pdfrwt beam="2">  1       -2 0.31686227E-01 0.55742464E+03</pdfrwt>
<totfact> 0.93090453E+02</totfact>
</mgrwt>
</event>
<event>
 4    1  0.5985962E-005  0.4605921E+03  0.7818608E-02  0.1024610E+00
         -2   -1    0    0    0  501 -0.00000000000E+00  0.00000000000E+00  0.40257634005E+02  0.40257634085E+02  0.25500000000E-02 0. -1.
          2   -1    0    0  501    0  0.00000000000E+00 -0.00000000000E+00 -0.13174216752E+04  0.13174216752E+04  0.25500000000E-02 0.  1.
    5000001    1    1    2    0    0 -0.11729526882E+03  0.58372585674E+01 -0.82266533685E+03  0.85200616789E+03  0.18800000000E+03 0.  0.
   -5000001    1    1    2    0    0  0.11729526882E+03 -0.58372585674E+01 -0.45449870433E+03  0.50567314138E+03  0.18800000000E+03 0.  0.
<mgrwt>
<rscale>  0 0.46059214E+03</rscale>
<asrwt>0</asrwt>
<pdfrwt beam="1">  1        2 0.18820307E+00 0.46059214E+03</pdfrwt>
<pdfrwt beam="2">  1       -2 0.57510914E-02 0.46059214E+03</pdfrwt>
<totfact> 0.30681350E+03</totfact>
</mgrwt>
</event>
<event>
 4    1  0.5985962E-005  0.5073706E+03  0.7818608E-02  0.1011873E+00
          2   -1    0    0  501    0  0.00000000000E+00  0.00000000000E+00  0.66348799354E+03  0.66348799354E+03  0.25500000000E-02 0.  1.
         -2   -1    0    0    0  501 -0.00000000000E+00 -0.00000000000E+00 -0.96996811628E+02  0.96996811661E+02  0.25500000000E-02 0. -1.
    5000001    1    1    2    0    0  0.70363251964E+02 -0.15434633164E+03  0.30639059326E+03  0.39748329896E+03  0.18800000000E+03 0.  0.
   -5000001    1    1    2    0    0 -0.70363251964E+02  0.15434633164E+03  0.26010058865E+03  0.36300150624E+03  0.18800000000E+03 0.  0.
<mgrwt>
<rscale>  0 0.50737055E+03</rscale>
<asrwt>0</asrwt>
<pdfrwt beam="1">  1        2 0.94784000E-01 0.50737055E+03</pdfrwt>
<pdfrwt beam="2">  1       -2 0.13856687E-01 0.50737055E+03</pdfrwt>
<totfact> 0.19201325E+03</totfact>
</mgrwt>
</event>
<event>
 4    1  0.5985962E-005  0.5402000E+03  0.7818608E-02  0.1003788E+00
          2   -1    0    0  501    0  0.00000000000E+00  0.00000000000E+00  0.27004655326E+04  0.27004655326E+04  0.25500000000E-02 0.  1.
         -2   -1    0    0    0  501 -0.00000000000E+00 -0.00000000000E+00 -0.27015349964E+02  0.27015350085E+02  0.25500000000E-02 0. -1.
    5000001    1    1    2    0    0 -0.78005043133E+02 -0.13688868891E+03  0.76579003894E+03  0.80411546661E+03  0.18800000000E+03 0.  0.
   -5000001    1    1    2    0    0  0.78005043133E+02  0.13688868891E+03  0.19076601437E+04  0.19233654160E+04  0.18800000000E+03 0.  0.
<mgrwt>
<rscale>  0 0.54020004E+03</rscale>
<asrwt>0</asrwt>
<pdfrwt beam="1">  1        2 0.38578090E+00 0.54020004E+03</pdfrwt>
<pdfrwt beam="2">  1       -2 0.38593346E-02 0.54020004E+03</pdfrwt>
<totfact> 0.11198536E+03</totfact>
</mgrwt>
</event>
<event>
 4    1  0.5985962E-005  0.1061057E+04  0.7818608E-02  0.9244003E-01
          2   -1    0    0  501    0  0.00000000000E+00  0.00000000000E+00  0.25318657951E+04  0.25318657951E+04  0.25500000000E-02 0.  1.
         -2   -1    0    0    0  501 -0.00000000000E+00 -0.00000000000E+00 -0.11116711862E+03  0.11116711865E+03  0.25500000000E-02 0. -1.
    5000001    1    1    2    0    0 -0.33851908650E+03 -0.24322459674E+03  0.18804219828E+04  0.19352220053E+04  0.18800000000E+03 0.  0.
   -5000001    1    1    2    0    0  0.33851908650E+03  0.24322459674E+03  0.54027669365E+03  0.70781090843E+03  0.18800000000E+03 0.  0.
<mgrwt>
<rscale>  0 0.10610565E+04</rscale>
<asrwt>0</asrwt>
<pdfrwt beam="1">  1        2 0.36169511E+00 0.10610565E+04</pdfrwt>
<pdfrwt beam="2">  1       -2 0.15881017E-01 0.10610565E+04</pdfrwt>
<totfact> 0.13555919E+02</totfact>
</mgrwt>
</event>
<event>
 4    1  0.5985962E-005  0.8860448E+03  0.7818608E-02  0.9443196E-01
          2   -1    0    0  501    0  0.00000000000E+00  0.00000000000E+00  0.50707214315E+03  0.50707214315E+03  0.25500000000E-02 0.  1.
         -2   -1    0    0    0  501 -0.00000000000E+00 -0.00000000000E+00 -0.38706297290E+03  0.38706297291E+03  0.25500000000E-02 0. -1.
    5000001    1    1    2    0    0  0.22770829976E+03 -0.30070771328E+03  0.19781155869E+03  0.46556375649E+03  0.18800000000E+03 0.  0.
   -5000001    1    1    2    0    0 -0.22770829976E+03  0.30070771328E+03 -0.77802388449E+02  0.42857135958E+03  0.18800000000E+03 0.  0.
<mgrwt>
<rscale>  0 0.88604481E+03</rscale>
<asrwt>0</asrwt>
<pdfrwt beam="1">  1        2 0.72438877E-01 0.88604481E+03</pdfrwt>
<pdfrwt beam="2">  1       -2 0.55294711E-01 0.88604481E+03</pdfrwt>
<totfact> 0.20390284E+02</totfact>
</mgrwt>
</event>
<event>
 4    1  0.5985962E-005  0.4503846E+03  0.7818608E-02  0.1027607E+00
         -2   -1    0    0    0  501 -0.00000000000E+00  0.00000000000E+00  0.44761584813E+03  0.44761584814E+03  0.25500000000E-02 0. -1.
          2   -1    0    0  501    0  0.00000000000E+00 -0.00000000000E+00 -0.11329262643E+03  0.11329262646E+03  0.25500000000E-02 0.  1.
    5000001    1    1    2    0    0  0.86120955960E+02 -0.41741533519E+02  0.26529082374E+03  0.33894305693E+03  0.18800000000E+03 0.  0.
   -5000001    1    1    2    0    0 -0.86120955960E+02  0.41741533519E+02  0.69032397952E+02  0.22196541767E+03  0.18800000000E+03 0.  0.
<mgrwt>
<rscale>  0 0.45038461E+03</rscale>
<asrwt>0</asrwt>
<pdfrwt beam="1">  1        2 0.16184661E-01 0.45038461E+03</pdfrwt>
<pdfrwt beam="2">  1       -2 0.63945122E-01 0.45038461E+03</pdfrwt>
<totfact> 0.82996426E+02</totfact>
</mgrwt>
</event>
<event>
 4    1  0.5985962E-005  0.7258825E+03  0.7818608E-02  0.9673966E-01
         -2   -1    0    0    0  501 -0.00000000000E+00  0.00000000000E+00  0.14329238535E+03  0.14329238538E+03  0.25500000000E-02 0. -1.
          2   -1    0    0  501    0  0.00000000000E+00 -0.00000000000E+00 -0.91928374466E+03  0.91928374466E+03  0.25500000000E-02 0.  1.
    5000001    1    1    2    0    0  0.71593559089E+01 -0.17720390633E+03 -0.14989512065E+02  0.25888446510E+03  0.18800000000E+03 0.  0.
   -5000001    1    1    2    0    0 -0.71593559089E+01  0.17720390633E+03 -0.76100184724E+03  0.80369166494E+03  0.18800000000E+03 0.  0.
<mgrwt>
<rscale>  0 0.72588253E+03</rscale>
<asrwt>0</asrwt>
<pdfrwt beam="1">  1        2 0.13132625E+00 0.72588253E+03</pdfrwt>
<pdfrwt beam="2">  1       -2 0.20470341E-01 0.72588253E+03</pdfrwt>
<totfact> 0.64940244E+02</totfact>
</mgrwt>
</event>
<event>
 4    1  0.5985962E-005  0.5310021E+03  0.7818608E-02  0.1005989E+00
          2   -1    0    0  501    0  0.00000000000E+00  0.00000000000E+00  0.27600872651E+03  0.27600872652E+03  0.25500000000E-02 0.  1.
         -2   -1    0    0    0  501 -0.00000000000E+00 -0.00000000000E+00 -0.25539335416E+03  0.25539335417E+03  0.25500000000E-02 0. -1.
    5000001    1    1    2    0    0  0.32353852617E+02 -0.15732987776E+03  0.10706212354E+03  0.26945456113E+03  0.18800000000E+03 0.  0.
   -5000001    1    1    2    0    0 -0.32353852617E+02  0.15732987776E+03 -0.86446751197E+02  0.26194751957E+03  0.18800000000E+03 0.  0.
<mgrwt>
<rscale>  0 0.53100205E+03</rscale>
<asrwt>0</asrwt>
<pdfrwt beam="1">  1        2 0.39429818E-01 0.53100205E+03</pdfrwt>
<pdfrwt beam="2">  1       -2 0.36484765E-01 0.53100205E+03</pdfrwt>
<totfact> 0.92798311E+02</totfact>
</mgrwt>
</event>
<event>
 4    1  0.5985962E-005  0.4272849E+03  0.7818608E-02  0.1034721E+00
          2   -1    0    0  501    0  0.00000000000E+00  0.00000000000E+00  0.34892404251E+02  0.34892404344E+02  0.25500000000E-02 0.  1.
         -2   -1    0    0    0  501 -0.00000000000E+00 -0.00000000000E+00 -0.13081096288E+04  0.13081096288E+04  0.25500000000E-02 0. -1.
    5000001    1    1    2    0    0 -0.22955092435E+02  0.39434659221E+02 -0.92152499492E+03  0.94161262995E+03  0.18800000000E+03 0.  0.
   -5000001    1    1    2    0    0  0.22955092435E+02 -0.39434659221E+02 -0.35169222962E+03  0.40138940319E+03  0.18800000000E+03 0.  0.
<mgrwt>
<rscale>  0 0.42728487E+03</rscale>
<asrwt>0</asrwt>
<pdfrwt beam="1">  1        2 0.49846300E-02 0.42728487E+03</pdfrwt>
<pdfrwt beam="2">  1       -2 0.18687277E+00 0.42728487E+03</pdfrwt>
<totfact> 0.27670461E+02</totfact>
</mgrwt>
</event>
<event>
 4    1  0.5985962E-005  0.5483561E+03  0.7818608E-02  0.1001875E+00
         -2   -1    0    0    0  501 -0.00000000000E+00  0.00000000000E+00  0.15788270626E+03  0.15788270628E+03  0.25500000000E-02 0. -1.
          2   -1    0    0  501    0  0.00000000000E+00 -0.00000000000E+00 -0.47613575111E+03  0.47613575112E+03  0.25500000000E-02 0.  1.
    5000001    1    1    2    0    0 -0.17988521706E+03  0.86168613588E+02 -0.16695810081E+03  0.32094038187E+03  0.18800000000E+03 0.  0.
   -5000001    1    1    2    0    0  0.17988521706E+03 -0.86168613588E+02 -0.15129494404E+03  0.31307807553E+03  0.18800000000E+03 0.  0.
<mgrwt>
<rscale>  0 0.54835609E+03</rscale>
<asrwt>0</asrwt>
<pdfrwt beam="1">  1        2 0.68019393E-01 0.54835609E+03</pdfrwt>
<pdfrwt beam="2">  1       -2 0.22554672E-01 0.54835609E+03</pdfrwt>
<totfact> 0.12248110E+03</totfact>
</mgrwt>
</event>
<event>
 4    1  0.5985962E-005  0.4260441E+03  0.7818608E-02  0.1035117E+00
          2   -1    0    0  501    0  0.00000000000E+00  0.00000000000E+00  0.33308916503E+03  0.33308916504E+03  0.25500000000E-02 0.  1.
         -2   -1    0    0    0  501 -0.00000000000E+00 -0.00000000000E+00 -0.13623496783E+03  0.13623496786E+03  0.25500000000E-02 0. -1.
    5000001    1    1    2    0    0  0.45402439570E+02 -0.80250349139E+02  0.14155656334E+03  0.25275237028E+03  0.18800000000E+03 0.  0.
   -5000001    1    1    2    0    0 -0.45402439570E+02  0.80250349139E+02  0.55297633858E+02  0.21657176262E+03  0.18800000000E+03 0.  0.
<mgrwt>
<rscale>  0 0.42604409E+03</rscale>
<asrwt>0</asrwt>
<pdfrwt beam="1">  1        2 0.47584166E-01 0.42604409E+03</pdfrwt>
<pdfrwt beam="2">  1       -2 0.19462138E-01 0.42604409E+03</pdfrwt>
<totfact> 0.23483232E+03</totfact>
</mgrwt>
</event>
<event>
 4    1  0.5985962E-005  0.6104707E+03  0.7818608E-02  0.9883918E-01
         -2   -1    0    0    0  501 -0.00000000000E+00  0.00000000000E+00  0.37213034829E+02  0.37213034916E+02  0.25500000000E-02 0. -1.
          2   -1    0    0  501    0  0.00000000000E+00 -0.00000000000E+00 -0.25036554182E+04  0.25036554182E+04  0.25500000000E-02 0.  1.
    5000001    1    1    2    0    0  0.84366082462E+02  0.18423940745E+03 -0.17720997699E+04  0.17935281960E+04  0.18800000000E+03 0.  0.
   -5000001    1    1    2    0    0 -0.84366082462E+02 -0.18423940745E+03 -0.69434261348E+03  0.74734025720E+03  0.18800000000E+03 0.  0.
<mgrwt>
<rscale>  0 0.61047069E+03</rscale>
<asrwt>0</asrwt>
<pdfrwt beam="1">  1        2 0.35766495E+00 0.61047069E+03</pdfrwt>
<pdfrwt beam="2">  1       -2 0.53161494E-02 0.61047069E+03</pdfrwt>
<totfact> 0.85901911E+02</totfact>
</mgrwt>
</event>
<event>
 4    1  0.5985962E-005  0.6865183E+03  0.7818608E-02  0.9740570E-01
          2   -1    0    0  501    0  0.00000000000E+00  0.00000000000E+00  0.42861795250E+03  0.42861795251E+03  0.25500000000E-02 0.  1.
         -2   -1    0    0    0  501 -0.00000000000E+00 -0.00000000000E+00 -0.27489945672E+03  0.27489945673E+03  0.25500000000E-02 0. -1.
    5000001    1    1    2    0    0 -0.40169134872E+02  0.28199574628E+03  0.11447904453E+03  0.35997862708E+03  0.18800000000E+03 0.  0.
   -5000001    1    1    2    0    0  0.40169134872E+02 -0.28199574628E+03  0.39239451252E+02  0.34353878216E+03  0.18800000000E+03 0.  0.
<mgrwt>
<rscale>  0 0.68651829E+03</rscale>
<asrwt>0</asrwt>
<pdfrwt beam="1">  1        2 0.61231136E-01 0.68651829E+03</pdfrwt>
<pdfrwt beam="2">  1       -2 0.39271351E-01 0.68651829E+03</pdfrwt>
<totfact> 0.49373268E+02</totfact>
</mgrwt>
</event>
<event>
 4    1  0.5985962E-005  0.5291435E+03  0.7818608E-02  0.1006440E+00
          2   -1    0    0  501    0  0.00000000000E+00  0.00000000000E+00  0.43669708552E+03  0.43669708553E+03  0.25500000000E-02 0.  1.
         -2   -1    0    0    0  501 -0.00000000000E+00 -0.00000000000E+00 -0.16029009665E+03  0.16029009667E+03  0.25500000000E-02 0. -1.
    5000001    1    1    2    0    0 -0.16443790464E+03 -0.33174024488E+02  0.47146917921E+02  0.25633410279E+03  0.18800000000E+03 0.  0.
   -5000001    1    1    2    0    0  0.16443790464E+03  0.33174024488E+02  0.22926007095E+03  0.34065307941E+03  0.18800000000E+03 0.  0.
<mgrwt>
<rscale>  0 0.52914353E+03</rscale>
<asrwt>0</asrwt>
<pdfrwt beam="1">  1        2 0.62385297E-01 0.52914353E+03</pdfrwt>
<pdfrwt beam="2">  1       -2 0.22898586E-01 0.52914353E+03</pdfrwt>
<totfact> 0.13138507E+03</totfact>
</mgrwt>
</event>
<event>
 4    1  0.5985962E-005  0.8850504E+03  0.7818608E-02  0.9444464E-01
         -2   -1    0    0    0  501 -0.00000000000E+00  0.00000000000E+00  0.13438444409E+03  0.13438444412E+03  0.25500000000E-02 0. -1.
          2   -1    0    0  501    0  0.00000000000E+00 -0.00000000000E+00 -0.14572264189E+04  0.14572264189E+04  0.25500000000E-02 0.  1.
    5000001    1    1    2    0    0  0.24077409301E+03  0.22558917440E+03 -0.10700093281E+04  0.11353971119E+04  0.18800000000E+03 0.  0.
   -5000001    1    1    2    0    0 -0.24077409301E+03 -0.22558917440E+03 -0.25283264669E+03  0.45621375112E+03  0.18800000000E+03 0.  0.
<mgrwt>
<rscale>  0 0.88505042E+03</rscale>
<asrwt>0</asrwt>
<pdfrwt beam="1">  1        2 0.20817519E+00 0.88505042E+03</pdfrwt>
<pdfrwt beam="2">  1       -2 0.19197779E-01 0.88505042E+03</pdfrwt>
<totfact> 0.35418646E+02</totfact>
</mgrwt>
</event>
<event>
 4    1  0.5985962E-005  0.7041111E+03  0.7818608E-02  0.9710227E-01
          2   -1    0    0  501    0  0.00000000000E+00  0.00000000000E+00  0.28518319514E+03  0.28518319515E+03  0.25500000000E-02 0. -1.
         -2   -1    0    0    0  501 -0.00000000000E+00 -0.00000000000E+00 -0.43460874314E+03  0.43460874315E+03  0.25500000000E-02 0.  1.
    5000001    1    1    2    0    0  0.28590824041E+03  0.74324844287E+02 -0.37411730820E+02  0.35215244144E+03  0.18800000000E+03 0.  0.
   -5000001    1    1    2    0    0 -0.28590824041E+03 -0.74324844287E+02 -0.11201381718E+03  0.36763949686E+03  0.18800000000E+03 0.  0.
<mgrwt>
<rscale>  0 0.70411110E+03</rscale>
<asrwt>0</asrwt>
<pdfrwt beam="1">  1        2 0.40740456E-01 0.70411110E+03</pdfrwt>
<pdfrwt beam="2">  1       -2 0.62086963E-01 0.70411110E+03</pdfrwt>
<totfact> 0.30663922E+02</totfact>
</mgrwt>
</event>
<event>
 4    1  0.5985962E-005  0.9409101E+03  0.7818608E-02  0.9375839E-01
          2   -1    0    0  501    0  0.00000000000E+00  0.00000000000E+00  0.13946827496E+04  0.13946827497E+04  0.25500000000E-02 0.  1.
         -2   -1    0    0    0  501 -0.00000000000E+00 -0.00000000000E+00 -0.15869412583E+03  0.15869412585E+03  0.25500000000E-02 0. -1.
    5000001    1    1    2    0    0 -0.10063761894E+02  0.41473983644E+03  0.81245081825E+03  0.93141330423E+03  0.18800000000E+03 0.  0.
   -5000001    1    1    2    0    0  0.10063761894E+02 -0.41473983644E+03  0.42353780558E+03  0.62196357127E+03  0.18800000000E+03 0.  0.
<mgrwt>
<rscale>  0 0.94091011E+03</rscale>
<asrwt>0</asrwt>
<pdfrwt beam="1">  1        2 0.19924040E+00 0.94091011E+03</pdfrwt>
<pdfrwt beam="2">  1       -2 0.22670589E-01 0.94091011E+03</pdfrwt>
<totfact> 0.28448531E+02</totfact>
</mgrwt>
</event>
<event>
 4    1  0.5985962E-005  0.5065352E+03  0.7818608E-02  0.1012087E+00
          2   -1    0    0  501    0  0.00000000000E+00  0.00000000000E+00  0.20548134040E+03  0.20548134042E+03  0.25500000000E-02 0.  1.
         -2   -1    0    0    0  501 -0.00000000000E+00 -0.00000000000E+00 -0.31216686424E+03  0.31216686425E+03  0.25500000000E-02 0. -1.
    5000001    1    1    2    0    0 -0.86035713376E+02  0.13415671562E+03 -0.11293415948E+03  0.27110568548E+03  0.18800000000E+03 0.  0.
   -5000001    1    1    2    0    0  0.86035713376E+02 -0.13415671562E+03  0.62486356339E+01  0.24654251919E+03  0.18800000000E+03 0.  0.
<mgrwt>
<rscale>  0 0.50653515E+03</rscale>
<asrwt>0</asrwt>
<pdfrwt beam="1">  1        2 0.29354477E-01 0.50653515E+03</pdfrwt>
<pdfrwt beam="2">  1       -2 0.44595266E-01 0.50653515E+03</pdfrwt>
<totfact> 0.87268530E+02</totfact>
</mgrwt>
</event>
<event>
 4    1  0.5985962E-005  0.4201694E+03  0.7818608E-02  0.1037011E+00
         -2   -1    0    0    0  501 -0.00000000000E+00  0.00000000000E+00  0.31899183364E+02  0.31899183466E+02  0.25500000000E-02 0. -1.
          2   -1    0    0  501    0  0.00000000000E+00 -0.00000000000E+00 -0.13835960109E+04  0.13835960109E+04  0.25500000000E-02 0.  1.
    5000001    1    1    2    0    0  0.81731180727E+02  0.23158493133E+02 -0.80955814564E+03  0.83543084267E+03  0.18800000000E+03 0.  0.
   -5000001    1    1    2    0    0 -0.81731180727E+02 -0.23158493133E+02 -0.54213868190E+03  0.58006435171E+03  0.18800000000E+03 0.  0.
<mgrwt>
<rscale>  0 0.42016941E+03</rscale>
<asrwt>0</asrwt>
<pdfrwt beam="1">  1        2 0.19765653E+00 0.42016941E+03</pdfrwt>
<pdfrwt beam="2">  1       -2 0.45570271E-02 0.42016941E+03</pdfrwt>
<totfact> 0.40507575E+03</totfact>
</mgrwt>
</event>
<event>
 4    1  0.5985962E-005  0.6209796E+03  0.7818608E-02  0.9862811E-01
         -2   -1    0    0    0  501 -0.00000000000E+00  0.00000000000E+00  0.44601741064E+03  0.44601741065E+03  0.25500000000E-02 0. -1.
          2   -1    0    0  501    0  0.00000000000E+00 -0.00000000000E+00 -0.21614387395E+03  0.21614387396E+03  0.25500000000E-02 0.  1.
    5000001    1    1    2    0    0 -0.21048682795E+03  0.12553275133E+03  0.14860191731E+03  0.34276771468E+03  0.18800000000E+03 0.  0.
   -5000001    1    1    2    0    0  0.21048682795E+03 -0.12553275133E+03  0.81271619386E+02  0.31939356993E+03  0.18800000000E+03 0.  0.
<mgrwt>
<rscale>  0 0.62097965E+03</rscale>
<asrwt>0</asrwt>
<pdfrwt beam="1">  1        2 0.30877697E-01 0.62097965E+03</pdfrwt>
<pdfrwt beam="2">  1       -2 0.63716772E-01 0.62097965E+03</pdfrwt>
<totfact> 0.39611727E+02</totfact>
</mgrwt>
</event>
<event>
 4    1  0.5985962E-005  0.6690676E+03  0.7818608E-02  0.9771644E-01
          2   -1    0    0  501    0  0.00000000000E+00  0.00000000000E+00  0.15801748065E+04  0.15801748065E+04  0.25500000000E-02 0.  1.
         -2   -1    0    0    0  501 -0.00000000000E+00 -0.00000000000E+00 -0.70823081830E+02  0.70823081876E+02  0.25500000000E-02 0. -1.
    5000001    1    1    2    0    0  0.25103855181E+03  0.11634814391E+03  0.76308189747E+03  0.83318378965E+03  0.18800000000E+03 0.  0.
   -5000001    1    1    2    0    0 -0.25103855181E+03 -0.11634814391E+03  0.74626982717E+03  0.81781409870E+03  0.18800000000E+03 0.  0.
<mgrwt>
<rscale>  0 0.66906756E+03</rscale>
<asrwt>0</asrwt>
<pdfrwt beam="1">  1        2 0.22573924E+00 0.66906756E+03</pdfrwt>
<pdfrwt beam="2">  1       -2 0.10117584E-01 0.66906756E+03</pdfrwt>
<totfact> 0.90561207E+02</totfact>
</mgrwt>
</event>
<event>
 4    1  0.5985962E-005  0.4614177E+03  0.7818608E-02  0.1024371E+00
          2   -1    0    0  501    0  0.00000000000E+00  0.00000000000E+00  0.12764672173E+04  0.12764672173E+04  0.25500000000E-02 0.  1.
         -2   -1    0    0    0  501 -0.00000000000E+00 -0.00000000000E+00 -0.41698356176E+02  0.41698356254E+02  0.25500000000E-02 0. -1.
    5000001    1    1    2    0    0 -0.56535451452E+02  0.53559151209E+02  0.30682625101E+03  0.36817276958E+03  0.18800000000E+03 0.  0.
   -5000001    1    1    2    0    0  0.56535451452E+02 -0.53559151209E+02  0.92794261012E+03  0.94999280399E+03  0.18800000000E+03 0.  0.
<mgrwt>
<rscale>  0 0.46141775E+03</rscale>
<asrwt>0</asrwt>
<pdfrwt beam="1">  1        2 0.18235249E+00 0.46141775E+03</pdfrwt>
<pdfrwt beam="2">  1       -2 0.59569070E-02 0.46141775E+03</pdfrwt>
<totfact> 0.30564251E+03</totfact>
</mgrwt>
</event>
<event>
 4    1  0.5985962E-005  0.5843689E+03  0.7818608E-02  0.9938377E-01
          2   -1    0    0  501    0  0.00000000000E+00  0.00000000000E+00  0.22791247534E+03  0.22791247536E+03  0.25500000000E-02 0. -1.
         -2   -1    0    0    0  501 -0.00000000000E+00 -0.00000000000E+00 -0.37458134519E+03  0.37458134520E+03  0.25500000000E-02 0.  1.
    5000001    1    1    2    0    0 -0.12207092348E+03  0.17320912592E+03 -0.14714432031E+03  0.31921491610E+03  0.18800000000E+03 0.  0.
   -5000001    1    1    2    0    0  0.12207092348E+03 -0.17320912592E+03  0.47545046200E+00  0.28327890446E+03  0.18800000000E+03 0.  0.
<mgrwt>
<rscale>  0 0.58436893E+03</rscale>
<asrwt>0</asrwt>
<pdfrwt beam="1">  1        2 0.32558925E-01 0.58436893E+03</pdfrwt>
<pdfrwt beam="2">  1       -2 0.53511621E-01 0.58436893E+03</pdfrwt>
<totfact> 0.53809735E+02</totfact>
</mgrwt>
</event>
<event>
 4    1  0.5985962E-005  0.5158177E+03  0.7818608E-02  0.1009731E+00
         -2   -1    0    0    0  501 -0.00000000000E+00  0.00000000000E+00  0.31921267958E+02  0.31921268059E+02  0.25500000000E-02 0. -1.
          2   -1    0    0  501    0  0.00000000000E+00 -0.00000000000E+00 -0.20837825447E+04  0.20837825447E+04  0.25500000000E-02 0.  1.
    5000001    1    1    2    0    0  0.46472499836E+02 -0.10957308937E+03 -0.15608308809E+04  0.15766112374E+04  0.18800000000E+03 0.  0.
   -5000001    1    1    2    0    0 -0.46472499836E+02  0.10957308937E+03 -0.49103039583E+03  0.53909257534E+03  0.18800000000E+03 0.  0.
<mgrwt>
<rscale>  0 0.51581772E+03</rscale>
<asrwt>0</asrwt>
<pdfrwt beam="1">  1        2 0.29768314E+00 0.51581772E+03</pdfrwt>
<pdfrwt beam="2">  1       -2 0.45601825E-02 0.51581772E+03</pdfrwt>
<totfact> 0.17861054E+03</totfact>
</mgrwt>
</event>
<event>
 4    1  0.5985962E-005  0.7830477E+03  0.7818608E-02  0.9584884E-01
         -2   -1    0    0    0  501 -0.00000000000E+00  0.00000000000E+00  0.67183660610E+02  0.67183660659E+02  0.25500000000E-02 0. -1.
          2   -1    0    0  501    0  0.00000000000E+00 -0.00000000000E+00 -0.22816699463E+04  0.22816699463E+04  0.25500000000E-02 0.  1.
    5000001    1    1    2    0    0 -0.28514896781E+03 -0.27699611889E+02 -0.53913396167E+03  0.63881658633E+03  0.18800000000E+03 0.  0.
   -5000001    1    1    2    0    0  0.28514896781E+03  0.27699611889E+02 -0.16753523240E+04  0.17100370207E+04  0.18800000000E+03 0.  0.
<mgrwt>
<rscale>  0 0.78304774E+03</rscale>
<asrwt>0</asrwt>
<pdfrwt beam="1">  1        2 0.32595280E+00 0.78304774E+03</pdfrwt>
<pdfrwt beam="2">  1       -2 0.95976672E-02 0.78304774E+03</pdfrwt>
<totfact> 0.43112556E+02</totfact>
</mgrwt>
</event>
<event>
 4    1  0.5985962E-005  0.5946385E+03  0.7818608E-02  0.9916592E-01
         -2   -1    0    0    0  501 -0.00000000000E+00  0.00000000000E+00  0.22413435949E+03  0.22413435951E+03  0.25500000000E-02 0. -1.
          2   -1    0    0  501    0  0.00000000000E+00 -0.00000000000E+00 -0.39440059055E+03  0.39440059056E+03  0.25500000000E-02 0.  1.
    5000001    1    1    2    0    0  0.16967024931E+03 -0.15536183601E+03 -0.96967045774E+02  0.31252504148E+03  0.18800000000E+03 0.  0.
   -5000001    1    1    2    0    0 -0.16967024931E+03  0.15536183601E+03 -0.73299185282E+02  0.30600990858E+03  0.18800000000E+03 0.  0.
<mgrwt>
<rscale>  0 0.59463846E+03</rscale>
<asrwt>0</asrwt>
<pdfrwt beam="1">  1        2 0.56342941E-01 0.59463846E+03</pdfrwt>
<pdfrwt beam="2">  1       -2 0.32019194E-01 0.59463846E+03</pdfrwt>
<totfact> 0.80020579E+02</totfact>
</mgrwt>
</event>
<event>
 4    1  0.5985962E-005  0.7011829E+03  0.7818608E-02  0.9715211E-01
         -2   -1    0    0    0  501 -0.00000000000E+00  0.00000000000E+00  0.10867490974E+03  0.10867490977E+03  0.25500000000E-02 0. -1.
          2   -1    0    0  501    0  0.00000000000E+00 -0.00000000000E+00 -0.11310280360E+04  0.11310280360E+04  0.25500000000E-02 0.  1.
    5000001    1    1    2    0    0 -0.16605524924E+03  0.24442027172E+03 -0.48295718586E+03  0.59657963291E+03  0.18800000000E+03 0.  0.
   -5000001    1    1    2    0    0  0.16605524924E+03 -0.24442027172E+03 -0.53939594036E+03  0.64312331283E+03  0.18800000000E+03 0.  0.
<mgrwt>
<rscale>  0 0.70118291E+03</rscale>
<asrwt>0</asrwt>
<pdfrwt beam="1">  1        2 0.16157543E+00 0.70118291E+03</pdfrwt>
<pdfrwt beam="2">  1       -2 0.15524988E-01 0.70118291E+03</pdfrwt>
<totfact> 0.77853531E+02</totfact>
</mgrwt>
</event>
<event>
 4    1  0.5985962E-005  0.4784927E+03  0.7818608E-02  0.1019550E+00
         -2   -1    0    0    0  501 -0.00000000000E+00  0.00000000000E+00  0.10452066874E+03  0.10452066877E+03  0.25500000000E-02 0. -1.
          2   -1    0    0  501    0  0.00000000000E+00 -0.00000000000E+00 -0.54763153363E+03  0.54763153363E+03  0.25500000000E-02 0.  1.
    5000001    1    1    2    0    0 -0.10341197886E+03  0.93271128790E+02 -0.28971930077E+03  0.37239067399E+03  0.18800000000E+03 0.  0.
   -5000001    1    1    2    0    0  0.10341197886E+03 -0.93271128790E+02 -0.15339156412E+03  0.27976152841E+03  0.18800000000E+03 0.  0.
<mgrwt>
<rscale>  0 0.47849269E+03</rscale>
<asrwt>0</asrwt>
<pdfrwt beam="1">  1        2 0.78233075E-01 0.47849269E+03</pdfrwt>
<pdfrwt beam="2">  1       -2 0.14931524E-01 0.47849269E+03</pdfrwt>
<totfact> 0.21215030E+03</totfact>
</mgrwt>
</event>
<event>
 4    1  0.5985962E-005  0.5956300E+03  0.7818608E-02  0.9914514E-01
          2   -1    0    0  501    0  0.00000000000E+00  0.00000000000E+00  0.13027943527E+04  0.13027943527E+04  0.25500000000E-02 0.  1.
         -2   -1    0    0    0  501 -0.00000000000E+00 -0.00000000000E+00 -0.68079654205E+02  0.68079654252E+02  0.25500000000E-02 0. -1.
    5000001    1    1    2    0    0 -0.19674345276E+03 -0.12054805170E+03  0.64149295728E+03  0.70717539070E+03  0.18800000000E+03 0.  0.
   -5000001    1    1    2    0    0  0.19674345276E+03  0.12054805170E+03  0.59322174126E+03  0.66369861630E+03  0.18800000000E+03 0.  0.
<mgrwt>
<rscale>  0 0.59563005E+03</rscale>
<asrwt>0</asrwt>
<pdfrwt beam="1">  1        2 0.18611348E+00 0.59563005E+03</pdfrwt>
<pdfrwt beam="2">  1       -2 0.97256651E-02 0.59563005E+03</pdfrwt>
<totfact> 0.13569666E+03</totfact>
</mgrwt>
</event>
<event>
 4    1  0.5985962E-005  0.7355321E+03  0.7818608E-02  0.9658326E-01
          2   -1    0    0  501    0  0.00000000000E+00  0.00000000000E+00  0.12151236541E+04  0.12151236541E+04  0.25500000000E-02 0. -1.
         -2   -1    0    0    0  501 -0.00000000000E+00 -0.00000000000E+00 -0.11130708086E+03  0.11130708089E+03  0.25500000000E-02 0.  1.
    5000001    1    1    2    0    0 -0.88521254364E+02 -0.27993473333E+03  0.34076546452E+03  0.48750853245E+03  0.18800000000E+03 0.  0.
   -5000001    1    1    2    0    0  0.88521254364E+02  0.27993473333E+03  0.76305110869E+03  0.83892220252E+03  0.18800000000E+03 0.  0.
<mgrwt>
<rscale>  0 0.73553210E+03</rscale>
<asrwt>0</asrwt>
<pdfrwt beam="1">  1        2 0.17358910E+00 0.73553210E+03</pdfrwt>
<pdfrwt beam="2">  1       -2 0.15901011E-01 0.73553210E+03</pdfrwt>
<totfact> 0.66863022E+02</totfact>
</mgrwt>
</event>
<event>
 4    1  0.5985962E-005  0.5528622E+03  0.7818608E-02  0.1000834E+00
         -2   -1    0    0    0  501 -0.00000000000E+00  0.00000000000E+00  0.12414807683E+03  0.12414807686E+03  0.25500000000E-02 0. -1.
          2   -1    0    0  501    0  0.00000000000E+00 -0.00000000000E+00 -0.61550809441E+03  0.61550809442E+03  0.25500000000E-02 0.  1.
    5000001    1    1    2    0    0  0.18071550401E+03  0.57712246110E+02 -0.34104797894E+03  0.43318185636E+03  0.18800000000E+03 0.  0.
   -5000001    1    1    2    0    0 -0.18071550401E+03 -0.57712246110E+02 -0.15031203864E+03  0.30647431491E+03  0.18800000000E+03 0.  0.
<mgrwt>
<rscale>  0 0.55286218E+03</rscale>
<asrwt>0</asrwt>
<pdfrwt beam="1">  1        2 0.87929726E-01 0.55286218E+03</pdfrwt>
<pdfrwt beam="2">  1       -2 0.17735440E-01 0.55286218E+03</pdfrwt>
<totfact> 0.13843332E+03</totfact>
</mgrwt>
</event>
<event>
 4    1  0.5985962E-005  0.6050301E+03  0.7818608E-02  0.9895025E-01
         -2   -1    0    0    0  501 -0.00000000000E+00  0.00000000000E+00  0.21229702356E+03  0.21229702357E+03  0.25500000000E-02 0. -1.
          2   -1    0    0  501    0  0.00000000000E+00 -0.00000000000E+00 -0.43107231379E+03  0.43107231380E+03  0.25500000000E-02 0.  1.
    5000001    1    1    2    0    0  0.89406128650E+02 -0.96862426054E+02 -0.31883481222E+03  0.39290637931E+03  0.18800000000E+03 0.  0.
   -5000001    1    1    2    0    0 -0.89406128650E+02  0.96862426054E+02  0.10005952198E+03  0.25046295806E+03  0.18800000000E+03 0.  0.
<mgrwt>
<rscale>  0 0.60503015E+03</rscale>
<asrwt>0</asrwt>
<pdfrwt beam="1">  1        2 0.61581759E-01 0.60503015E+03</pdfrwt>
<pdfrwt beam="2">  1       -2 0.30328146E-01 0.60503015E+03</pdfrwt>
<totfact> 0.80154669E+02</totfact>
</mgrwt>
</event>
<event>
 4    1  0.5985962E-005  0.4253807E+03  0.7818608E-02  0.1035329E+00
          2   -1    0    0  501    0  0.00000000000E+00  0.00000000000E+00  0.13400247567E+04  0.13400247567E+04  0.25500000000E-02 0.  1.
         -2   -1    0    0    0  501 -0.00000000000E+00 -0.00000000000E+00 -0.33758465377E+02  0.33758465473E+02  0.25500000000E-02 0. -1.
    5000001    1    1    2    0    0  0.57316614492E+02 -0.33766987730E+02  0.89193945508E+03  0.91396137516E+03  0.18800000000E+03 0.  0.
   -5000001    1    1    2    0    0 -0.57316614492E+02  0.33766987730E+02  0.41432683621E+03  0.45982184698E+03  0.18800000000E+03 0.  0.
<mgrwt>
<rscale>  0 0.42538067E+03</rscale>
<asrwt>0</asrwt>
<pdfrwt beam="1">  1        2 0.19143207E+00 0.42538067E+03</pdfrwt>
<pdfrwt beam="2">  1       -2 0.48226389E-02 0.42538067E+03</pdfrwt>
<totfact> 0.39160026E+03</totfact>
</mgrwt>
</event>
<event>
 4    1  0.5985962E-005  0.6803417E+03  0.7818608E-02  0.9751454E-01
         -2   -1    0    0    0  501 -0.00000000000E+00  0.00000000000E+00  0.75915875350E+02  0.75915875393E+02  0.25500000000E-02 0. -1.
          2   -1    0    0  501    0  0.00000000000E+00 -0.00000000000E+00 -0.15242688370E+04  0.15242688370E+04  0.25500000000E-02 0.  1.
    5000001    1    1    2    0    0 -0.27687295920E+03 -0.13365581267E+02 -0.58433585232E+03  0.67352035055E+03  0.18800000000E+03 0.  0.
   -5000001    1    1    2    0    0  0.27687295920E+03  0.13365581267E+02 -0.86401710929E+03  0.92666436181E+03  0.18800000000E+03 0.  0.
<mgrwt>
<rscale>  0 0.68034169E+03</rscale>
<asrwt>0</asrwt>
<pdfrwt beam="1">  1        2 0.21775267E+00 0.68034169E+03</pdfrwt>
<pdfrwt beam="2">  1       -2 0.10845126E-01 0.68034169E+03</pdfrwt>
<totfact> 0.86411426E+02</totfact>
</mgrwt>
</event>
<event>
 4    1  0.5985962E-005  0.7236875E+03  0.7818608E-02  0.9677559E-01
          2   -1    0    0  501    0  0.00000000000E+00  0.00000000000E+00  0.20742040308E+04  0.20742040308E+04  0.25500000000E-02 0.  1.
         -2   -1    0    0    0  501 -0.00000000000E+00 -0.00000000000E+00 -0.63123446881E+02  0.63123446932E+02  0.25500000000E-02 0. -1.
    5000001    1    1    2    0    0  0.15150168937E+03  0.23143135159E+03  0.14134247713E+04  0.14524554439E+04  0.18800000000E+03 0.  0.
   -5000001    1    1    2    0    0 -0.15150168937E+03 -0.23143135159E+03  0.59765581265E+03  0.68487203386E+03  0.18800000000E+03 0.  0.
<mgrwt>
<rscale>  0 0.72368752E+03</rscale>
<asrwt>0</asrwt>
<pdfrwt beam="1">  1        2 0.29631481E+00 0.72368752E+03</pdfrwt>
<pdfrwt beam="2">  1       -2 0.90176368E-02 0.72368752E+03</pdfrwt>
<totfact> 0.61016030E+02</totfact>
</mgrwt>
</event>
<event>
 4    1  0.5985962E-005  0.4452995E+03  0.7818608E-02  0.1029133E+00
         -2   -1    0    0    0  501 -0.00000000000E+00  0.00000000000E+00  0.17413505500E+04  0.17413505500E+04  0.25500000000E-02 0. -1.
          2   -1    0    0  501    0  0.00000000000E+00 -0.00000000000E+00 -0.28468087872E+02  0.28468087987E+02  0.25500000000E-02 0.  1.
    5000001    1    1    2    0    0 -0.92155440550E+02 -0.45937837644E+02  0.10957678691E+04  0.11165366689E+04  0.18800000000E+03 0.  0.
   -5000001    1    1    2    0    0  0.92155440550E+02  0.45937837644E+02  0.61711459307E+03  0.65328196909E+03  0.18800000000E+03 0.  0.
<mgrwt>
<rscale>  0 0.44529954E+03</rscale>
<asrwt>0</asrwt>
<pdfrwt beam="1">  1        2 0.40668694E-02 0.44529954E+03</pdfrwt>
<pdfrwt beam="2">  1       -2 0.24876438E+00 0.44529954E+03</pdfrwt>
<totfact> 0.14988544E+02</totfact>
</mgrwt>
</event>
<event>
 4    1  0.5985962E-005  0.6405453E+03  0.7818608E-02  0.9824684E-01
          2   -1    0    0  501    0  0.00000000000E+00  0.00000000000E+00  0.84338525788E+03  0.84338525788E+03  0.25500000000E-02 0.  1.
         -2   -1    0    0    0  501 -0.00000000000E+00 -0.00000000000E+00 -0.12162242769E+03  0.12162242772E+03  0.25500000000E-02 0. -1.
    5000001    1    1    2    0    0  0.69046787417E+02 -0.18426124290E+03  0.10649940866E+03  0.29224268773E+03  0.18800000000E+03 0.  0.
   -5000001    1    1    2    0    0 -0.69046787417E+02  0.18426124290E+03  0.61526342153E+03  0.67276499787E+03  0.18800000000E+03 0.  0.
<mgrwt>
<rscale>  0 0.64054528E+03</rscale>
<asrwt>0</asrwt>
<pdfrwt beam="1">  1        2 0.12048361E+00 0.64054528E+03</pdfrwt>
<pdfrwt beam="2">  1       -2 0.17374632E-01 0.64054528E+03</pdfrwt>
<totfact> 0.97003776E+02</totfact>
</mgrwt>
</event>
<event>
 4    1  0.5985962E-005  0.8822587E+03  0.7818608E-02  0.9448035E-01
         -2   -1    0    0    0  501 -0.00000000000E+00  0.00000000000E+00  0.33202826516E+03  0.33202826517E+03  0.25500000000E-02 0. -1.
          2   -1    0    0  501    0  0.00000000000E+00 -0.00000000000E+00 -0.58607995882E+03  0.58607995883E+03  0.25500000000E-02 0.  1.
    5000001    1    1    2    0    0 -0.22654456332E+03  0.31279342445E+03 -0.22500690340E+02  0.43013073200E+03  0.18800000000E+03 0.  0.
   -5000001    1    1    2    0    0  0.22654456332E+03 -0.31279342445E+03 -0.23155100333E+03  0.48797749199E+03  0.18800000000E+03 0.  0.
<mgrwt>
<rscale>  0 0.88225872E+03</rscale>
<asrwt>0</asrwt>
<pdfrwt beam="1">  1        2 0.83725709E-01 0.88225872E+03</pdfrwt>
<pdfrwt beam="2">  1       -2 0.47432609E-01 0.88225872E+03</pdfrwt>
<totfact> 0.23577079E+02</totfact>
</mgrwt>
</event>
<event>
 4    1  0.5985962E-005  0.7884413E+03  0.7818608E-02  0.9576900E-01
          2   -1    0    0  501    0  0.00000000000E+00  0.00000000000E+00  0.88312148490E+03  0.88312148490E+03  0.25500000000E-02 0.  1.
         -2   -1    0    0    0  501 -0.00000000000E+00 -0.00000000000E+00 -0.17597795103E+03  0.17597795105E+03  0.25500000000E-02 0. -1.
    5000001    1    1    2    0    0 -0.76504316385E+02 -0.33527689937E+03  0.41060039808E+03  0.56762681101E+03  0.18800000000E+03 0.  0.
   -5000001    1    1    2    0    0  0.76504316385E+02  0.33527689937E+03  0.29654313579E+03  0.49147262493E+03  0.18800000000E+03 0.  0.
<mgrwt>
<rscale>  0 0.78844127E+03</rscale>
<asrwt>0</asrwt>
<pdfrwt beam="1">  1        2 0.12616022E+00 0.78844127E+03</pdfrwt>
<pdfrwt beam="2">  1       -2 0.25139707E-01 0.78844127E+03</pdfrwt>
<totfact> 0.47460926E+02</totfact>
</mgrwt>
</event>
<event>
 4    1  0.5985962E-005  0.7449628E+03  0.7818608E-02  0.9643286E-01
         -2   -1    0    0    0  501 -0.00000000000E+00  0.00000000000E+00  0.60773682092E+02  0.60773682145E+02  0.25500000000E-02 0. -1.
          2   -1    0    0  501    0  0.00000000000E+00 -0.00000000000E+00 -0.22829357422E+04  0.22829357422E+04  0.25500000000E-02 0.  1.
    5000001    1    1    2    0    0 -0.29852991594E+03  0.11470242767E+03 -0.10057155126E+04  0.10719535670E+04  0.18800000000E+03 0.  0.
   -5000001    1    1    2    0    0  0.29852991594E+03 -0.11470242767E+03 -0.12164465475E+04  0.12717558573E+04  0.18800000000E+03 0.  0.
<mgrwt>
<rscale>  0 0.74496285E+03</rscale>
<asrwt>0</asrwt>
<pdfrwt beam="1">  1        2 0.32613362E+00 0.74496285E+03</pdfrwt>
<pdfrwt beam="2">  1       -2 0.86819560E-02 0.74496285E+03</pdfrwt>
<totfact> 0.50764680E+02</totfact>
</mgrwt>
</event>
<event>
 4    1  0.5985962E-005  0.7143604E+03  0.7818608E-02  0.9692984E-01
          2   -1    0    0  501    0  0.00000000000E+00  0.00000000000E+00  0.68339560934E+03  0.68339560934E+03  0.25500000000E-02 0.  1.
         -2   -1    0    0    0  501 -0.00000000000E+00 -0.00000000000E+00 -0.18668203082E+03  0.18668203084E+03  0.25500000000E-02 0. -1.
    5000001    1    1    2    0    0 -0.10631166373E+03 -0.27719603211E+03  0.17042624776E+03  0.39054950517E+03  0.18800000000E+03 0.  0.
   -5000001    1    1    2    0    0  0.10631166373E+03  0.27719603211E+03  0.32628733075E+03  0.47952813502E+03  0.18800000000E+03 0.  0.
<mgrwt>
<rscale>  0 0.71436036E+03</rscale>
<asrwt>0</asrwt>
<pdfrwt beam="1">  1        2 0.97627944E-01 0.71436036E+03</pdfrwt>
<pdfrwt beam="2">  1       -2 0.26668862E-01 0.71436036E+03</pdfrwt>
<totfact> 0.59295191E+02</totfact>
</mgrwt>
</event>
<event>
 4    1  0.5985962E-005  0.5355240E+03  0.7818608E-02  0.1004901E+00
          2   -1    0    0  501    0  0.00000000000E+00  0.00000000000E+00  0.20961030221E+04  0.20961030221E+04  0.25500000000E-02 0.  1.
         -2   -1    0    0    0  501 -0.00000000000E+00 -0.00000000000E+00 -0.34204661315E+02  0.34204661410E+02  0.25500000000E-02 0. -1.
    5000001    1    1    2    0    0  0.11261547001E+03  0.46101409197E+02  0.16148454774E+04  0.16302998190E+04  0.18800000000E+03 0.  0.
   -5000001    1    1    2    0    0 -0.11261547001E+03 -0.46101409197E+02  0.44705288343E+03  0.50000786454E+03  0.18800000000E+03 0.  0.
<mgrwt>
<rscale>  0 0.53552402E+03</rscale>
<asrwt>0</asrwt>
<pdfrwt beam="1">  1        2 0.29944336E+00 0.53552402E+03</pdfrwt>
<pdfrwt beam="2">  1       -2 0.48863791E-02 0.53552402E+03</pdfrwt>
<totfact> 0.15813777E+03</totfact>
</mgrwt>
</event>
<event>
 4    1  0.5985962E-005  0.1198646E+04  0.7818608E-02  0.9114042E-01
          2   -1    0    0  501    0  0.00000000000E+00  0.00000000000E+00  0.17392990425E+04  0.17392990425E+04  0.25500000000E-02 0.  1.
         -2   -1    0    0    0  501 -0.00000000000E+00 -0.00000000000E+00 -0.20651317383E+03  0.20651317385E+03  0.25500000000E-02 0. -1.
    5000001    1    1    2    0    0  0.51743257240E+03  0.12977131061E+03  0.44471270851E+03  0.71950709041E+03  0.18800000000E+03 0.  0.
   -5000001    1    1    2    0    0 -0.51743257240E+03 -0.12977131061E+03  0.10880731602E+04  0.12263051259E+04  0.18800000000E+03 0.  0.
<mgrwt>
<rscale>  0 0.11986462E+04</rscale>
<asrwt>0</asrwt>
<pdfrwt beam="1">  1        2 0.24847130E+00 0.11986462E+04</pdfrwt>
<pdfrwt beam="2">  1       -2 0.29501881E-01 0.11986462E+04</pdfrwt>
<totfact> 0.11418162E+02</totfact>
</mgrwt>
</event>
<event>
 4    1  0.5985962E-005  0.4285327E+03  0.7818608E-02  0.1034324E+00
         -2   -1    0    0    0  501 -0.00000000000E+00  0.00000000000E+00  0.15863231520E+03  0.15863231522E+03  0.25500000000E-02 0. -1.
          2   -1    0    0  501    0  0.00000000000E+00 -0.00000000000E+00 -0.28941188418E+03  0.28941188419E+03  0.25500000000E-02 0.  1.
    5000001    1    1    2    0    0 -0.91395445495E+02  0.11775779947E+02 -0.17771842205E+02  0.21012290410E+03  0.18800000000E+03 0.  0.
   -5000001    1    1    2    0    0  0.91395445495E+02 -0.11775779947E+02 -0.11300772678E+03  0.23792129531E+03  0.18800000000E+03 0.  0.
<mgrwt>
<rscale>  0 0.42853274E+03</rscale>
<asrwt>0</asrwt>
<pdfrwt beam="1">  1        2 0.41344555E-01 0.42853274E+03</pdfrwt>
<pdfrwt beam="2">  1       -2 0.22661759E-01 0.42853274E+03</pdfrwt>
<totfact> 0.21011166E+03</totfact>
</mgrwt>
</event>
<event>
 4    1  0.5985962E-005  0.6384005E+03  0.7818608E-02  0.9828792E-01
          2   -1    0    0  501    0  0.00000000000E+00  0.00000000000E+00  0.22878775599E+04  0.22878775599E+04  0.25500000000E-02 0.  1.
         -2   -1    0    0    0  501 -0.00000000000E+00 -0.00000000000E+00 -0.44534201475E+02  0.44534201548E+02  0.25500000000E-02 0. -1.
    5000001    1    1    2    0    0 -0.48629451384E+02  0.24546202852E+03  0.13506625439E+04  0.13864522128E+04  0.18800000000E+03 0.  0.
   -5000001    1    1    2    0    0  0.48629451384E+02 -0.24546202852E+03  0.89268081456E+03  0.94595954864E+03  0.18800000000E+03 0.  0.
<mgrwt>
<rscale>  0 0.63840050E+03</rscale>
<asrwt>0</asrwt>
<pdfrwt beam="1">  1        2 0.32683971E+00 0.63840050E+03</pdfrwt>
<pdfrwt beam="2">  1       -2 0.63620276E-02 0.63840050E+03</pdfrwt>
<totfact> 0.83391470E+02</totfact>
</mgrwt>
</event>
<event>
 4    1  0.5985962E-005  0.1658521E+04  0.7818608E-02  0.8785382E-01
         -2   -1    0    0    0  501 -0.00000000000E+00  0.00000000000E+00  0.25103315354E+03  0.25103315355E+03  0.25500000000E-02 0. -1.
          2   -1    0    0  501    0  0.00000000000E+00 -0.00000000000E+00 -0.27393698887E+04  0.27393698887E+04  0.25500000000E-02 0.  1.
    5000001    1    1    2    0    0  0.23451580520E+03 -0.68701644909E+03 -0.18825092390E+04  0.20263697341E+04  0.18800000000E+03 0.  0.
   -5000001    1    1    2    0    0 -0.23451580520E+03  0.68701644909E+03 -0.60582749620E+03  0.96403330822E+03  0.18800000000E+03 0.  0.
<mgrwt>
<rscale>  0 0.16585206E+04</rscale>
<asrwt>0</asrwt>
<pdfrwt beam="1">  1        2 0.39133854E+00 0.16585206E+04</pdfrwt>
<pdfrwt beam="2">  1       -2 0.35861881E-01 0.16585206E+04</pdfrwt>
<totfact> 0.23004590E+01</totfact>
</mgrwt>
</event>
<event>
 4    1  0.5985962E-005  0.7341706E+03  0.7818608E-02  0.9660517E-01
          2   -1    0    0  501    0  0.00000000000E+00  0.00000000000E+00  0.14128401005E+04  0.14128401005E+04  0.25500000000E-02 0.  1.
         -2   -1    0    0    0  501 -0.00000000000E+00 -0.00000000000E+00 -0.95376400607E+02  0.95376400641E+02  0.25500000000E-02 0. -1.
    5000001    1    1    2    0    0  0.58840459682E+02  0.20785367211E+03  0.18694474379E+03  0.34199076878E+03  0.18800000000E+03 0.  0.
   -5000001    1    1    2    0    0 -0.58840459682E+02 -0.20785367211E+03  0.11305189561E+04  0.11662257324E+04  0.18800000000E+03 0.  0.
<mgrwt>
<rscale>  0 0.73417056E+03</rscale>
<asrwt>0</asrwt>
<pdfrwt beam="1">  1        2 0.20183429E+00 0.73417056E+03</pdfrwt>
<pdfrwt beam="2">  1       -2 0.13625201E-01 0.73417056E+03</pdfrwt>
<totfact> 0.67662961E+02</totfact>
</mgrwt>
</event>
<event>
 4    1  0.5985962E-005  0.8302836E+03  0.7818608E-02  0.9517189E-01
         -2   -1    0    0    0  501 -0.00000000000E+00  0.00000000000E+00  0.15186932730E+04  0.15186932730E+04  0.25500000000E-02 0.  1.
          2   -1    0    0  501    0  0.00000000000E+00 -0.00000000000E+00 -0.11348091137E+03  0.11348091140E+03  0.25500000000E-02 0. -1.
    5000001    1    1    2    0    0 -0.11955564426E+03  0.21400561551E+03  0.12477640322E+04  0.12854380715E+04  0.18800000000E+03 0.  0.
   -5000001    1    1    2    0    0  0.11955564426E+03 -0.21400561551E+03  0.15744832935E+03  0.34673611285E+03  0.18800000000E+03 0.  0.
<mgrwt>
<rscale>  0 0.83028356E+03</rscale>
<asrwt>0</asrwt>
<pdfrwt beam="1">  1        2 0.16211559E-01 0.83028356E+03</pdfrwt>
<pdfrwt beam="2">  1       -2 0.21695618E+00 0.83028356E+03</pdfrwt>
<totfact> 0.38292135E+01</totfact>
</mgrwt>
</event>
<event>
 4    1  0.5985962E-005  0.4402392E+03  0.7818608E-02  0.1030673E+00
          2   -1    0    0  501    0  0.00000000000E+00  0.00000000000E+00  0.27840549189E+04  0.27840549189E+04  0.25500000000E-02 0.  1.
         -2   -1    0    0    0  501 -0.00000000000E+00 -0.00000000000E+00 -0.17403621159E+02  0.17403621345E+02  0.25500000000E-02 0. -1.
    5000001    1    1    2    0    0  0.88879086385E+02 -0.48548103148E+02  0.10434754412E+04  0.10651015945E+04  0.18800000000E+03 0.  0.
   -5000001    1    1    2    0    0 -0.88879086385E+02  0.48548103148E+02  0.17231758566E+04  0.17363569458E+04  0.18800000000E+03 0.  0.
<mgrwt>
<rscale>  0 0.44023920E+03</rscale>
<asrwt>0</asrwt>
<pdfrwt beam="1">  1        2 0.39772222E+00 0.44023920E+03</pdfrwt>
<pdfrwt beam="2">  1       -2 0.24862311E-02 0.44023920E+03</pdfrwt>
<totfact> 0.19865115E+03</totfact>
</mgrwt>
</event>
<event>
 4    1  0.5985962E-005  0.6457819E+03  0.7818608E-02  0.9814726E-01
         -2   -1    0    0    0  501 -0.00000000000E+00  0.00000000000E+00  0.55134342943E+03  0.55134342944E+03  0.25500000000E-02 0. -1.
          2   -1    0    0  501    0  0.00000000000E+00 -0.00000000000E+00 -0.18909913551E+03  0.18909913552E+03  0.25500000000E-02 0.  1.
    5000001    1    1    2    0    0 -0.57379371265E+02 -0.25158981599E+03  0.12583902937E+03  0.34317530370E+03  0.18800000000E+03 0.  0.
   -5000001    1    1    2    0    0  0.57379371265E+02  0.25158981599E+03  0.23640526455E+03  0.39726726126E+03  0.18800000000E+03 0.  0.
<mgrwt>
<rscale>  0 0.64578190E+03</rscale>
<asrwt>0</asrwt>
<pdfrwt beam="1">  1        2 0.27014162E-01 0.64578190E+03</pdfrwt>
<pdfrwt beam="2">  1       -2 0.78763348E-01 0.64578190E+03</pdfrwt>
<totfact> 0.28992505E+02</totfact>
</mgrwt>
</event>
<event>
 4    1  0.5985962E-005  0.7277575E+03  0.7818608E-02  0.9670906E-01
          2   -1    0    0  501    0  0.00000000000E+00  0.00000000000E+00  0.27678557127E+04  0.27678557127E+04  0.25500000000E-02 0. -1.
         -2   -1    0    0    0  501 -0.00000000000E+00 -0.00000000000E+00 -0.47837661522E+02  0.47837661590E+02  0.25500000000E-02 0.  1.
    5000001    1    1    2    0    0 -0.15477118271E+03 -0.21877534036E+02  0.24027097583E+04  0.24151171665E+04  0.18800000000E+03 0.  0.
   -5000001    1    1    2    0    0  0.15477118271E+03  0.21877534036E+02  0.31730829293E+03  0.40057620780E+03  0.18800000000E+03 0.  0.
<mgrwt>
<rscale>  0 0.72775750E+03</rscale>
<asrwt>0</asrwt>
<pdfrwt beam="1">  1        2 0.39540806E+00 0.72775750E+03</pdfrwt>
<pdfrwt beam="2">  1       -2 0.68339498E-02 0.72775750E+03</pdfrwt>
<totfact> 0.41759356E+02</totfact>
</mgrwt>
</event>
<event>
 4    1  0.5985962E-005  0.4396652E+03  0.7818608E-02  0.1030850E+00
         -2   -1    0    0    0  501 -0.00000000000E+00  0.00000000000E+00  0.31055635266E+02  0.31055635370E+02  0.25500000000E-02 0. -1.
          2   -1    0    0  501    0  0.00000000000E+00 -0.00000000000E+00 -0.15561224357E+04  0.15561224357E+04  0.25500000000E-02 0.  1.
    5000001    1    1    2    0    0 -0.95490785730E+02 -0.60150049156E+02 -0.81913656414E+03  0.84797713960E+03  0.18800000000E+03 0.  0.
   -5000001    1    1    2    0    0  0.95490785730E+02  0.60150049156E+02 -0.70593023626E+03  0.73920093144E+03  0.18800000000E+03 0.  0.
<mgrwt>
<rscale>  0 0.43966519E+03</rscale>
<asrwt>0</asrwt>
<pdfrwt beam="1">  1        2 0.22230316E+00 0.43966519E+03</pdfrwt>
<pdfrwt beam="2">  1       -2 0.44365203E-02 0.43966519E+03</pdfrwt>
<totfact> 0.34360720E+03</totfact>
</mgrwt>
</event>
<event>
 4    1  0.5985962E-005  0.4721688E+03  0.7818608E-02  0.1021310E+00
         -2   -1    0    0    0  501 -0.00000000000E+00  0.00000000000E+00  0.54728231810E+02  0.54728231869E+02  0.25500000000E-02 0. -1.
          2   -1    0    0  501    0  0.00000000000E+00 -0.00000000000E+00 -0.10184113682E+04  0.10184113682E+04  0.25500000000E-02 0.  1.
    5000001    1    1    2    0    0  0.76978974122E+02  0.11974056710E+03 -0.50758409930E+03  0.55968668354E+03  0.18800000000E+03 0.  0.
   -5000001    1    1    2    0    0 -0.76978974122E+02 -0.11974056710E+03 -0.45609903712E+03  0.51345291656E+03  0.18800000000E+03 0.  0.
<mgrwt>
<rscale>  0 0.47216884E+03</rscale>
<asrwt>0</asrwt>
<pdfrwt beam="1">  1        2 0.14548733E+00 0.47216884E+03</pdfrwt>
<pdfrwt beam="2">  1       -2 0.78183195E-02 0.47216884E+03</pdfrwt>
<totfact> 0.27944517E+03</totfact>
</mgrwt>
</event>
<event>
 4    1  0.5985962E-005  0.6404307E+03  0.7818608E-02  0.9824903E-01
          2   -1    0    0  501    0  0.00000000000E+00  0.00000000000E+00  0.92796408028E+03  0.92796408029E+03  0.25500000000E-02 0.  1.
         -2   -1    0    0    0  501 -0.00000000000E+00 -0.00000000000E+00 -0.11049765855E+03  0.11049765858E+03  0.25500000000E-02 0. -1.
    5000001    1    1    2    0    0 -0.16036073222E+03  0.11398543450E+03  0.68240572327E+03  0.73466306214E+03  0.18800000000E+03 0.  0.
   -5000001    1    1    2    0    0  0.16036073222E+03 -0.11398543450E+03  0.13506069846E+03  0.30379867673E+03  0.18800000000E+03 0.  0.
<mgrwt>
<rscale>  0 0.64043066E+03</rscale>
<asrwt>0</asrwt>
<pdfrwt beam="1">  1        2 0.13256629E+00 0.64043066E+03</pdfrwt>
<pdfrwt beam="2">  1       -2 0.15785380E-01 0.64043066E+03</pdfrwt>
<totfact> 0.10057932E+03</totfact>
</mgrwt>
</event>
<event>
 4    1  0.5985962E-005  0.5689799E+03  0.7818608E-02  0.9971939E-01
          2   -1    0    0  501    0  0.00000000000E+00  0.00000000000E+00  0.64166994890E+02  0.64166994941E+02  0.25500000000E-02 0.  1.
         -2   -1    0    0    0  501 -0.00000000000E+00 -0.00000000000E+00 -0.12613107242E+04  0.12613107242E+04  0.25500000000E-02 0. -1.
    5000001    1    1    2    0    0 -0.17713018738E+03  0.11761510603E+03 -0.55303476004E+03  0.62161069992E+03  0.18800000000E+03 0.  0.
   -5000001    1    1    2    0    0  0.17713018738E+03 -0.11761510603E+03 -0.64410896924E+03  0.70386701919E+03  0.18800000000E+03 0.  0.
<mgrwt>
<rscale>  0 0.56897985E+03</rscale>
<asrwt>0</asrwt>
<pdfrwt beam="1">  1        2 0.91667144E-02 0.56897985E+03</pdfrwt>
<pdfrwt beam="2">  1       -2 0.18018723E+00 0.56897985E+03</pdfrwt>
<totfact> 0.13728888E+02</totfact>
</mgrwt>
</event>
<event>
 4    1  0.5985962E-005  0.6828889E+03  0.7818608E-02  0.9746950E-01
          2   -1    0    0  501    0  0.00000000000E+00  0.00000000000E+00  0.60169616002E+03  0.60169616003E+03  0.25500000000E-02 0.  1.
         -2   -1    0    0    0  501 -0.00000000000E+00 -0.00000000000E+00 -0.19375942820E+03  0.19375942822E+03  0.25500000000E-02 0. -1.
    5000001    1    1    2    0    0  0.89082937858E+02  0.27063231235E+03  0.19474584036E+03  0.39299816875E+03  0.18800000000E+03 0.  0.
   -5000001    1    1    2    0    0 -0.89082937858E+02 -0.27063231235E+03  0.21319089146E+03  0.40245741950E+03  0.18800000000E+03 0.  0.
<mgrwt>
<rscale>  0 0.68288888E+03</rscale>
<asrwt>0</asrwt>
<pdfrwt beam="1">  1        2 0.85956594E-01 0.68288888E+03</pdfrwt>
<pdfrwt beam="2">  1       -2 0.27679918E-01 0.68288888E+03</pdfrwt>
<totfact> 0.64614558E+02</totfact>
</mgrwt>
</event>
<event>
 4    1  0.5985962E-005  0.6045689E+03  0.7818608E-02  0.9895972E-01
          2   -1    0    0  501    0  0.00000000000E+00  0.00000000000E+00  0.96821395067E+03  0.96821395067E+03  0.25500000000E-02 0.  1.
         -2   -1    0    0    0  501 -0.00000000000E+00 -0.00000000000E+00 -0.94375709783E+02  0.94375709817E+02  0.25500000000E-02 0. -1.
    5000001    1    1    2    0    0  0.10782404382E+03  0.89655605485E+02  0.10173928408E+03  0.25565412953E+03  0.18800000000E+03 0.  0.
   -5000001    1    1    2    0    0 -0.10782404382E+03 -0.89655605485E+02  0.77209895681E+03  0.80693553096E+03  0.18800000000E+03 0.  0.
<mgrwt>
<rscale>  0 0.60456887E+03</rscale>
<asrwt>0</asrwt>
<pdfrwt beam="1">  1        2 0.13831627E+00 0.60456887E+03</pdfrwt>
<pdfrwt beam="2">  1       -2 0.13482245E-01 0.60456887E+03</pdfrwt>
<totfact> 0.12378266E+03</totfact>
</mgrwt>
</event>
<event>
 4    1  0.5985962E-005  0.4885814E+03  0.7818608E-02  0.1016803E+00
          2   -1    0    0  501    0  0.00000000000E+00  0.00000000000E+00  0.25965288614E+03  0.25965288615E+03  0.25500000000E-02 0.  1.
         -2   -1    0    0    0  501 -0.00000000000E+00 -0.00000000000E+00 -0.22983739221E+03  0.22983739223E+03  0.25500000000E-02 0. -1.
    5000001    1    1    2    0    0  0.11420342762E+03 -0.10123292414E+03  0.47269763375E+02  0.24671635199E+03  0.18800000000E+03 0.  0.
   -5000001    1    1    2    0    0 -0.11420342762E+03  0.10123292414E+03 -0.17454269450E+02  0.24277392638E+03  0.18800000000E+03 0.  0.
<mgrwt>
<rscale>  0 0.48858138E+03</rscale>
<asrwt>0</asrwt>
<pdfrwt beam="1">  1        2 0.37093269E-01 0.48858138E+03</pdfrwt>
<pdfrwt beam="2">  1       -2 0.32833913E-01 0.48858138E+03</pdfrwt>
<totfact> 0.12109696E+03</totfact>
</mgrwt>
</event>
<event>
 4    1  0.5985962E-005  0.5640379E+03  0.7818608E-02  0.9982959E-01
         -2   -1    0    0    0  501 -0.00000000000E+00  0.00000000000E+00  0.30456268734E+03  0.30456268735E+03  0.25500000000E-02 0. -1.
          2   -1    0    0  501    0  0.00000000000E+00 -0.00000000000E+00 -0.26114391458E+03  0.26114391459E+03  0.25500000000E-02 0.  1.
    5000001    1    1    2    0    0  0.66173066092E+02 -0.19184961985E+03  0.76694393290E+02  0.28707347714E+03  0.18800000000E+03 0.  0.
   -5000001    1    1    2    0    0 -0.66173066092E+02  0.19184961985E+03 -0.33275620535E+02  0.27863312480E+03  0.18800000000E+03 0.  0.
<mgrwt>
<rscale>  0 0.56403792E+03</rscale>
<asrwt>0</asrwt>
<pdfrwt beam="1">  1        2 0.37306273E-01 0.56403792E+03</pdfrwt>
<pdfrwt beam="2">  1       -2 0.43508956E-01 0.56403792E+03</pdfrwt>
<totfact> 0.70135902E+02</totfact>
</mgrwt>
</event>
<event>
 4    1  0.5985962E-005  0.4483862E+03  0.7818608E-02  0.1028204E+00
          2   -1    0    0  501    0  0.00000000000E+00  0.00000000000E+00  0.10244497153E+04  0.10244497153E+04  0.25500000000E-02 0.  1.
         -2   -1    0    0    0  501 -0.00000000000E+00 -0.00000000000E+00 -0.49062962287E+02  0.49062962353E+02  0.25500000000E-02 0. -1.
    5000001    1    1    2    0    0  0.10045230365E+03  0.64012120350E+02  0.42299224917E+03  0.47796930835E+03  0.18800000000E+03 0.  0.
   -5000001    1    1    2    0    0 -0.10045230365E+03 -0.64012120350E+02  0.55239450388E+03  0.59554336935E+03  0.18800000000E+03 0.  0.
<mgrwt>
<rscale>  0 0.44838616E+03</rscale>
<asrwt>0</asrwt>
<pdfrwt beam="1">  1        2 0.14634995E+00 0.44838616E+03</pdfrwt>
<pdfrwt beam="2">  1       -2 0.70089950E-02 0.44838616E+03</pdfrwt>
<totfact> 0.32914822E+03</totfact>
</mgrwt>
</event>
<event>
 4    1  0.5985962E-005  0.3934012E+03  0.7818608E-02  0.1046089E+00
         -2   -1    0    0    0  501 -0.00000000000E+00  0.00000000000E+00  0.16770037104E+02  0.16770037298E+02  0.25500000000E-02 0. -1.
          2   -1    0    0  501    0  0.00000000000E+00 -0.00000000000E+00 -0.23071580912E+04  0.23071580912E+04  0.25500000000E-02 0.  1.
    5000001    1    1    2    0    0  0.40854867886E+02  0.39922139227E+02 -0.11994090134E+04  0.12153965933E+04  0.18800000000E+03 0.  0.
   -5000001    1    1    2    0    0 -0.40854867886E+02 -0.39922139227E+02 -0.10909790407E+04  0.11085315353E+04  0.18800000000E+03 0.  0.
<mgrwt>
<rscale>  0 0.39340120E+03</rscale>
<asrwt>0</asrwt>
<pdfrwt beam="1">  1        2 0.32959381E+00 0.39340120E+03</pdfrwt>
<pdfrwt beam="2">  1       -2 0.23957211E-02 0.39340120E+03</pdfrwt>
<totfact> 0.36839693E+03</totfact>
</mgrwt>
</event>
<event>
 4    1  0.5985962E-005  0.7239233E+03  0.7818608E-02  0.9677173E-01
         -2   -1    0    0    0  501 -0.00000000000E+00  0.00000000000E+00  0.73229687408E+02  0.73229687453E+02  0.25500000000E-02 0. -1.
          2   -1    0    0  501    0  0.00000000000E+00 -0.00000000000E+00 -0.17891137074E+04  0.17891137074E+04  0.25500000000E-02 0.  1.
    5000001    1    1    2    0    0  0.95348402998E+01 -0.28240622921E+03 -0.53428809944E+03  0.63297074552E+03  0.18800000000E+03 0.  0.
   -5000001    1    1    2    0    0 -0.95348402998E+01  0.28240622921E+03 -0.11815959206E+04  0.12293726494E+04  0.18800000000E+03 0.  0.
<mgrwt>
<rscale>  0 0.72392330E+03</rscale>
<asrwt>0</asrwt>
<pdfrwt beam="1">  1        2 0.25558764E+00 0.72392330E+03</pdfrwt>
<pdfrwt beam="2">  1       -2 0.10461385E-01 0.72392330E+03</pdfrwt>
<totfact> 0.66842004E+02</totfact>
</mgrwt>
</event>
<event>
 4    1  0.5985962E-005  0.4886899E+03  0.7818608E-02  0.1016774E+00
         -2   -1    0    0    0  501 -0.00000000000E+00  0.00000000000E+00  0.94340992698E+02  0.94340992732E+02  0.25500000000E-02 0. -1.
          2   -1    0    0  501    0  0.00000000000E+00 -0.00000000000E+00 -0.63285806153E+03  0.63285806154E+03  0.25500000000E-02 0.  1.
    5000001    1    1    2    0    0 -0.51014207568E+02  0.13792221340E+03 -0.19143050687E+03  0.30596507200E+03  0.18800000000E+03 0.  0.
   -5000001    1    1    2    0    0  0.51014207568E+02 -0.13792221340E+03 -0.34708656196E+03  0.42123398227E+03  0.18800000000E+03 0.  0.
<mgrwt>
<rscale>  0 0.48868991E+03</rscale>
<asrwt>0</asrwt>
<pdfrwt beam="1">  1        2 0.90408293E-01 0.48868991E+03</pdfrwt>
<pdfrwt beam="2">  1       -2 0.13477285E-01 0.48868991E+03</pdfrwt>
<totfact> 0.21268444E+03</totfact>
</mgrwt>
</event>
<event>
 4    1  0.5985962E-005  0.6616884E+03  0.7818608E-02  0.9785091E-01
         -2   -1    0    0    0  501 -0.00000000000E+00  0.00000000000E+00  0.30159436626E+03  0.30159436627E+03  0.25500000000E-02 0. -1.
          2   -1    0    0  501    0  0.00000000000E+00 -0.00000000000E+00 -0.36293080625E+03  0.36293080626E+03  0.25500000000E-02 0.  1.
    5000001    1    1    2    0    0 -0.19172645997E+03 -0.31204037487E+02  0.16088796445E+03  0.31458172947E+03  0.18800000000E+03 0.  0.
   -5000001    1    1    2    0    0  0.19172645997E+03  0.31204037487E+02 -0.22222440444E+03  0.34994344306E+03  0.18800000000E+03 0.  0.
<mgrwt>
<rscale>  0 0.66168841E+03</rscale>
<asrwt>0</asrwt>
<pdfrwt beam="1">  1        2 0.51847258E-01 0.66168841E+03</pdfrwt>
<pdfrwt beam="2">  1       -2 0.43084910E-01 0.66168841E+03</pdfrwt>
<totfact> 0.49612918E+02</totfact>
</mgrwt>
</event>
<event>
 4    1  0.5985962E-005  0.5101311E+03  0.7818608E-02  0.1011168E+00
          2   -1    0    0  501    0  0.00000000000E+00  0.00000000000E+00  0.10369805492E+04  0.10369805492E+04  0.25500000000E-02 0.  1.
         -2   -1    0    0    0  501 -0.00000000000E+00 -0.00000000000E+00 -0.62738336934E+02  0.62738336985E+02  0.25500000000E-02 0. -1.
    5000001    1    1    2    0    0  0.14273751616E+03 -0.91671184942E+02  0.55310385138E+03  0.60831363217E+03  0.18800000000E+03 0.  0.
   -5000001    1    1    2    0    0 -0.14273751616E+03  0.91671184942E+02  0.42113836087E+03  0.49140525401E+03  0.18800000000E+03 0.  0.
<mgrwt>
<rscale>  0 0.51013110E+03</rscale>
<asrwt>0</asrwt>
<pdfrwt beam="1">  1        2 0.14814007E+00 0.51013110E+03</pdfrwt>
<pdfrwt beam="2">  1       -2 0.89626200E-02 0.51013110E+03</pdfrwt>
<totfact> 0.21918059E+03</totfact>
</mgrwt>
</event>
<event>
 4    1  0.5985962E-005  0.6837169E+03  0.7818608E-02  0.9745491E-01
          2   -1    0    0  501    0  0.00000000000E+00  0.00000000000E+00  0.28558113910E+03  0.28558113911E+03  0.25500000000E-02 0.  1.
         -2   -1    0    0    0  501 -0.00000000000E+00 -0.00000000000E+00 -0.40922590879E+03  0.40922590880E+03  0.25500000000E-02 0. -1.
    5000001    1    1    2    0    0 -0.12780595153E+03  0.17933562466E+03 -0.24650509233E+03  0.38026883657E+03  0.18800000000E+03 0.  0.
   -5000001    1    1    2    0    0  0.12780595153E+03 -0.17933562466E+03  0.12286032263E+03  0.31453821134E+03  0.18800000000E+03 0.  0.
<mgrwt>
<rscale>  0 0.68371690E+03</rscale>
<asrwt>0</asrwt>
<pdfrwt beam="1">  1        2 0.40797306E-01 0.68371690E+03</pdfrwt>
<pdfrwt beam="2">  1       -2 0.58460844E-01 0.68371690E+03</pdfrwt>
<totfact> 0.34778526E+02</totfact>
</mgrwt>
</event>
<event>
 4    1  0.5985962E-005  0.6056403E+03  0.7818608E-02  0.9893773E-01
         -2   -1    0    0    0  501 -0.00000000000E+00  0.00000000000E+00  0.15149586173E+03  0.15149586175E+03  0.25500000000E-02 0. -1.
          2   -1    0    0  501    0  0.00000000000E+00 -0.00000000000E+00 -0.60529743709E+03  0.60529743709E+03  0.25500000000E-02 0.  1.
    5000001    1    1    2    0    0  0.23540092119E+03  0.25059470802E+02 -0.20474112288E+03  0.36510888536E+03  0.18800000000E+03 0.  0.
   -5000001    1    1    2    0    0 -0.23540092119E+03 -0.25059470802E+02 -0.24906045248E+03  0.39168441348E+03  0.18800000000E+03 0.  0.
<mgrwt>
<rscale>  0 0.60564034E+03</rscale>
<asrwt>0</asrwt>
<pdfrwt beam="1">  1        2 0.86471061E-01 0.60564034E+03</pdfrwt>
<pdfrwt beam="2">  1       -2 0.21642266E-01 0.60564034E+03</pdfrwt>
<totfact> 0.99888317E+02</totfact>
</mgrwt>
</event>
<event>
 4    1  0.5985962E-005  0.5649380E+03  0.7818608E-02  0.9980943E-01
         -2   -1    0    0    0  501 -0.00000000000E+00  0.00000000000E+00  0.40101490358E+02  0.40101490439E+02  0.25500000000E-02 0. -1.
          2   -1    0    0  501    0  0.00000000000E+00 -0.00000000000E+00 -0.19896698268E+04  0.19896698268E+04  0.25500000000E-02 0.  1.
    5000001    1    1    2    0    0 -0.15305164891E+03 -0.14492092436E+03 -0.98996135792E+03  0.10294631473E+04  0.18800000000E+03 0.  0.
   -5000001    1    1    2    0    0  0.15305164891E+03  0.14492092436E+03 -0.95960697856E+03  0.10003081699E+04  0.18800000000E+03 0.  0.
<mgrwt>
<rscale>  0 0.56493796E+03</rscale>
<asrwt>0</asrwt>
<pdfrwt beam="1">  1        2 0.28423848E+00 0.56493796E+03</pdfrwt>
<pdfrwt beam="2">  1       -2 0.57287856E-02 0.56493796E+03</pdfrwt>
<totfact> 0.13945078E+03</totfact>
</mgrwt>
</event>
<event>
 4    1  0.5985962E-005  0.4408826E+03  0.7818608E-02  0.1030476E+00
         -2   -1    0    0    0  501 -0.00000000000E+00  0.00000000000E+00  0.51953649154E+02  0.51953649216E+02  0.25500000000E-02 0. -1.
          2   -1    0    0  501    0  0.00000000000E+00 -0.00000000000E+00 -0.93534067514E+03  0.93534067514E+03  0.25500000000E-02 0.  1.
    5000001    1    1    2    0    0  0.82810213027E+02  0.70461653515E+02 -0.52631595919E+03  0.56936356127E+03  0.18800000000E+03 0.  0.
   -5000001    1    1    2    0    0 -0.82810213027E+02 -0.70461653515E+02 -0.35707106679E+03  0.41793076309E+03  0.18800000000E+03 0.  0.
<mgrwt>
<rscale>  0 0.44088258E+03</rscale>
<asrwt>0</asrwt>
<pdfrwt beam="1">  1        2 0.13362009E+00 0.44088258E+03</pdfrwt>
<pdfrwt beam="2">  1       -2 0.74219505E-02 0.44088258E+03</pdfrwt>
<totfact> 0.34083493E+03</totfact>
</mgrwt>
</event>
<event>
 4    1  0.5985962E-005  0.6614747E+03  0.7818608E-02  0.9785483E-01
          2   -1    0    0  501    0  0.00000000000E+00  0.00000000000E+00  0.18118482198E+03  0.18118482199E+03  0.25500000000E-02 0.  1.
         -2   -1    0    0    0  501 -0.00000000000E+00 -0.00000000000E+00 -0.60373272617E+03  0.60373272617E+03  0.25500000000E-02 0. -1.
    5000001    1    1    2    0    0 -0.96072265183E+02 -0.24280344588E+03 -0.30210883433E+03  0.44135829124E+03  0.18800000000E+03 0.  0.
   -5000001    1    1    2    0    0  0.96072265183E+02  0.24280344588E+03 -0.12043906987E+03  0.34355925693E+03  0.18800000000E+03 0.  0.
<mgrwt>
<rscale>  0 0.66147474E+03</rscale>
<asrwt>0</asrwt>
<pdfrwt beam="1">  1        2 0.25883546E-01 0.66147474E+03</pdfrwt>
<pdfrwt beam="2">  1       -2 0.86247532E-01 0.66147474E+03</pdfrwt>
<totfact> 0.24793429E+02</totfact>
</mgrwt>
</event>
<event>
 4    1  0.5985962E-005  0.8659649E+03  0.7818608E-02  0.9469156E-01
         -2   -1    0    0    0  501 -0.00000000000E+00  0.00000000000E+00  0.21579304302E+03  0.21579304304E+03  0.25500000000E-02 0. -1.
          2   -1    0    0  501    0  0.00000000000E+00 -0.00000000000E+00 -0.86876673508E+03  0.86876673509E+03  0.25500000000E-02 0.  1.
    5000001    1    1    2    0    0  0.16159036187E+03  0.25726652696E+03 -0.63283908564E+03  0.72672334438E+03  0.18800000000E+03 0.  0.
   -5000001    1    1    2    0    0 -0.16159036187E+03 -0.25726652696E+03 -0.20134606416E+02  0.35783643375E+03  0.18800000000E+03 0.  0.
<mgrwt>
<rscale>  0 0.86596494E+03</rscale>
<asrwt>0</asrwt>
<pdfrwt beam="1">  1        2 0.12410953E+00 0.86596494E+03</pdfrwt>
<pdfrwt beam="2">  1       -2 0.30827578E-01 0.86596494E+03</pdfrwt>
<totfact> 0.33261681E+02</totfact>
</mgrwt>
</event>
<event>
 4    1  0.5985962E-005  0.5039334E+03  0.7818608E-02  0.1012757E+00
         -2   -1    0    0    0  501 -0.00000000000E+00  0.00000000000E+00  0.20672365953E+02  0.20672366111E+02  0.25500000000E-02 0. -1.
          2   -1    0    0  501    0  0.00000000000E+00 -0.00000000000E+00 -0.30711147571E+04  0.30711147571E+04  0.25500000000E-02 0.  1.
    5000001    1    1    2    0    0 -0.13232762276E+03 -0.35919725111E+02 -0.93220673556E+03  0.96080915078E+03  0.18800000000E+03 0.  0.
   -5000001    1    1    2    0    0  0.13232762276E+03  0.35919725111E+02 -0.21182356556E+04  0.21309779725E+04  0.18800000000E+03 0.  0.
<mgrwt>
<rscale>  0 0.50393336E+03</rscale>
<asrwt>0</asrwt>
<pdfrwt beam="1">  1        2 0.43873039E+00 0.50393336E+03</pdfrwt>
<pdfrwt beam="2">  1       -2 0.29531971E-02 0.50393336E+03</pdfrwt>
<totfact> 0.10706248E+03</totfact>
</mgrwt>
</event>
<event>
 4    1  0.5985962E-005  0.4170934E+03  0.7818608E-02  0.1038016E+00
         -2   -1    0    0    0  501 -0.00000000000E+00  0.00000000000E+00  0.32967584013E+03  0.32967584014E+03  0.25500000000E-02 0. -1.
          2   -1    0    0  501    0  0.00000000000E+00 -0.00000000000E+00 -0.13192270748E+03  0.13192270750E+03  0.25500000000E-02 0.  1.
    5000001    1    1    2    0    0  0.85969955988E+01 -0.88826664600E+02  0.83879014956E+02  0.22437418262E+03  0.18800000000E+03 0.  0.
   -5000001    1    1    2    0    0 -0.85969955988E+01  0.88826664600E+02  0.11387411769E+03  0.23722436502E+03  0.18800000000E+03 0.  0.
<mgrwt>
<rscale>  0 0.41709342E+03</rscale>
<asrwt>0</asrwt>
<pdfrwt beam="1">  1        2 0.18846101E-01 0.41709342E+03</pdfrwt>
<pdfrwt beam="2">  1       -2 0.47096548E-01 0.41709342E+03</pdfrwt>
<totfact> 0.12986368E+03</totfact>
</mgrwt>
</event>
<event>
 4    1  0.5985962E-005  0.5200437E+03  0.7818608E-02  0.1008676E+00
          2   -1    0    0  501    0  0.00000000000E+00  0.00000000000E+00  0.15376360034E+04  0.15376360034E+04  0.25500000000E-02 0.  1.
         -2   -1    0    0    0  501 -0.00000000000E+00 -0.00000000000E+00 -0.43970982871E+02  0.43970982945E+02  0.25500000000E-02 0. -1.
    5000001    1    1    2    0    0 -0.87787801832E+02 -0.14976923344E+03  0.60647594848E+03  0.65825116598E+03  0.18800000000E+03 0.  0.
   -5000001    1    1    2    0    0  0.87787801832E+02  0.14976923344E+03  0.88718907209E+03  0.92335582040E+03  0.18800000000E+03 0.  0.
<mgrwt>
<rscale>  0 0.52004372E+03</rscale>
<asrwt>0</asrwt>
<pdfrwt beam="1">  1        2 0.21966225E+00 0.52004372E+03</pdfrwt>
<pdfrwt beam="2">  1       -2 0.62815701E-02 0.52004372E+03</pdfrwt>
<totfact> 0.20475718E+03</totfact>
</mgrwt>
</event>
<event>
 4    1  0.5985962E-005  0.5221815E+03  0.7818608E-02  0.1008146E+00
         -2   -1    0    0    0  501 -0.00000000000E+00  0.00000000000E+00  0.85724806219E+02  0.85724806257E+02  0.25500000000E-02 0. -1.
          2   -1    0    0  501    0  0.00000000000E+00 -0.00000000000E+00 -0.79520023260E+03  0.79520023260E+03  0.25500000000E-02 0.  1.
    5000001    1    1    2    0    0  0.53864209295E+02  0.17298164804E+03 -0.35369468144E+03  0.43962248723E+03  0.18800000000E+03 0.  0.
   -5000001    1    1    2    0    0 -0.53864209295E+02 -0.17298164804E+03 -0.35578074494E+03  0.44130255163E+03  0.18800000000E+03 0.  0.
<mgrwt>
<rscale>  0 0.52218152E+03</rscale>
<asrwt>0</asrwt>
<pdfrwt beam="1">  1        2 0.11360003E+00 0.52218152E+03</pdfrwt>
<pdfrwt beam="2">  1       -2 0.12246401E-01 0.52218152E+03</pdfrwt>
<totfact> 0.18845218E+03</totfact>
</mgrwt>
</event>
<event>
 4    1  0.5985962E-005  0.9252773E+03  0.7818608E-02  0.9394524E-01
         -2   -1    0    0    0  501 -0.00000000000E+00  0.00000000000E+00  0.30193823734E+03  0.30193823735E+03  0.25500000000E-02 0. -1.
          2   -1    0    0  501    0  0.00000000000E+00 -0.00000000000E+00 -0.70886857738E+03  0.70886857739E+03  0.25500000000E-02 0.  1.
    5000001    1    1    2    0    0 -0.42269918852E+03 -0.15578525022E+01 -0.20747872458E+03  0.50701918310E+03  0.18800000000E+03 0.  0.
   -5000001    1    1    2    0    0  0.42269918852E+03  0.15578525022E+01 -0.19945161546E+03  0.50378763164E+03  0.18800000000E+03 0.  0.
<mgrwt>
<rscale>  0 0.92527732E+03</rscale>
<asrwt>0</asrwt>
<pdfrwt beam="1">  1        2 0.10126694E+00 0.92527732E+03</pdfrwt>
<pdfrwt beam="2">  1       -2 0.43134034E-01 0.92527732E+03</pdfrwt>
<totfact> 0.22599073E+02</totfact>
</mgrwt>
</event>
<event>
 4    1  0.5985962E-005  0.5561350E+03  0.7818608E-02  0.1000084E+00
          2   -1    0    0  501    0  0.00000000000E+00  0.00000000000E+00  0.12579483180E+03  0.12579483182E+03  0.25500000000E-02 0.  1.
         -2   -1    0    0    0  501 -0.00000000000E+00 -0.00000000000E+00 -0.61466384595E+03  0.61466384596E+03  0.25500000000E-02 0. -1.
    5000001    1    1    2    0    0 -0.15060331628E+03 -0.26900896933E+02 -0.42588409720E+03  0.49002681699E+03  0.18800000000E+03 0.  0.
   -5000001    1    1    2    0    0  0.15060331628E+03  0.26900896933E+02 -0.62984916960E+02  0.25043186078E+03  0.18800000000E+03 0.  0.
<mgrwt>
<rscale>  0 0.55613500E+03</rscale>
<asrwt>0</asrwt>
<pdfrwt beam="1">  1        2 0.17970691E-01 0.55613500E+03</pdfrwt>
<pdfrwt beam="2">  1       -2 0.87809120E-01 0.55613500E+03</pdfrwt>
<totfact> 0.36457857E+02</totfact>
</mgrwt>
</event>
<event>
 4    1  0.5985962E-005  0.6269562E+03  0.7818608E-02  0.9851007E-01
          2   -1    0    0  501    0  0.00000000000E+00  0.00000000000E+00  0.92605199516E+03  0.92605199516E+03  0.25500000000E-02 0.  1.
         -2   -1    0    0    0  501 -0.00000000000E+00 -0.00000000000E+00 -0.10611555122E+03  0.10611555125E+03  0.25500000000E-02 0. -1.
    5000001    1    1    2    0    0 -0.18407395568E+03 -0.71272226421E+02  0.15512645672E+03  0.31364178452E+03  0.18800000000E+03 0.  0.
   -5000001    1    1    2    0    0  0.18407395568E+03  0.71272226421E+02  0.66480998721E+03  0.71852576190E+03  0.18800000000E+03 0.  0.
<mgrwt>
<rscale>  0 0.62695620E+03</rscale>
<asrwt>0</asrwt>
<pdfrwt beam="1">  1        2 0.13229315E+00 0.62695620E+03</pdfrwt>
<pdfrwt beam="2">  1       -2 0.15159363E-01 0.62695620E+03</pdfrwt>
<totfact> 0.10803858E+03</totfact>
</mgrwt>
</event>
<event>
 4    1  0.5985962E-005  0.1075016E+04  0.7818608E-02  0.9229891E-01
          2   -1    0    0  501    0  0.00000000000E+00  0.00000000000E+00  0.34133808574E+03  0.34133808575E+03  0.25500000000E-02 0.  1.
         -2   -1    0    0    0  501 -0.00000000000E+00 -0.00000000000E+00 -0.84641889816E+03  0.84641889817E+03  0.25500000000E-02 0. -1.
    5000001    1    1    2    0    0 -0.32543082299E+03 -0.34997234712E+03 -0.77198893025E+02  0.51931640970E+03  0.18800000000E+03 0.  0.
   -5000001    1    1    2    0    0  0.32543082299E+03  0.34997234712E+03 -0.42788191940E+03  0.66844057421E+03  0.18800000000E+03 0.  0.
<mgrwt>
<rscale>  0 0.10750163E+04</rscale>
<asrwt>0</asrwt>
<pdfrwt beam="1">  1        2 0.48762584E-01 0.10750163E+04</pdfrwt>
<pdfrwt beam="2">  1       -2 0.12091698E+00 0.10750163E+04</pdfrwt>
<totfact> 0.53517980E+01</totfact>
</mgrwt>
</event>
<event>
 4    1  0.5985962E-005  0.7990735E+03  0.7818608E-02  0.9561359E-01
         -2   -1    0    0    0  501 -0.00000000000E+00  0.00000000000E+00  0.76752639496E+02  0.76752639538E+02  0.25500000000E-02 0. -1.
          2   -1    0    0  501    0  0.00000000000E+00 -0.00000000000E+00 -0.20797931238E+04  0.20797931238E+04  0.25500000000E-02 0.  1.
    5000001    1    1    2    0    0  0.33498126101E+03  0.24838940110E+02 -0.71265710162E+03  0.80997133447E+03  0.18800000000E+03 0.  0.
   -5000001    1    1    2    0    0 -0.33498126101E+03 -0.24838940110E+02 -0.12903833827E+04  0.13465744289E+04  0.18800000000E+03 0.  0.
<mgrwt>
<rscale>  0 0.79907349E+03</rscale>
<asrwt>0</asrwt>
<pdfrwt beam="1">  1        2 0.29711327E+00 0.79907349E+03</pdfrwt>
<pdfrwt beam="2">  1       -2 0.10964664E-01 0.79907349E+03</pdfrwt>
<totfact> 0.43880341E+02</totfact>
</mgrwt>
</event>
<event>
 4    1  0.5985962E-005  0.1245471E+04  0.7818608E-02  0.9073962E-01
          2   -1    0    0  501    0  0.00000000000E+00  0.00000000000E+00  0.26890866750E+04  0.26890866750E+04  0.25500000000E-02 0. -1.
         -2   -1    0    0    0  501 -0.00000000000E+00 -0.00000000000E+00 -0.14421223882E+03  0.14421223884E+03  0.25500000000E-02 0.  1.
    5000001    1    1    2    0    0 -0.11454968736E+03  0.43570900455E+03  0.21519999409E+04  0.22066743560E+04  0.18800000000E+03 0.  0.
   -5000001    1    1    2    0    0  0.11454968736E+03 -0.43570900455E+03  0.39287449526E+03  0.62662455788E+03  0.18800000000E+03 0.  0.
<mgrwt>
<rscale>  0 0.12454705E+04</rscale>
<asrwt>0</asrwt>
<pdfrwt beam="1">  1        2 0.38415522E+00 0.12454705E+04</pdfrwt>
<pdfrwt beam="2">  1       -2 0.20601749E-01 0.12454705E+04</pdfrwt>
<totfact> 0.70187761E+01</totfact>
</mgrwt>
</event>
<event>
 4    1  0.5985962E-005  0.4664265E+03  0.7818608E-02  0.1022934E+00
         -2   -1    0    0    0  501 -0.00000000000E+00  0.00000000000E+00  0.15151157653E+03  0.15151157655E+03  0.25500000000E-02 0. -1.
          2   -1    0    0  501    0  0.00000000000E+00 -0.00000000000E+00 -0.35897209744E+03  0.35897209745E+03  0.25500000000E-02 0.  1.
    5000001    1    1    2    0    0 -0.13283225316E+03  0.13436610494E+02 -0.14194981929E+03  0.27077426240E+03  0.18800000000E+03 0.  0.
   -5000001    1    1    2    0    0  0.13283225316E+03 -0.13436610494E+02 -0.65510701618E+02  0.23970941159E+03  0.18800000000E+03 0.  0.
<mgrwt>
<rscale>  0 0.46642654E+03</rscale>
<asrwt>0</asrwt>
<pdfrwt beam="1">  1        2 0.51281728E-01 0.46642654E+03</pdfrwt>
<pdfrwt beam="2">  1       -2 0.21644511E-01 0.46642654E+03</pdfrwt>
<totfact> 0.18006796E+03</totfact>
</mgrwt>
</event>
<event>
 4    1  0.5985962E-005  0.5339354E+03  0.7818608E-02  0.1005282E+00
         -2   -1    0    0    0  501 -0.00000000000E+00  0.00000000000E+00  0.11501384952E+03  0.11501384955E+03  0.25500000000E-02 0. -1.
          2   -1    0    0  501    0  0.00000000000E+00 -0.00000000000E+00 -0.61967963294E+03  0.61967963294E+03  0.25500000000E-02 0.  1.
    5000001    1    1    2    0    0  0.15873244155E+03 -0.32118084101E+02 -0.11681163395E+03  0.27425629829E+03  0.18800000000E+03 0.  0.
   -5000001    1    1    2    0    0 -0.15873244155E+03  0.32118084101E+02 -0.38785414947E+03  0.46043718420E+03  0.18800000000E+03 0.  0.
<mgrwt>
<rscale>  0 0.53393535E+03</rscale>
<asrwt>0</asrwt>
<pdfrwt beam="1">  1        2 0.88525660E-01 0.53393535E+03</pdfrwt>
<pdfrwt beam="2">  1       -2 0.16430550E-01 0.53393535E+03</pdfrwt>
<totfact> 0.15644421E+03</totfact>
</mgrwt>
</event>
<event>
 4    1  0.5985962E-005  0.7825600E+03  0.7818608E-02  0.9585610E-01
          2   -1    0    0  501    0  0.00000000000E+00  0.00000000000E+00  0.51979778233E+03  0.51979778234E+03  0.25500000000E-02 0.  1.
         -2   -1    0    0    0  501 -0.00000000000E+00 -0.00000000000E+00 -0.29453766077E+03  0.29453766078E+03  0.25500000000E-02 0. -1.
    5000001    1    1    2    0    0 -0.19741960906E+03 -0.14978203633E+03  0.35964350033E+03  0.47549617010E+03  0.18800000000E+03 0.  0.
   -5000001    1    1    2    0    0  0.19741960906E+03  0.14978203633E+03 -0.13438337877E+03  0.33883927302E+03  0.18800000000E+03 0.  0.
<mgrwt>
<rscale>  0 0.78255996E+03</rscale>
<asrwt>0</asrwt>
<pdfrwt beam="1">  1        2 0.74256826E-01 0.78255996E+03</pdfrwt>
<pdfrwt beam="2">  1       -2 0.42076809E-01 0.78255996E+03</pdfrwt>
<totfact> 0.34560979E+02</totfact>
</mgrwt>
</event>
<event>
 4    1  0.5985962E-005  0.6156756E+03  0.7818608E-02  0.9873408E-01
         -2   -1    0    0    0  501 -0.00000000000E+00  0.00000000000E+00  0.10703261438E+03  0.10703261441E+03  0.25500000000E-02 0. -1.
          2   -1    0    0  501    0  0.00000000000E+00 -0.00000000000E+00 -0.88537588783E+03  0.88537588783E+03  0.25500000000E-02 0.  1.
    5000001    1    1    2    0    0  0.64118023242E+02  0.22003014037E+03 -0.52302464601E+03  0.60118480013E+03  0.18800000000E+03 0.  0.
   -5000001    1    1    2    0    0 -0.64118023242E+02 -0.22003014037E+03 -0.25531862745E+03  0.39122370212E+03  0.18800000000E+03 0.  0.
<mgrwt>
<rscale>  0 0.61567555E+03</rscale>
<asrwt>0</asrwt>
<pdfrwt beam="1">  1        2 0.12648227E+00 0.61567555E+03</pdfrwt>
<pdfrwt beam="2">  1       -2 0.15290374E-01 0.61567555E+03</pdfrwt>
<totfact> 0.11313033E+03</totfact>
</mgrwt>
</event>
<event>
 4    1  0.5985962E-005  0.5948268E+03  0.7818608E-02  0.9916197E-01
         -2   -1    0    0    0  501 -0.00000000000E+00  0.00000000000E+00  0.84937859360E+02  0.84937859399E+02  0.25500000000E-02 0. -1.
          2   -1    0    0  501    0  0.00000000000E+00 -0.00000000000E+00 -0.10414053592E+04  0.10414053592E+04  0.25500000000E-02 0.  1.
    5000001    1    1    2    0    0  0.40747324278E+02  0.17564677928E+03 -0.20646525257E+03  0.33239138982E+03  0.18800000000E+03 0.  0.
   -5000001    1    1    2    0    0 -0.40747324278E+02 -0.17564677928E+03 -0.75000224723E+03  0.79395182874E+03  0.18800000000E+03 0.  0.
<mgrwt>
<rscale>  0 0.59482684E+03</rscale>
<asrwt>0</asrwt>
<pdfrwt beam="1">  1        2 0.14877219E+00 0.59482684E+03</pdfrwt>
<pdfrwt beam="2">  1       -2 0.12133981E-01 0.59482684E+03</pdfrwt>
<totfact> 0.13305542E+03</totfact>
</mgrwt>
</event>
<event>
 4    1  0.5985962E-005  0.3959605E+03  0.7818608E-02  0.1045187E+00
          2   -1    0    0  501    0  0.00000000000E+00  0.00000000000E+00  0.44618909669E+03  0.44618909669E+03  0.25500000000E-02 0.  1.
         -2   -1    0    0    0  501 -0.00000000000E+00 -0.00000000000E+00 -0.87846567656E+02  0.87846567694E+02  0.25500000000E-02 0. -1.
    5000001    1    1    2    0    0  0.58317558504E+02  0.17954669916E+02  0.16386041962E+03  0.25674412344E+03  0.18800000000E+03 0.  0.
   -5000001    1    1    2    0    0 -0.58317558504E+02 -0.17954669916E+02  0.19448210941E+03  0.27729154095E+03  0.18800000000E+03 0.  0.
<mgrwt>
<rscale>  0 0.39596051E+03</rscale>
<asrwt>0</asrwt>
<pdfrwt beam="1">  1        2 0.63741301E-01 0.39596051E+03</pdfrwt>
<pdfrwt beam="2">  1       -2 0.12549509E-01 0.39596051E+03</pdfrwt>
<totfact> 0.35531725E+03</totfact>
</mgrwt>
</event>
<event>
 4    1  0.5985962E-005  0.4399707E+03  0.7818608E-02  0.1030756E+00
          2   -1    0    0  501    0  0.00000000000E+00  0.00000000000E+00  0.38228444373E+04  0.38228444373E+04  0.25500000000E-02 0.  1.
         -2   -1    0    0    0  501 -0.00000000000E+00 -0.00000000000E+00 -0.12659043183E+02  0.12659043440E+02  0.25500000000E-02 0. -1.
    5000001    1    1    2    0    0  0.10274726679E+03 -0.49561447833E+02  0.18526306702E+04  0.18656360144E+04  0.18800000000E+03 0.  0.
   -5000001    1    1    2    0    0 -0.10274726679E+03  0.49561447833E+02  0.19575547239E+04  0.19698674664E+04  0.18800000000E+03 0.  0.
<mgrwt>
<rscale>  0 0.43997070E+03</rscale>
<asrwt>0</asrwt>
<pdfrwt beam="1">  1        2 0.54612064E+00 0.43997070E+03</pdfrwt>
<pdfrwt beam="2">  1       -2 0.18084348E-02 0.43997070E+03</pdfrwt>
<totfact> 0.81722417E+02</totfact>
</mgrwt>
</event>
<event>
 4    1  0.5985962E-005  0.5775118E+03  0.7818608E-02  0.9953193E-01
          2   -1    0    0  501    0  0.00000000000E+00  0.00000000000E+00  0.60429264712E+03  0.60429264713E+03  0.25500000000E-02 0.  1.
         -2   -1    0    0    0  501 -0.00000000000E+00 -0.00000000000E+00 -0.13797943174E+03  0.13797943177E+03  0.25500000000E-02 0. -1.
    5000001    1    1    2    0    0 -0.19999600854E+03  0.42944595727E+02  0.33430613537E+03  0.43468061135E+03  0.18800000000E+03 0.  0.
   -5000001    1    1    2    0    0  0.19999600854E+03 -0.42944595727E+02  0.13200708001E+03  0.30759146755E+03  0.18800000000E+03 0.  0.
<mgrwt>
<rscale>  0 0.57751175E+03</rscale>
<asrwt>0</asrwt>
<pdfrwt beam="1">  1        2 0.86327523E-01 0.57751175E+03</pdfrwt>
<pdfrwt beam="2">  1       -2 0.19711347E-01 0.57751175E+03</pdfrwt>
<totfact> 0.11788818E+03</totfact>
</mgrwt>
</event>
<event>
 4    1  0.5985962E-005  0.4480533E+03  0.7818608E-02  0.1028304E+00
          2   -1    0    0  501    0  0.00000000000E+00  0.00000000000E+00  0.10011025353E+04  0.10011025353E+04  0.25500000000E-02 0.  1.
         -2   -1    0    0    0  501 -0.00000000000E+00 -0.00000000000E+00 -0.50132657462E+02  0.50132657527E+02  0.25500000000E-02 0. -1.
    5000001    1    1    2    0    0  0.10413055582E+03 -0.62644794100E+02  0.49599097885E+03  0.54416779947E+03  0.18800000000E+03 0.  0.
   -5000001    1    1    2    0    0 -0.10413055582E+03  0.62644794100E+02  0.45497889901E+03  0.50706739338E+03  0.18800000000E+03 0.  0.
<mgrwt>
<rscale>  0 0.44805326E+03</rscale>
<asrwt>0</asrwt>
<pdfrwt beam="1">  1        2 0.14301464E+00 0.44805326E+03</pdfrwt>
<pdfrwt beam="2">  1       -2 0.71618085E-02 0.44805326E+03</pdfrwt>
<totfact> 0.32859279E+03</totfact>
</mgrwt>
</event>
<event>
 4    1  0.5985962E-005  0.1483839E+04  0.7818608E-02  0.8895271E-01
         -2   -1    0    0    0  501 -0.00000000000E+00  0.00000000000E+00  0.19172103155E+03  0.19172103157E+03  0.25500000000E-02 0. -1.
          2   -1    0    0  501    0  0.00000000000E+00 -0.00000000000E+00 -0.28710704412E+04  0.28710704412E+04  0.25500000000E-02 0.  1.
    5000001    1    1    2    0    0  0.64882033876E+03  0.30206105275E+03 -0.12286753650E+04  0.14342928097E+04  0.18800000000E+03 0.  0.
   -5000001    1    1    2    0    0 -0.64882033876E+03 -0.30206105275E+03 -0.14506740447E+04  0.16284986630E+04  0.18800000000E+03 0.  0.
<mgrwt>
<rscale>  0 0.14838391E+04</rscale>
<asrwt>0</asrwt>
<pdfrwt beam="1">  1        2 0.41015289E+00 0.14838391E+04</pdfrwt>
<pdfrwt beam="2">  1       -2 0.27388721E-01 0.14838391E+04</pdfrwt>
<totfact> 0.32852430E+01</totfact>
</mgrwt>
</event>
<event>
 4    1  0.5985962E-005  0.8123721E+03  0.7818608E-02  0.9542280E-01
         -2   -1    0    0    0  501 -0.00000000000E+00  0.00000000000E+00  0.73689171713E+02  0.73689171757E+02  0.25500000000E-02 0. -1.
          2   -1    0    0  501    0  0.00000000000E+00 -0.00000000000E+00 -0.22389599628E+04  0.22389599628E+04  0.25500000000E-02 0.  1.
    5000001    1    1    2    0    0  0.25949780708E+03  0.22388623696E+03 -0.13968017032E+04  0.14504699780E+04  0.18800000000E+03 0.  0.
   -5000001    1    1    2    0    0 -0.25949780708E+03 -0.22388623696E+03 -0.76846908788E+03  0.86217915656E+03  0.18800000000E+03 0.  0.
<mgrwt>
<rscale>  0 0.81237210E+03</rscale>
<asrwt>0</asrwt>
<pdfrwt beam="1">  1        2 0.31985138E+00 0.81237210E+03</pdfrwt>
<pdfrwt beam="2">  1       -2 0.10527026E-01 0.81237210E+03</pdfrwt>
<totfact> 0.38905187E+02</totfact>
</mgrwt>
</event>
<event>
 4    1  0.5985962E-005  0.4794885E+03  0.7818608E-02  0.1019276E+00
         -2   -1    0    0    0  501 -0.00000000000E+00  0.00000000000E+00  0.15093830325E+03  0.15093830327E+03  0.25500000000E-02 0. -1.
          2   -1    0    0  501    0  0.00000000000E+00 -0.00000000000E+00 -0.38079992034E+03  0.38079992034E+03  0.25500000000E-02 0.  1.
    5000001    1    1    2    0    0 -0.10345948171E+03  0.47348111644E+02 -0.86339492039E+01  0.21991874207E+03  0.18800000000E+03 0.  0.
   -5000001    1    1    2    0    0  0.10345948171E+03 -0.47348111644E+02 -0.22122766789E+03  0.31181948155E+03  0.18800000000E+03 0.  0.
<mgrwt>
<rscale>  0 0.47948845E+03</rscale>
<asrwt>0</asrwt>
<pdfrwt beam="1">  1        2 0.54399988E-01 0.47948845E+03</pdfrwt>
<pdfrwt beam="2">  1       -2 0.21562615E-01 0.47948845E+03</pdfrwt>
<totfact> 0.16990986E+03</totfact>
</mgrwt>
</event>
<event>
 4    1  0.5985962E-005  0.6133922E+03  0.7818608E-02  0.9878004E-01
         -2   -1    0    0    0  501 -0.00000000000E+00  0.00000000000E+00  0.34164894540E+03  0.34164894541E+03  0.25500000000E-02 0. -1.
          2   -1    0    0  501    0  0.00000000000E+00 -0.00000000000E+00 -0.27531918347E+03  0.27531918348E+03  0.25500000000E-02 0.  1.
    5000001    1    1    2    0    0  0.12738736786E+03  0.20598076553E+03  0.25188237414E+02  0.30762650172E+03  0.18800000000E+03 0.  0.
   -5000001    1    1    2    0    0 -0.12738736786E+03 -0.20598076553E+03  0.41141524521E+02  0.30934162717E+03  0.18800000000E+03 0.  0.
<mgrwt>
<rscale>  0 0.61339224E+03</rscale>
<asrwt>0</asrwt>
<pdfrwt beam="1">  1        2 0.39331312E-01 0.61339224E+03</pdfrwt>
<pdfrwt beam="2">  1       -2 0.48806992E-01 0.61339224E+03</pdfrwt>
<totfact> 0.52571737E+02</totfact>
</mgrwt>
</event>
<event>
 4    1  0.5985962E-005  0.4232991E+03  0.7818608E-02  0.1035998E+00
         -2   -1    0    0    0  501 -0.00000000000E+00  0.00000000000E+00  0.49361425285E+02  0.49361425351E+02  0.25500000000E-02 0. -1.
          2   -1    0    0  501    0  0.00000000000E+00 -0.00000000000E+00 -0.90750064138E+03  0.90750064139E+03  0.25500000000E-02 0.  1.
    5000001    1    1    2    0    0  0.83288160441E+02 -0.35021538992E+02 -0.34794050131E+03  0.40567230410E+03  0.18800000000E+03 0.  0.
   -5000001    1    1    2    0    0 -0.83288160441E+02  0.35021538992E+02 -0.51019871479E+03  0.55118976264E+03  0.18800000000E+03 0.  0.
<mgrwt>
<rscale>  0 0.42329907E+03</rscale>
<asrwt>0</asrwt>
<pdfrwt beam="1">  1        2 0.12964294E+00 0.42329907E+03</pdfrwt>
<pdfrwt beam="2">  1       -2 0.70516328E-02 0.42329907E+03</pdfrwt>
<totfact> 0.38443068E+03</totfact>
</mgrwt>
</event>
<event>
 4    1  0.5985962E-005  0.4070646E+03  0.7818608E-02  0.1041361E+00
          2   -1    0    0  501    0  0.00000000000E+00  0.00000000000E+00  0.28219900299E+04  0.28219900299E+04  0.25500000000E-02 0.  1.
         -2   -1    0    0    0  501 -0.00000000000E+00 -0.00000000000E+00 -0.14679499748E+02  0.14679499969E+02  0.25500000000E-02 0. -1.
    5000001    1    1    2    0    0  0.61112586295E+02  0.44076025772E+02  0.12635954703E+04  0.12797245629E+04  0.18800000000E+03 0.  0.
   -5000001    1    1    2    0    0 -0.61112586295E+02 -0.44076025772E+02  0.15437150599E+04  0.15569449670E+04  0.18800000000E+03 0.  0.
<mgrwt>
<rscale>  0 0.40706463E+03</rscale>
<asrwt>0</asrwt>
<pdfrwt beam="1">  1        2 0.40314155E+00 0.40706463E+03</pdfrwt>
<pdfrwt beam="2">  1       -2 0.20970708E-02 0.40706463E+03</pdfrwt>
<totfact> 0.24534167E+03</totfact>
</mgrwt>
</event>
<event>
 4    1  0.5985962E-005  0.4467984E+03  0.7818608E-02  0.1028681E+00
          2   -1    0    0  501    0  0.00000000000E+00  0.00000000000E+00  0.25940693993E+04  0.25940693993E+04  0.25500000000E-02 0.  1.
         -2   -1    0    0    0  501 -0.00000000000E+00 -0.00000000000E+00 -0.19238963981E+02  0.19238964150E+02  0.25500000000E-02 0. -1.
    5000001    1    1    2    0    0  0.23296461392E+02 -0.11329182248E+03  0.14887968596E+04  0.15050707131E+04  0.18800000000E+03 0.  0.
   -5000001    1    1    2    0    0 -0.23296461392E+02  0.11329182248E+03  0.10860335757E+04  0.11082376504E+04  0.18800000000E+03 0.  0.
<mgrwt>
<rscale>  0 0.44679842E+03</rscale>
<asrwt>0</asrwt>
<pdfrwt beam="1">  1        2 0.37058124E+00 0.44679842E+03</pdfrwt>
<pdfrwt beam="2">  1       -2 0.27484242E-02 0.44679842E+03</pdfrwt>
<totfact> 0.21419535E+03</totfact>
</mgrwt>
</event>
<event>
 4    1  0.5985962E-005  0.7236784E+03  0.7818608E-02  0.9677574E-01
         -2   -1    0    0    0  501 -0.00000000000E+00  0.00000000000E+00  0.15452583318E+03  0.15452583320E+03  0.25500000000E-02 0. -1.
          2   -1    0    0  501    0  0.00000000000E+00 -0.00000000000E+00 -0.84728611586E+03  0.84728611587E+03  0.25500000000E-02 0.  1.
    5000001    1    1    2    0    0  0.95775158070E+02 -0.28622574529E+03 -0.25366562505E+03  0.43679320908E+03  0.18800000000E+03 0.  0.
   -5000001    1    1    2    0    0 -0.95775158070E+02  0.28622574529E+03 -0.43909465764E+03  0.56501873999E+03  0.18800000000E+03 0.  0.
<mgrwt>
<rscale>  0 0.72367836E+03</rscale>
<asrwt>0</asrwt>
<pdfrwt beam="1">  1        2 0.12104087E+00 0.72367836E+03</pdfrwt>
<pdfrwt beam="2">  1       -2 0.22075119E-01 0.72367836E+03</pdfrwt>
<totfact> 0.63402378E+02</totfact>
</mgrwt>
</event>
<event>
 4    1  0.5985962E-005  0.5395700E+03  0.7818608E-02  0.1003937E+00
          2   -1    0    0  501    0  0.00000000000E+00  0.00000000000E+00  0.11990814772E+04  0.11990814772E+04  0.25500000000E-02 0.  1.
         -2   -1    0    0    0  501 -0.00000000000E+00 -0.00000000000E+00 -0.60699757818E+02  0.60699757871E+02  0.25500000000E-02 0. -1.
    5000001    1    1    2    0    0  0.13834582711E+03  0.85519150909E+02  0.32446258253E+03  0.40874571620E+03  0.18800000000E+03 0.  0.
   -5000001    1    1    2    0    0 -0.13834582711E+03 -0.85519150909E+02  0.81391913690E+03  0.85103551892E+03  0.18800000000E+03 0.  0.
<mgrwt>
<rscale>  0 0.53957003E+03</rscale>
<asrwt>0</asrwt>
<pdfrwt beam="1">  1        2 0.17129735E+00 0.53957003E+03</pdfrwt>
<pdfrwt beam="2">  1       -2 0.86713940E-02 0.53957003E+03</pdfrwt>
<totfact> 0.18636152E+03</totfact>
</mgrwt>
</event>
<event>
 4    1  0.5985962E-005  0.5303684E+03  0.7818608E-02  0.1006143E+00
          2   -1    0    0  501    0  0.00000000000E+00  0.00000000000E+00  0.32249835628E+04  0.32249835628E+04  0.25500000000E-02 0.  1.
         -2   -1    0    0    0  501 -0.00000000000E+00 -0.00000000000E+00 -0.21805590230E+02  0.21805590379E+02  0.25500000000E-02 0. -1.
    5000001    1    1    2    0    0  0.75114260498E+02 -0.12009378767E+03  0.85398176374E+03  0.88582928534E+03  0.18800000000E+03 0.  0.
   -5000001    1    1    2    0    0 -0.75114260498E+02  0.12009378767E+03  0.23491962088E+04  0.23609598678E+04  0.18800000000E+03 0.  0.
<mgrwt>
<rscale>  0 0.53036844E+03</rscale>
<asrwt>0</asrwt>
<pdfrwt beam="1">  1        2 0.46071189E+00 0.53036844E+03</pdfrwt>
<pdfrwt beam="2">  1       -2 0.31150846E-02 0.53036844E+03</pdfrwt>
<totfact> 0.80926146E+02</totfact>
</mgrwt>
</event>
<event>
 4    1  0.5985962E-005  0.4794745E+03  0.7818608E-02  0.1019280E+00
          2   -1    0    0  501    0  0.00000000000E+00  0.00000000000E+00  0.33917238169E+03  0.33917238170E+03  0.25500000000E-02 0.  1.
         -2   -1    0    0    0  501 -0.00000000000E+00 -0.00000000000E+00 -0.16945347229E+03  0.16945347231E+03  0.25500000000E-02 0. -1.
    5000001    1    1    2    0    0  0.13736099168E+03 -0.43212664279E+02  0.45245173547E+02  0.24109438426E+03  0.18800000000E+03 0.  0.
   -5000001    1    1    2    0    0 -0.13736099168E+03  0.43212664279E+02  0.12447373585E+03  0.26753146975E+03  0.18800000000E+03 0.  0.
<mgrwt>
<rscale>  0 0.47947445E+03</rscale>
<asrwt>0</asrwt>
<pdfrwt beam="1">  1        2 0.48453197E-01 0.47947445E+03</pdfrwt>
<pdfrwt beam="2">  1       -2 0.24207639E-01 0.47947445E+03</pdfrwt>
<totfact> 0.15732778E+03</totfact>
</mgrwt>
</event>
<event>
 4    1  0.5985962E-005  0.4068338E+03  0.7818608E-02  0.1041439E+00
         -2   -1    0    0    0  501 -0.00000000000E+00  0.00000000000E+00  0.14614301442E+03  0.14614301445E+03  0.25500000000E-02 0. -1.
          2   -1    0    0  501    0  0.00000000000E+00 -0.00000000000E+00 -0.28313656632E+03  0.28313656633E+03  0.25500000000E-02 0.  1.
    5000001    1    1    2    0    0  0.55800417621E+02  0.45595928714E+02 -0.37883040158E+02  0.20487020294E+03  0.18800000000E+03 0.  0.
   -5000001    1    1    2    0    0 -0.55800417621E+02 -0.45595928714E+02 -0.99110511735E+02  0.22440937783E+03  0.18800000000E+03 0.  0.
<mgrwt>
<rscale>  0 0.40683378E+03</rscale>
<asrwt>0</asrwt>
<pdfrwt beam="1">  1        2 0.40448081E-01 0.40683378E+03</pdfrwt>
<pdfrwt beam="2">  1       -2 0.20877574E-01 0.40683378E+03</pdfrwt>
<totfact> 0.24818387E+03</totfact>
</mgrwt>
</event>
<event>
 4    1  0.5985962E-005  0.1302279E+04  0.7818608E-02  0.9027759E-01
         -2   -1    0    0    0  501 -0.00000000000E+00  0.00000000000E+00  0.62405348155E+03  0.62405348155E+03  0.25500000000E-02 0. -1.
          2   -1    0    0  501    0  0.00000000000E+00 -0.00000000000E+00 -0.67940161360E+03  0.67940161361E+03  0.25500000000E-02 0.  1.
    5000001    1    1    2    0    0  0.32586116978E+03 -0.50954282683E+02 -0.55716685755E+03  0.67421120433E+03  0.18800000000E+03 0.  0.
   -5000001    1    1    2    0    0 -0.32586116978E+03  0.50954282683E+02  0.50181872549E+03  0.62924389083E+03  0.18800000000E+03 0.  0.
<mgrwt>
<rscale>  0 0.13022795E+04</rscale>
<asrwt>0</asrwt>
<pdfrwt beam="1">  1        2 0.97057372E-01 0.13022795E+04</pdfrwt>
<pdfrwt beam="2">  1       -2 0.89150498E-01 0.13022795E+04</pdfrwt>
<totfact> 0.49515218E+01</totfact>
</mgrwt>
</event>
<event>
 4    1  0.5985962E-005  0.7674987E+03  0.7818608E-02  0.9608291E-01
          2   -1    0    0  501    0  0.00000000000E+00  0.00000000000E+00  0.10977513834E+04  0.10977513834E+04  0.25500000000E-02 0.  1.
         -2   -1    0    0    0  501 -0.00000000000E+00 -0.00000000000E+00 -0.13415019323E+03  0.13415019325E+03  0.25500000000E-02 0. -1.
    5000001    1    1    2    0    0  0.33058932968E+03 -0.30598759687E+02  0.54786254393E+03  0.66762486176E+03  0.18800000000E+03 0.  0.
   -5000001    1    1    2    0    0 -0.33058932968E+03  0.30598759687E+02  0.41573864623E+03  0.56427671488E+03  0.18800000000E+03 0.  0.
<mgrwt>
<rscale>  0 0.76749869E+03</rscale>
<asrwt>0</asrwt>
<pdfrwt beam="1">  1        2 0.15682163E+00 0.76749869E+03</pdfrwt>
<pdfrwt beam="2">  1       -2 0.19164313E-01 0.76749869E+03</pdfrwt>
<totfact> 0.56568141E+02</totfact>
</mgrwt>
</event>
<event>
 4    1  0.5985962E-005  0.4531637E+03  0.7818608E-02  0.1026783E+00
         -2   -1    0    0    0  501 -0.00000000000E+00  0.00000000000E+00  0.72686825808E+02  0.72686825853E+02  0.25500000000E-02 0. -1.
          2   -1    0    0  501    0  0.00000000000E+00 -0.00000000000E+00 -0.70630857553E+03  0.70630857553E+03  0.25500000000E-02 0.  1.
    5000001    1    1    2    0    0  0.37899257237E+02 -0.70494045601E+02 -0.14847400660E+03  0.25257532500E+03  0.18800000000E+03 0.  0.
   -5000001    1    1    2    0    0 -0.37899257237E+02  0.70494045601E+02 -0.48514774312E+03  0.52642007638E+03  0.18800000000E+03 0.  0.
<mgrwt>
<rscale>  0 0.45316367E+03</rscale>
<asrwt>0</asrwt>
<pdfrwt beam="1">  1        2 0.10090122E+00 0.45316367E+03</pdfrwt>
<pdfrwt beam="2">  1       -2 0.10383833E-01 0.45316367E+03</pdfrwt>
<totfact> 0.28547412E+03</totfact>
</mgrwt>
</event>
<event>
 4    1  0.5985962E-005  0.6019241E+03  0.7818608E-02  0.9901422E-01
          2   -1    0    0  501    0  0.00000000000E+00  0.00000000000E+00  0.22014876103E+04  0.22014876103E+04  0.25500000000E-02 0.  1.
         -2   -1    0    0    0  501 -0.00000000000E+00 -0.00000000000E+00 -0.41144065616E+02  0.41144065695E+02  0.25500000000E-02 0. -1.
    5000001    1    1    2    0    0  0.20505775528E+03  0.11430397221E+03  0.10393461345E+04  0.10819882016E+04  0.18800000000E+03 0.  0.
   -5000001    1    1    2    0    0 -0.20505775528E+03 -0.11430397221E+03  0.11209974101E+04  0.11606434743E+04  0.18800000000E+03 0.  0.
<mgrwt>
<rscale>  0 0.60192408E+03</rscale>
<asrwt>0</asrwt>
<pdfrwt beam="1">  1        2 0.31449831E+00 0.60192408E+03</pdfrwt>
<pdfrwt beam="2">  1       -2 0.58777222E-02 0.60192408E+03</pdfrwt>
<totfact> 0.10464978E+03</totfact>
</mgrwt>
</event>
<event>
 4    1  0.5985962E-005  0.5665919E+03  0.7818608E-02  0.9977249E-01
         -2   -1    0    0    0  501 -0.00000000000E+00  0.00000000000E+00  0.34131926626E+03  0.34131926627E+03  0.25500000000E-02 0. -1.
          2   -1    0    0  501    0  0.00000000000E+00 -0.00000000000E+00 -0.23513646781E+03  0.23513646783E+03  0.25500000000E-02 0.  1.
    5000001    1    1    2    0    0 -0.14132226535E+03 -0.15051975902E+03  0.44636541903E+01  0.27927066575E+03  0.18800000000E+03 0.  0.
   -5000001    1    1    2    0    0  0.14132226535E+03  0.15051975902E+03  0.10171914426E+03  0.29718506835E+03  0.18800000000E+03 0.  0.
<mgrwt>
<rscale>  0 0.56659194E+03</rscale>
<asrwt>0</asrwt>
<pdfrwt beam="1">  1        2 0.33590924E-01 0.56659194E+03</pdfrwt>
<pdfrwt beam="2">  1       -2 0.48759895E-01 0.56659194E+03</pdfrwt>
<totfact> 0.62800914E+02</totfact>
</mgrwt>
</event>
<event>
 4    1  0.5985962E-005  0.5487596E+03  0.7818608E-02  0.1001781E+00
          2   -1    0    0  501    0  0.00000000000E+00  0.00000000000E+00  0.10587444953E+04  0.10587444953E+04  0.25500000000E-02 0.  1.
         -2   -1    0    0    0  501 -0.00000000000E+00 -0.00000000000E+00 -0.71107123199E+02  0.71107123245E+02  0.25500000000E-02 0. -1.
    5000001    1    1    2    0    0  0.13649377777E+03  0.79008655612E+02  0.74654927408E+03  0.78584523773E+03  0.18800000000E+03 0.  0.
   -5000001    1    1    2    0    0 -0.13649377777E+03 -0.79008655612E+02  0.24108809798E+03  0.34400638078E+03  0.18800000000E+03 0.  0.
<mgrwt>
<rscale>  0 0.54875960E+03</rscale>
<asrwt>0</asrwt>
<pdfrwt beam="1">  1        2 0.15124922E+00 0.54875960E+03</pdfrwt>
<pdfrwt beam="2">  1       -2 0.10158160E-01 0.54875960E+03</pdfrwt>
<totfact> 0.17384422E+03</totfact>
</mgrwt>
</event>
<event>
 4    1  0.5985962E-005  0.5149018E+03  0.7818608E-02  0.1009961E+00
          2   -1    0    0  501    0  0.00000000000E+00  0.00000000000E+00  0.72826656953E+02  0.72826656998E+02  0.25500000000E-02 0.  1.
         -2   -1    0    0    0  501 -0.00000000000E+00 -0.00000000000E+00 -0.91011966746E+03  0.91011966747E+03  0.25500000000E-02 0. -1.
    5000001    1    1    2    0    0 -0.12185323744E+03 -0.12571047904E+03 -0.38638293204E+03  0.46399041605E+03  0.18800000000E+03 0.  0.
   -5000001    1    1    2    0    0  0.12185323744E+03  0.12571047904E+03 -0.45091007846E+03  0.51895590841E+03  0.18800000000E+03 0.  0.
<mgrwt>
<rscale>  0 0.51490183E+03</rscale>
<asrwt>0</asrwt>
<pdfrwt beam="1">  1        2 0.10403809E-01 0.51490183E+03</pdfrwt>
<pdfrwt beam="2">  1       -2 0.13001709E+00 0.51490183E+03</pdfrwt>
<totfact> 0.27825734E+02</totfact>
</mgrwt>
</event>
<event>
 4    1  0.5985962E-005  0.4246441E+03  0.7818608E-02  0.1035565E+00
         -2   -1    0    0    0  501 -0.00000000000E+00  0.00000000000E+00  0.98245891849E+02  0.98245891882E+02  0.25500000000E-02 0. -1.
          2   -1    0    0  501    0  0.00000000000E+00 -0.00000000000E+00 -0.45885529658E+03  0.45885529659E+03  0.25500000000E-02 0.  1.
    5000001    1    1    2    0    0 -0.73419780517E+02  0.61910669124E+02 -0.15058293371E+03  0.25931181046E+03  0.18800000000E+03 0.  0.
   -5000001    1    1    2    0    0  0.73419780517E+02 -0.61910669124E+02 -0.21002647103E+03  0.29778937801E+03  0.18800000000E+03 0.  0.
<mgrwt>
<rscale>  0 0.42464408E+03</rscale>
<asrwt>0</asrwt>
<pdfrwt beam="1">  1        2 0.65550755E-01 0.42464408E+03</pdfrwt>
<pdfrwt beam="2">  1       -2 0.14035128E-01 0.42464408E+03</pdfrwt>
<totfact> 0.28679054E+03</totfact>
</mgrwt>
</event>
<event>
 4    1  0.5985962E-005  0.1005586E+04  0.7818608E-02  0.9302439E-01
         -2   -1    0    0    0  501 -0.00000000000E+00  0.00000000000E+00  0.29385675299E+03  0.29385675300E+03  0.25500000000E-02 0. -1.
          2   -1    0    0  501    0  0.00000000000E+00 -0.00000000000E+00 -0.86028657814E+03  0.86028657815E+03  0.25500000000E-02 0.  1.
    5000001    1    1    2    0    0  0.38155540441E+03  0.22187377306E+03 -0.11050314656E+03  0.49230828066E+03  0.18800000000E+03 0.  0.
   -5000001    1    1    2    0    0 -0.38155540441E+03 -0.22187377306E+03 -0.45592667859E+03  0.66183505049E+03  0.18800000000E+03 0.  0.
<mgrwt>
<rscale>  0 0.10055864E+04</rscale>
<asrwt>0</asrwt>
<pdfrwt beam="1">  1        2 0.12289808E+00 0.10055864E+04</pdfrwt>
<pdfrwt beam="2">  1       -2 0.41979537E-01 0.10055864E+04</pdfrwt>
<totfact> 0.18522593E+02</totfact>
</mgrwt>
</event>
<event>
 4    1  0.5985962E-005  0.3996863E+03  0.7818608E-02  0.1043888E+00
          2   -1    0    0  501    0  0.00000000000E+00  0.00000000000E+00  0.17093518960E+03  0.17093518962E+03  0.25500000000E-02 0.  1.
         -2   -1    0    0    0  501 -0.00000000000E+00 -0.00000000000E+00 -0.23363997674E+03  0.23363997676E+03  0.25500000000E-02 0. -1.
    5000001    1    1    2    0    0  0.62344772233E+02 -0.18525459466E+02 -0.12060669675E+02  0.19929757406E+03  0.18800000000E+03 0.  0.
   -5000001    1    1    2    0    0 -0.62344772233E+02  0.18525459466E+02 -0.50644117470E+02  0.20527759232E+03  0.18800000000E+03 0.  0.
<mgrwt>
<rscale>  0 0.39968635E+03</rscale>
<asrwt>0</asrwt>
<pdfrwt beam="1">  1        2 0.24419313E-01 0.39968635E+03</pdfrwt>
<pdfrwt beam="2">  1       -2 0.33377139E-01 0.39968635E+03</pdfrwt>
<totfact> 0.18691444E+03</totfact>
</mgrwt>
</event>
<event>
 4    1  0.5985962E-005  0.7279423E+03  0.7818608E-02  0.9670605E-01
         -2   -1    0    0    0  501 -0.00000000000E+00  0.00000000000E+00  0.16377040669E+03  0.16377040671E+03  0.25500000000E-02 0. -1.
          2   -1    0    0  501    0  0.00000000000E+00 -0.00000000000E+00 -0.80890690150E+03  0.80890690151E+03  0.25500000000E-02 0.  1.
    5000001    1    1    2    0    0 -0.21776236867E+03 -0.17271647369E+03 -0.13417061667E+03  0.36138232368E+03  0.18800000000E+03 0.  0.
   -5000001    1    1    2    0    0  0.21776236867E+03  0.17271647369E+03 -0.51096587815E+03  0.61129498454E+03  0.18800000000E+03 0.  0.
<mgrwt>
<rscale>  0 0.72794234E+03</rscale>
<asrwt>0</asrwt>
<pdfrwt beam="1">  1        2 0.11555813E+00 0.72794234E+03</pdfrwt>
<pdfrwt beam="2">  1       -2 0.23395773E-01 0.72794234E+03</pdfrwt>
<totfact> 0.60729613E+02</totfact>
</mgrwt>
</event>
<event>
 4    1  0.5985962E-005  0.1120004E+04  0.7818608E-02  0.9185911E-01
         -2   -1    0    0    0  501 -0.00000000000E+00  0.00000000000E+00  0.66332460055E+03  0.66332460056E+03  0.25500000000E-02 0.  1.
          2   -1    0    0  501    0  0.00000000000E+00 -0.00000000000E+00 -0.47277366511E+03  0.47277366512E+03  0.25500000000E-02 0. -1.
    5000001    1    1    2    0    0  0.41968415979E+03  0.31679967246E+03  0.13784970901E+03  0.57518985450E+03  0.18800000000E+03 0.  0.
   -5000001    1    1    2    0    0 -0.41968415979E+03 -0.31679967246E+03  0.52701226434E+02  0.56090841117E+03  0.18800000000E+03 0.  0.
<mgrwt>
<rscale>  0 0.11200043E+04</rscale>
<asrwt>0</asrwt>
<pdfrwt beam="1">  1        2 0.67539096E-01 0.11200043E+04</pdfrwt>
<pdfrwt beam="2">  1       -2 0.94760657E-01 0.11200043E+04</pdfrwt>
<totfact> 0.66630743E+01</totfact>
</mgrwt>
</event>
