<event>
 8    1  0.2354930E-010  0.1890764E+04  0.7818608E-02  0.8659467E-01
         -1   -1    0    0    0  501 -0.00000000000E+00  0.00000000000E+00  0.10232660807E+04  0.10232660807E+04  0.50400000000E-02 0. -1.
          1   -1    0    0  501    0  0.00000000000E+00 -0.00000000000E+00 -0.87342591704E+03  0.87342591705E+03  0.50400000000E-02 0.  1.
     200001    2    1    2    0    0  0.23086855699E+03 -0.56292143804E+03 -0.10961098780E+03  0.93362619732E+03  0.69961594583E+03 0.  0.
    5000001    2    3    3    0    0  0.15105749305E+03 -0.23017714153E+03  0.71569027879E+01  0.31659839157E+03  0.15615196957E+03 0.  0.
        -11    1    4    4    0    0  0.74902305383E+02 -0.36964920953E+02 -0.52241514430E+02  0.98518711740E+02  0.51100000000E-03 0. -1.
     200002    1    4    4    0    0  0.76155187667E+02 -0.19321222058E+03  0.59398417218E+02  0.21807967983E+03  0.30000000000E+02 0. -1.
     200000    1    3    3    0    0  0.79811063944E+02 -0.33274429651E+03 -0.11676789059E+03  0.61702780575E+03  0.50000000000E+03 0. -1.
    -200001    1    1    2    0    0 -0.23086855699E+03  0.56292143804E+03  0.25945115148E+03  0.96306580046E+03  0.70000000000E+03 0. -1.
<mgrwt>
<rscale>  0 0.18907640E+04</rscale>
<asrwt>0</asrwt>
<pdfrwt beam="1">  1        1 0.12477513E+00 0.18907640E+04</pdfrwt>
<pdfrwt beam="2">  1       -1 0.14618087E+00 0.18907640E+04</pdfrwt>
<totfact> 0.76037719E+00</totfact>
</mgrwt>
</event>
<event>
 8    1  0.2354930E-010  0.1676431E+04  0.7818608E-02  0.8774922E-01
          1   -1    0    0  501    0  0.00000000000E+00  0.00000000000E+00  0.81647764575E+03  0.81647764576E+03  0.50400000000E-02 0.  1.
         -1   -1    0    0    0  501 -0.00000000000E+00 -0.00000000000E+00 -0.86053170664E+03  0.86053170666E+03  0.50400000000E-02 0. -1.
     200001    2    1    2    0    0 -0.35791606827E+03  0.28025340060E+03  0.56409467441E+02  0.83633176797E+03  0.69973060360E+03 0.  0.
    5000001    2    3    3    0    0 -0.11281870047E+03  0.36325822697E+02 -0.22813996736E+02  0.22326591486E+03  0.18782855406E+03 0.  0.
        -11    1    4    4    0    0 -0.17290633672E+02 -0.69492127430E+02  0.14087939962E+02  0.72983503891E+02  0.51100000000E-03 0. -1.
     200002    1    4    4    0    0 -0.95528066798E+02  0.10581795013E+03 -0.36901936698E+02  0.15028241097E+03  0.30000000000E+02 0. -1.
     200000    1    3    3    0    0 -0.24509736780E+03  0.24392757791E+03  0.79223464177E+02  0.61306585310E+03  0.50000000000E+03 0. -1.
    -200001    1    1    2    0    0  0.35791606827E+03 -0.28025340060E+03 -0.10046352834E+03  0.84067758445E+03  0.70000000000E+03 0.  1.
<mgrwt>
<rscale>  0 0.16764306E+04</rscale>
<asrwt>0</asrwt>
<pdfrwt beam="1">  1        1 0.11663966E+00 0.16764306E+04</pdfrwt>
<pdfrwt beam="2">  1       -1 0.12293310E+00 0.16764306E+04</pdfrwt>
<totfact> 0.13440793E+01</totfact>
</mgrwt>
</event>
<event>
 8    1  0.2354930E-010  0.1680424E+04  0.7818608E-02  0.8772609E-01
          1   -1    0    0  501    0  0.00000000000E+00  0.00000000000E+00  0.66226063480E+03  0.66226063482E+03  0.50400000000E-02 0. -1.
         -1   -1    0    0    0  501 -0.00000000000E+00 -0.00000000000E+00 -0.10659789809E+04  0.10659789809E+04  0.50400000000E-02 0.  1.
     200001    2    1    2    0    0  0.42110649994E+03  0.79121139853E+02 -0.38669794092E+03  0.90733734794E+03  0.70009636936E+03 0.  0.
    5000001    2    3    3    0    0  0.15691847595E+03  0.50772468466E+00 -0.14549712940E+03  0.28753640204E+03  0.19205234170E+03 0.  0.
        -11    1    4    4    0    0 -0.13084717695E+01 -0.71560018049E+02 -0.41978362512E+02  0.82974280359E+02  0.51100000000E-03 0. -1.
     200002    1    4    4    0    0  0.15822694772E+03  0.72067742734E+02 -0.10351876688E+03  0.20456212168E+03  0.30000000000E+02 0. -1.
     200000    1    3    3    0    0  0.26418802399E+03  0.78613415169E+02 -0.24120081152E+03  0.61980094590E+03  0.50000000000E+03 0.  1.
    -200001    1    1    2    0    0 -0.42110649994E+03 -0.79121139853E+02 -0.17020405167E+02  0.82090226778E+03  0.70000000000E+03 0. -1.
<mgrwt>
<rscale>  0 0.16804237E+04</rscale>
<asrwt>0</asrwt>
<pdfrwt beam="1">  1        1 0.94608662E-01 0.16804237E+04</pdfrwt>
<pdfrwt beam="2">  1       -1 0.15228271E+00 0.16804237E+04</pdfrwt>
<totfact> 0.10583209E+01</totfact>
</mgrwt>
</event>
<event>
 8    1  0.2354930E-010  0.1444401E+04  0.7818608E-02  0.8922291E-01
          1   -1    0    0  501    0  0.00000000000E+00  0.00000000000E+00  0.56588814718E+03  0.56588814720E+03  0.50400000000E-02 0.  1.
         -1   -1    0    0    0  501 -0.00000000000E+00 -0.00000000000E+00 -0.92169050037E+03  0.92169050039E+03  0.50400000000E-02 0. -1.
     200001    2    1    2    0    0 -0.10717989636E+03  0.13081032806E+03 -0.23667276497E+03  0.75765349327E+03  0.69958984132E+03 0.  0.
    5000001    2    3    3    0    0 -0.42079985536E+02  0.84081954730E+02 -0.12617887054E+03  0.23935778620E+03  0.18036225256E+03 0.  0.
        -11    1    4    4    0    0  0.36309698296E+02  0.62828592303E+02 -0.13403608008E+03  0.15241882090E+03  0.51100000000E-03 0. -1.
     200002    1    4    4    0    0 -0.78389683832E+02  0.21253362428E+02  0.78572095334E+01  0.86938965300E+02  0.30000000000E+02 0. -1.
     200000    1    3    3    0    0 -0.65099910825E+02  0.46728373333E+02 -0.11049389443E+03  0.51829570707E+03  0.50000000000E+03 0.  1.
    -200001    1    1    2    0    0  0.10717989636E+03 -0.13081032806E+03 -0.11912958822E+03  0.72992515432E+03  0.70000000000E+03 0. -1.
<mgrwt>
<rscale>  0 0.14444012E+04</rscale>
<asrwt>0</asrwt>
<pdfrwt beam="1">  1        1 0.80841164E-01 0.14444012E+04</pdfrwt>
<pdfrwt beam="2">  1       -1 0.13167007E+00 0.14444012E+04</pdfrwt>
<totfact> 0.19781984E+01</totfact>
</mgrwt>
</event>
<event>
 8    1  0.2354930E-010  0.2620570E+04  0.7818608E-02  0.8361247E-01
         -1   -1    0    0    0  501 -0.00000000000E+00  0.00000000000E+00  0.64488875059E+03  0.64488875061E+03  0.50400000000E-02 0.  1.
          1   -1    0    0  501    0  0.00000000000E+00 -0.00000000000E+00 -0.26622369137E+04  0.26622369137E+04  0.50400000000E-02 0. -1.
     200001    2    1    2    0    0  0.39838436967E+03 -0.31174653921E+03  0.23674828807E+03  0.89323941557E+03  0.69708743420E+03 0.  0.
    5000001    2    3    3    0    0  0.94140367468E+02 -0.36799513328E+02  0.90395077062E+02  0.23023146518E+03  0.18606086271E+03 0.  0.
        -11    1    4    4    0    0  0.12421491773E+03  0.33269522587E+02  0.43110557174E+02  0.13562716195E+03  0.51100000000E-03 0. -1.
     200002    1    4    4    0    0 -0.30074550261E+02 -0.70069035915E+02  0.47284519888E+02  0.94604303224E+02  0.30000000000E+02 0. -1.
     200000    1    3    3    0    0  0.30424400220E+03 -0.27494702588E+03  0.14635321100E+03  0.66300795039E+03  0.50000000000E+03 0.  1.
    -200001    1    1    2    0    0 -0.39838436967E+03  0.31174653921E+03 -0.22540964512E+04  0.24138862488E+04  0.70000000000E+03 0. -1.
<mgrwt>
<rscale>  0 0.26205699E+04</rscale>
<asrwt>0</asrwt>
<pdfrwt beam="1">  1        1 0.38031955E+00 0.26205699E+04</pdfrwt>
<pdfrwt beam="2">  1       -1 0.92126966E-01 0.26205699E+04</pdfrwt>
<totfact> 0.14360122E+00</totfact>
</mgrwt>
</event>
<event>
 8    1  0.2354930E-010  0.1645006E+04  0.7818608E-02  0.8793366E-01
         -1   -1    0    0    0  501 -0.00000000000E+00  0.00000000000E+00  0.26306012023E+03  0.26306012028E+03  0.50400000000E-02 0. -1.
          1   -1    0    0  501    0  0.00000000000E+00 -0.00000000000E+00 -0.25716977647E+04  0.25716977647E+04  0.50400000000E-02 0.  1.
     200001    2    1    2    0    0  0.85210006219E+02  0.41302214741E+03 -0.99386138769E+03  0.12866995383E+04  0.69999086028E+03 0.  0.
    5000001    2    3    3    0    0  0.13420872972E+02 -0.11728045592E+02 -0.21637167147E+03  0.26686785368E+03  0.15519047725E+03 0.  0.
        -11    1    4    4    0    0 -0.36593918432E+02  0.40744508810E+02 -0.16307140261E+03  0.17202183644E+03  0.51100000000E-03 0. -1.
     200002    1    4    4    0    0  0.50014791404E+02 -0.52472554402E+02 -0.53300268859E+02  0.94846017234E+02  0.30000000000E+02 0. -1.
     200000    1    3    3    0    0  0.71789133247E+02  0.42475019300E+03 -0.77748971622E+03  0.10198316846E+04  0.50000000000E+03 0. -1.
    -200001    1    1    2    0    0 -0.85210006219E+02 -0.41302214741E+03 -0.13147762568E+04  0.15480583467E+04  0.70000000000E+03 0.  1.
<mgrwt>
<rscale>  0 0.16450059E+04</rscale>
<asrwt>0</asrwt>
<pdfrwt beam="1">  1        1 0.36738538E+00 0.16450059E+04</pdfrwt>
<pdfrwt beam="2">  1       -1 0.37580019E-01 0.16450059E+04</pdfrwt>
<totfact> 0.10597923E+01</totfact>
</mgrwt>
</event>
<event>
 8    1  0.2354930E-010  0.1514568E+04  0.7818608E-02  0.8874823E-01
         -1   -1    0    0    0  501 -0.00000000000E+00  0.00000000000E+00  0.39510181581E+03  0.39510181584E+03  0.50400000000E-02 0.  1.
          1   -1    0    0  501    0  0.00000000000E+00 -0.00000000000E+00 -0.14514718997E+04  0.14514718997E+04  0.50400000000E-02 0. -1.
     200001    2    1    2    0    0  0.22743666360E+03  0.84078544917E+02 -0.70703424023E+03  0.10275302678E+04  0.70507049060E+03 0.  0.
    5000001    2    3    3    0    0  0.12462609391E+03  0.17216259722E+02 -0.33963230033E+03  0.39505515851E+03  0.15776696727E+03 0.  0.
        -11    1    4    4    0    0 -0.22103727490E+02  0.30571263717E+02 -0.14083157380E+03  0.14579680762E+03  0.51100000000E-03 0. -1.
     200002    1    4    4    0    0  0.14672982140E+03 -0.13355003995E+02 -0.19880072653E+03  0.24925835089E+03  0.30000000000E+02 0. -1.
     200000    1    3    3    0    0  0.10281056969E+03  0.66862285195E+02 -0.36740193990E+03  0.63247510929E+03  0.50000000000E+03 0.  1.
    -200001    1    1    2    0    0 -0.22743666360E+03 -0.84078544917E+02 -0.34933584370E+03  0.81904344779E+03  0.70000000000E+03 0. -1.
<mgrwt>
<rscale>  0 0.15145682E+04</rscale>
<asrwt>0</asrwt>
<pdfrwt beam="1">  1        1 0.20735313E+00 0.15145682E+04</pdfrwt>
<pdfrwt beam="2">  1       -1 0.56443117E-01 0.15145682E+04</pdfrwt>
<totfact> 0.25720385E+01</totfact>
</mgrwt>
</event>
<event>
 8    1  0.2354930E-010  0.1424717E+04  0.7818608E-02  0.8936119E-01
         -1   -1    0    0    0  501 -0.00000000000E+00  0.00000000000E+00  0.61864074879E+03  0.61864074881E+03  0.50400000000E-02 0. -1.
          1   -1    0    0  501    0  0.00000000000E+00 -0.00000000000E+00 -0.82027340823E+03  0.82027340824E+03  0.50400000000E-02 0.  1.
     200001    2    1    2    0    0 -0.99425461960E+02 -0.22300849083E+02 -0.16039624367E+02  0.70759512610E+03  0.70003631519E+03 0.  0.
    5000001    2    3    3    0    0 -0.10127581458E+03 -0.46045122505E+00 -0.51269967017E+02  0.20587647603E+03  0.17175421751E+03 0.  0.
        -11    1    4    4    0    0 -0.19257422055E+02 -0.30376135132E+02 -0.96567197810E+02  0.10304747247E+03  0.51100000000E-03 0. -1.
     200002    1    4    4    0    0 -0.82018392525E+02  0.29915683907E+02  0.45297230793E+02  0.10282900356E+03  0.30000000000E+02 0. -1.
     200000    1    3    3    0    0  0.18503526203E+01 -0.21840397858E+02  0.35230342650E+02  0.50171865007E+03  0.50000000000E+03 0. -1.
    -200001    1    1    2    0    0  0.99425461960E+02  0.22300849083E+02 -0.18559303507E+03  0.73131903095E+03  0.70000000000E+03 0.  1.
<mgrwt>
<rscale>  0 0.14247169E+04</rscale>
<asrwt>0</asrwt>
<pdfrwt beam="1">  1        1 0.11718192E+00 0.14247169E+04</pdfrwt>
<pdfrwt beam="2">  1       -1 0.88377250E-01 0.14247169E+04</pdfrwt>
<totfact> 0.29329888E+01</totfact>
</mgrwt>
</event>
<event>
 8    1  0.2354930E-010  0.1970178E+04  0.7818608E-02  0.8620692E-01
         -1   -1    0    0    0  501 -0.00000000000E+00  0.00000000000E+00  0.74326214908E+03  0.74326214910E+03  0.50400000000E-02 0. -1.
          1   -1    0    0  501    0  0.00000000000E+00 -0.00000000000E+00 -0.13055969228E+04  0.13055969228E+04  0.50400000000E-02 0.  1.
     200001    2    1    2    0    0  0.68221882183E+03 -0.47684481897E+02 -0.39489781248E+03  0.10560189707E+04  0.70109589458E+03 0.  0.
    5000001    2    3    3    0    0  0.10244408999E+03  0.29828832033E+02 -0.83058445565E+01  0.19485673090E+03  0.16283613766E+03 0.  0.
        -11    1    4    4    0    0  0.56395913611E+02 -0.34388975970E+02  0.57627033504E+02  0.87658289574E+02  0.51100000000E-03 0. -1.
     200002    1    4    4    0    0  0.46048176379E+02  0.64217808004E+02 -0.65932878060E+02  0.10719844132E+03  0.30000000000E+02 0. -1.
     200000    1    3    3    0    0  0.57977473184E+03 -0.77513313931E+02 -0.38659196793E+03  0.86116223975E+03  0.50000000000E+03 0.  1.
    -200001    1    1    2    0    0 -0.68221882183E+03  0.47684481897E+02 -0.16743696124E+03  0.99284010125E+03  0.70000000000E+03 0. -1.
<mgrwt>
<rscale>  0 0.19701784E+04</rscale>
<asrwt>0</asrwt>
<pdfrwt beam="1">  1        1 0.18651385E+00 0.19701784E+04</pdfrwt>
<pdfrwt beam="2">  1       -1 0.10618031E+00 0.19701784E+04</pdfrwt>
<totfact> 0.81089323E+00</totfact>
</mgrwt>
</event>
<event>
 8    1  0.2354930E-010  0.1500631E+04  0.7818608E-02  0.8884033E-01
          1   -1    0    0  501    0  0.00000000000E+00  0.00000000000E+00  0.27014344524E+04  0.27014344524E+04  0.50400000000E-02 0.  1.
         -1   -1    0    0    0  501 -0.00000000000E+00 -0.00000000000E+00 -0.20839800394E+03  0.20839800400E+03  0.50400000000E-02 0. -1.
     200001    2    1    2    0    0  0.17071335424E+03  0.74529964565E+02  0.86720843950E+03  0.11299407519E+04  0.70001275731E+03 0.  0.
    5000001    2    3    3    0    0  0.94426868906E+01  0.46853885266E+02  0.23613305504E+03  0.30833845496E+03  0.19243007100E+03 0.  0.
        -11    1    4    4    0    0 -0.17915391593E+02  0.79260968834E+02  0.16854017573E+02  0.82989880980E+02  0.51100000000E-03 0. -1.
     200002    1    4    4    0    0  0.27358078484E+02 -0.32407083568E+02  0.21927903747E+03  0.22534857398E+03  0.30000000000E+02 0. -1.
     200000    1    3    3    0    0  0.16127066735E+03  0.27676079299E+02  0.63107538446E+03  0.82160229697E+03  0.50000000000E+03 0.  1.
    -200001    1    1    2    0    0 -0.17071335424E+03 -0.74529964565E+02  0.16258280090E+04  0.17798917045E+04  0.70000000000E+03 0.  1.
<mgrwt>
<rscale>  0 0.15006313E+04</rscale>
<asrwt>0</asrwt>
<pdfrwt beam="1">  1        1 0.38591924E+00 0.15006313E+04</pdfrwt>
<pdfrwt beam="2">  1       -1 0.29771141E-01 0.15006313E+04</pdfrwt>
<totfact> 0.13421566E+01</totfact>
</mgrwt>
</event>
<event>
 8    1  0.2354930E-010  0.1640069E+04  0.7818608E-02  0.8796304E-01
          1   -1    0    0  501    0  0.00000000000E+00  0.00000000000E+00  0.10707963393E+04  0.10707963393E+04  0.50400000000E-02 0.  1.
         -1   -1    0    0    0  501 -0.00000000000E+00 -0.00000000000E+00 -0.62799638893E+03  0.62799638895E+03  0.50400000000E-02 0. -1.
     200001    2    1    2    0    0  0.19864507316E+03  0.59010777740E+02 -0.16568778351E+03  0.74842466309E+03  0.69981776038E+03 0.  0.
    5000001    2    3    3    0    0  0.45655150762E+02  0.75322841008E+02 -0.10812523408E+03  0.22213059428E+03  0.17289595572E+03 0.  0.
        -11    1    4    4    0    0 -0.43507435175E+02  0.88913396504E+02 -0.54967552585E+02  0.11322508923E+03  0.51100000000E-03 0. -1.
     200002    1    4    4    0    0  0.89162585937E+02 -0.13590555496E+02 -0.53157681490E+02  0.10890550505E+03  0.30000000000E+02 0. -1.
     200000    1    3    3    0    0  0.15298992240E+03 -0.16312063269E+02 -0.57562549431E+02  0.52629406881E+03  0.50000000000E+03 0. -1.
    -200001    1    1    2    0    0 -0.19864507316E+03 -0.59010777740E+02  0.60848773385E+03  0.95036806513E+03  0.70000000000E+03 0.  1.
<mgrwt>
<rscale>  0 0.16400686E+04</rscale>
<asrwt>0</asrwt>
<pdfrwt beam="1">  1        1 0.15297090E+00 0.16400686E+04</pdfrwt>
<pdfrwt beam="2">  1       -1 0.89713770E-01 0.16400686E+04</pdfrwt>
<totfact> 0.17843765E+01</totfact>
</mgrwt>
</event>
<event>
 8    1  0.2354930E-010  0.2276956E+04  0.7818608E-02  0.8487063E-01
          1   -1    0    0  501    0  0.00000000000E+00  0.00000000000E+00  0.21412041729E+04  0.21412041729E+04  0.50400000000E-02 0.  1.
         -1   -1    0    0    0  501 -0.00000000000E+00 -0.00000000000E+00 -0.60532844788E+03  0.60532844790E+03  0.50400000000E-02 0. -1.
     200001    2    1    2    0    0 -0.30954102159E+03  0.41498489187E+02 -0.24780330756E+03  0.80512883490E+03  0.69949138157E+03 0.  0.
    5000001    2    3    3    0    0 -0.12897648638E+03 -0.93044525325E+02 -0.14676463211E+03  0.24753203786E+03  0.12016669588E+03 0.  0.
        -11    1    4    4    0    0 -0.85045032904E+02 -0.45879382134E+01 -0.10737371525E+03  0.13705043424E+03  0.51100000000E-03 0. -1.
     200002    1    4    4    0    0 -0.43931453473E+02 -0.88456587112E+02 -0.39390916865E+02  0.11048160362E+03  0.30000000000E+02 0. -1.
     200000    1    3    3    0    0 -0.18056453521E+03  0.13454301451E+03 -0.10103867545E+03  0.55759679704E+03  0.50000000000E+03 0. -1.
    -200001    1    1    2    0    0  0.30954102159E+03 -0.41498489187E+02  0.17836790326E+04  0.19414037859E+04  0.70000000000E+03 0.  1.
<mgrwt>
<rscale>  0 0.22769557E+04</rscale>
<asrwt>0</asrwt>
<pdfrwt beam="1">  1        1 0.30588631E+00 0.22769557E+04</pdfrwt>
<pdfrwt beam="2">  1       -1 0.86475493E-01 0.22769557E+04</pdfrwt>
<totfact> 0.36420183E+00</totfact>
</mgrwt>
</event>
<event>
 8    1  0.2354930E-010  0.1615477E+04  0.7818608E-02  0.8811096E-01
         -1   -1    0    0    0  501 -0.00000000000E+00  0.00000000000E+00  0.35227402666E+03  0.35227402669E+03  0.50400000000E-02 0. -1.
          1   -1    0    0  501    0  0.00000000000E+00 -0.00000000000E+00 -0.18520851564E+04  0.18520851564E+04  0.50400000000E-02 0.  1.
     200001    2    1    2    0    0  0.10154111647E+03  0.37480317164E+03 -0.89632174841E+03  0.12018685601E+04  0.70021949652E+03 0.  0.
    5000001    2    3    3    0    0  0.57317274792E+02  0.11198019561E+03 -0.29025460797E+03  0.37220052793E+03  0.19611389891E+03 0.  0.
        -11    1    4    4    0    0  0.32299789932E+02  0.28855496574E+02 -0.27585336295E+03  0.27923286691E+03  0.51100000000E-03 0. -1.
     200002    1    4    4    0    0  0.25017484860E+02  0.83124699033E+02 -0.14401245023E+02  0.92967661023E+02  0.30000000000E+02 0. -1.
     200000    1    3    3    0    0  0.44223841676E+02  0.26282297603E+03 -0.60606714043E+03  0.82966803217E+03  0.50000000000E+03 0.  1.
    -200001    1    1    2    0    0 -0.10154111647E+03 -0.37480317164E+03 -0.60348938134E+03  0.10024906230E+04  0.70000000000E+03 0.  1.
<mgrwt>
<rscale>  0 0.16154770E+04</rscale>
<asrwt>0</asrwt>
<pdfrwt beam="1">  1        1 0.26458359E+00 0.16154770E+04</pdfrwt>
<pdfrwt beam="2">  1       -1 0.50324862E-01 0.16154770E+04</pdfrwt>
<totfact> 0.17590735E+01</totfact>
</mgrwt>
</event>
<event>
 8    1  0.2354930E-010  0.1677780E+04  0.7818608E-02  0.8774139E-01
         -1   -1    0    0    0  501 -0.00000000000E+00  0.00000000000E+00  0.20701843694E+03  0.20701843700E+03  0.50400000000E-02 0.  1.
          1   -1    0    0  501    0  0.00000000000E+00 -0.00000000000E+00 -0.33993920149E+04  0.33993920149E+04  0.50400000000E-02 0. -1.
     200001    2    1    2    0    0  0.33000218117E+03  0.11191047383E+03 -0.22501983060E+04  0.23820250400E+04  0.69944655353E+03 0.  0.
    5000001    2    3    3    0    0  0.41989567373E+02  0.98110515431E+02 -0.49904143462E+03  0.53819964353E+03  0.17096112372E+03 0.  0.
        -11    1    4    4    0    0 -0.12471256665E+02  0.80488883760E+02 -0.44936632783E+03  0.45668817506E+03  0.51100000000E-03 0. -1.
     200002    1    4    4    0    0  0.54460824039E+02  0.17621631672E+02 -0.49675106784E+02  0.81511468468E+02  0.30000000000E+02 0. -1.
     200000    1    3    3    0    0  0.28801261380E+03  0.13799958400E+02 -0.17511568714E+04  0.18438253965E+04  0.50000000000E+03 0. -1.
    -200001    1    1    2    0    0 -0.33000218117E+03 -0.11191047383E+03 -0.94217527191E+03  0.12243854118E+04  0.70000000000E+03 0.  1.
<mgrwt>
<rscale>  0 0.16777805E+04</rscale>
<asrwt>0</asrwt>
<pdfrwt beam="1">  1        1 0.48562740E+00 0.16777805E+04</pdfrwt>
<pdfrwt beam="2">  1       -1 0.29574064E-01 0.16777805E+04</pdfrwt>
<totfact> 0.46017817E+00</totfact>
</mgrwt>
</event>
<event>
 8    1  0.2354930E-010  0.1774314E+04  0.7818608E-02  0.8720079E-01
         -1   -1    0    0    0  501 -0.00000000000E+00  0.00000000000E+00  0.27792753463E+03  0.27792753467E+03  0.50400000000E-02 0. -1.
          1   -1    0    0  501    0  0.00000000000E+00 -0.00000000000E+00 -0.28318446596E+04  0.28318446596E+04  0.50400000000E-02 0.  1.
     200001    2    1    2    0    0  0.50975774107E+03 -0.18356979515E+03 -0.11725332305E+04  0.14691100449E+04  0.69992808438E+03 0.  0.
    5000001    2    3    3    0    0  0.16121852266E+03 -0.86348223013E+02 -0.24191711502E+03  0.35242836461E+03  0.17953950533E+03 0.  0.
        -11    1    4    4    0    0  0.19374734831E+02 -0.12407955054E+02  0.28614093801E+02  0.36716536638E+02  0.51100000000E-03 0. -1.
     200002    1    4    4    0    0  0.14184378783E+03 -0.73940267959E+02 -0.27053120883E+03  0.31571182797E+03  0.30000000000E+02 0. -1.
     200000    1    3    3    0    0  0.34853921841E+03 -0.97221572136E+02 -0.93061611543E+03  0.11166816803E+04  0.50000000000E+03 0.  1.
    -200001    1    1    2    0    0 -0.50975774107E+03  0.18356979515E+03 -0.13813838945E+04  0.16406621494E+04  0.70000000000E+03 0. -1.
<mgrwt>
<rscale>  0 0.17743141E+04</rscale>
<asrwt>0</asrwt>
<pdfrwt beam="1">  1        1 0.40454922E+00 0.17743141E+04</pdfrwt>
<pdfrwt beam="2">  1       -1 0.39703935E-01 0.17743141E+04</pdfrwt>
<totfact> 0.64479671E+00</totfact>
</mgrwt>
</event>
<event>
 8    1  0.2354930E-010  0.2591839E+04  0.7818608E-02  0.8370979E-01
         -1   -1    0    0    0  501 -0.00000000000E+00  0.00000000000E+00  0.11809879870E+04  0.11809879870E+04  0.50400000000E-02 0. -1.
          1   -1    0    0  501    0  0.00000000000E+00 -0.00000000000E+00 -0.14220358164E+04  0.14220358164E+04  0.50400000000E-02 0.  1.
     200001    2    1    2    0    0  0.50610371830E+03 -0.77978020060E+03  0.45210358283E+03  0.12485286889E+04  0.70016291147E+03 0.  0.
    5000001    2    3    3    0    0  0.11472574689E+03 -0.25860135407E+03  0.17328196360E+03  0.38103482618E+03  0.18741462732E+03 0.  0.
        -11    1    4    4    0    0  0.25249512485E+02 -0.17023803733E+03  0.18321761435E+03  0.25137068533E+03  0.51100000000E-03 0. -1.
     200002    1    4    4    0    0  0.89476234402E+02 -0.88363316737E+02 -0.99356507554E+01  0.12966414085E+03  0.30000000000E+02 0. -1.
     200000    1    3    3    0    0  0.39137797141E+03 -0.52117884654E+03  0.27882161923E+03  0.86749386276E+03  0.50000000000E+03 0.  1.
    -200001    1    1    2    0    0 -0.50610371830E+03  0.77978020060E+03 -0.69315141221E+03  0.13544951145E+04  0.70000000000E+03 0.  1.
<mgrwt>
<rscale>  0 0.25918389E+04</rscale>
<asrwt>0</asrwt>
<pdfrwt beam="1">  1        1 0.20314797E+00 0.25918389E+04</pdfrwt>
<pdfrwt beam="2">  1       -1 0.16871257E+00 0.25918389E+04</pdfrwt>
<totfact> 0.19517169E+00</totfact>
</mgrwt>
</event>
<event>
 8    1  0.2354930E-010  0.1443484E+04  0.7818608E-02  0.8922931E-01
          1   -1    0    0  501    0  0.00000000000E+00  0.00000000000E+00  0.81342393850E+03  0.81342393852E+03  0.50400000000E-02 0.  1.
         -1   -1    0    0    0  501 -0.00000000000E+00 -0.00000000000E+00 -0.64039335097E+03  0.64039335099E+03  0.50400000000E-02 0. -1.
     200001    2    1    2    0    0  0.11970685264E+03  0.37674611658E+01 -0.53354575888E+02  0.70843539642E+03  0.69619686569E+03 0.  0.
    5000001    2    3    3    0    0 -0.66115227388E+02 -0.52823706755E+02 -0.68423505889E+02  0.17181683695E+03  0.13295744437E+03 0.  0.
        -11    1    4    4    0    0 -0.18464606646E+02  0.34152083100E+02 -0.55024499379E+02  0.67342423559E+02  0.51100000000E-03 0. -1.
     200002    1    4    4    0    0 -0.47650620742E+02 -0.86975789855E+02 -0.13399006510E+02  0.10447441339E+03  0.30000000000E+02 0. -1.
     200000    1    3    3    0    0  0.18582208003E+03  0.56591167921E+02  0.15068930001E+02  0.53661855947E+03  0.50000000000E+03 0. -1.
    -200001    1    1    2    0    0 -0.11970685264E+03 -0.37674611658E+01  0.22638516341E+03  0.74538189309E+03  0.70000000000E+03 0.  1.
<mgrwt>
<rscale>  0 0.14434837E+04</rscale>
<asrwt>0</asrwt>
<pdfrwt beam="1">  1        1 0.11620342E+00 0.14434837E+04</pdfrwt>
<pdfrwt beam="2">  1       -1 0.91484764E-01 0.14434837E+04</pdfrwt>
<totfact> 0.27495498E+01</totfact>
</mgrwt>
</event>
<event>
 8    1  0.2354930E-010  0.1469803E+04  0.7818608E-02  0.8904785E-01
          1   -1    0    0  501    0  0.00000000000E+00  0.00000000000E+00  0.80076767609E+03  0.80076767611E+03  0.50400000000E-02 0. -1.
         -1   -1    0    0    0  501 -0.00000000000E+00 -0.00000000000E+00 -0.67445347240E+03  0.67445347242E+03  0.50400000000E-02 0.  1.
     200001    2    1    2    0    0 -0.95879512480E+02  0.18763852657E+03 -0.14526151221E+02  0.73075012616E+03  0.69955960450E+03 0.  0.
    5000001    2    3    3    0    0 -0.81766585606E+02  0.95154226689E+02 -0.36849627278E+02  0.22158329887E+03  0.17888868587E+03 0.  0.
        -11    1    4    4    0    0 -0.94870949826E+01  0.12350465081E+01 -0.88394498388E+02  0.88910728580E+02  0.51100000000E-03 0. -1.
     200002    1    4    4    0    0 -0.72279490623E+02  0.93919180181E+02  0.51544871110E+02  0.13267257029E+03  0.30000000000E+02 0. -1.
     200000    1    3    3    0    0 -0.14112926874E+02  0.92484299886E+02  0.22323476057E+02  0.50916682729E+03  0.50000000000E+03 0. -1.
    -200001    1    1    2    0    0  0.95879512480E+02 -0.18763852657E+03  0.14084035491E+03  0.74447102236E+03  0.70000000000E+03 0.  1.
<mgrwt>
<rscale>  0 0.14698034E+04</rscale>
<asrwt>0</asrwt>
<pdfrwt beam="1">  1        1 0.11439538E+00 0.14698034E+04</pdfrwt>
<pdfrwt beam="2">  1       -1 0.96350497E-01 0.14698034E+04</pdfrwt>
<totfact> 0.25039325E+01</totfact>
</mgrwt>
</event>
<event>
 8    1  0.2354930E-010  0.1712576E+04  0.7818608E-02  0.8754224E-01
         -1   -1    0    0    0  501 -0.00000000000E+00  0.00000000000E+00  0.63079536866E+03  0.63079536868E+03  0.50400000000E-02 0.  1.
          1   -1    0    0  501    0  0.00000000000E+00 -0.00000000000E+00 -0.11623887461E+04  0.11623887461E+04  0.50400000000E-02 0. -1.
     200001    2    1    2    0    0 -0.34818964634E+03  0.34092864249E+03 -0.34024675341E+03  0.91906633121E+03  0.70103259473E+03 0.  0.
    5000001    2    3    3    0    0 -0.11277049428E+03  0.11527797205E+03 -0.38526638662E+02  0.25020503776E+03  0.18738213313E+03 0.  0.
        -11    1    4    4    0    0 -0.14440503584E+03  0.83741033981E+02 -0.77224369118E+02  0.18392655691E+03  0.51100000000E-03 0. -1.
     200002    1    4    4    0    0  0.31634541565E+02  0.31536938066E+02  0.38697730456E+02  0.66278480859E+02  0.30000000000E+02 0. -1.
     200000    1    3    3    0    0 -0.23541915206E+03  0.22565067045E+03 -0.30172011475E+03  0.66886129345E+03  0.50000000000E+03 0. -1.
    -200001    1    1    2    0    0  0.34818964634E+03 -0.34092864249E+03 -0.19134662406E+03  0.87411778361E+03  0.70000000000E+03 0.  1.
<mgrwt>
<rscale>  0 0.17125763E+04</rscale>
<asrwt>0</asrwt>
<pdfrwt beam="1">  1        1 0.16605553E+00 0.17125763E+04</pdfrwt>
<pdfrwt beam="2">  1       -1 0.90113625E-01 0.17125763E+04</pdfrwt>
<totfact> 0.15102503E+01</totfact>
</mgrwt>
</event>
<event>
 8    1  0.2354930E-010  0.3460053E+04  0.7818608E-02  0.8123323E-01
          1   -1    0    0  501    0  0.00000000000E+00  0.00000000000E+00  0.14590361729E+04  0.14590361729E+04  0.50400000000E-02 0. -1.
         -1   -1    0    0    0  501 -0.00000000000E+00 -0.00000000000E+00 -0.20513482324E+04  0.20513482324E+04  0.50400000000E-02 0.  1.
     200001    2    1    2    0    0 -0.96655168053E+03 -0.33226207411E+03  0.92879167637E+03  0.15486563885E+04  0.70075844231E+03 0.  0.
    5000001    2    3    3    0    0 -0.21050463030E+03 -0.46829836864E+02  0.29349259424E+03  0.40555375618E+03  0.17841163997E+03 0.  0.
        -11    1    4    4    0    0 -0.78228755078E+02 -0.81182021306E+02  0.47053600285E+02  0.12216505230E+03  0.51100000000E-03 0. -1.
     200002    1    4    4    0    0 -0.13227587522E+03  0.34352184442E+02  0.24643899396E+03  0.28338870387E+03  0.30000000000E+02 0. -1.
     200000    1    3    3    0    0 -0.75604705023E+03 -0.28543223725E+03  0.63529908212E+03  0.11431026323E+04  0.50000000000E+03 0. -1.
    -200001    1    1    2    0    0  0.96655168053E+03  0.33226207411E+03 -0.15211037359E+04  0.19617280169E+04  0.70000000000E+03 0.  1.
<mgrwt>
<rscale>  0 0.34600528E+04</rscale>
<asrwt>0</asrwt>
<pdfrwt beam="1">  1        1 0.20843374E+00 0.34600528E+04</pdfrwt>
<pdfrwt beam="2">  1       -1 0.29304975E+00 0.34600528E+04</pdfrwt>
<totfact> 0.25016637E-01</totfact>
</mgrwt>
</event>
<event>
 8    1  0.2354930E-010  0.1443097E+04  0.7818608E-02  0.8923200E-01
         -1   -1    0    0    0  501 -0.00000000000E+00  0.00000000000E+00  0.43476458214E+03  0.43476458217E+03  0.50400000000E-02 0. -1.
          1   -1    0    0  501    0  0.00000000000E+00 -0.00000000000E+00 -0.11975041907E+04  0.11975041907E+04  0.50400000000E-02 0.  1.
     200001    2    1    2    0    0 -0.13097757621E+03 -0.78980532974E+02 -0.48028997578E+03  0.86209291952E+03  0.69938021918E+03 0.  0.
    5000001    2    3    3    0    0 -0.11445443744E+03  0.77094051174E+02 -0.14245801658E+03  0.23858452135E+03  0.13260835706E+03 0.  0.
        -11    1    4    4    0    0 -0.59878728578E+02 -0.30357458077E+02 -0.47245305222E+02  0.82092364217E+02  0.51100000000E-03 0. -1.
     200002    1    4    4    0    0 -0.54575708866E+02  0.10745150925E+03 -0.95212711362E+02  0.15649215713E+03  0.30000000000E+02 0. -1.
     200000    1    3    3    0    0 -0.16523138771E+02 -0.15607458415E+03 -0.33783195920E+03  0.62350839817E+03  0.50000000000E+03 0.  1.
    -200001    1    1    2    0    0  0.13097757621E+03  0.78980532974E+02 -0.28244963280E+03  0.77017585338E+03  0.70000000000E+03 0. -1.
<mgrwt>
<rscale>  0 0.14430972E+04</rscale>
<asrwt>0</asrwt>
<pdfrwt beam="1">  1        1 0.17107203E+00 0.14430972E+04</pdfrwt>
<pdfrwt beam="2">  1       -1 0.62109227E-01 0.14430972E+04</pdfrwt>
<totfact> 0.31794015E+01</totfact>
</mgrwt>
</event>
<event>
 8    1  0.2354930E-010  0.1748506E+04  0.7818608E-02  0.8734173E-01
         -1   -1    0    0    0  501 -0.00000000000E+00  0.00000000000E+00  0.73396437269E+03  0.73396437271E+03  0.50400000000E-02 0. -1.
          1   -1    0    0  501    0  0.00000000000E+00 -0.00000000000E+00 -0.10413559377E+04  0.10413559377E+04  0.50400000000E-02 0.  1.
     200001    2    1    2    0    0  0.36205801726E+03 -0.28384460425E+03 -0.40827490476E+03  0.93161940636E+03  0.69969461426E+03 0.  0.
    5000001    2    3    3    0    0  0.13238212890E+03 -0.12935435835E+03 -0.14237742726E+03  0.30128638461E+03  0.19038008215E+03 0.  0.
        -11    1    4    4    0    0  0.71998307369E+02 -0.25450768583E+02 -0.15892761735E+03  0.17632210707E+03  0.51100000000E-03 0. -1.
     200002    1    4    4    0    0  0.60383821528E+02 -0.10390358977E+03  0.16550190083E+02  0.12496427754E+03  0.30000000000E+02 0. -1.
     200000    1    3    3    0    0  0.22967588836E+03 -0.15449024590E+03 -0.26589747750E+03  0.63033302175E+03  0.50000000000E+03 0.  1.
    -200001    1    1    2    0    0 -0.36205801726E+03  0.28384460425E+03  0.10088333978E+03  0.84370090403E+03  0.70000000000E+03 0. -1.
<mgrwt>
<rscale>  0 0.17485058E+04</rscale>
<asrwt>0</asrwt>
<pdfrwt beam="1">  1        1 0.14876513E+00 0.17485058E+04</pdfrwt>
<pdfrwt beam="2">  1       -1 0.10485205E+00 0.17485058E+04</pdfrwt>
<totfact> 0.13055311E+01</totfact>
</mgrwt>
</event>
<event>
 8    1  0.2354930E-010  0.1584668E+04  0.7818608E-02  0.8830023E-01
          1   -1    0    0  501    0  0.00000000000E+00  0.00000000000E+00  0.73064050250E+03  0.73064050252E+03  0.50400000000E-02 0. -1.
         -1   -1    0    0    0  501 -0.00000000000E+00 -0.00000000000E+00 -0.85923644573E+03  0.85923644574E+03  0.50400000000E-02 0.  1.
     200001    2    1    2    0    0  0.21064810902E+03 -0.29796598631E+03 -0.26300661522E+02  0.79387400890E+03  0.70454798444E+03 0.  0.
    5000001    2    3    3    0    0  0.60912288311E+02 -0.64778530102E+02 -0.27260666303E+02  0.22221140968E+03  0.20181229357E+03 0.  0.
        -11    1    4    4    0    0  0.66567771656E+02 -0.12086877608E+03  0.24329758684E+02  0.14011590349E+03  0.51100000000E-03 0. -1.
     200002    1    4    4    0    0 -0.56554833443E+01  0.56090245976E+02 -0.51590424987E+02  0.82095506185E+02  0.30000000000E+02 0. -1.
     200000    1    3    3    0    0  0.14973582071E+03 -0.23318745620E+03  0.96000478023E+00  0.57166259922E+03  0.50000000000E+03 0.  1.
    -200001    1    1    2    0    0 -0.21064810902E+03  0.29796598631E+03 -0.10229528170E+03  0.79600293937E+03  0.70000000000E+03 0. -1.
<mgrwt>
<rscale>  0 0.15846677E+04</rscale>
<asrwt>0</asrwt>
<pdfrwt beam="1">  1        1 0.10437721E+00 0.15846677E+04</pdfrwt>
<pdfrwt beam="2">  1       -1 0.12274806E+00 0.15846677E+04</pdfrwt>
<totfact> 0.16119550E+01</totfact>
</mgrwt>
</event>
<event>
 8    1  0.2354930E-010  0.1824504E+04  0.7818608E-02  0.8693376E-01
          1   -1    0    0  501    0  0.00000000000E+00  0.00000000000E+00  0.19552209244E+04  0.19552209244E+04  0.50400000000E-02 0.  1.
         -1   -1    0    0    0  501 -0.00000000000E+00 -0.00000000000E+00 -0.42563158801E+03  0.42563158804E+03  0.50400000000E-02 0. -1.
     200001    2    1    2    0    0  0.55983188670E+03 -0.86372844781E+02  0.57257525280E+03  0.10667946880E+04  0.69952589417E+03 0.  0.
    5000001    2    3    3    0    0  0.42694867832E+02  0.72910129792E+02  0.61873786806E+02  0.17034739475E+03  0.13435449616E+03 0.  0.
        -11    1    4    4    0    0 -0.28900633966E+02  0.91251669428E+01  0.62955309423E+02  0.69870496636E+02  0.51100000000E-03 0. -1.
     200002    1    4    4    0    0  0.71595501797E+02  0.63784962849E+02 -0.10815226170E+01  0.10047689811E+03  0.30000000000E+02 0. -1.
     200000    1    3    3    0    0  0.51713701887E+03 -0.15928297457E+03  0.51070146599E+03  0.89644729329E+03  0.50000000000E+03 0.  1.
    -200001    1    1    2    0    0 -0.55983188670E+03  0.86372844781E+02  0.95701408354E+03  0.13140578244E+04  0.70000000000E+03 0. -1.
<mgrwt>
<rscale>  0 0.18245041E+04</rscale>
<asrwt>0</asrwt>
<pdfrwt beam="1">  1        1 0.27931728E+00 0.18245041E+04</pdfrwt>
<pdfrwt beam="2">  1       -1 0.60804512E-01 0.18245041E+04</pdfrwt>
<totfact> 0.10300522E+01</totfact>
</mgrwt>
</event>
<event>
 8    1  0.2354930E-010  0.1489801E+04  0.7818608E-02  0.8891264E-01
         -1   -1    0    0    0  501 -0.00000000000E+00  0.00000000000E+00  0.25438766016E+03  0.25438766021E+03  0.50400000000E-02 0. -1.
          1   -1    0    0  501    0  0.00000000000E+00 -0.00000000000E+00 -0.21812253367E+04  0.21812253367E+04  0.50400000000E-02 0.  1.
     200001    2    1    2    0    0  0.17048091448E+03 -0.83036819686E+02 -0.68315896575E+03  0.99592706196E+03  0.69943240176E+03 0.  0.
    5000001    2    3    3    0    0  0.96573334787E+02  0.88621450386E+02 -0.25999475743E+03  0.31475392742E+03  0.11955162263E+03 0.  0.
        -11    1    4    4    0    0  0.49259417805E+02  0.45492501636E+02 -0.28774846582E+02  0.72966086257E+02  0.51100000000E-03 0. -1.
     200002    1    4    4    0    0  0.47313916982E+02  0.43128948750E+02 -0.23121991085E+03  0.24178784116E+03  0.30000000000E+02 0. -1.
     200000    1    3    3    0    0  0.73907579692E+02 -0.17165827007E+03 -0.42316420832E+03  0.68117313454E+03  0.50000000000E+03 0.  1.
    -200001    1    1    2    0    0 -0.17048091448E+03  0.83036819686E+02 -0.12436787108E+04  0.14396859349E+04  0.70000000000E+03 0. -1.
<mgrwt>
<rscale>  0 0.14898011E+04</rscale>
<asrwt>0</asrwt>
<pdfrwt beam="1">  1        1 0.31160361E+00 0.14898011E+04</pdfrwt>
<pdfrwt beam="2">  1       -1 0.36341096E-01 0.14898011E+04</pdfrwt>
<totfact> 0.20147068E+01</totfact>
</mgrwt>
</event>
<event>
 8    1  0.2354930E-010  0.1888247E+04  0.7818608E-02  0.8660729E-01
          1   -1    0    0  501    0  0.00000000000E+00  0.00000000000E+00  0.14947024589E+04  0.14947024589E+04  0.50400000000E-02 0.  1.
         -1   -1    0    0    0  501 -0.00000000000E+00 -0.00000000000E+00 -0.59635230986E+03  0.59635230988E+03  0.50400000000E-02 0. -1.
     200001    2    1    2    0    0  0.46116883985E+03 -0.39154125131E+03  0.24438095044E+03  0.95806890697E+03  0.70156448830E+03 0.  0.
    5000001    2    3    3    0    0  0.26763390624E+03 -0.12790738550E+03  0.82738268065E+02  0.33912873015E+03  0.14203685287E+03 0.  0.
        -11    1    4    4    0    0  0.21528045667E+03 -0.37392594400E+02  0.39385256116E+02  0.22202495252E+03  0.51100000000E-03 0. -1.
     200002    1    4    4    0    0  0.52353449567E+02 -0.90514791103E+02  0.43353011949E+02  0.11710377763E+03  0.30000000000E+02 0. -1.
     200000    1    3    3    0    0  0.19353493361E+03 -0.26363386580E+03  0.16164268238E+03  0.61894017683E+03  0.50000000000E+03 0. -1.
    -200001    1    1    2    0    0 -0.46116883985E+03  0.39154125131E+03  0.65396919858E+03  0.11329858618E+04  0.70000000000E+03 0.  1.
<mgrwt>
<rscale>  0 0.18882471E+04</rscale>
<asrwt>0</asrwt>
<pdfrwt beam="1">  1        1 0.21352892E+00 0.18882471E+04</pdfrwt>
<pdfrwt beam="2">  1       -1 0.85193188E-01 0.18882471E+04</pdfrwt>
<totfact> 0.10034271E+01</totfact>
</mgrwt>
</event>
<event>
 8    1  0.2354930E-010  0.1457941E+04  0.7818608E-02  0.8912914E-01
         -1   -1    0    0    0  501 -0.00000000000E+00  0.00000000000E+00  0.65223086439E+03  0.65223086441E+03  0.50400000000E-02 0.  1.
          1   -1    0    0  501    0  0.00000000000E+00 -0.00000000000E+00 -0.81473920899E+03  0.81473920901E+03  0.50400000000E-02 0. -1.
     200001    2    1    2    0    0 -0.12654798579E+01  0.14054907915E+03  0.62256383100E+02  0.71845499147E+03  0.70181626687E+03 0.  0.
    5000001    2    3    3    0    0 -0.18117617199E+02  0.33999560426E+02 -0.46474530134E+02  0.19552172042E+03  0.18596946804E+03 0.  0.
        -11    1    4    4    0    0  0.15832731465E+01 -0.10244277724E+02  0.67399351220E+02  0.68191821541E+02  0.51100000000E-03 0. -1.
     200002    1    4    4    0    0 -0.19700890346E+02  0.44243838150E+02 -0.11387388135E+03  0.12732989888E+03  0.30000000000E+02 0. -1.
     200000    1    3    3    0    0  0.16852137341E+02  0.10654951872E+03  0.10873091323E+03  0.52293327105E+03  0.50000000000E+03 0.  1.
    -200001    1    1    2    0    0  0.12654798579E+01 -0.14054907915E+03 -0.22476472770E+03  0.74851508195E+03  0.70000000000E+03 0. -1.
<mgrwt>
<rscale>  0 0.14579411E+04</rscale>
<asrwt>0</asrwt>
<pdfrwt beam="1">  1        1 0.11639131E+00 0.14579411E+04</pdfrwt>
<pdfrwt beam="2">  1       -1 0.93175838E-01 0.14579411E+04</pdfrwt>
<totfact> 0.26300378E+01</totfact>
</mgrwt>
</event>
<event>
 8    1  0.2354930E-010  0.1585376E+04  0.7818608E-02  0.8829583E-01
          1   -1    0    0  501    0  0.00000000000E+00  0.00000000000E+00  0.12460590016E+04  0.12460590016E+04  0.50400000000E-02 0.  1.
         -1   -1    0    0    0  501 -0.00000000000E+00 -0.00000000000E+00 -0.50427333567E+03  0.50427333570E+03  0.50400000000E-02 0. -1.
     200001    2    1    2    0    0  0.19985108337E+03  0.10700052051E+03  0.45503863554E+02  0.73731806532E+03  0.70012696058E+03 0.  0.
    5000001    2    3    3    0    0 -0.19963657106E+02 -0.97781802262E+02  0.43672859424E+02  0.15400196540E+03  0.10885521686E+03 0.  0.
        -11    1    4    4    0    0 -0.52702905231E+02 -0.68302070323E+02  0.50971883211E+02  0.10020430085E+03  0.51100000000E-03 0. -1.
     200002    1    4    4    0    0  0.32739248124E+02 -0.29479731938E+02 -0.72990237874E+01  0.53797664551E+02  0.30000000000E+02 0. -1.
     200000    1    3    3    0    0  0.21981474047E+03  0.20478232278E+03  0.18310041302E+01  0.58331609992E+03  0.50000000000E+03 0. -1.
    -200001    1    1    2    0    0 -0.19985108337E+03 -0.10700052051E+03  0.69628180233E+03  0.10130142719E+04  0.70000000000E+03 0. -1.
<mgrwt>
<rscale>  0 0.15853761E+04</rscale>
<asrwt>0</asrwt>
<pdfrwt beam="1">  1        1 0.17800843E+00 0.15853761E+04</pdfrwt>
<pdfrwt beam="2">  1       -1 0.72039048E-01 0.15853761E+04</pdfrwt>
<totfact> 0.21527383E+01</totfact>
</mgrwt>
</event>
<event>
 8    1  0.2354930E-010  0.1582875E+04  0.7818608E-02  0.8831138E-01
          1   -1    0    0  501    0  0.00000000000E+00  0.00000000000E+00  0.15723877378E+04  0.15723877379E+04  0.50400000000E-02 0.  1.
         -1   -1    0    0    0  501 -0.00000000000E+00 -0.00000000000E+00 -0.39835814546E+03  0.39835814549E+03  0.50400000000E-02 0. -1.
     200001    2    1    2    0    0  0.19781069703E+03 -0.85485816402E+02  0.95506203455E+03  0.12062959582E+04  0.70467691339E+03 0.  0.
    5000001    2    3    3    0    0 -0.41739905912E+02 -0.11783514030E+02  0.27844333767E+03  0.32844096920E+03  0.16870597798E+03 0.  0.
        -11    1    4    4    0    0 -0.40017294886E+01 -0.68131743616E+01 -0.22382421790E+02  0.23736174697E+02  0.51100000000E-03 0. -1.
     200002    1    4    4    0    0 -0.37738176424E+02 -0.49703396686E+01  0.30082575946E+03  0.30470479450E+03  0.30000000000E+02 0. -1.
     200000    1    3    3    0    0  0.23955060295E+03 -0.73702302372E+02  0.67661869688E+03  0.87785498900E+03  0.50000000000E+03 0.  1.
    -200001    1    1    2    0    0 -0.19781069703E+03  0.85485816402E+02  0.21896755784E+03  0.76444992514E+03  0.70000000000E+03 0. -1.
<mgrwt>
<rscale>  0 0.15828752E+04</rscale>
<asrwt>0</asrwt>
<pdfrwt beam="1">  1        1 0.22462681E+00 0.15828752E+04</pdfrwt>
<pdfrwt beam="2">  1       -1 0.56908308E-01 0.15828752E+04</pdfrwt>
<totfact> 0.20992720E+01</totfact>
</mgrwt>
</event>
<event>
 8    1  0.2354930E-010  0.1640421E+04  0.7818608E-02  0.8796094E-01
          1   -1    0    0  501    0  0.00000000000E+00  0.00000000000E+00  0.36909199158E+04  0.36909199158E+04  0.50400000000E-02 0. -1.
         -1   -1    0    0    0  501 -0.00000000000E+00 -0.00000000000E+00 -0.18227033370E+03  0.18227033377E+03  0.50400000000E-02 0.  1.
     200001    2    1    2    0    0  0.41984405652E+03 -0.66552698634E+02  0.18671570406E+04  0.20387431784E+04  0.69964279412E+03 0.  0.
    5000001    2    3    3    0    0  0.73682018023E+02  0.29785536592E+02  0.46181407568E+03  0.50443614857E+03  0.18672806302E+03 0.  0.
        -11    1    4    4    0    0 -0.48911055193E+02 -0.72079299860E+01  0.43222339713E+02  0.65668989830E+02  0.51100000000E-03 0. -1.
     200002    1    4    4    0    0  0.12259307322E+03  0.36993466578E+02  0.41859173597E+03  0.43876715874E+03  0.30000000000E+02 0. -1.
     200000    1    3    3    0    0  0.34616203849E+03 -0.96338235226E+02  0.14053429650E+04  0.15343070298E+04  0.50000000000E+03 0. -1.
    -200001    1    1    2    0    0 -0.41984405652E+03  0.66552698634E+02  0.16414925415E+04  0.18344470712E+04  0.70000000000E+03 0. -1.
<mgrwt>
<rscale>  0 0.16404209E+04</rscale>
<asrwt>0</asrwt>
<pdfrwt beam="1">  1        1 0.52727422E+00 0.16404209E+04</pdfrwt>
<pdfrwt beam="2">  1       -1 0.26038622E-01 0.16404209E+04</pdfrwt>
<totfact> 0.35934610E+00</totfact>
</mgrwt>
</event>
<event>
 8    1  0.2354930E-010  0.1405824E+04  0.7818608E-02  0.8949613E-01
         -1   -1    0    0    0  501 -0.00000000000E+00  0.00000000000E+00  0.41299636983E+03  0.41299636986E+03  0.50400000000E-02 0. -1.
          1   -1    0    0  501    0  0.00000000000E+00 -0.00000000000E+00 -0.11963434673E+04  0.11963434673E+04  0.50400000000E-02 0.  1.
     200001    2    1    2    0    0  0.54241543935E+02  0.96664909876E+02 -0.36532756104E+03  0.78652358629E+03  0.68765461901E+03 0.  0.
    5000001    2    3    3    0    0 -0.48545098111E+02  0.39885751477E+02 -0.91097668608E+02  0.20429424959E+03  0.17172610596E+03 0.  0.
        -11    1    4    4    0    0 -0.10400614973E+03  0.24042471115E+02 -0.89428457114E+02  0.13925792093E+03  0.51100000000E-03 0. -1.
     200002    1    4    4    0    0  0.55461051618E+02  0.15843280362E+02 -0.16692114940E+01  0.65036328665E+02  0.30000000000E+02 0. -1.
     200000    1    3    3    0    0  0.10278664205E+03  0.56779158399E+02 -0.27422989243E+03  0.58222933670E+03  0.50000000000E+03 0. -1.
    -200001    1    1    2    0    0 -0.54241543935E+02 -0.96664909876E+02 -0.41801953643E+03  0.82281625089E+03  0.70000000000E+03 0. -1.
<mgrwt>
<rscale>  0 0.14058243E+04</rscale>
<asrwt>0</asrwt>
<pdfrwt beam="1">  1        1 0.17090621E+00 0.14058243E+04</pdfrwt>
<pdfrwt beam="2">  1       -1 0.58999482E-01 0.14058243E+04</pdfrwt>
<totfact> 0.35370680E+01</totfact>
</mgrwt>
</event>
<event>
 8    1  0.2354930E-010  0.1601512E+04  0.7818608E-02  0.8819620E-01
         -1   -1    0    0    0  501 -0.00000000000E+00  0.00000000000E+00  0.18804354479E+04  0.18804354479E+04  0.50400000000E-02 0. -1.
          1   -1    0    0  501    0  0.00000000000E+00 -0.00000000000E+00 -0.34099017657E+03  0.34099017661E+03  0.50400000000E-02 0.  1.
     200001    2    1    2    0    0 -0.21484331498E+03  0.20976113822E+03  0.11124443488E+04  0.13482205095E+04  0.70000623411E+03 0.  0.
    5000001    2    3    3    0    0 -0.35258426545E+02  0.13085176532E+02  0.22628032474E+03  0.29645112235E+03  0.18779271577E+03 0.  0.
        -11    1    4    4    0    0 -0.60792744023E+02  0.58852763600E+02  0.22003288899E+03  0.23574112443E+03  0.51100000000E-03 0. -1.
     200002    1    4    4    0    0  0.25534317477E+02 -0.45767587067E+02  0.62474357493E+01  0.60709997928E+02  0.30000000000E+02 0. -1.
     200000    1    3    3    0    0 -0.17958488844E+03  0.19667596168E+03  0.88616402409E+03  0.10517693871E+04  0.50000000000E+03 0.  1.
    -200001    1    1    2    0    0  0.21484331498E+03 -0.20976113822E+03  0.42700092246E+03  0.87320511501E+03  0.70000000000E+03 0.  1.
<mgrwt>
<rscale>  0 0.16015118E+04</rscale>
<asrwt>0</asrwt>
<pdfrwt beam="1">  1        1 0.48712882E-01 0.16015118E+04</pdfrwt>
<pdfrwt beam="2">  1       -1 0.26863364E+00 0.16015118E+04</pdfrwt>
<totfact> 0.41455286E+00</totfact>
</mgrwt>
</event>
<event>
 8    1  0.2354930E-010  0.1449304E+04  0.7818608E-02  0.8918883E-01
          1   -1    0    0  501    0  0.00000000000E+00  0.00000000000E+00  0.20405517141E+04  0.20405517141E+04  0.50400000000E-02 0.  1.
         -1   -1    0    0    0  501 -0.00000000000E+00 -0.00000000000E+00 -0.25734248361E+03  0.25734248366E+03  0.50400000000E-02 0. -1.
     200001    2    1    2    0    0 -0.32665285069E+02  0.59405777309E+02  0.11649935404E+04  0.13615253032E+04  0.70138800593E+03 0.  0.
    5000001    2    3    3    0    0  0.49143182318E+02 -0.90055302571E+01  0.30319888575E+03  0.35949598271E+03  0.18657879119E+03 0.  0.
        -11    1    4    4    0    0  0.36763215998E+01  0.84264670620E+02  0.14927495427E+03  0.17145571448E+03  0.51100000000E-03 0. -1.
     200002    1    4    4    0    0  0.45466860718E+02 -0.93270200877E+02  0.15392393148E+03  0.18804026824E+03  0.30000000000E+02 0. -1.
     200000    1    3    3    0    0 -0.81808467387E+02  0.68411307566E+02  0.86179465461E+03  0.10020293205E+04  0.50000000000E+03 0.  1.
    -200001    1    1    2    0    0  0.32665285069E+02 -0.59405777309E+02  0.61821569012E+03  0.93636889458E+03  0.70000000000E+03 0. -1.
<mgrwt>
<rscale>  0 0.14493042E+04</rscale>
<asrwt>0</asrwt>
<pdfrwt beam="1">  1        1 0.29150740E+00 0.14493042E+04</pdfrwt>
<pdfrwt beam="2">  1       -1 0.36763210E-01 0.14493042E+04</pdfrwt>
<totfact> 0.24269765E+01</totfact>
</mgrwt>
</event>
<event>
 8    1  0.2354930E-010  0.1517792E+04  0.7818608E-02  0.8872707E-01
          1   -1    0    0  501    0  0.00000000000E+00  0.00000000000E+00  0.14537028399E+04  0.14537028399E+04  0.50400000000E-02 0.  1.
         -1   -1    0    0    0  501 -0.00000000000E+00 -0.00000000000E+00 -0.39617661636E+03  0.39617661639E+03  0.50400000000E-02 0. -1.
     200001    2    1    2    0    0 -0.23515963816E+03 -0.11014838402E+03  0.36546577060E+03  0.83185175901E+03  0.70069922047E+03 0.  0.
    5000001    2    3    3    0    0 -0.15289467197E+03 -0.63345133090E+02  0.12772751078E+03  0.27017787753E+03  0.17115017351E+03 0.  0.
        -11    1    4    4    0    0 -0.15571700385E+03 -0.99277589320E+02  0.74219236204E+02  0.19902844031E+03  0.51100000000E-03 0. -1.
     200002    1    4    4    0    0  0.28223318845E+01  0.35932456229E+02  0.53508274579E+02  0.71149437217E+02  0.30000000000E+02 0. -1.
     200000    1    3    3    0    0 -0.82264966195E+02 -0.46803250933E+02  0.23773825981E+03  0.56167388148E+03  0.50000000000E+03 0. -1.
    -200001    1    1    2    0    0  0.23515963816E+03  0.11014838402E+03  0.69206045295E+03  0.10180276973E+04  0.70000000000E+03 0. -1.
<mgrwt>
<rscale>  0 0.15177919E+04</rscale>
<asrwt>0</asrwt>
<pdfrwt beam="1">  1        1 0.20767183E+00 0.15177919E+04</pdfrwt>
<pdfrwt beam="2">  1       -1 0.56596659E-01 0.15177919E+04</pdfrwt>
<totfact> 0.25491480E+01</totfact>
</mgrwt>
</event>
<event>
 8    1  0.2354930E-010  0.1486174E+04  0.7818608E-02  0.8893699E-01
         -1   -1    0    0    0  501 -0.00000000000E+00  0.00000000000E+00  0.50454980965E+03  0.50454980967E+03  0.50400000000E-02 0. -1.
          1   -1    0    0  501    0  0.00000000000E+00 -0.00000000000E+00 -0.10943982816E+04  0.10943982816E+04  0.50400000000E-02 0.  1.
     200001    2    1    2    0    0  0.17133297149E+03 -0.17880340963E+03 -0.24502103875E+03  0.78027135098E+03  0.69818509389E+03 0.  0.
    5000001    2    3    3    0    0 -0.14132027251E+02 -0.64198635747E+02 -0.11507881819E+03  0.21954280647E+03  0.17502779907E+03 0.  0.
        -11    1    4    4    0    0 -0.74772327366E+02 -0.22927775677E+02  0.19177029547E+01  0.78232099691E+02  0.51100000000E-03 0. -1.
     200002    1    4    4    0    0  0.60640300114E+02 -0.41270860070E+02 -0.11699652115E+03  0.14131070678E+03  0.30000000000E+02 0. -1.
     200000    1    3    3    0    0  0.18546499874E+03 -0.11460477388E+03 -0.12994222056E+03  0.56072854452E+03  0.50000000000E+03 0. -1.
    -200001    1    1    2    0    0 -0.17133297149E+03  0.17880340963E+03 -0.34482743320E+03  0.81867674030E+03  0.70000000000E+03 0.  1.
<mgrwt>
<rscale>  0 0.14861742E+04</rscale>
<asrwt>0</asrwt>
<pdfrwt beam="1">  1        1 0.15634261E+00 0.14861742E+04</pdfrwt>
<pdfrwt beam="2">  1       -1 0.72078545E-01 0.14861742E+04</pdfrwt>
<totfact> 0.27711123E+01</totfact>
</mgrwt>
</event>
<event>
 8    1  0.2354930E-010  0.1961173E+04  0.7818608E-02  0.8624992E-01
         -1   -1    0    0    0  501 -0.00000000000E+00  0.00000000000E+00  0.46409013274E+03  0.46409013277E+03  0.50400000000E-02 0. -1.
          1   -1    0    0  501    0  0.00000000000E+00 -0.00000000000E+00 -0.20719041695E+04  0.20719041695E+04  0.50400000000E-02 0.  1.
     200001    2    1    2    0    0 -0.20853506772E+03  0.58789837269E+03 -0.11741565011E+04  0.15029549859E+04  0.70079870813E+03 0.  0.
    5000001    2    3    3    0    0 -0.45944264881E+02  0.17599855529E+03 -0.41453288313E+03  0.49145843631E+03  0.19133090834E+03 0.  0.
        -11    1    4    4    0    0 -0.98861637280E+02  0.17364114034E+03 -0.34795687266E+03  0.40124662513E+03  0.51100000000E-03 0. -1.
     200002    1    4    4    0    0  0.52917372398E+02  0.23574149502E+01 -0.66576010465E+02  0.90211811179E+02  0.30000000000E+02 0. -1.
     200000    1    3    3    0    0 -0.16259080284E+03  0.41189981741E+03 -0.75962361799E+03  0.10114965496E+04  0.50000000000E+03 0.  1.
    -200001    1    1    2    0    0  0.20853506772E+03 -0.58789837269E+03 -0.43365753568E+03  0.10330393165E+04  0.70000000000E+03 0. -1.
<mgrwt>
<rscale>  0 0.19611734E+04</rscale>
<asrwt>0</asrwt>
<pdfrwt beam="1">  1        1 0.29598631E+00 0.19611734E+04</pdfrwt>
<pdfrwt beam="2">  1       -1 0.66298591E-01 0.19611734E+04</pdfrwt>
<totfact> 0.72271549E+00</totfact>
</mgrwt>
</event>
<event>
 8    1  0.2354930E-010  0.1505751E+04  0.7818608E-02  0.8880638E-01
         -1   -1    0    0    0  501 -0.00000000000E+00  0.00000000000E+00  0.12421332596E+04  0.12421332596E+04  0.50400000000E-02 0. -1.
          1   -1    0    0  501    0  0.00000000000E+00 -0.00000000000E+00 -0.45632897501E+03  0.45632897504E+03  0.50400000000E-02 0.  1.
     200001    2    1    2    0    0 -0.16311732399E+03 -0.11595809807E+03  0.60863470303E+03  0.94916749788E+03  0.70030650105E+03 0.  0.
    5000001    2    3    3    0    0 -0.33241650543E+02 -0.72189214570E+02  0.46922482477E+02  0.18476967971E+03  0.16006818905E+03 0.  0.
        -11    1    4    4    0    0 -0.77483406154E+02  0.76483680809E+01  0.36338191808E-01  0.77859983845E+02  0.51100000000E-03 0. -1.
     200002    1    4    4    0    0  0.44241755612E+02 -0.79837582651E+02  0.46886144285E+02  0.10690969586E+03  0.30000000000E+02 0. -1.
     200000    1    3    3    0    0 -0.12987567345E+03 -0.43768883504E+02  0.56171222055E+03  0.76439781818E+03  0.50000000000E+03 0. -1.
    -200001    1    1    2    0    0  0.16311732399E+03  0.11595809807E+03  0.17716958155E+03  0.74929473675E+03  0.70000000000E+03 0. -1.
<mgrwt>
<rscale>  0 0.15057508E+04</rscale>
<asrwt>0</asrwt>
<pdfrwt beam="1">  1        1 0.65189854E-01 0.15057508E+04</pdfrwt>
<pdfrwt beam="2">  1       -1 0.17744761E+00 0.15057508E+04</pdfrwt>
<totfact> 0.11683223E+01</totfact>
</mgrwt>
</event>
<event>
 8    1  0.2354930E-010  0.1614742E+04  0.7818608E-02  0.8811542E-01
          1   -1    0    0  501    0  0.00000000000E+00  0.00000000000E+00  0.13905498467E+04  0.13905498467E+04  0.50400000000E-02 0.  1.
         -1   -1    0    0    0  501 -0.00000000000E+00 -0.00000000000E+00 -0.46877007978E+03  0.46877007981E+03  0.50400000000E-02 0. -1.
     200001    2    1    2    0    0 -0.51798419006E+02  0.38373361292E+03  0.34049494502E+03  0.87046877185E+03  0.70131627194E+03 0.  0.
    5000001    2    3    3    0    0  0.55852699022E+02  0.14720136815E+03  0.67186439697E+02  0.24418305023E+03  0.17413666347E+03 0.  0.
        -11    1    4    4    0    0  0.64439020289E+02  0.14400347851E+03 -0.12783824677E+02  0.15828081163E+03  0.51100000000E-03 0. -1.
     200002    1    4    4    0    0 -0.85863212663E+01  0.31978896469E+01  0.79970264374E+02  0.85902238592E+02  0.30000000000E+02 0. -1.
     200000    1    3    3    0    0 -0.10765111803E+03  0.23653224477E+03  0.27330850533E+03  0.62628572162E+03  0.50000000000E+03 0. -1.
    -200001    1    1    2    0    0  0.51798419006E+02 -0.38373361292E+03  0.58128482188E+03  0.98885115465E+03  0.70000000000E+03 0.  1.
<mgrwt>
<rscale>  0 0.16147423E+04</rscale>
<asrwt>0</asrwt>
<pdfrwt beam="1">  1        1 0.19864998E+00 0.16147423E+04</pdfrwt>
<pdfrwt beam="2">  1       -1 0.66967155E-01 0.16147423E+04</pdfrwt>
<totfact> 0.19920509E+01</totfact>
</mgrwt>
</event>
<event>
 8    1  0.2354930E-010  0.1653006E+04  0.7818608E-02  0.8788630E-01
         -1   -1    0    0    0  501 -0.00000000000E+00  0.00000000000E+00  0.43580389037E+03  0.43580389040E+03  0.50400000000E-02 0. -1.
          1   -1    0    0  501    0  0.00000000000E+00 -0.00000000000E+00 -0.15674645587E+04  0.15674645587E+04  0.50400000000E-02 0.  1.
     200001    2    1    2    0    0  0.46955659857E+02  0.41704480680E+03 -0.72369008824E+03  0.10908150535E+04  0.70001352295E+03 0.  0.
    5000001    2    3    3    0    0  0.42243379595E+02  0.83439125828E+02 -0.18934927293E+03  0.28655448452E+03  0.19368462665E+03 0.  0.
        -11    1    4    4    0    0 -0.36712953247E+02 -0.37676885811E+02 -0.10259530938E+03  0.11529608045E+03  0.51100000000E-03 0. -1.
     200002    1    4    4    0    0  0.78956332842E+02  0.12111601164E+03 -0.86753963550E+02  0.17125840406E+03  0.30000000000E+02 0. -1.
     200000    1    3    3    0    0  0.47122802625E+01  0.33360568097E+03 -0.53434081531E+03  0.80426056901E+03  0.50000000000E+03 0.  1.
    -200001    1    1    2    0    0 -0.46955659857E+02 -0.41704480680E+03 -0.40797058009E+03  0.91245339557E+03  0.70000000000E+03 0. -1.
<mgrwt>
<rscale>  0 0.16530059E+04</rscale>
<asrwt>0</asrwt>
<pdfrwt beam="1">  1        1 0.22392351E+00 0.16530059E+04</pdfrwt>
<pdfrwt beam="2">  1       -1 0.62257699E-01 0.16530059E+04</pdfrwt>
<totfact> 0.17607421E+01</totfact>
</mgrwt>
</event>
<event>
 8    1  0.2354930E-010  0.1441260E+04  0.7818608E-02  0.8924482E-01
         -1   -1    0    0    0  501 -0.00000000000E+00  0.00000000000E+00  0.35215689817E+03  0.35215689821E+03  0.50400000000E-02 0. -1.
          1   -1    0    0  501    0  0.00000000000E+00 -0.00000000000E+00 -0.14746489591E+04  0.14746489591E+04  0.50400000000E-02 0.  1.
     200001    2    1    2    0    0  0.21169348275E+02  0.16951790121E+03 -0.53748579241E+03  0.89868043780E+03  0.69967927804E+03 0.  0.
    5000001    2    3    3    0    0  0.64108997692E+02  0.54633488967E+02 -0.82012345857E+02  0.21129531854E+03  0.17557022830E+03 0.  0.
        -11    1    4    4    0    0  0.24911369699E+02 -0.62388267521E+02 -0.35964855362E+02  0.76199364079E+02  0.51100000000E-03 0. -1.
     200002    1    4    4    0    0  0.39197627993E+02  0.11702175649E+03 -0.46047490496E+02  0.13509595447E+03  0.30000000000E+02 0. -1.
     200000    1    3    3    0    0 -0.42939649417E+02  0.11488441224E+03 -0.45547344655E+03  0.68738511926E+03  0.50000000000E+03 0.  1.
    -200001    1    1    2    0    0 -0.21169348275E+02 -0.16951790121E+03 -0.58500626853E+03  0.92812541952E+03  0.70000000000E+03 0.  1.
<mgrwt>
<rscale>  0 0.14412603E+04</rscale>
<asrwt>0</asrwt>
<pdfrwt beam="1">  1        1 0.21066413E+00 0.14412603E+04</pdfrwt>
<pdfrwt beam="2">  1       -1 0.50308129E-01 0.14412603E+04</pdfrwt>
<totfact> 0.31181480E+01</totfact>
</mgrwt>
</event>
<event>
 8    1  0.2354930E-010  0.1560993E+04  0.7818608E-02  0.8844877E-01
          1   -1    0    0  501    0  0.00000000000E+00  0.00000000000E+00  0.21215323486E+04  0.21215323486E+04  0.50400000000E-02 0. -1.
         -1   -1    0    0    0  501 -0.00000000000E+00 -0.00000000000E+00 -0.28713889220E+03  0.28713889225E+03  0.50400000000E-02 0.  1.
     200001    2    1    2    0    0  0.11971493346E+03  0.21638630751E+03  0.55109465038E+03  0.92610234704E+03  0.70200109982E+03 0.  0.
    5000001    2    3    3    0    0  0.73779469259E+02  0.30430118689E+02  0.16523907731E+03  0.26612182134E+03  0.19273678662E+03 0.  0.
        -11    1    4    4    0    0  0.11112098644E+03  0.15023821131E+02  0.18141245679E+03  0.21326994234E+03  0.51100000000E-03 0. -1.
     200002    1    4    4    0    0 -0.37341517177E+02  0.15406297558E+02 -0.16173379486E+02  0.52851878997E+02  0.30000000000E+02 0. -1.
     200000    1    3    3    0    0  0.45935464197E+02  0.18595618882E+03  0.38585557307E+03  0.65998052570E+03  0.50000000000E+03 0.  1.
    -200001    1    1    2    0    0 -0.11971493346E+03 -0.21638630751E+03  0.12832988060E+04  0.14825688938E+04  0.70000000000E+03 0. -1.
<mgrwt>
<rscale>  0 0.15609926E+04</rscale>
<asrwt>0</asrwt>
<pdfrwt beam="1">  1        1 0.30307604E+00 0.15609926E+04</pdfrwt>
<pdfrwt beam="2">  1       -1 0.41019844E-01 0.15609926E+04</pdfrwt>
<totfact> 0.17519289E+01</totfact>
</mgrwt>
</event>
<event>
 8    1  0.2354930E-010  0.1501766E+04  0.7818608E-02  0.8883279E-01
         -1   -1    0    0    0  501 -0.00000000000E+00  0.00000000000E+00  0.50455770089E+03  0.50455770092E+03  0.50400000000E-02 0.  1.
          1   -1    0    0  501    0  0.00000000000E+00 -0.00000000000E+00 -0.11174647634E+04  0.11174647635E+04  0.50400000000E-02 0. -1.
     200001    2    1    2    0    0  0.93596790498E+02 -0.56964725040E+02 -0.37756948484E+02  0.70944206090E+03  0.69991221702E+03 0.  0.
    5000001    2    3    3    0    0  0.55723508952E+02 -0.28204280866E+02  0.20663043365E+02  0.20379945584E+03  0.19289029507E+03 0.  0.
        -11    1    4    4    0    0 -0.67150500269E+02 -0.28803988792E+02  0.25040141215E+02  0.77239032419E+02  0.51100000000E-03 0. -1.
     200002    1    4    4    0    0  0.12287400922E+03  0.59970792665E+00 -0.43770978494E+01  0.12656042342E+03  0.30000000000E+02 0. -1.
     200000    1    3    3    0    0  0.37873281546E+02 -0.28760444175E+02 -0.58419991849E+02  0.50564260506E+03  0.50000000000E+03 0.  1.
    -200001    1    1    2    0    0 -0.93596790498E+02  0.56964725040E+02 -0.57515011407E+03  0.91258040347E+03  0.70000000000E+03 0. -1.
<mgrwt>
<rscale>  0 0.15017662E+04</rscale>
<asrwt>0</asrwt>
<pdfrwt beam="1">  1        1 0.15963782E+00 0.15017662E+04</pdfrwt>
<pdfrwt beam="2">  1       -1 0.72079672E-01 0.15017662E+04</pdfrwt>
<totfact> 0.26639311E+01</totfact>
</mgrwt>
</event>
<event>
 8    1  0.2354930E-010  0.2112456E+04  0.7818608E-02  0.8555776E-01
          1   -1    0    0  501    0  0.00000000000E+00  0.00000000000E+00  0.26849931305E+04  0.26849931305E+04  0.50400000000E-02 0.  1.
         -1   -1    0    0    0  501 -0.00000000000E+00 -0.00000000000E+00 -0.41550128410E+03  0.41550128413E+03  0.50400000000E-02 0. -1.
     200001    2    1    2    0    0  0.42031084025E+03  0.18616983114E+03  0.19299492756E+03  0.86148573613E+03  0.70255976474E+03 0.  0.
    5000001    2    3    3    0    0  0.12039058873E+02 -0.53404678759E+02  0.72347802719E+02  0.16245961215E+03  0.13476617666E+03 0.  0.
        -11    1    4    4    0    0  0.28429074701E+02  0.85059239906E+01  0.85519735974E+02  0.90521755797E+02  0.51100000000E-03 0. -1.
     200002    1    4    4    0    0 -0.16390015828E+02 -0.61910602750E+02 -0.13171933255E+02  0.71937856358E+02  0.30000000000E+02 0. -1.
     200000    1    3    3    0    0  0.40827178138E+03  0.23957450990E+03  0.12064712484E+03  0.69902612397E+03  0.50000000000E+03 0. -1.
    -200001    1    1    2    0    0 -0.42031084025E+03 -0.18616983114E+03  0.20764969188E+04  0.22390086785E+04  0.70000000000E+03 0.  1.
<mgrwt>
<rscale>  0 0.21124565E+04</rscale>
<asrwt>0</asrwt>
<pdfrwt beam="1">  1        1 0.38357044E+00 0.21124565E+04</pdfrwt>
<pdfrwt beam="2">  1       -1 0.59357328E-01 0.21124565E+04</pdfrwt>
<totfact> 0.36343240E+00</totfact>
</mgrwt>
</event>
<event>
 8    1  0.2354930E-010  0.1420710E+04  0.7818608E-02  0.8938962E-01
         -1   -1    0    0    0  501 -0.00000000000E+00  0.00000000000E+00  0.28456479595E+03  0.28456479599E+03  0.50400000000E-02 0.  1.
          1   -1    0    0  501    0  0.00000000000E+00 -0.00000000000E+00 -0.17732501421E+04  0.17732501421E+04  0.50400000000E-02 0. -1.
     200001    2    1    2    0    0  0.53094911254E+02  0.20047896605E+02 -0.59189708570E+03  0.91875823545E+03  0.70039527939E+03 0.  0.
    5000001    2    3    3    0    0  0.12065078140E+03  0.89701240809E+02 -0.13998387127E+03  0.23784639290E+03  0.11988535667E+03 0.  0.
        -11    1    4    4    0    0  0.11585843990E+03  0.53551846073E+02 -0.51664135689E+02  0.13769590129E+03  0.51100000000E-03 0. -1.
     200002    1    4    4    0    0  0.47923414983E+01  0.36149394736E+02 -0.88319735580E+02  0.10015049161E+03  0.30000000000E+02 0. -1.
     200000    1    3    3    0    0 -0.67555870148E+02 -0.69653344205E+02 -0.45191321444E+03  0.68091184255E+03  0.50000000000E+03 0. -1.
    -200001    1    1    2    0    0 -0.53094911254E+02 -0.20047896605E+02 -0.89678826041E+03  0.11390567026E+04  0.70000000000E+03 0. -1.
<mgrwt>
<rscale>  0 0.14207105E+04</rscale>
<asrwt>0</asrwt>
<pdfrwt beam="1">  1        1 0.25332144E+00 0.14207105E+04</pdfrwt>
<pdfrwt beam="2">  1       -1 0.40652115E-01 0.14207105E+04</pdfrwt>
<totfact> 0.29876310E+01</totfact>
</mgrwt>
</event>
<event>
 8    1  0.2354930E-010  0.1841973E+04  0.7818608E-02  0.8684292E-01
         -1   -1    0    0    0  501 -0.00000000000E+00  0.00000000000E+00  0.20587585149E+04  0.20587585149E+04  0.50400000000E-02 0. -1.
          1   -1    0    0  501    0  0.00000000000E+00 -0.00000000000E+00 -0.41200361617E+03  0.41200361620E+03  0.50400000000E-02 0.  1.
     200001    2    1    2    0    0 -0.10942400094E+03  0.49996568844E+03  0.12392388441E+04  0.15126344588E+04  0.70029336126E+03 0.  0.
    5000001    2    3    3    0    0 -0.56435946439E+02  0.94080061526E+02  0.36827512930E+03  0.42813979841E+03  0.18878835265E+03 0.  0.
        -11    1    4    4    0    0  0.13876805743E+02  0.62138913503E+02  0.33138841630E+03  0.33744939290E+03  0.51100000000E-03 0. -1.
     200002    1    4    4    0    0 -0.70312752182E+02  0.31941148023E+02  0.36886713002E+02  0.90690405515E+02  0.30000000000E+02 0. -1.
     200000    1    3    3    0    0 -0.52988054498E+02  0.40588562691E+03  0.87096371475E+03  0.10844946604E+04  0.50000000000E+03 0. -1.
    -200001    1    1    2    0    0  0.10942400094E+03 -0.49996568844E+03  0.40751605470E+03  0.95812767230E+03  0.70000000000E+03 0. -1.
<mgrwt>
<rscale>  0 0.18419728E+04</rscale>
<asrwt>0</asrwt>
<pdfrwt beam="1">  1        1 0.58857658E-01 0.18419728E+04</pdfrwt>
<pdfrwt beam="2">  1       -1 0.29410836E+00 0.18419728E+04</pdfrwt>
<totfact> 0.21668407E+00</totfact>
</mgrwt>
</event>
<event>
 8    1  0.2354930E-010  0.1629326E+04  0.7818608E-02  0.8802732E-01
          1   -1    0    0  501    0  0.00000000000E+00  0.00000000000E+00  0.15695381177E+04  0.15695381177E+04  0.50400000000E-02 0.  1.
         -1   -1    0    0    0  501 -0.00000000000E+00 -0.00000000000E+00 -0.42284788603E+03  0.42284788606E+03  0.50400000000E-02 0. -1.
     200001    2    1    2    0    0  0.32234210496E+03  0.12135423880E+03  0.85982772325E+03  0.11611691953E+04  0.70027059238E+03 0.  0.
    5000001    2    3    3    0    0  0.13605494705E+03  0.11147268875E+03  0.28829452409E+03  0.37921603304E+03  0.17249335680E+03 0.  0.
        -11    1    4    4    0    0  0.34072594138E+02  0.13084509995E+03  0.18960408880E+03  0.23287570149E+03  0.51100000000E-03 0. -1.
     200002    1    4    4    0    0  0.10198235291E+03 -0.19372411206E+02  0.98690435283E+02  0.14634033155E+03  0.30000000000E+02 0. -1.
     200000    1    3    3    0    0  0.18628715791E+03  0.98815500558E+01  0.57153319916E+03  0.78195316227E+03  0.50000000000E+03 0.  1.
    -200001    1    1    2    0    0 -0.32234210496E+03 -0.12135423880E+03  0.28686250838E+03  0.83121680843E+03  0.70000000000E+03 0.  1.
<mgrwt>
<rscale>  0 0.16293261E+04</rscale>
<asrwt>0</asrwt>
<pdfrwt beam="1">  1        1 0.22421973E+00 0.16293261E+04</pdfrwt>
<pdfrwt beam="2">  1       -1 0.60406841E-01 0.16293261E+04</pdfrwt>
<totfact> 0.18675171E+01</totfact>
</mgrwt>
</event>
<event>
 8    1  0.2354930E-010  0.1699055E+04  0.7818608E-02  0.8761903E-01
         -1   -1    0    0    0  501 -0.00000000000E+00  0.00000000000E+00  0.99367415078E+03  0.99367415079E+03  0.50400000000E-02 0. -1.
          1   -1    0    0  501    0  0.00000000000E+00 -0.00000000000E+00 -0.72629140788E+03  0.72629140790E+03  0.50400000000E-02 0.  1.
     200001    2    1    2    0    0  0.20382409992E+03 -0.12382426629E+03 -0.28919106350E+03  0.79441106834E+03  0.70041470692E+03 0.  0.
    5000001    2    3    3    0    0 -0.53327479735E+02  0.19875971344E+02  0.12052936241E+02  0.14055738395E+03  0.12795401744E+03 0.  0.
        -11    1    4    4    0    0  0.29510266369E+02 -0.36264460054E+01 -0.28113416009E+02  0.40919079801E+02  0.51100000000E-03 0. -1.
     200002    1    4    4    0    0 -0.82837746104E+02  0.23502417349E+02  0.40166352249E+02  0.99638304150E+02  0.30000000000E+02 0. -1.
     200000    1    3    3    0    0  0.25715157966E+03 -0.14370023763E+03 -0.30124399974E+03  0.65385368439E+03  0.50000000000E+03 0.  1.
    -200001    1    1    2    0    0 -0.20382409992E+03  0.12382426629E+03  0.55657380640E+03  0.92555449035E+03  0.70000000000E+03 0. -1.
<mgrwt>
<rscale>  0 0.16990550E+04</rscale>
<asrwt>0</asrwt>
<pdfrwt beam="1">  1        1 0.10375592E+00 0.16990550E+04</pdfrwt>
<pdfrwt beam="2">  1       -1 0.14195345E+00 0.16990550E+04</pdfrwt>
<totfact> 0.11125668E+01</totfact>
</mgrwt>
</event>
<event>
 8    1  0.2354930E-010  0.1555109E+04  0.7818608E-02  0.8848611E-01
         -1   -1    0    0    0  501 -0.00000000000E+00  0.00000000000E+00  0.22131718983E+04  0.22131718983E+04  0.50400000000E-02 0. -1.
          1   -1    0    0  501    0  0.00000000000E+00 -0.00000000000E+00 -0.27317850115E+03  0.27317850120E+03  0.50400000000E-02 0.  1.
     200001    2    1    2    0    0  0.95632058629E+02 -0.18894586206E+03  0.54859267578E+03  0.91445918289E+03  0.70031110504E+03 0.  0.
    5000001    2    3    3    0    0  0.57875640907E+02 -0.13226816580E+03  0.15146025675E+03  0.27231273030E+03  0.17426863234E+03 0.  0.
        -11    1    4    4    0    0  0.40258606949E+02  0.12255696293E+02 -0.18971369959E+02  0.46161351838E+02  0.51100000000E-03 0. -1.
     200002    1    4    4    0    0  0.17617033957E+02 -0.14452386209E+03  0.17043162671E+03  0.22615137847E+03  0.30000000000E+02 0. -1.
     200000    1    3    3    0    0  0.37756417722E+02 -0.56677696261E+02  0.39713241903E+03  0.64214645259E+03  0.50000000000E+03 0.  1.
    -200001    1    1    2    0    0 -0.95632058629E+02  0.18894586206E+03  0.13914007213E+04  0.15718912166E+04  0.70000000000E+03 0. -1.
<mgrwt>
<rscale>  0 0.15551090E+04</rscale>
<asrwt>0</asrwt>
<pdfrwt beam="1">  1        1 0.39025499E-01 0.15551090E+04</pdfrwt>
<pdfrwt beam="2">  1       -1 0.31616742E+00 0.15551090E+04</pdfrwt>
<totfact> 0.27371325E+00</totfact>
</mgrwt>
</event>
<event>
 8    1  0.2354930E-010  0.1691028E+04  0.7818608E-02  0.8766498E-01
          1   -1    0    0  501    0  0.00000000000E+00  0.00000000000E+00  0.20867514141E+04  0.20867514141E+04  0.50400000000E-02 0.  1.
         -1   -1    0    0    0  501 -0.00000000000E+00 -0.00000000000E+00 -0.34258686044E+03  0.34258686047E+03  0.50400000000E-02 0. -1.
     200001    2    1    2    0    0 -0.35232779345E+03 -0.32263267896E+02  0.13268993160E+04  0.15409205400E+04  0.69899822851E+03 0.  0.
    5000001    2    3    3    0    0 -0.51628346961E+02  0.51812701696E+02  0.44015906888E+03  0.47612140799E+03  0.16613713299E+03 0.  0.
        -11    1    4    4    0    0  0.39962579711E+01  0.99485806834E+01  0.37782599471E+03  0.37797807690E+03  0.51100000000E-03 0. -1.
     200002    1    4    4    0    0 -0.55624604932E+02  0.41864121013E+02  0.62333074174E+02  0.98143331093E+02  0.30000000000E+02 0. -1.
     200000    1    3    3    0    0 -0.30069944649E+03 -0.84075969592E+02  0.88674024711E+03  0.10647991321E+04  0.50000000000E+03 0. -1.
    -200001    1    1    2    0    0  0.35232779345E+03  0.32263267896E+02  0.41726523769E+03  0.88841773456E+03  0.70000000000E+03 0. -1.
<mgrwt>
<rscale>  0 0.16910276E+04</rscale>
<asrwt>0</asrwt>
<pdfrwt beam="1">  1        1 0.29810734E+00 0.16910276E+04</pdfrwt>
<pdfrwt beam="2">  1       -1 0.48940980E-01 0.16910276E+04</pdfrwt>
<totfact> 0.13110742E+01</totfact>
</mgrwt>
</event>
<event>
 8    1  0.2354930E-010  0.2194849E+04  0.7818608E-02  0.8520575E-01
          1   -1    0    0  501    0  0.00000000000E+00  0.00000000000E+00  0.75650919208E+03  0.75650919210E+03  0.50400000000E-02 0.  1.
         -1   -1    0    0    0  501 -0.00000000000E+00 -0.00000000000E+00 -0.15919705232E+04  0.15919705232E+04  0.50400000000E-02 0. -1.
     200001    2    1    2    0    0  0.11353456369E+03 -0.41300426823E+03  0.36190419277E+03  0.89687824778E+03  0.69996665911E+03 0.  0.
    5000001    2    3    3    0    0  0.60884618862E+00 -0.21553759641E+03  0.10194622215E+03  0.28915836935E+03  0.16359310558E+03 0.  0.
        -11    1    4    4    0    0  0.46162092251E+02 -0.10906589797E+03  0.11950221612E+03  0.16824710553E+03  0.51100000000E-03 0. -1.
     200002    1    4    4    0    0 -0.45553246062E+02 -0.10647169843E+03 -0.17555993966E+02  0.12091126382E+03  0.30000000000E+02 0. -1.
     200000    1    3    3    0    0  0.11292571750E+03 -0.19746667183E+03  0.25995797062E+03  0.60771987843E+03  0.50000000000E+03 0.  1.
    -200001    1    1    2    0    0 -0.11353456369E+03  0.41300426823E+03 -0.11973655239E+04  0.14516014675E+04  0.70000000000E+03 0. -1.
<mgrwt>
<rscale>  0 0.21948488E+04</rscale>
<asrwt>0</asrwt>
<pdfrwt beam="1">  1        1 0.10807274E+00 0.21948488E+04</pdfrwt>
<pdfrwt beam="2">  1       -1 0.22742436E+00 0.21948488E+04</pdfrwt>
<totfact> 0.24385634E+00</totfact>
</mgrwt>
</event>
<event>
 8    1  0.2354930E-010  0.2044543E+04  0.7818608E-02  0.8586074E-01
         -1   -1    0    0    0  501 -0.00000000000E+00  0.00000000000E+00  0.54256702625E+03  0.54256702628E+03  0.50400000000E-02 0. -1.
          1   -1    0    0  501    0  0.00000000000E+00 -0.00000000000E+00 -0.19261015353E+04  0.19261015353E+04  0.50400000000E-02 0.  1.
     200001    2    1    2    0    0 -0.66620108564E+03  0.24664466135E+03 -0.96364104251E+03  0.13865558139E+04  0.69948230192E+03 0.  0.
    5000001    2    3    3    0    0 -0.32521639541E+03 -0.18164072130E+02 -0.37366670125E+03  0.50085612005E+03  0.71654811455E+02 0.  0.
        -11    1    4    4    0    0 -0.25346400264E+03 -0.19850126819E+01 -0.29699574837E+03  0.39045411441E+03  0.51100000000E-03 0. -1.
     200002    1    4    4    0    0 -0.71752392776E+02 -0.16179059448E+02 -0.76670952874E+02  0.11040200563E+03  0.30000000000E+02 0.  1.
     200000    1    3    3    0    0 -0.34098469022E+03  0.26480873348E+03 -0.58997434126E+03  0.88569969383E+03  0.50000000000E+03 0.  1.
    -200001    1    1    2    0    0  0.66620108564E+03 -0.24664466135E+03 -0.41989346651E+03  0.10821127477E+04  0.70000000000E+03 0.  1.
<mgrwt>
<rscale>  0 0.20445432E+04</rscale>
<asrwt>0</asrwt>
<pdfrwt beam="1">  1        1 0.27515736E+00 0.20445432E+04</pdfrwt>
<pdfrwt beam="2">  1       -1 0.77509576E-01 0.20445432E+04</pdfrwt>
<totfact> 0.64198400E+00</totfact>
</mgrwt>
</event>
<event>
 8    1  0.2354930E-010  0.1569210E+04  0.7818608E-02  0.8839690E-01
          1   -1    0    0  501    0  0.00000000000E+00  0.00000000000E+00  0.91680077263E+03  0.91680077264E+03  0.50400000000E-02 0.  1.
         -1   -1    0    0    0  501 -0.00000000000E+00 -0.00000000000E+00 -0.67147094865E+03  0.67147094867E+03  0.50400000000E-02 0. -1.
     200001    2    1    2    0    0  0.27607285635E+03  0.90086270826E+01 -0.10393918009E+03  0.75864155396E+03  0.69888216236E+03 0.  0.
    5000001    2    3    3    0    0  0.12497944281E+03 -0.22850799435E+02 -0.87083094422E+02  0.23506885577E+03  0.17757218661E+03 0.  0.
        -11    1    4    4    0    0  0.15888407900E+03 -0.37507288524E+02 -0.39898619665E+02  0.16805608321E+03  0.51100000000E-03 0. -1.
     200002    1    4    4    0    0 -0.33904636191E+02  0.14656489089E+02 -0.47184474756E+02  0.67012772557E+02  0.30000000000E+02 0. -1.
     200000    1    3    3    0    0  0.15109341354E+03  0.31859426517E+02 -0.16856085671E+02  0.52357269820E+03  0.50000000000E+03 0. -1.
    -200001    1    1    2    0    0 -0.27607285635E+03 -0.90086270826E+01  0.34926900407E+03  0.82963016735E+03  0.70000000000E+03 0. -1.
<mgrwt>
<rscale>  0 0.15692101E+04</rscale>
<asrwt>0</asrwt>
<pdfrwt beam="1">  1        1 0.13097154E+00 0.15692101E+04</pdfrwt>
<pdfrwt beam="2">  1       -1 0.95924421E-01 0.15692101E+04</pdfrwt>
<totfact> 0.20196202E+01</totfact>
</mgrwt>
</event>
<event>
 8    1  0.2354930E-010  0.1802624E+04  0.7818608E-02  0.8704905E-01
         -1   -1    0    0    0  501 -0.00000000000E+00  0.00000000000E+00  0.71334750386E+03  0.71334750388E+03  0.50400000000E-02 0. -1.
          1   -1    0    0  501    0  0.00000000000E+00 -0.00000000000E+00 -0.11388048195E+04  0.11388048195E+04  0.50400000000E-02 0.  1.
     200001    2    1    2    0    0 -0.48495955666E+03 -0.20093861880E+03  0.79116644092E+01  0.87574524997E+03  0.70093155749E+03 0.  0.
    5000001    2    3    3    0    0 -0.21844702488E+03 -0.13188296346E+03 -0.39129434321E+02  0.30302325973E+03  0.15868133028E+03 0.  0.
        -11    1    4    4    0    0 -0.21878151054E+03 -0.85553484937E+02 -0.62496277428E+02  0.24308544348E+03  0.51100000000E-03 0. -1.
     200002    1    4    4    0    0  0.33448565484E+00 -0.46329478522E+02  0.23366843107E+02  0.59937816256E+02  0.30000000000E+02 0. -1.
     200000    1    3    3    0    0 -0.26651253177E+03 -0.69055655339E+02  0.47041098730E+02  0.57272199023E+03  0.50000000000E+03 0. -1.
    -200001    1    1    2    0    0  0.48495955666E+03  0.20093861880E+03 -0.43336898000E+03  0.97640707338E+03  0.70000000000E+03 0.  1.
<mgrwt>
<rscale>  0 0.18026243E+04</rscale>
<asrwt>0</asrwt>
<pdfrwt beam="1">  1        1 0.16268640E+00 0.18026243E+04</pdfrwt>
<pdfrwt beam="2">  1       -1 0.10190679E+00 0.18026243E+04</pdfrwt>
<totfact> 0.11804575E+01</totfact>
</mgrwt>
</event>
<event>
 8    1  0.2354930E-010  0.1536803E+04  0.7818608E-02  0.8860342E-01
          1   -1    0    0  501    0  0.00000000000E+00  0.00000000000E+00  0.15116077576E+04  0.15116077576E+04  0.50400000000E-02 0.  1.
         -1   -1    0    0    0  501 -0.00000000000E+00 -0.00000000000E+00 -0.39060438381E+03  0.39060438384E+03  0.50400000000E-02 0. -1.
     200001    2    1    2    0    0 -0.74772941350E+02 -0.20961566916E+02  0.17927847171E+03  0.72625458642E+03  0.69948164653E+03 0.  0.
    5000001    2    3    3    0    0  0.15248351343E+02  0.32882274915E+01 -0.84577078971E+01  0.18409523826E+03  0.18323809448E+03 0.  0.
        -11    1    4    4    0    0  0.78921947169E+02 -0.30890652215E+02  0.38233246762E+02  0.92976810536E+02  0.51100000000E-03 0. -1.
     200002    1    4    4    0    0 -0.63673595826E+02  0.34178879707E+02 -0.46690954659E+02  0.91118427721E+02  0.30000000000E+02 0. -1.
     200000    1    3    3    0    0 -0.90021292693E+02 -0.24249794407E+02  0.18773617960E+03  0.54215934816E+03  0.50000000000E+03 0. -1.
    -200001    1    1    2    0    0  0.74772941350E+02  0.20961566916E+02  0.94172490212E+03  0.11759575551E+04  0.70000000000E+03 0.  1.
<mgrwt>
<rscale>  0 0.15368027E+04</rscale>
<asrwt>0</asrwt>
<pdfrwt beam="1">  1        1 0.21594396E+00 0.15368027E+04</pdfrwt>
<pdfrwt beam="2">  1       -1 0.55800628E-01 0.15368027E+04</pdfrwt>
<totfact> 0.23977136E+01</totfact>
</mgrwt>
</event>
<event>
 8    1  0.2354930E-010  0.2096782E+04  0.7818608E-02  0.8562662E-01
         -1   -1    0    0    0  501 -0.00000000000E+00  0.00000000000E+00  0.78465995615E+03  0.78465995616E+03  0.50400000000E-02 0. -1.
          1   -1    0    0  501    0  0.00000000000E+00 -0.00000000000E+00 -0.14007641196E+04  0.14007641196E+04  0.50400000000E-02 0.  1.
     200001    2    1    2    0    0  0.29461562662E+03  0.17717206493E+03 -0.10382749682E+04  0.12986228035E+04  0.70015567417E+03 0.  0.
    5000001    2    3    3    0    0  0.62479334977E+02  0.12193292798E+03 -0.26265795715E+03  0.34545945546E+03  0.17771248322E+03 0.  0.
        -11    1    4    4    0    0 -0.57621514375E+02  0.15951056719E+02 -0.89927930919E+02  0.10798938785E+03  0.51100000000E-03 0. -1.
     200002    1    4    4    0    0  0.12010084935E+03  0.10598187126E+03 -0.17273002623E+03  0.23747006761E+03  0.30000000000E+02 0. -1.
     200000    1    3    3    0    0  0.23213629164E+03  0.55239136953E+02 -0.77561701110E+03  0.95316334804E+03  0.50000000000E+03 0.  1.
    -200001    1    1    2    0    0 -0.29461562662E+03 -0.17717206493E+03  0.42217080480E+03  0.88680127225E+03  0.70000000000E+03 0. -1.
<mgrwt>
<rscale>  0 0.20967818E+04</rscale>
<asrwt>0</asrwt>
<pdfrwt beam="1">  1        1 0.20010916E+00 0.20967818E+04</pdfrwt>
<pdfrwt beam="2">  1       -1 0.11209428E+00 0.20967818E+04</pdfrwt>
<totfact> 0.60948518E+00</totfact>
</mgrwt>
</event>
<event>
 8    1  0.2354930E-010  0.1907440E+04  0.7818608E-02  0.8651162E-01
          1   -1    0    0  501    0  0.00000000000E+00  0.00000000000E+00  0.14492271919E+04  0.14492271919E+04  0.50400000000E-02 0.  1.
         -1   -1    0    0    0  501 -0.00000000000E+00 -0.00000000000E+00 -0.62763219617E+03  0.62763219619E+03  0.50400000000E-02 0. -1.
     200001    2    1    2    0    0  0.33859238065E+03  0.13030570791E+03  0.99565754028E+03  0.12694424282E+04  0.69894618045E+03 0.  0.
    5000001    2    3    3    0    0 -0.29262548175E+01  0.19434150564E+02  0.21159430698E+03  0.27260611542E+03  0.17075038578E+03 0.  0.
        -11    1    4    4    0    0  0.25814770959E+02  0.68477799648E+02  0.28462466857E+02  0.78522120859E+02  0.51100000000E-03 0. -1.
     200002    1    4    4    0    0 -0.28741025777E+02 -0.49043649084E+02  0.18313184012E+03  0.19408399456E+03  0.30000000000E+02 0. -1.
     200000    1    3    3    0    0  0.34151863547E+03  0.11087155734E+03  0.78406323331E+03  0.99683631275E+03  0.50000000000E+03 0.  1.
    -200001    1    1    2    0    0 -0.33859238065E+03 -0.13030570791E+03 -0.17406254457E+03  0.80741695992E+03  0.70000000000E+03 0. -1.
<mgrwt>
<rscale>  0 0.19074398E+04</rscale>
<asrwt>0</asrwt>
<pdfrwt beam="1">  1        1 0.20703245E+00 0.19074398E+04</pdfrwt>
<pdfrwt beam="2">  1       -1 0.89661744E-01 0.19074398E+04</pdfrwt>
<totfact> 0.95954813E+00</totfact>
</mgrwt>
</event>
<event>
 8    1  0.2354930E-010  0.1649792E+04  0.7818608E-02  0.8790529E-01
          1   -1    0    0  501    0  0.00000000000E+00  0.00000000000E+00  0.10338786257E+04  0.10338786257E+04  0.50400000000E-02 0.  1.
         -1   -1    0    0    0  501 -0.00000000000E+00 -0.00000000000E+00 -0.65815615515E+03  0.65815615517E+03  0.50400000000E-02 0. -1.
     200001    2    1    2    0    0  0.18859833182E+03  0.14772500679E+03  0.56159087888E+03  0.92918546831E+03  0.70043508684E+03 0.  0.
    5000001    2    3    3    0    0  0.11562014235E+03  0.40611144914E+02  0.13124162346E+03  0.25687625583E+03  0.18369475951E+03 0.  0.
        -11    1    4    4    0    0  0.59041165587E+01  0.93944905266E+02  0.68758630920E+02  0.11656866279E+03  0.51100000000E-03 0. -1.
     200002    1    4    4    0    0  0.10971602579E+03 -0.53333760353E+02  0.62482992544E+02  0.14030759304E+03  0.30000000000E+02 0. -1.
     200000    1    3    3    0    0  0.72978189470E+02  0.10711386187E+03  0.43034925542E+03  0.67230921248E+03  0.50000000000E+03 0.  1.
    -200001    1    1    2    0    0 -0.18859833182E+03 -0.14772500679E+03 -0.18586840838E+03  0.76284931253E+03  0.70000000000E+03 0. -1.
<mgrwt>
<rscale>  0 0.16497922E+04</rscale>
<asrwt>0</asrwt>
<pdfrwt beam="1">  1        1 0.14769695E+00 0.16497922E+04</pdfrwt>
<pdfrwt beam="2">  1       -1 0.94022308E-01 0.16497922E+04</pdfrwt>
<totfact> 0.17098666E+01</totfact>
</mgrwt>
</event>
<event>
 8    1  0.2354930E-010  0.1867454E+04  0.7818608E-02  0.8671228E-01
         -1   -1    0    0    0  501 -0.00000000000E+00  0.00000000000E+00  0.89024040948E+03  0.89024040950E+03  0.50400000000E-02 0. -1.
          1   -1    0    0  501    0  0.00000000000E+00 -0.00000000000E+00 -0.97933773363E+03  0.97933773364E+03  0.50400000000E-02 0.  1.
     200001    2    1    2    0    0 -0.57867678566E+03  0.30213483578E+02  0.16983518347E+03  0.92468358799E+03  0.70029713087E+03 0.  0.
    5000001    2    3    3    0    0 -0.15012406294E+03 -0.30128540062E+02  0.76598805248E+02  0.25685754912E+03  0.19147704921E+03 0.  0.
        -11    1    4    4    0    0 -0.87811478158E+02 -0.49380941845E+01  0.13621385234E+03  0.16214022956E+03  0.51100000000E-03 0. -1.
     200002    1    4    4    0    0 -0.62312584786E+02 -0.25190445877E+02 -0.59615047093E+02  0.94717319568E+02  0.30000000000E+02 0. -1.
     200000    1    3    3    0    0 -0.42855272272E+03  0.60342023640E+02  0.93236378223E+02  0.66782603887E+03  0.50000000000E+03 0. -1.
    -200001    1    1    2    0    0  0.57867678566E+03 -0.30213483578E+02 -0.25893250762E+03  0.94489455515E+03  0.70000000000E+03 0.  1.
<mgrwt>
<rscale>  0 0.18674539E+04</rscale>
<asrwt>0</asrwt>
<pdfrwt beam="1">  1        1 0.13990539E+00 0.18674539E+04</pdfrwt>
<pdfrwt beam="2">  1       -1 0.12717720E+00 0.18674539E+04</pdfrwt>
<totfact> 0.90280699E+00</totfact>
</mgrwt>
</event>
<event>
 8    1  0.2354930E-010  0.1892243E+04  0.7818608E-02  0.8658727E-01
          1   -1    0    0  501    0  0.00000000000E+00  0.00000000000E+00  0.21088227463E+04  0.21088227463E+04  0.50400000000E-02 0.  1.
         -1   -1    0    0    0  501 -0.00000000000E+00 -0.00000000000E+00 -0.42447637118E+03  0.42447637121E+03  0.50400000000E-02 0. -1.
     200001    2    1    2    0    0  0.56584402812E+03  0.18580593039E+03  0.54084093543E+03  0.10662244778E+04  0.69973024207E+03 0.  0.
    5000001    2    3    3    0    0  0.14434638000E+03  0.62026449499E+02  0.86644413755E+02  0.26044776705E+03  0.18879255036E+03 0.  0.
        -11    1    4    4    0    0  0.17773331058E+03  0.68316549304E+02  0.97383934361E+02  0.21386891142E+03  0.51100000000E-03 0. -1.
     200002    1    4    4    0    0 -0.33386930581E+02 -0.62900998053E+01 -0.10739520606E+02  0.46578855633E+02  0.30000000000E+02 0. -1.
     200000    1    3    3    0    0  0.42149764812E+03  0.12377948089E+03  0.45419652167E+03  0.80577671073E+03  0.50000000000E+03 0. -1.
    -200001    1    1    2    0    0 -0.56584402812E+03 -0.18580593039E+03  0.11435054397E+04  0.14670746397E+04  0.70000000000E+03 0.  1.
<mgrwt>
<rscale>  0 0.18922425E+04</rscale>
<asrwt>0</asrwt>
<pdfrwt beam="1">  1        1 0.30126040E+00 0.18922425E+04</pdfrwt>
<pdfrwt beam="2">  1       -1 0.60639481E-01 0.18922425E+04</pdfrwt>
<totfact> 0.82403858E+00</totfact>
</mgrwt>
</event>
<event>
 8    1  0.2354930E-010  0.1570865E+04  0.7818608E-02  0.8838649E-01
          1   -1    0    0  501    0  0.00000000000E+00  0.00000000000E+00  0.11493353764E+04  0.11493353764E+04  0.50400000000E-02 0.  1.
         -1   -1    0    0    0  501 -0.00000000000E+00 -0.00000000000E+00 -0.53674892736E+03  0.53674892738E+03  0.50400000000E-02 0. -1.
     200001    2    1    2    0    0 -0.28669526869E+02  0.35032106416E+03  0.36948488334E+03  0.86593482897E+03  0.69984088138E+03 0.  0.
    5000001    2    3    3    0    0  0.43314768833E+02  0.13146157162E+03  0.10696665457E+03  0.25601923093E+03  0.18693760297E+03 0.  0.
        -11    1    4    4    0    0 -0.13534981729E+01  0.96786279260E+02  0.15026163396E+03  0.17873996322E+03  0.51100000000E-03 0. -1.
     200002    1    4    4    0    0  0.44668267005E+02  0.34675292363E+02 -0.43294979391E+02  0.77279267712E+02  0.30000000000E+02 0. -1.
     200000    1    3    3    0    0 -0.71984295701E+02  0.21885949254E+03  0.26251822877E+03  0.60991559805E+03  0.50000000000E+03 0.  1.
    -200001    1    1    2    0    0  0.28669526869E+02 -0.35032106416E+03  0.24310156567E+03  0.82014947479E+03  0.70000000000E+03 0.  1.
<mgrwt>
<rscale>  0 0.15708654E+04</rscale>
<asrwt>0</asrwt>
<pdfrwt beam="1">  1        1 0.16419077E+00 0.15708654E+04</pdfrwt>
<pdfrwt beam="2">  1       -1 0.76678419E-01 0.15708654E+04</pdfrwt>
<totfact> 0.22099696E+01</totfact>
</mgrwt>
</event>
<event>
 8    1  0.2354930E-010  0.1952938E+04  0.7818608E-02  0.8628945E-01
         -1   -1    0    0    0  501 -0.00000000000E+00  0.00000000000E+00  0.46712523406E+03  0.46712523409E+03  0.50400000000E-02 0.  1.
          1   -1    0    0  501    0  0.00000000000E+00 -0.00000000000E+00 -0.20411908499E+04  0.20411908499E+04  0.50400000000E-02 0. -1.
     200001    2    1    2    0    0  0.37836639049E+03 -0.38166406519E+03 -0.24952976421E+03  0.91670563970E+03  0.69946804253E+03 0.  0.
    5000001    2    3    3    0    0  0.19711122543E+03 -0.18402909752E+03 -0.94648238241E+02  0.32857189437E+03  0.16211618318E+03 0.  0.
        -11    1    4    4    0    0  0.16681631609E+03 -0.18693832842E+03 -0.31779630109E+02  0.25255408696E+03  0.51100000000E-03 0. -1.
     200002    1    4    4    0    0  0.30294909340E+02  0.29092309067E+01 -0.62868608132E+02  0.76017807419E+02  0.30000000000E+02 0.  1.
     200000    1    3    3    0    0  0.18125516506E+03 -0.19763496767E+03 -0.15488152597E+03  0.58813374533E+03  0.50000000000E+03 0.  1.
    -200001    1    1    2    0    0 -0.37836639049E+03  0.38166406519E+03 -0.13245358516E+04  0.15916104443E+04  0.70000000000E+03 0. -1.
<mgrwt>
<rscale>  0 0.19529380E+04</rscale>
<asrwt>0</asrwt>
<pdfrwt beam="1">  1        1 0.29159869E+00 0.19529380E+04</pdfrwt>
<pdfrwt beam="2">  1       -1 0.66732177E-01 0.19529380E+04</pdfrwt>
<totfact> 0.74623383E+00</totfact>
</mgrwt>
</event>
<event>
 8    1  0.2354930E-010  0.1876947E+04  0.7818608E-02  0.8666417E-01
         -1   -1    0    0    0  501 -0.00000000000E+00  0.00000000000E+00  0.46982530117E+03  0.46982530119E+03  0.50400000000E-02 0.  1.
          1   -1    0    0  501    0  0.00000000000E+00 -0.00000000000E+00 -0.18745947588E+04  0.18745947588E+04  0.50400000000E-02 0. -1.
     200001    2    1    2    0    0  0.98323275467E+02 -0.45351618086E+03 -0.17947876818E+03  0.85892968087E+03  0.70014511043E+03 0.  0.
    5000001    2    3    3    0    0  0.99712725828E+02 -0.21023330025E+03 -0.74717462175E+02  0.29309982853E+03  0.16181514794E+03 0.  0.
        -11    1    4    4    0    0 -0.29805335929E+02 -0.99491003343E+02 -0.58779131882E+02  0.11933903025E+03  0.51100000000E-03 0. -1.
     200002    1    4    4    0    0  0.12951806176E+03 -0.11074229690E+03 -0.15938330293E+02  0.17376079828E+03  0.30000000000E+02 0. -1.
     200000    1    3    3    0    0 -0.13894503610E+01 -0.24328288061E+03 -0.10476130601E+03  0.56582985235E+03  0.50000000000E+03 0.  1.
    -200001    1    1    2    0    0 -0.98323275467E+02  0.45351618086E+03 -0.12252906894E+04  0.14854903791E+04  0.70000000000E+03 0. -1.
<mgrwt>
<rscale>  0 0.18769465E+04</rscale>
<asrwt>0</asrwt>
<pdfrwt beam="1">  1        1 0.26779925E+00 0.18769465E+04</pdfrwt>
<pdfrwt beam="2">  1       -1 0.67117901E-01 0.18769465E+04</pdfrwt>
<totfact> 0.94554955E+00</totfact>
</mgrwt>
</event>
<event>
 8    1  0.2354930E-010  0.2222454E+04  0.7818608E-02  0.8509140E-01
         -1   -1    0    0    0  501 -0.00000000000E+00  0.00000000000E+00  0.37670764287E+03  0.37670764290E+03  0.50400000000E-02 0. -1.
          1   -1    0    0  501    0  0.00000000000E+00 -0.00000000000E+00 -0.32779398112E+04  0.32779398112E+04  0.50400000000E-02 0.  1.
     200001    2    1    2    0    0  0.65918720110E+03  0.29608431939E+03 -0.68773681164E+03  0.12232372903E+04  0.70790808452E+03 0.  0.
    5000001    2    3    3    0    0  0.31496531725E+03  0.14971035947E+03 -0.16617913729E+03  0.40964252074E+03  0.13629066851E+03 0.  0.
        -11    1    4    4    0    0  0.25925718219E+03  0.14932186349E+03 -0.17365356118E+03  0.34592898801E+03  0.51100000000E-03 0. -1.
     200002    1    4    4    0    0  0.55708135058E+02  0.38849597993E+00  0.74744238844E+01  0.63713532732E+02  0.30000000000E+02 0. -1.
     200000    1    3    3    0    0  0.34422188384E+03  0.14637395992E+03 -0.52155767434E+03  0.81359476960E+03  0.50000000000E+03 0. -1.
    -200001    1    1    2    0    0 -0.65918720110E+03 -0.29608431939E+03 -0.22134953567E+04  0.24314101637E+04  0.70000000000E+03 0.  1.
<mgrwt>
<rscale>  0 0.22224536E+04</rscale>
<asrwt>0</asrwt>
<pdfrwt beam="1">  1        1 0.46827710E+00 0.22224536E+04</pdfrwt>
<pdfrwt beam="2">  1       -1 0.53815380E-01 0.22224536E+04</pdfrwt>
<totfact> 0.17689644E+00</totfact>
</mgrwt>
</event>
<event>
 8    1  0.2354930E-010  0.1472397E+04  0.7818608E-02  0.8903019E-01
         -1   -1    0    0    0  501 -0.00000000000E+00  0.00000000000E+00  0.58869533530E+03  0.58869533532E+03  0.50400000000E-02 0.  1.
          1   -1    0    0  501    0  0.00000000000E+00 -0.00000000000E+00 -0.92065978499E+03  0.92065978500E+03  0.50400000000E-02 0. -1.
     200001    2    1    2    0    0 -0.17101007134E+03 -0.53972031805E+02 -0.25573744168E+02  0.72447762087E+03  0.70146730646E+03 0.  0.
    5000001    2    3    3    0    0  0.18172285983E+02  0.21014003489E+02  0.31933830603E+02  0.18159642672E+03  0.17659465547E+03 0.  0.
        -11    1    4    4    0    0 -0.14187137814E+02  0.80327292932E+02  0.61314370767E+02  0.10204509264E+03  0.51100000000E-03 0. -1.
     200002    1    4    4    0    0  0.32359423797E+02 -0.59313289443E+02 -0.29380540164E+02  0.79551334077E+02  0.30000000000E+02 0. -1.
     200000    1    3    3    0    0 -0.18918235732E+03 -0.74986035293E+02 -0.57507574771E+02  0.54288119415E+03  0.50000000000E+03 0.  1.
    -200001    1    1    2    0    0  0.17101007134E+03  0.53972031805E+02 -0.30639070552E+03  0.78487749945E+03  0.70000000000E+03 0. -1.
<mgrwt>
<rscale>  0 0.14723968E+04</rscale>
<asrwt>0</asrwt>
<pdfrwt beam="1">  1        1 0.13152283E+00 0.14723968E+04</pdfrwt>
<pdfrwt beam="2">  1       -1 0.84099333E-01 0.14723968E+04</pdfrwt>
<totfact> 0.27020968E+01</totfact>
</mgrwt>
</event>
<event>
 8    1  0.2354930E-010  0.2169362E+04  0.7818608E-02  0.8531290E-01
          1   -1    0    0  501    0  0.00000000000E+00  0.00000000000E+00  0.17599616833E+04  0.17599616833E+04  0.50400000000E-02 0. -1.
         -1   -1    0    0    0  501 -0.00000000000E+00 -0.00000000000E+00 -0.66849909612E+03  0.66849909614E+03  0.50400000000E-02 0.  1.
     200001    2    1    2    0    0  0.40994656487E+03  0.27588111344E+03 -0.20064325293E+03  0.87807241621E+03  0.69755779571E+03 0.  0.
    5000001    2    3    3    0    0  0.11613199728E+03 -0.22150283931E+02 -0.39081640843E+02  0.20631958336E+03  0.16450872303E+03 0.  0.
        -11    1    4    4    0    0 -0.17103874998E+02 -0.26085445744E+02  0.38224795480E+02  0.49336882850E+02  0.51100000000E-03 0. -1.
     200002    1    4    4    0    0  0.13323587228E+03  0.39351618127E+01 -0.77306436323E+02  0.15698270050E+03  0.30000000000E+02 0. -1.
     200000    1    3    3    0    0  0.29381456759E+03  0.29803139737E+03 -0.16156161209E+03  0.67175283285E+03  0.50000000000E+03 0.  1.
    -200001    1    1    2    0    0 -0.40994656487E+03 -0.27588111344E+03  0.12921058401E+04  0.15503883632E+04  0.70000000000E+03 0. -1.
<mgrwt>
<rscale>  0 0.21693619E+04</rscale>
<asrwt>0</asrwt>
<pdfrwt beam="1">  1        1 0.25142309E+00 0.21693619E+04</pdfrwt>
<pdfrwt beam="2">  1       -1 0.95499873E-01 0.21693619E+04</pdfrwt>
<totfact> 0.51374563E+00</totfact>
</mgrwt>
</event>
<event>
 8    1  0.2354930E-010  0.1609391E+04  0.7818608E-02  0.8814799E-01
         -1   -1    0    0    0  501 -0.00000000000E+00  0.00000000000E+00  0.28678306541E+03  0.28678306545E+03  0.50400000000E-02 0. -1.
          1   -1    0    0  501    0  0.00000000000E+00 -0.00000000000E+00 -0.22579266766E+04  0.22579266766E+04  0.50400000000E-02 0.  1.
     200001    2    1    2    0    0  0.19387931191E+03 -0.58431269153E+02 -0.15246585574E+04  0.16901032220E+04  0.70061528937E+03 0.  0.
    5000001    2    3    3    0    0  0.27262628926E+02 -0.10927877548E+03 -0.48461608190E+03  0.52304069638E+03  0.16134968711E+03 0.  0.
        -11    1    4    4    0    0  0.87916770973E+02 -0.32772886239E+02 -0.20847720655E+03  0.22861794843E+03  0.51100000000E-03 0. -1.
     200002    1    4    4    0    0 -0.60654142047E+02 -0.76505889243E+02 -0.27613887535E+03  0.29442274796E+03  0.30000000000E+02 0.  1.
     200000    1    3    3    0    0  0.16661668299E+03  0.50847506328E+02 -0.10400424755E+04  0.11670625257E+04  0.50000000000E+03 0.  1.
    -200001    1    1    2    0    0 -0.19387931191E+03  0.58431269153E+02 -0.44648505380E+03  0.85460652002E+03  0.70000000000E+03 0. -1.
<mgrwt>
<rscale>  0 0.16093914E+04</rscale>
<asrwt>0</asrwt>
<pdfrwt beam="1">  1        1 0.32256094E+00 0.16093914E+04</pdfrwt>
<pdfrwt beam="2">  1       -1 0.40969011E-01 0.16093914E+04</pdfrwt>
<totfact> 0.14351918E+01</totfact>
</mgrwt>
</event>
<event>
 8    1  0.2354930E-010  0.1455644E+04  0.7818608E-02  0.8914497E-01
          1   -1    0    0  501    0  0.00000000000E+00  0.00000000000E+00  0.10364552401E+04  0.10364552401E+04  0.50400000000E-02 0.  1.
         -1   -1    0    0    0  501 -0.00000000000E+00 -0.00000000000E+00 -0.51109277388E+03  0.51109277391E+03  0.50400000000E-02 0. -1.
     200001    2    1    2    0    0  0.59678913843E+02 -0.16651465906E+03  0.35699407739E+03  0.80617319737E+03  0.70084359769E+03 0.  0.
    5000001    2    3    3    0    0  0.29350808108E+02 -0.83290337672E+02  0.97298059453E+02  0.23583285740E+03  0.19583532360E+03 0.  0.
        -11    1    4    4    0    0  0.66153288421E+02  0.25144544493E+02  0.93674510419E+02  0.11740280912E+03  0.51100000000E-03 0. -1.
     200002    1    4    4    0    0 -0.36802480312E+02 -0.10843488217E+03  0.36235490339E+01  0.11843004828E+03  0.30000000000E+02 0. -1.
     200000    1    3    3    0    0  0.30328105735E+02 -0.83224321387E+02  0.25969601794E+03  0.57034033997E+03  0.50000000000E+03 0.  1.
    -200001    1    1    2    0    0 -0.59678913843E+02  0.16651465906E+03  0.16836838885E+03  0.74137481668E+03  0.70000000000E+03 0. -1.
<mgrwt>
<rscale>  0 0.14556439E+04</rscale>
<asrwt>0</asrwt>
<pdfrwt beam="1">  1        1 0.14806503E+00 0.14556439E+04</pdfrwt>
<pdfrwt beam="2">  1       -1 0.73013255E-01 0.14556439E+04</pdfrwt>
<totfact> 0.29812374E+01</totfact>
</mgrwt>
</event>
<event>
 8    1  0.2354930E-010  0.1614589E+04  0.7818608E-02  0.8811635E-01
         -1   -1    0    0    0  501 -0.00000000000E+00  0.00000000000E+00  0.64716201608E+03  0.64716201610E+03  0.50400000000E-02 0. -1.
          1   -1    0    0  501    0  0.00000000000E+00 -0.00000000000E+00 -0.10070498811E+04  0.10070498811E+04  0.50400000000E-02 0.  1.
     200001    2    1    2    0    0  0.33449991950E+03  0.20910793024E+03 -0.99575465121E+02  0.80959431029E+03  0.69993667668E+03 0.  0.
    5000001    2    3    3    0    0  0.57135223636E+02  0.13720347162E+03 -0.60300771281E+02  0.23197512150E+03  0.16759190784E+03 0.  0.
        -11    1    4    4    0    0  0.91153524479E+02  0.13587628897E+02 -0.29225596945E+02  0.96683629437E+02  0.51100000000E-03 0. -1.
     200002    1    4    4    0    0 -0.34018300844E+02  0.12361584272E+03 -0.31075174336E+02  0.13529149206E+03  0.30000000000E+02 0. -1.
     200000    1    3    3    0    0  0.27736469586E+03  0.71904458618E+02 -0.39274693840E+02  0.57761918879E+03  0.50000000000E+03 0. -1.
    -200001    1    1    2    0    0 -0.33449991950E+03 -0.20910793024E+03 -0.26031239991E+03  0.84461758695E+03  0.70000000000E+03 0. -1.
<mgrwt>
<rscale>  0 0.16145890E+04</rscale>
<asrwt>0</asrwt>
<pdfrwt beam="1">  1        1 0.14386427E+00 0.16145890E+04</pdfrwt>
<pdfrwt beam="2">  1       -1 0.92451716E-01 0.16145890E+04</pdfrwt>
<totfact> 0.18642340E+01</totfact>
</mgrwt>
</event>
<event>
 8    1  0.2354930E-010  0.1464616E+04  0.7818608E-02  0.8908330E-01
          1   -1    0    0  501    0  0.00000000000E+00  0.00000000000E+00  0.27838959272E+03  0.27838959277E+03  0.50400000000E-02 0.  1.
         -1   -1    0    0    0  501 -0.00000000000E+00 -0.00000000000E+00 -0.19263464854E+04  0.19263464854E+04  0.50400000000E-02 0. -1.
     200001    2    1    2    0    0  0.49518517314E+02  0.12682651409E+03 -0.10769430623E+04  0.12911750005E+04  0.69913480395E+03 0.  0.
    5000001    2    3    3    0    0 -0.27997377584E+02  0.73516377206E+02 -0.18181437822E+03  0.26156048727E+03  0.17078907901E+03 0.  0.
        -11    1    4    4    0    0  0.54218698466E+02 -0.18889536706E+02 -0.34924739634E+02  0.67202822106E+02  0.51100000000E-03 0. -1.
     200002    1    4    4    0    0 -0.82216076050E+02  0.92405913911E+02 -0.14688963858E+03  0.19435766517E+03  0.30000000000E+02 0. -1.
     200000    1    3    3    0    0  0.77515894899E+02  0.53310136883E+02 -0.89512868411E+03  0.10296145132E+04  0.50000000000E+03 0. -1.
    -200001    1    1    2    0    0 -0.49518517314E+02 -0.12682651409E+03 -0.57101383032E+03  0.91356107768E+03  0.70000000000E+03 0.  1.
<mgrwt>
<rscale>  0 0.14646157E+04</rscale>
<asrwt>0</asrwt>
<pdfrwt beam="1">  1        1 0.39769943E-01 0.14646157E+04</pdfrwt>
<pdfrwt beam="2">  1       -1 0.27519235E+00 0.14646157E+04</pdfrwt>
<totfact> 0.49541991E+00</totfact>
</mgrwt>
</event>
<event>
 8    1  0.2354930E-010  0.1726301E+04  0.7818608E-02  0.8746505E-01
         -1   -1    0    0    0  501 -0.00000000000E+00  0.00000000000E+00  0.52294489090E+03  0.52294489092E+03  0.50400000000E-02 0.  1.
          1   -1    0    0  501    0  0.00000000000E+00 -0.00000000000E+00 -0.14246787716E+04  0.14246787716E+04  0.50400000000E-02 0. -1.
     200001    2    1    2    0    0 -0.60111274639E+02  0.36556740055E+03 -0.66307932829E+02  0.79645495029E+03  0.70191940862E+03 0.  0.
    5000001    2    3    3    0    0  0.17848260828E+02  0.88678763988E+02 -0.29501451226E+02  0.21844134896E+03  0.19663113618E+03 0.  0.
        -11    1    4    4    0    0 -0.53809837501E+02  0.11320201087E+03 -0.49165730287E+02  0.13463826689E+03  0.51100000000E-03 0. -1.
     200002    1    4    4    0    0  0.71658098330E+02 -0.24523246880E+02  0.19664279061E+02  0.83803082072E+02  0.30000000000E+02 0. -1.
     200000    1    3    3    0    0 -0.77959535467E+02  0.27688863656E+03 -0.36806481603E+02  0.57801360132E+03  0.50000000000E+03 0.  1.
    -200001    1    1    2    0    0  0.60111274639E+02 -0.36556740055E+03 -0.83542594791E+03  0.11511687123E+04  0.70000000000E+03 0. -1.
<mgrwt>
<rscale>  0 0.17263007E+04</rscale>
<asrwt>0</asrwt>
<pdfrwt beam="1">  1        1 0.20352554E+00 0.17263007E+04</pdfrwt>
<pdfrwt beam="2">  1       -1 0.74706413E-01 0.17263007E+04</pdfrwt>
<totfact> 0.14957185E+01</totfact>
</mgrwt>
</event>
<event>
 8    1  0.2354930E-010  0.1903428E+04  0.7818608E-02  0.8653152E-01
         -1   -1    0    0    0  501 -0.00000000000E+00  0.00000000000E+00  0.36243490479E+03  0.36243490483E+03  0.50400000000E-02 0.  1.
          1   -1    0    0  501    0  0.00000000000E+00 -0.00000000000E+00 -0.24990959230E+04  0.24990959230E+04  0.50400000000E-02 0. -1.
     200001    2    1    2    0    0 -0.47988250043E+03 -0.22870659870E+03 -0.16153346689E+04  0.18395841144E+04  0.70154807335E+03 0.  0.
    5000001    2    3    3    0    0 -0.17191112330E+03 -0.17527030756E+03 -0.63487339281E+03  0.69546606103E+03  0.14260330331E+03 0.  0.
        -11    1    4    4    0    0 -0.25875594298E+01 -0.60462219809E+02 -0.26402872744E+03  0.27087551458E+03  0.51100000000E-03 0. -1.
     200002    1    4    4    0    0 -0.16932356387E+03 -0.11480808775E+03 -0.37084466538E+03  0.42459054645E+03  0.30000000000E+02 0. -1.
     200000    1    3    3    0    0 -0.30797137713E+03 -0.53436291137E+02 -0.98046127604E+03  0.11441180534E+04  0.50000000000E+03 0.  1.
    -200001    1    1    2    0    0  0.47988250043E+03  0.22870659870E+03 -0.52132634940E+03  0.10219467134E+04  0.70000000000E+03 0.  1.
<mgrwt>
<rscale>  0 0.19034281E+04</rscale>
<asrwt>0</asrwt>
<pdfrwt beam="1">  1        1 0.35701370E+00 0.19034281E+04</pdfrwt>
<pdfrwt beam="2">  1       -1 0.51776416E-01 0.19034281E+04</pdfrwt>
<totfact> 0.63480851E+00</totfact>
</mgrwt>
</event>
<event>
 8    1  0.2354930E-010  0.2042164E+04  0.7818608E-02  0.8587157E-01
         -1   -1    0    0    0  501 -0.00000000000E+00  0.00000000000E+00  0.47467754003E+03  0.47467754006E+03  0.50400000000E-02 0. -1.
          1   -1    0    0  501    0  0.00000000000E+00 -0.00000000000E+00 -0.21964567370E+04  0.21964567370E+04  0.50400000000E-02 0.  1.
     200001    2    1    2    0    0  0.64136688647E+02  0.45646825849E+03 -0.10023539271E+03  0.84579017390E+03  0.70202357401E+03 0.  0.
    5000001    2    3    3    0    0 -0.83243800895E+02  0.11837617476E+03 -0.13716398390E+02  0.21848418624E+03  0.16310962851E+03 0.  0.
        -11    1    4    4    0    0 -0.11845252178E+03  0.46195577012E+02 -0.31371106934E+02  0.13095486857E+03  0.51100000000E-03 0. -1.
     200002    1    4    4    0    0  0.35208720884E+02  0.72180597748E+02  0.17654708544E+02  0.87529317667E+02  0.30000000000E+02 0. -1.
     200000    1    3    3    0    0  0.14738048954E+03  0.33809208373E+03 -0.86518994316E+02  0.62730598766E+03  0.50000000000E+03 0. -1.
    -200001    1    1    2    0    0 -0.64136688647E+02 -0.45646825849E+03 -0.16215438043E+04  0.18253441032E+04  0.70000000000E+03 0.  1.
<mgrwt>
<rscale>  0 0.20421642E+04</rscale>
<asrwt>0</asrwt>
<pdfrwt beam="1">  1        1 0.31377953E+00 0.20421642E+04</pdfrwt>
<pdfrwt beam="2">  1       -1 0.67811078E-01 0.20421642E+04</pdfrwt>
<totfact> 0.57226607E+00</totfact>
</mgrwt>
</event>
<event>
 8    1  0.2354930E-010  0.2014359E+04  0.7818608E-02  0.8599937E-01
         -1   -1    0    0    0  501 -0.00000000000E+00  0.00000000000E+00  0.70198819007E+03  0.70198819009E+03  0.50400000000E-02 0. -1.
          1   -1    0    0  501    0  0.00000000000E+00 -0.00000000000E+00 -0.14450534639E+04  0.14450534639E+04  0.50400000000E-02 0.  1.
     200001    2    1    2    0    0  0.53660597192E+03 -0.23547441668E+03  0.82304030197E+02  0.91633914809E+03  0.69964942001E+03 0.  0.
    5000001    2    3    3    0    0  0.19373869860E+03 -0.20464728432E+02  0.86283846815E+02  0.27306395651E+03  0.17077919569E+03 0.  0.
        -11    1    4    4    0    0  0.63310838183E+02 -0.87503015974E+02  0.50146941150E+02  0.11907877957E+03  0.51100000000E-03 0. -1.
     200002    1    4    4    0    0  0.13042786041E+03  0.67038287541E+02  0.36136905665E+02  0.15398517695E+03  0.30000000000E+02 0. -1.
     200000    1    3    3    0    0  0.34286727333E+03 -0.21500968825E+03 -0.39798166181E+01  0.64327519158E+03  0.50000000000E+03 0.  1.
    -200001    1    1    2    0    0 -0.53660597192E+03  0.23547441668E+03 -0.82536930402E+03  0.12307025059E+04  0.70000000000E+03 0.  1.
<mgrwt>
<rscale>  0 0.20143589E+04</rscale>
<asrwt>0</asrwt>
<pdfrwt beam="1">  1        1 0.20643621E+00 0.20143589E+04</pdfrwt>
<pdfrwt beam="2">  1       -1 0.10028403E+00 0.20143589E+04</pdfrwt>
<totfact> 0.74424238E+00</totfact>
</mgrwt>
</event>
<event>
 8    1  0.2354930E-010  0.1413938E+04  0.7818608E-02  0.8943791E-01
          1   -1    0    0  501    0  0.00000000000E+00  0.00000000000E+00  0.38118618104E+04  0.38118618104E+04  0.50400000000E-02 0. -1.
         -1   -1    0    0    0  501 -0.00000000000E+00 -0.00000000000E+00 -0.13111846856E+03  0.13111846866E+03  0.50400000000E-02 0.  1.
     200001    2    1    2    0    0  0.83349280201E+01  0.92884662988E+02  0.17740044494E+04  0.19096701120E+04  0.70075039667E+03 0.  0.
    5000001    2    3    3    0    0 -0.91007432362E+01 -0.59988553949E+02  0.32155994505E+03  0.36588603986E+03  0.16367756649E+03 0.  0.
        -11    1    4    4    0    0 -0.17376358988E+02  0.53797015617E+02  0.10883696415E+03  0.12264396237E+03  0.51100000000E-03 0. -1.
     200002    1    4    4    0    0  0.82756157523E+01 -0.11378556957E+03  0.21272298090E+03  0.24324207749E+03  0.30000000000E+02 0. -1.
     200000    1    3    3    0    0  0.17435671256E+02  0.15287321694E+03  0.14524445044E+04  0.15437840722E+04  0.50000000000E+03 0. -1.
    -200001    1    1    2    0    0 -0.83349280201E+01 -0.92884662988E+02  0.19067388924E+04  0.20333101671E+04  0.70000000000E+03 0.  1.
<mgrwt>
<rscale>  0 0.14139384E+04</rscale>
<asrwt>0</asrwt>
<pdfrwt beam="1">  1        1 0.54455161E+00 0.14139384E+04</pdfrwt>
<pdfrwt beam="2">  1       -1 0.18731212E-01 0.14139384E+04</pdfrwt>
<totfact> 0.52515328E+00</totfact>
</mgrwt>
</event>
<event>
 8    1  0.2354930E-010  0.1797881E+04  0.7818608E-02  0.8707427E-01
          1   -1    0    0  501    0  0.00000000000E+00  0.00000000000E+00  0.16845051948E+04  0.16845051948E+04  0.50400000000E-02 0.  1.
         -1   -1    0    0    0  501 -0.00000000000E+00 -0.00000000000E+00 -0.47972188529E+03  0.47972188532E+03  0.50400000000E-02 0. -1.
     200001    2    1    2    0    0 -0.54419429809E+03  0.63883848351E+02  0.44092139468E+03  0.99217178916E+03  0.69983183892E+03 0.  0.
    5000001    2    3    3    0    0 -0.12296137881E+03  0.14216826593E+03  0.12747245412E+03  0.26291472840E+03  0.13245229834E+03 0.  0.
        -11    1    4    4    0    0  0.16508808372E+02  0.63973157206E+02  0.49223296285E+02  0.82389553307E+02  0.51100000000E-03 0. -1.
     200002    1    4    4    0    0 -0.13947018718E+03  0.78195108729E+02  0.78249157833E+02  0.18052517510E+03  0.30000000000E+02 0. -1.
     200000    1    3    3    0    0 -0.42123291928E+03 -0.78284417584E+02  0.31344894057E+03  0.72925706076E+03  0.50000000000E+03 0.  1.
    -200001    1    1    2    0    0  0.54419429809E+03 -0.63883848351E+02  0.76386191482E+03  0.11720552910E+04  0.70000000000E+03 0. -1.
<mgrwt>
<rscale>  0 0.17978810E+04</rscale>
<asrwt>0</asrwt>
<pdfrwt beam="1">  1        1 0.24064360E+00 0.17978810E+04</pdfrwt>
<pdfrwt beam="2">  1       -1 0.68531698E-01 0.17978810E+04</pdfrwt>
<totfact> 0.12049302E+01</totfact>
</mgrwt>
</event>
<event>
 8    1  0.2354930E-010  0.1409110E+04  0.7818608E-02  0.8947250E-01
         -1   -1    0    0    0  501 -0.00000000000E+00  0.00000000000E+00  0.10597617357E+04  0.10597617357E+04  0.50400000000E-02 0.  1.
          1   -1    0    0  501    0  0.00000000000E+00 -0.00000000000E+00 -0.46840515762E+03  0.46840515765E+03  0.50400000000E-02 0. -1.
     200001    2    1    2    0    0 -0.77714423353E+02 -0.12935067613E+02  0.32341852513E+03  0.77451070662E+03  0.69932856706E+03 0.  0.
    5000001    2    3    3    0    0 -0.69268330208E+02  0.32280951693E+02  0.77026720422E+02  0.21520332573E+03  0.18584723387E+03 0.  0.
        -11    1    4    4    0    0 -0.11717916404E+03  0.46738114613E+02  0.90574505183E+02  0.15530340895E+03  0.51100000000E-03 0. -1.
     200002    1    4    4    0    0  0.47910833834E+02 -0.14457162920E+02 -0.13547784762E+02  0.59899916780E+02  0.30000000000E+02 0. -1.
     200000    1    3    3    0    0 -0.84460931444E+01 -0.45216019306E+02  0.24639180471E+03  0.55930738089E+03  0.50000000000E+03 0.  1.
    -200001    1    1    2    0    0  0.77714423353E+02  0.12935067613E+02  0.26793805293E+03  0.75365618672E+03  0.70000000000E+03 0.  1.
<mgrwt>
<rscale>  0 0.14091102E+04</rscale>
<asrwt>0</asrwt>
<pdfrwt beam="1">  1        1 0.66915022E-01 0.14091102E+04</pdfrwt>
<pdfrwt beam="2">  1       -1 0.15139454E+00 0.14091102E+04</pdfrwt>
<totfact> 0.17811475E+01</totfact>
</mgrwt>
</event>
<event>
 8    1  0.2354930E-010  0.1454459E+04  0.7818608E-02  0.8915315E-01
         -1   -1    0    0    0  501 -0.00000000000E+00  0.00000000000E+00  0.78113920868E+03  0.78113920870E+03  0.50400000000E-02 0.  1.
          1   -1    0    0  501    0  0.00000000000E+00 -0.00000000000E+00 -0.67704048353E+03  0.67704048355E+03  0.50400000000E-02 0. -1.
     200001    2    1    2    0    0 -0.58877514391E+02  0.17973455013E+03  0.39400844109E+01  0.72619415719E+03  0.70112150121E+03 0.  0.
    5000001    2    3    3    0    0 -0.41806923238E+02  0.49374661949E+02 -0.63759032901E+02  0.20478426468E+03  0.18353665767E+03 0.  0.
        -11    1    4    4    0    0  0.47847744669E+02  0.79834532126E+02 -0.15507913244E+02  0.94358118692E+02  0.51100000000E-03 0. -1.
     200002    1    4    4    0    0 -0.89654667908E+02 -0.30459870177E+02 -0.48251119657E+02  0.11042614598E+03  0.30000000000E+02 0. -1.
     200000    1    3    3    0    0 -0.17070591152E+02  0.13035988818E+03  0.67699117312E+02  0.52140989252E+03  0.50000000000E+03 0.  1.
    -200001    1    1    2    0    0  0.58877514391E+02 -0.17973455013E+03  0.10015864074E+03  0.73198553505E+03  0.70000000000E+03 0.  1.
<mgrwt>
<rscale>  0 0.14544592E+04</rscale>
<asrwt>0</asrwt>
<pdfrwt beam="1">  1        1 0.96720069E-01 0.14544592E+04</pdfrwt>
<pdfrwt beam="2">  1       -1 0.11159132E+00 0.14544592E+04</pdfrwt>
<totfact> 0.22975302E+01</totfact>
</mgrwt>
</event>
<event>
 8    1  0.2354930E-010  0.1525722E+04  0.7818608E-02  0.8867526E-01
         -1   -1    0    0    0  501 -0.00000000000E+00  0.00000000000E+00  0.47208696409E+03  0.47208696412E+03  0.50400000000E-02 0. -1.
          1   -1    0    0  501    0  0.00000000000E+00 -0.00000000000E+00 -0.12327326753E+04  0.12327326753E+04  0.50400000000E-02 0.  1.
     200001    2    1    2    0    0 -0.26196911534E+03 -0.23130045413E+02 -0.21200223835E+03  0.77736480133E+03  0.70013446487E+03 0.  0.
    5000001    2    3    3    0    0 -0.14383044359E+03 -0.44969125061E+02 -0.14068030177E+03  0.25821115375E+03  0.15547550901E+03 0.  0.
        -11    1    4    4    0    0  0.31659808992E+02 -0.16136522937E+02 -0.30758981380E+02  0.46998359691E+02  0.51100000000E-03 0. -1.
     200002    1    4    4    0    0 -0.17549025258E+03 -0.28832602124E+02 -0.10992132039E+03  0.21121279406E+03  0.30000000000E+02 0. -1.
     200000    1    3    3    0    0 -0.11813867175E+03  0.21839079648E+02 -0.71321936580E+02  0.51915364758E+03  0.50000000000E+03 0. -1.
    -200001    1    1    2    0    0  0.26196911534E+03  0.23130045413E+02 -0.54864347283E+03  0.92745483807E+03  0.70000000000E+03 0.  1.
<mgrwt>
<rscale>  0 0.15257222E+04</rscale>
<asrwt>0</asrwt>
<pdfrwt beam="1">  1        1 0.17610467E+00 0.15257222E+04</pdfrwt>
<pdfrwt beam="2">  1       -1 0.67440995E-01 0.15257222E+04</pdfrwt>
<totfact> 0.25293983E+01</totfact>
</mgrwt>
</event>
<event>
 8    1  0.2354930E-010  0.1557558E+04  0.7818608E-02  0.8847054E-01
          1   -1    0    0  501    0  0.00000000000E+00  0.00000000000E+00  0.11438089706E+04  0.11438089706E+04  0.50400000000E-02 0. -1.
         -1   -1    0    0    0  501 -0.00000000000E+00 -0.00000000000E+00 -0.53024304913E+03  0.53024304915E+03  0.50400000000E-02 0.  1.
     200001    2    1    2    0    0 -0.10772884638E+03 -0.20609973915E+03  0.39000792355E+02  0.73906127414E+03  0.70043407849E+03 0.  0.
    5000001    2    3    3    0    0  0.37222304445E+02 -0.69140562365E+02  0.15824705315E+02  0.20026095561E+03  0.18354321489E+03 0.  0.
        -11    1    4    4    0    0 -0.30556653071E+02 -0.26957103034E+02  0.82494798870E+02  0.92009707595E+02  0.51100000000E-03 0. -1.
     200002    1    4    4    0    0  0.67778957516E+02 -0.42183459331E+02 -0.66670093555E+02  0.10825124802E+03  0.30000000000E+02 0. -1.
     200000    1    3    3    0    0 -0.14495115083E+03 -0.13695917678E+03  0.23176087040E+02  0.53880031852E+03  0.50000000000E+03 0.  1.
    -200001    1    1    2    0    0  0.10772884638E+03  0.20609973915E+03  0.57456512914E+03  0.93499074564E+03  0.70000000000E+03 0. -1.
<mgrwt>
<rscale>  0 0.15575580E+04</rscale>
<asrwt>0</asrwt>
<pdfrwt beam="1">  1        1 0.16340128E+00 0.15575580E+04</pdfrwt>
<pdfrwt beam="2">  1       -1 0.75749007E-01 0.15575580E+04</pdfrwt>
<totfact> 0.22903014E+01</totfact>
</mgrwt>
</event>
<event>
 8    1  0.2354930E-010  0.2364176E+04  0.7818608E-02  0.8453038E-01
         -1   -1    0    0    0  501 -0.00000000000E+00  0.00000000000E+00  0.31012547246E+03  0.31012547250E+03  0.50400000000E-02 0. -1.
          1   -1    0    0  501    0  0.00000000000E+00 -0.00000000000E+00 -0.45057000473E+04  0.45057000473E+04  0.50400000000E-02 0.  1.
     200001    2    1    2    0    0  0.64568512639E+03 -0.55914209485E+03 -0.12380410187E+04  0.16588405815E+04  0.69961228288E+03 0.  0.
    5000001    2    3    3    0    0  0.19091705037E+03 -0.19896068616E+03 -0.45463720199E+03  0.56327397465E+03  0.18587068172E+03 0.  0.
        -11    1    4    4    0    0  0.20636888906E+03 -0.10296344501E+03 -0.32330365027E+03  0.39713327694E+03  0.51100000000E-03 0. -1.
     200002    1    4    4    0    0 -0.15451838683E+02 -0.95997241148E+02 -0.13133355172E+03  0.16614069771E+03  0.30000000000E+02 0. -1.
     200000    1    3    3    0    0  0.45476807601E+03 -0.36018140869E+03 -0.78340381669E+03  0.10955666069E+04  0.50000000000E+03 0.  1.
    -200001    1    1    2    0    0 -0.64568512639E+03  0.55914209485E+03 -0.29575335562E+04  0.31569849383E+04  0.70000000000E+03 0. -1.
<mgrwt>
<rscale>  0 0.23641763E+04</rscale>
<asrwt>0</asrwt>
<pdfrwt beam="1">  1        1 0.64367140E+00 0.23641763E+04</pdfrwt>
<pdfrwt beam="2">  1       -1 0.44303642E-01 0.23641763E+04</pdfrwt>
<totfact> 0.29928142E-01</totfact>
</mgrwt>
</event>
<event>
 8    1  0.2354930E-010  0.1722542E+04  0.7818608E-02  0.8748611E-01
         -1   -1    0    0    0  501 -0.00000000000E+00  0.00000000000E+00  0.63303265237E+03  0.63303265239E+03  0.50400000000E-02 0. -1.
          1   -1    0    0  501    0  0.00000000000E+00 -0.00000000000E+00 -0.11717998676E+04  0.11717998676E+04  0.50400000000E-02 0.  1.
     200001    2    1    2    0    0 -0.17379252324E+03 -0.10304204213E+03  0.21156331556E+03  0.75897525963E+03  0.70033056813E+03 0.  0.
    5000001    2    3    3    0    0 -0.10762285753E+03 -0.30358752015E+02  0.97841636223E+02  0.23686999661E+03  0.18447242675E+03 0.  0.
        -11    1    4    4    0    0 -0.12783455854E+03 -0.27256346852E+02 -0.19044663626E+01  0.13072187955E+03  0.51100000000E-03 0. -1.
     200002    1    4    4    0    0  0.20211701011E+02 -0.31024051628E+01  0.99746102585E+02  0.10614811707E+03  0.30000000000E+02 0. -1.
     200000    1    3    3    0    0 -0.66169665710E+02 -0.72683290117E+02  0.11372167934E+03  0.52210526302E+03  0.50000000000E+03 0. -1.
    -200001    1    1    2    0    0  0.17379252324E+03  0.10304204213E+03 -0.75033053076E+03  0.10458572603E+04  0.70000000000E+03 0.  1.
<mgrwt>
<rscale>  0 0.17225418E+04</rscale>
<asrwt>0</asrwt>
<pdfrwt beam="1">  1        1 0.16739998E+00 0.17225418E+04</pdfrwt>
<pdfrwt beam="2">  1       -1 0.90433236E-01 0.17225418E+04</pdfrwt>
<totfact> 0.14745870E+01</totfact>
</mgrwt>
</event>
<event>
 8    1  0.2354930E-010  0.1622461E+04  0.7818608E-02  0.8806867E-01
          1   -1    0    0  501    0  0.00000000000E+00  0.00000000000E+00  0.71711812153E+03  0.71711812155E+03  0.50400000000E-02 0. -1.
         -1   -1    0    0    0  501 -0.00000000000E+00 -0.00000000000E+00 -0.91769402276E+03  0.91769402277E+03  0.50400000000E-02 0.  1.
     200001    2    1    2    0    0  0.26769400906E+03  0.22540751827E+03  0.11377462019E+03  0.79143507438E+03  0.70068265355E+03 0.  0.
    5000001    2    3    3    0    0  0.13727239527E+03  0.45640069643E+02 -0.50076306650E+02  0.22031927250E+03  0.15844942060E+03 0.  0.
        -11    1    4    4    0    0  0.11175663685E+03 -0.14884994749E+02 -0.83943070487E+02  0.14056154535E+03  0.51100000000E-03 0. -1.
     200002    1    4    4    0    0  0.25515758419E+02  0.60525064392E+02  0.33866763836E+02  0.79757727150E+02  0.30000000000E+02 0. -1.
     200000    1    3    3    0    0  0.13042161379E+03  0.17976744863E+03  0.16385092685E+03  0.57111580188E+03  0.50000000000E+03 0. -1.
    -200001    1    1    2    0    0 -0.26769400906E+03 -0.22540751827E+03 -0.31435052142E+03  0.84337706994E+03  0.70000000000E+03 0.  1.
<mgrwt>
<rscale>  0 0.16224611E+04</rscale>
<asrwt>0</asrwt>
<pdfrwt beam="1">  1        1 0.10244545E+00 0.16224611E+04</pdfrwt>
<pdfrwt beam="2">  1       -1 0.13109915E+00 0.16224611E+04</pdfrwt>
<totfact> 0.14014596E+01</totfact>
</mgrwt>
</event>
<event>
 8    1  0.2354930E-010  0.2183459E+04  0.7818608E-02  0.8525345E-01
          1   -1    0    0  501    0  0.00000000000E+00  0.00000000000E+00  0.15287749037E+04  0.15287749037E+04  0.50400000000E-02 0.  1.
         -1   -1    0    0    0  501 -0.00000000000E+00 -0.00000000000E+00 -0.77962629677E+03  0.77962629678E+03  0.50400000000E-02 0. -1.
     200001    2    1    2    0    0 -0.73331579764E+03 -0.40592330996E+03  0.37427099628E+03  0.11538194513E+04  0.69906706032E+03 0.  0.
    5000001    2    3    3    0    0 -0.19501256971E+03 -0.11057010096E+03  0.11082267252E+03  0.31930827545E+03  0.19854586487E+03 0.  0.
        -11    1    4    4    0    0 -0.15397362605E+03 -0.72751882550E+02 -0.22422828052E+02  0.17176582067E+03  0.51100000000E-03 0. -1.
     200002    1    4    4    0    0 -0.41038943659E+02 -0.37818218414E+02  0.13324550057E+03  0.14754245478E+03  0.30000000000E+02 0. -1.
     200000    1    3    3    0    0 -0.53830322793E+03 -0.29535320900E+03  0.26344832376E+03  0.83451117581E+03  0.50000000000E+03 0.  1.
    -200001    1    1    2    0    0  0.73331579764E+03  0.40592330996E+03  0.37487761063E+03  0.11545817492E+04  0.70000000000E+03 0. -1.
<mgrwt>
<rscale>  0 0.21834588E+04</rscale>
<asrwt>0</asrwt>
<pdfrwt beam="1">  1        1 0.21839641E+00 0.21834588E+04</pdfrwt>
<pdfrwt beam="2">  1       -1 0.11137519E+00 0.21834588E+04</pdfrwt>
<totfact> 0.50615295E+00</totfact>
</mgrwt>
</event>
<event>
 8    1  0.2354930E-010  0.1413845E+04  0.7818608E-02  0.8943857E-01
         -1   -1    0    0    0  501 -0.00000000000E+00  0.00000000000E+00  0.27380408748E+03  0.27380408753E+03  0.50400000000E-02 0. -1.
          1   -1    0    0  501    0  0.00000000000E+00 -0.00000000000E+00 -0.18251724977E+04  0.18251724978E+04  0.50400000000E-02 0.  1.
     200001    2    1    2    0    0 -0.44716980466E+02  0.81913329285E+02 -0.71813378159E+03  0.10067360677E+04  0.69935111344E+03 0.  0.
    5000001    2    3    3    0    0 -0.43631346989E+01 -0.68684469045E+02 -0.25467849122E+03  0.30737998107E+03  0.15774893228E+03 0.  0.
        -11    1    4    4    0    0 -0.35299448946E+02 -0.62088097513E+02 -0.28270198989E+02  0.76812675385E+02  0.51100000000E-03 0. -1.
     200002    1    4    4    0    0  0.30936314247E+02 -0.65963715317E+01 -0.22640829223E+03  0.23056730568E+03  0.30000000000E+02 0. -1.
     200000    1    3    3    0    0 -0.40353845767E+02  0.15059779833E+03 -0.46345529037E+03  0.69935608663E+03  0.50000000000E+03 0.  1.
    -200001    1    1    2    0    0  0.44716980466E+02 -0.81913329285E+02 -0.83323462867E+03  0.10922405176E+04  0.70000000000E+03 0.  1.
<mgrwt>
<rscale>  0 0.14138454E+04</rscale>
<asrwt>0</asrwt>
<pdfrwt beam="1">  1        1 0.26073892E+00 0.14138454E+04</pdfrwt>
<pdfrwt beam="2">  1       -1 0.39114871E-01 0.14138454E+04</pdfrwt>
<totfact> 0.29734450E+01</totfact>
</mgrwt>
</event>
<event>
 8    1  0.2354930E-010  0.1565132E+04  0.7818608E-02  0.8842260E-01
         -1   -1    0    0    0  501 -0.00000000000E+00  0.00000000000E+00  0.76893713045E+03  0.76893713046E+03  0.50400000000E-02 0. -1.
          1   -1    0    0  501    0  0.00000000000E+00 -0.00000000000E+00 -0.79643665001E+03  0.79643665003E+03  0.50400000000E-02 0.  1.
     200001    2    1    2    0    0  0.32933944609E+03  0.16773428310E+02 -0.12489535462E+03  0.78548162940E+03  0.70188084592E+03 0.  0.
    5000001    2    3    3    0    0  0.15937755145E+03  0.44634247549E+01 -0.67276136159E+02  0.25410741461E+03  0.18607357038E+03 0.  0.
        -11    1    4    4    0    0  0.55690246871E+02  0.34462290558E+02 -0.11499538771E+03  0.13233666258E+03  0.51100000000E-03 0. -1.
     200002    1    4    4    0    0  0.10368730458E+03 -0.29998865803E+02  0.47719251550E+02  0.12177075203E+03  0.30000000000E+02 0. -1.
     200000    1    3    3    0    0  0.16996189463E+03  0.12310003555E+02 -0.57619218464E+02  0.53137421480E+03  0.50000000000E+03 0. -1.
    -200001    1    1    2    0    0 -0.32933944609E+03 -0.16773428310E+02  0.97395835060E+02  0.77989215109E+03  0.70000000000E+03 0. -1.
<mgrwt>
<rscale>  0 0.15651322E+04</rscale>
<asrwt>0</asrwt>
<pdfrwt beam="1">  1        1 0.11377666E+00 0.15651322E+04</pdfrwt>
<pdfrwt beam="2">  1       -1 0.10984816E+00 0.15651322E+04</pdfrwt>
<totfact> 0.18504379E+01</totfact>
</mgrwt>
</event>
<event>
 8    1  0.2354930E-010  0.1595873E+04  0.7818608E-02  0.8823087E-01
          1   -1    0    0  501    0  0.00000000000E+00  0.00000000000E+00  0.13249411936E+04  0.13249411936E+04  0.50400000000E-02 0.  1.
         -1   -1    0    0    0  501 -0.00000000000E+00 -0.00000000000E+00 -0.48055168850E+03  0.48055168853E+03  0.50400000000E-02 0. -1.
     200001    2    1    2    0    0  0.24363059157E+03  0.20921710156E+03  0.18583841029E+03  0.79217298931E+03  0.69991032963E+03 0.  0.
    5000001    2    3    3    0    0  0.65785332059E+02  0.11866307005E+03  0.12774378411E+03  0.25068988289E+03  0.16768514810E+03 0.  0.
        -11    1    4    4    0    0 -0.99403913059E+01  0.13088332388E+03  0.95114199364E+02  0.16209863285E+03  0.51100000000E-03 0. -1.
     200002    1    4    4    0    0  0.75725723365E+02 -0.12220253832E+02  0.32629584744E+02  0.88591250039E+02  0.30000000000E+02 0. -1.
     200000    1    3    3    0    0  0.17784525951E+03  0.90554031512E+02  0.58094626179E+02  0.54148310643E+03  0.50000000000E+03 0.  1.
    -200001    1    1    2    0    0 -0.24363059157E+03 -0.20921710156E+03  0.65855109482E+03  0.10133198928E+04  0.70000000000E+03 0.  1.
<mgrwt>
<rscale>  0 0.15958731E+04</rscale>
<asrwt>0</asrwt>
<pdfrwt beam="1">  1        1 0.18927731E+00 0.15958731E+04</pdfrwt>
<pdfrwt beam="2">  1       -1 0.68650241E-01 0.15958731E+04</pdfrwt>
<totfact> 0.20986853E+01</totfact>
</mgrwt>
</event>
<event>
 8    1  0.2354930E-010  0.1564591E+04  0.7818608E-02  0.8842601E-01
          1   -1    0    0  501    0  0.00000000000E+00  0.00000000000E+00  0.15662708020E+04  0.15662708020E+04  0.50400000000E-02 0.  1.
         -1   -1    0    0    0  501 -0.00000000000E+00 -0.00000000000E+00 -0.39072819992E+03  0.39072819995E+03  0.50400000000E-02 0. -1.
     200001    2    1    2    0    0  0.11224792473E+03  0.30317440139E+03  0.42092817454E+03  0.87813049815E+03  0.69958439762E+03 0.  0.
    5000001    2    3    3    0    0  0.37826273265E+02  0.12246918981E+03  0.12233221203E+02  0.20342721478E+03  0.15749111280E+03 0.  0.
        -11    1    4    4    0    0 -0.47843207903E+02  0.52106309724E+02 -0.35388013673E+02  0.79097102143E+02  0.51100000000E-03 0. -1.
     200002    1    4    4    0    0  0.85669481167E+02  0.70362880090E+02  0.47621234876E+02  0.12433011264E+03  0.30000000000E+02 0. -1.
     200000    1    3    3    0    0  0.74421651463E+02  0.18070521157E+03  0.40869495334E+03  0.67470328337E+03  0.50000000000E+03 0. -1.
    -200001    1    1    2    0    0 -0.11224792473E+03 -0.30317440139E+03  0.75461442751E+03  0.10788685038E+04  0.70000000000E+03 0.  1.
<mgrwt>
<rscale>  0 0.15645909E+04</rscale>
<asrwt>0</asrwt>
<pdfrwt beam="1">  1        1 0.22375296E+00 0.15645909E+04</pdfrwt>
<pdfrwt beam="2">  1       -1 0.55818317E-01 0.15645909E+04</pdfrwt>
<totfact> 0.22031588E+01</totfact>
</mgrwt>
</event>
<event>
 8    1  0.2354930E-010  0.2202641E+04  0.7818608E-02  0.8517330E-01
          1   -1    0    0  501    0  0.00000000000E+00  0.00000000000E+00  0.63511598307E+03  0.63511598309E+03  0.50400000000E-02 0.  1.
         -1   -1    0    0    0  501 -0.00000000000E+00 -0.00000000000E+00 -0.19097402148E+04  0.19097402148E+04  0.50400000000E-02 0. -1.
     200001    2    1    2    0    0 -0.23398647458E+03  0.81700413479E+03 -0.64915007998E+03  0.12785768681E+04  0.70079779873E+03 0.  0.
    5000001    2    3    3    0    0 -0.13310027126E+03  0.22226993476E+03 -0.24893831636E+03  0.39877220201E+03  0.17300109143E+03 0.  0.
        -11    1    4    4    0    0  0.24441419017E+02  0.29316252291E+02 -0.99905149984E+02  0.10694795279E+03  0.51100000000E-03 0. -1.
     200002    1    4    4    0    0 -0.15754169028E+03  0.19295368247E+03 -0.14903316637E+03  0.29182424922E+03  0.30000000000E+02 0. -1.
     200000    1    3    3    0    0 -0.10088620332E+03  0.59473420003E+03 -0.40021176362E+03  0.87980466607E+03  0.50000000000E+03 0. -1.
    -200001    1    1    2    0    0  0.23398647458E+03 -0.81700413479E+03 -0.62547415171E+03  0.12662793298E+04  0.70000000000E+03 0. -1.
<mgrwt>
<rscale>  0 0.22026407E+04</rscale>
<asrwt>0</asrwt>
<pdfrwt beam="1">  1        1 0.90730856E-01 0.22026407E+04</pdfrwt>
<pdfrwt beam="2">  1       -1 0.27282003E+00 0.22026407E+04</pdfrwt>
<totfact> 0.15929999E+00</totfact>
</mgrwt>
</event>
<event>
 8    1  0.2354930E-010  0.2101161E+04  0.7818608E-02  0.8560732E-01
          1   -1    0    0  501    0  0.00000000000E+00  0.00000000000E+00  0.13594098795E+04  0.13594098795E+04  0.50400000000E-02 0.  1.
         -1   -1    0    0    0  501 -0.00000000000E+00 -0.00000000000E+00 -0.81191054410E+03  0.81191054412E+03  0.50400000000E-02 0. -1.
     200001    2    1    2    0    0  0.25254472481E+03  0.71127279157E+03  0.49024103621E+03  0.11403178364E+04  0.70021473299E+03 0.  0.
    5000001    2    3    3    0    0  0.12377333750E+03  0.24600249926E+03  0.16327031357E+03  0.37222385217E+03  0.18988504974E+03 0.  0.
        -11    1    4    4    0    0  0.15394173362E+03  0.24531121649E+03  0.15632454977E+03  0.32910942731E+03  0.51100000000E-03 0. -1.
     200002    1    4    4    0    0 -0.30168396115E+02  0.69128276653E+00  0.69457638011E+01  0.43114424858E+02  0.30000000000E+02 0. -1.
     200000    1    3    3    0    0  0.12877138731E+03  0.46527029231E+03  0.32697072264E+03  0.76809398420E+03  0.50000000000E+03 0. -1.
    -200001    1    1    2    0    0 -0.25254472481E+03 -0.71127279157E+03  0.57258299169E+02  0.10310025872E+04  0.70000000000E+03 0. -1.
<mgrwt>
<rscale>  0 0.21011608E+04</rscale>
<asrwt>0</asrwt>
<pdfrwt beam="1">  1        1 0.19420141E+00 0.21011608E+04</pdfrwt>
<pdfrwt beam="2">  1       -1 0.11598722E+00 0.21011608E+04</pdfrwt>
<totfact> 0.59826258E+00</totfact>
</mgrwt>
</event>
<event>
 8    1  0.2354930E-010  0.5159761E+04  0.7818608E-02  0.7804324E-01
          1   -1    0    0  501    0  0.00000000000E+00  0.00000000000E+00  0.25512684231E+04  0.25512684231E+04  0.50400000000E-02 0. -1.
         -1   -1    0    0    0  501 -0.00000000000E+00 -0.00000000000E+00 -0.26088136154E+04  0.26088136154E+04  0.50400000000E-02 0.  1.
     200001    2    1    2    0    0  0.13038777833E+04 -0.94441456860E+03 -0.19196753724E+04  0.26008741613E+04  0.69812371147E+03 0.  0.
    5000001    2    3    3    0    0  0.27836403915E+03 -0.29941973609E+03 -0.56377980337E+03  0.71509857354E+03  0.16241793784E+03 0.  0.
        -11    1    4    4    0    0  0.89117406061E+02 -0.87898090493E+02 -0.66506306654E+02  0.14174298995E+03  0.51100000000E-03 0. -1.
     200002    1    4    4    0    0  0.18924663309E+03 -0.21152164560E+03 -0.49727349672E+03  0.57335558359E+03  0.30000000000E+02 0. -1.
     200000    1    3    3    0    0  0.10255137442E+04 -0.64499483251E+03 -0.13558955690E+04  0.18857755878E+04  0.50000000000E+03 0.  1.
    -200001    1    1    2    0    0 -0.13038777833E+04  0.94441456860E+03  0.18621301800E+04  0.25592078772E+04  0.70000000000E+03 0. -1.
<mgrwt>
<rscale>  0 0.51597612E+04</rscale>
<asrwt>0</asrwt>
<pdfrwt beam="1">  1        1 0.36446692E+00 0.51597612E+04</pdfrwt>
<pdfrwt beam="2">  1       -1 0.37268766E+00 0.51597612E+04</pdfrwt>
<totfact> 0.13223385E-02</totfact>
</mgrwt>
</event>
<event>
 8    1  0.2354930E-010  0.1827489E+04  0.7818608E-02  0.8691816E-01
          1   -1    0    0  501    0  0.00000000000E+00  0.00000000000E+00  0.71232752423E+03  0.71232752425E+03  0.50400000000E-02 0.  1.
         -1   -1    0    0    0  501 -0.00000000000E+00 -0.00000000000E+00 -0.11721133203E+04  0.11721133203E+04  0.50400000000E-02 0. -1.
     200001    2    1    2    0    0  0.18996384075E+03 -0.53093830738E+03 -0.61726250710E+02  0.90136752652E+03  0.70047950777E+03 0.  0.
    5000001    2    3    3    0    0  0.58017539296E+02 -0.90984630432E+01 -0.73906092462E+02  0.16660566160E+03  0.13728262482E+03 0.  0.
        -11    1    4    4    0    0  0.90950337854E+02  0.73190640381E-01 -0.14992406790E+02  0.92177771585E+02  0.51100000000E-03 0. -1.
     200002    1    4    4    0    0 -0.32932798558E+02 -0.91716536836E+01 -0.58913685672E+02  0.74427890012E+02  0.30000000000E+02 0. -1.
     200000    1    3    3    0    0  0.13194630146E+03 -0.52183984433E+03  0.12179841752E+02  0.73476186492E+03  0.50000000000E+03 0. -1.
    -200001    1    1    2    0    0 -0.18996384075E+03  0.53093830738E+03 -0.39805954539E+03  0.98307331808E+03  0.70000000000E+03 0. -1.
<mgrwt>
<rscale>  0 0.18274885E+04</rscale>
<asrwt>0</asrwt>
<pdfrwt beam="1">  1        1 0.10176108E+00 0.18274885E+04</pdfrwt>
<pdfrwt beam="2">  1       -1 0.16744476E+00 0.18274885E+04</pdfrwt>
<totfact> 0.72062769E+00</totfact>
</mgrwt>
</event>
<event>
 8    1  0.2354930E-010  0.2771160E+04  0.7818608E-02  0.8312278E-01
          1   -1    0    0  501    0  0.00000000000E+00  0.00000000000E+00  0.10367994601E+04  0.10367994601E+04  0.50400000000E-02 0.  1.
         -1   -1    0    0    0  501 -0.00000000000E+00 -0.00000000000E+00 -0.18516904902E+04  0.18516904902E+04  0.50400000000E-02 0. -1.
     200001    2    1    2    0    0 -0.46935487411E+03 -0.13036814557E+03  0.73059063364E+03  0.11233260983E+04  0.70057761741E+03 0.  0.
    5000001    2    3    3    0    0 -0.26917662813E+03 -0.37223334182E+02  0.26178299455E+03  0.40323729234E+03  0.14222638279E+03 0.  0.
        -11    1    4    4    0    0 -0.18931594952E+03 -0.33968454815E+02  0.92023409324E+02  0.21321982208E+03  0.51100000000E-03 0. -1.
     200002    1    4    4    0    0 -0.79860678610E+02 -0.32548793674E+01  0.16975958522E+03  0.19001747026E+03  0.30000000000E+02 0. -1.
     200000    1    3    3    0    0 -0.20017824599E+03 -0.93144811391E+02  0.46880763909E+03  0.72008880600E+03  0.50000000000E+03 0.  1.
    -200001    1    1    2    0    0  0.46935487411E+03  0.13036814557E+03 -0.15454816638E+04  0.17651638520E+04  0.70000000000E+03 0. -1.
<mgrwt>
<rscale>  0 0.27711598E+04</rscale>
<asrwt>0</asrwt>
<pdfrwt beam="1">  1        1 0.14811421E+00 0.27711598E+04</pdfrwt>
<pdfrwt beam="2">  1       -1 0.26452721E+00 0.27711598E+04</pdfrwt>
<totfact> 0.79330448E-01</totfact>
</mgrwt>
</event>
<event>
 8    1  0.2354930E-010  0.1482809E+04  0.7818608E-02  0.8895966E-01
         -1   -1    0    0    0  501 -0.00000000000E+00  0.00000000000E+00  0.21934742915E+03  0.21934742920E+03  0.50400000000E-02 0.  1.
          1   -1    0    0  501    0  0.00000000000E+00 -0.00000000000E+00 -0.25059805778E+04  0.25059805778E+04  0.50400000000E-02 0. -1.
     200001    2    1    2    0    0 -0.19519761420E+03  0.13601831777E+03 -0.12585287838E+04  0.14589940557E+04  0.69868867413E+03 0.  0.
    5000001    2    3    3    0    0 -0.59722319566E+02  0.99437093074E+02 -0.26530736760E+03  0.33819946114E+03  0.17474663166E+03 0.  0.
        -11    1    4    4    0    0 -0.58736152858E+02  0.12673929363E+03 -0.11034655611E+03  0.17801445628E+03  0.51100000000E-03 0. -1.
     200002    1    4    4    0    0 -0.98616670744E+00 -0.27302200551E+02 -0.15496081150E+03  0.16018500485E+03  0.30000000000E+02 0. -1.
     200000    1    3    3    0    0 -0.13547529463E+03  0.36581224694E+02 -0.99322141624E+03  0.11207945945E+04  0.50000000000E+03 0. -1.
    -200001    1    1    2    0    0  0.19519761420E+03 -0.13601831777E+03 -0.10281043648E+04  0.12663339513E+04  0.70000000000E+03 0.  1.
<mgrwt>
<rscale>  0 0.14828087E+04</rscale>
<asrwt>0</asrwt>
<pdfrwt beam="1">  1        1 0.35799721E+00 0.14828087E+04</pdfrwt>
<pdfrwt beam="2">  1       -1 0.31335348E-01 0.14828087E+04</pdfrwt>
<totfact> 0.16375034E+01</totfact>
</mgrwt>
</event>
<event>
 8    1  0.2354930E-010  0.1677283E+04  0.7818608E-02  0.8774428E-01
          1   -1    0    0  501    0  0.00000000000E+00  0.00000000000E+00  0.11881695830E+04  0.11881695831E+04  0.50400000000E-02 0.  1.
         -1   -1    0    0    0  501 -0.00000000000E+00 -0.00000000000E+00 -0.59193550478E+03  0.59193550480E+03  0.50400000000E-02 0. -1.
     200001    2    1    2    0    0  0.36718397664E+03  0.27346788976E+03  0.22944531870E+03  0.86679092856E+03  0.69933725778E+03 0.  0.
    5000001    2    3    3    0    0  0.46136231661E+02 -0.47236017163E+02 -0.15038160488E+02  0.14867198154E+03  0.13235338543E+03 0.  0.
        -11    1    4    4    0    0  0.53626417463E+02 -0.84047464435E+02 -0.13130783916E+02  0.10055936761E+03  0.51100000000E-03 0. -1.
     200002    1    4    4    0    0 -0.74901858019E+01  0.36811447272E+02 -0.19073765719E+01  0.48112613928E+02  0.30000000000E+02 0.  1.
     200000    1    3    3    0    0  0.32104774498E+03  0.32070390692E+03  0.24448347919E+03  0.71811894702E+03  0.50000000000E+03 0.  1.
    -200001    1    1    2    0    0 -0.36718397664E+03 -0.27346788976E+03  0.36678875957E+03  0.91331415930E+03  0.70000000000E+03 0. -1.
<mgrwt>
<rscale>  0 0.16772832E+04</rscale>
<asrwt>0</asrwt>
<pdfrwt beam="1">  1        1 0.16973851E+00 0.16772832E+04</pdfrwt>
<pdfrwt beam="2">  1       -1 0.84562216E-01 0.16772832E+04</pdfrwt>
<totfact> 0.16695486E+01</totfact>
</mgrwt>
</event>
<event>
 8    1  0.2354930E-010  0.1847244E+04  0.7818608E-02  0.8681571E-01
          1   -1    0    0  501    0  0.00000000000E+00  0.00000000000E+00  0.59377853980E+03  0.59377853982E+03  0.50400000000E-02 0. -1.
         -1   -1    0    0    0  501 -0.00000000000E+00 -0.00000000000E+00 -0.14366939710E+04  0.14366939710E+04  0.50400000000E-02 0.  1.
     200001    2    1    2    0    0  0.58105199698E+03 -0.16677823107E+03 -0.43636966351E+03  0.10201676742E+04  0.69633842260E+03 0.  0.
    5000001    2    3    3    0    0  0.19279258214E+03 -0.26067298315E+02 -0.61504511881E+02  0.27112240077E+03  0.17853870014E+03 0.  0.
        -11    1    4    4    0    0 -0.15817362140E+02  0.28382873339E+02  0.20604538575E+02  0.38474971789E+02  0.51100000000E-03 0. -1.
     200002    1    4    4    0    0  0.20860994428E+03 -0.54450171654E+02 -0.82109050456E+02  0.23264742898E+03  0.30000000000E+02 0. -1.
     200000    1    3    3    0    0  0.38825941484E+03 -0.14071093276E+03 -0.37486515162E+03  0.74904527347E+03  0.50000000000E+03 0. -1.
    -200001    1    1    2    0    0 -0.58105199698E+03  0.16677823107E+03 -0.40654576765E+03  0.10103048365E+04  0.70000000000E+03 0.  1.
<mgrwt>
<rscale>  0 0.18472445E+04</rscale>
<asrwt>0</asrwt>
<pdfrwt beam="1">  1        1 0.84825506E-01 0.18472445E+04</pdfrwt>
<pdfrwt beam="2">  1       -1 0.20524199E+00 0.18472445E+04</pdfrwt>
<totfact> 0.50496082E+00</totfact>
</mgrwt>
</event>
<event>
 8    1  0.2354930E-010  0.2263357E+04  0.7818608E-02  0.8492511E-01
          1   -1    0    0  501    0  0.00000000000E+00  0.00000000000E+00  0.16170940031E+04  0.16170940031E+04  0.50400000000E-02 0.  1.
         -1   -1    0    0    0  501 -0.00000000000E+00 -0.00000000000E+00 -0.79197388369E+03  0.79197388370E+03  0.50400000000E-02 0. -1.
     200001    2    1    2    0    0  0.61315685362E+03  0.58096882615E+03  0.70855033270E+03  0.13058568375E+04  0.69980883249E+03 0.  0.
    5000001    2    3    3    0    0  0.23559911985E+03  0.18859697441E+03  0.21935220780E+03  0.41939176896E+03  0.19156800561E+03 0.  0.
        -11    1    4    4    0    0  0.59640536997E+02  0.32363174146E+01 -0.24794212281E+02  0.64670088654E+02  0.51100000000E-03 0. -1.
     200002    1    4    4    0    0  0.17595858286E+03  0.18536065700E+03  0.24414642008E+03  0.35472168031E+03  0.30000000000E+02 0. -1.
     200000    1    3    3    0    0  0.37755773377E+03  0.39237185174E+03  0.48919812490E+03  0.88646506856E+03  0.50000000000E+03 0.  1.
    -200001    1    1    2    0    0 -0.61315685362E+03 -0.58096882615E+03  0.11656978671E+03  0.11032110493E+04  0.70000000000E+03 0.  1.
<mgrwt>
<rscale>  0 0.22633570E+04</rscale>
<asrwt>0</asrwt>
<pdfrwt beam="1">  1        1 0.23101343E+00 0.22633570E+04</pdfrwt>
<pdfrwt beam="2">  1       -1 0.11313913E+00 0.22633570E+04</pdfrwt>
<totfact> 0.42453815E+00</totfact>
</mgrwt>
</event>
<event>
 8    1  0.2354930E-010  0.1701307E+04  0.7818608E-02  0.8760620E-01
         -1   -1    0    0    0  501 -0.00000000000E+00  0.00000000000E+00  0.51305137602E+03  0.51305137604E+03  0.50400000000E-02 0. -1.
          1   -1    0    0  501    0  0.00000000000E+00 -0.00000000000E+00 -0.14104065967E+04  0.14104065967E+04  0.50400000000E-02 0.  1.
     200001    2    1    2    0    0 -0.29005585179E+03 -0.71584310826E+02 -0.18977279406E+02  0.76121681083E+03  0.69988155087E+03 0.  0.
    5000001    2    3    3    0    0 -0.70346146121E+02  0.51828371996E+02  0.38758727595E+02  0.19833450381E+03  0.17378025210E+03 0.  0.
        -11    1    4    4    0    0 -0.71245227038E+02 -0.50159941816E+02  0.71607358257E+01  0.87425272528E+02  0.51100000000E-03 0. -1.
     200002    1    4    4    0    0  0.89908091700E+00  0.10198831381E+03  0.31597991769E+02  0.11090923129E+03  0.30000000000E+02 0. -1.
     200000    1    3    3    0    0 -0.21970970567E+03 -0.12341268282E+03 -0.57736007002E+02  0.56288230702E+03  0.50000000000E+03 0. -1.
    -200001    1    1    2    0    0  0.29005585179E+03  0.71584310826E+02 -0.87837794124E+03  0.11622411619E+04  0.70000000000E+03 0.  1.
<mgrwt>
<rscale>  0 0.17013066E+04</rscale>
<asrwt>0</asrwt>
<pdfrwt beam="1">  1        1 0.20148666E+00 0.17013066E+04</pdfrwt>
<pdfrwt beam="2">  1       -1 0.73293054E-01 0.17013066E+04</pdfrwt>
<totfact> 0.15939972E+01</totfact>
</mgrwt>
</event>
<event>
 8    1  0.2354930E-010  0.1554260E+04  0.7818608E-02  0.8849151E-01
          1   -1    0    0  501    0  0.00000000000E+00  0.00000000000E+00  0.16354209958E+04  0.16354209958E+04  0.50400000000E-02 0. -1.
         -1   -1    0    0    0  501 -0.00000000000E+00 -0.00000000000E+00 -0.36928167452E+03  0.36928167455E+03  0.50400000000E-02 0.  1.
     200001    2    1    2    0    0  0.50573394143E+02 -0.19699482545E+03  0.28462721886E+03  0.78211090012E+03  0.69951424355E+03 0.  0.
    5000001    2    3    3    0    0  0.65607124452E+02  0.69932466700E+02  0.22797544053E+02  0.15758630417E+03  0.12295881656E+03 0.  0.
        -11    1    4    4    0    0  0.86628162908E+02  0.79385657217E+02  0.23114839040E+02  0.11975315012E+03  0.51100000000E-03 0. -1.
     200002    1    4    4    0    0 -0.21021038456E+02 -0.94531905173E+01 -0.31729498720E+00  0.37833154043E+02  0.30000000000E+02 0. -1.
     200000    1    3    3    0    0 -0.15033730309E+02 -0.26692729215E+03  0.26182967481E+03  0.62452459596E+03  0.50000000000E+03 0.  1.
    -200001    1    1    2    0    0 -0.50573394143E+02  0.19699482545E+03  0.98151210244E+03  0.12225917703E+04  0.70000000000E+03 0. -1.
<mgrwt>
<rscale>  0 0.15542600E+04</rscale>
<asrwt>0</asrwt>
<pdfrwt beam="1">  1        1 0.23363157E+00 0.15542600E+04</pdfrwt>
<pdfrwt beam="2">  1       -1 0.52754526E-01 0.15542600E+04</pdfrwt>
<totfact> 0.22194280E+01</totfact>
</mgrwt>
</event>
<event>
 8    1  0.2354930E-010  0.1657669E+04  0.7818608E-02  0.8785882E-01
         -1   -1    0    0    0  501 -0.00000000000E+00  0.00000000000E+00  0.22843381910E+04  0.22843381911E+04  0.50400000000E-02 0. -1.
          1   -1    0    0  501    0  0.00000000000E+00 -0.00000000000E+00 -0.30072909430E+03  0.30072909434E+03  0.50400000000E-02 0.  1.
     200001    2    1    2    0    0  0.34398279951E+03  0.97881233273E+02  0.58626943268E+03  0.98180091984E+03  0.70165254671E+03 0.  0.
    5000001    2    3    3    0    0  0.79952616895E+02  0.70897242118E+01  0.13137150475E+03  0.25044111763E+03  0.19753378445E+03 0.  0.
        -11    1    4    4    0    0  0.12746995964E+03 -0.33577822485E+02  0.12349314825E+03  0.18062839875E+03  0.51100000000E-03 0. -1.
     200002    1    4    4    0    0 -0.47517342740E+02  0.40667546697E+02  0.78783565041E+01  0.69812718874E+02  0.30000000000E+02 0. -1.
     200000    1    3    3    0    0  0.26403018261E+03  0.90791509061E+02  0.45489792793E+03  0.73135980221E+03  0.50000000000E+03 0.  1.
    -200001    1    1    2    0    0 -0.34398279951E+03 -0.97881233273E+02  0.13973396641E+04  0.16032663656E+04  0.70000000000E+03 0. -1.
<mgrwt>
<rscale>  0 0.16576694E+04</rscale>
<asrwt>0</asrwt>
<pdfrwt beam="1">  1        1 0.42961298E-01 0.16576694E+04</pdfrwt>
<pdfrwt beam="2">  1       -1 0.32633403E+00 0.16576694E+04</pdfrwt>
<totfact> 0.20552436E+00</totfact>
</mgrwt>
</event>
<event>
 8    1  0.2354930E-010  0.1679144E+04  0.7818608E-02  0.8773349E-01
          1   -1    0    0  501    0  0.00000000000E+00  0.00000000000E+00  0.34023912229E+03  0.34023912233E+03  0.50400000000E-02 0. -1.
         -1   -1    0    0    0  501 -0.00000000000E+00 -0.00000000000E+00 -0.20717227367E+04  0.20717227367E+04  0.50400000000E-02 0.  1.
     200001    2    1    2    0    0  0.16047242322E+03  0.44032580278E+02 -0.14870212816E+04  0.16520591686E+04  0.70026918960E+03 0.  0.
    5000001    2    3    3    0    0  0.50182841798E+02 -0.12468885810E+02 -0.43309875693E+03  0.47898248933E+03  0.19792903049E+03 0.  0.
        -11    1    4    4    0    0 -0.46809857633E+02  0.36523106773E+02 -0.29402311338E+03  0.29995781588E+03  0.51100000000E-03 0. -1.
     200002    1    4    4    0    0  0.96992699430E+02 -0.48991992583E+02 -0.13907564354E+03  0.17902467346E+03  0.30000000000E+02 0. -1.
     200000    1    3    3    0    0  0.11028958142E+03  0.56501466088E+02 -0.10539225246E+04  0.11730766792E+04  0.50000000000E+03 0.  1.
    -200001    1    1    2    0    0 -0.16047242322E+03 -0.44032580278E+02 -0.24446233279E+03  0.75990269041E+03  0.70000000000E+03 0. -1.
<mgrwt>
<rscale>  0 0.16791440E+04</rscale>
<asrwt>0</asrwt>
<pdfrwt beam="1">  1        1 0.48605590E-01 0.16791440E+04</pdfrwt>
<pdfrwt beam="2">  1       -1 0.29596038E+00 0.16791440E+04</pdfrwt>
<totfact> 0.27499823E+00</totfact>
</mgrwt>
</event>
<event>
 8    1  0.2354930E-010  0.1658220E+04  0.7818608E-02  0.8785558E-01
          1   -1    0    0  501    0  0.00000000000E+00  0.00000000000E+00  0.10166632967E+04  0.10166632967E+04  0.50400000000E-02 0.  1.
         -1   -1    0    0    0  501 -0.00000000000E+00 -0.00000000000E+00 -0.67615649729E+03  0.67615649731E+03  0.50400000000E-02 0. -1.
     200001    2    1    2    0    0  0.29128906694E+03  0.32932785391E+03  0.23720085097E+03  0.85976620939E+03  0.69973390316E+03 0.  0.
    5000001    2    3    3    0    0  0.36174565774E+02  0.99825318799E+02  0.16467637380E+03  0.24901697925E+03  0.15367971365E+03 0.  0.
        -11    1    4    4    0    0 -0.58089122277E+02  0.37217032362E+02  0.50581000898E+02  0.85544674158E+02  0.51100000000E-03 0. -1.
     200002    1    4    4    0    0  0.94263688051E+02  0.62608286437E+02  0.11409537290E+03  0.16347230509E+03  0.30000000000E+02 0. -1.
     200000    1    3    3    0    0  0.25511450117E+03  0.22950253511E+03  0.72524477170E+02  0.61074923014E+03  0.50000000000E+03 0.  1.
    -200001    1    1    2    0    0 -0.29128906694E+03 -0.32932785391E+03  0.10330594844E+03  0.83305358463E+03  0.70000000000E+03 0. -1.
<mgrwt>
<rscale>  0 0.16582201E+04</rscale>
<asrwt>0</asrwt>
<pdfrwt beam="1">  1        1 0.14523761E+00 0.16582201E+04</pdfrwt>
<pdfrwt beam="2">  1       -1 0.96593785E-01 0.16582201E+04</pdfrwt>
<totfact> 0.16560961E+01</totfact>
</mgrwt>
</event>
<event>
 8    1  0.2354930E-010  0.1504179E+04  0.7818608E-02  0.8881678E-01
         -1   -1    0    0    0  501 -0.00000000000E+00  0.00000000000E+00  0.15021263514E+04  0.15021263514E+04  0.50400000000E-02 0. -1.
          1   -1    0    0  501    0  0.00000000000E+00 -0.00000000000E+00 -0.37655885423E+03  0.37655885426E+03  0.50400000000E-02 0.  1.
     200001    2    1    2    0    0 -0.17595197618E+03  0.18314910177E+03  0.42914995088E+03  0.85912643336E+03  0.69958977748E+03 0.  0.
    5000001    2    3    3    0    0 -0.11041352647E+02  0.15019188406E+03  0.12458670009E+03  0.24999552322E+03  0.15587303258E+03 0.  0.
        -11    1    4    4    0    0 -0.27773867562E+02  0.17062845192E+03  0.11843959909E+03  0.20955523128E+03  0.51100000000E-03 0. -1.
     200002    1    4    4    0    0  0.16732514916E+02 -0.20436567865E+02  0.61471009979E+01  0.40440291940E+02  0.30000000000E+02 0. -1.
     200000    1    3    3    0    0 -0.16491062353E+03  0.32957217713E+02  0.30456325079E+03  0.60913091014E+03  0.50000000000E+03 0.  1.
    -200001    1    1    2    0    0  0.17595197618E+03 -0.18314910177E+03  0.69641754627E+03  0.10195587723E+04  0.70000000000E+03 0. -1.
<mgrwt>
<rscale>  0 0.15041795E+04</rscale>
<asrwt>0</asrwt>
<pdfrwt beam="1">  1        1 0.53794121E-01 0.15041795E+04</pdfrwt>
<pdfrwt beam="2">  1       -1 0.21458948E+00 0.15041795E+04</pdfrwt>
<totfact> 0.83143891E+00</totfact>
</mgrwt>
</event>
<event>
 8    1  0.2354930E-010  0.1431053E+04  0.7818608E-02  0.8931642E-01
         -1   -1    0    0    0  501 -0.00000000000E+00  0.00000000000E+00  0.42535642113E+03  0.42535642116E+03  0.50400000000E-02 0. -1.
          1   -1    0    0  501    0  0.00000000000E+00 -0.00000000000E+00 -0.12036455178E+04  0.12036455178E+04  0.50400000000E-02 0.  1.
     200001    2    1    2    0    0 -0.27091239678E+02 -0.14396675894E+03 -0.41338154770E+03  0.82612095015E+03  0.70009367755E+03 0.  0.
    5000001    2    3    3    0    0  0.10896135220E+02 -0.48291295960E+02 -0.62955727633E+02  0.20693189159E+03  0.19080516001E+03 0.  0.
        -11    1    4    4    0    0 -0.82226263320E+02  0.10528076982E+02 -0.23772719384E+02  0.86238859986E+02  0.51100000000E-03 0. -1.
     200002    1    4    4    0    0  0.93122398540E+02 -0.58819372943E+02 -0.39183008249E+02  0.12069303161E+03  0.30000000000E+02 0. -1.
     200000    1    3    3    0    0 -0.37987374897E+02 -0.95675462979E+02 -0.35042582006E+03  0.61918905856E+03  0.50000000000E+03 0.  1.
    -200001    1    1    2    0    0  0.27091239678E+02  0.14396675894E+03 -0.36490754901E+03  0.80288098886E+03  0.70000000000E+03 0. -1.
<mgrwt>
<rscale>  0 0.14310532E+04</rscale>
<asrwt>0</asrwt>
<pdfrwt beam="1">  1        1 0.17194936E+00 0.14310532E+04</pdfrwt>
<pdfrwt beam="2">  1       -1 0.60765204E-01 0.14310532E+04</pdfrwt>
<totfact> 0.32913865E+01</totfact>
</mgrwt>
</event>
<event>
 8    1  0.2354930E-010  0.1845802E+04  0.7818608E-02  0.8682314E-01
         -1   -1    0    0    0  501 -0.00000000000E+00  0.00000000000E+00  0.43629167570E+03  0.43629167573E+03  0.50400000000E-02 0.  1.
          1   -1    0    0  501    0  0.00000000000E+00 -0.00000000000E+00 -0.19522412468E+04  0.19522412468E+04  0.50400000000E-02 0. -1.
     200001    2    1    2    0    0  0.45800546184E+03  0.23011615758E+03 -0.35336290079E+03  0.93790195119E+03  0.70147863927E+03 0.  0.
    5000001    2    3    3    0    0  0.17265381226E+01  0.26529018545E+02 -0.31102371692E+02  0.16105574504E+03  0.15577171029E+03 0.  0.
        -11    1    4    4    0    0 -0.24286222076E+02  0.52788475875E+02 -0.75966355917E+02  0.95641680242E+02  0.51100000000E-03 0. -1.
     200002    1    4    4    0    0  0.26012760199E+02 -0.26259457330E+02  0.44863984225E+02  0.65414064794E+02  0.30000000000E+02 0. -1.
     200000    1    3    3    0    0  0.45627892372E+03  0.20358713904E+03 -0.32226052909E+03  0.77684620616E+03  0.50000000000E+03 0. -1.
    -200001    1    1    2    0    0 -0.45800546184E+03 -0.23011615758E+03 -0.11625866703E+04  0.14506309714E+04  0.70000000000E+03 0. -1.
<mgrwt>
<rscale>  0 0.18458024E+04</rscale>
<asrwt>0</asrwt>
<pdfrwt beam="1">  1        1 0.27889160E+00 0.18458024E+04</pdfrwt>
<pdfrwt beam="2">  1       -1 0.62327383E-01 0.18458024E+04</pdfrwt>
<totfact> 0.98302316E+00</totfact>
</mgrwt>
</event>
<event>
 8    1  0.2354930E-010  0.2275154E+04  0.7818608E-02  0.8487782E-01
         -1   -1    0    0    0  501 -0.00000000000E+00  0.00000000000E+00  0.42035930046E+03  0.42035930049E+03  0.50400000000E-02 0.  1.
          1   -1    0    0  501    0  0.00000000000E+00 -0.00000000000E+00 -0.30785138001E+04  0.30785138001E+04  0.50400000000E-02 0. -1.
     200001    2    1    2    0    0 -0.11707990088E+03  0.85524632302E+03 -0.17042910151E+04  0.20342879978E+04  0.69897483324E+03 0.  0.
    5000001    2    3    3    0    0 -0.76946240394E+02  0.19785507225E+03 -0.56387776550E+03  0.62563035762E+03  0.16848696219E+03 0.  0.
        -11    1    4    4    0    0 -0.67522818983E+02  0.20921412824E+03 -0.54398050037E+03  0.58672367203E+03  0.51100000000E-03 0. -1.
     200002    1    4    4    0    0 -0.94234214116E+01 -0.11359055990E+02 -0.19897265132E+02  0.38906685593E+02  0.30000000000E+02 0. -1.
     200000    1    3    3    0    0 -0.40133660490E+02  0.65739125078E+03 -0.11404132496E+04  0.14086576401E+04  0.50000000000E+03 0.  1.
    -200001    1    1    2    0    0  0.11707990088E+03 -0.85524632302E+03 -0.95386348455E+03  0.14645851028E+04  0.70000000000E+03 0.  1.
<mgrwt>
<rscale>  0 0.22751544E+04</rscale>
<asrwt>0</asrwt>
<pdfrwt beam="1">  1        1 0.43978767E+00 0.22751544E+04</pdfrwt>
<pdfrwt beam="2">  1       -1 0.60051330E-01 0.22751544E+04</pdfrwt>
<totfact> 0.19357736E+00</totfact>
</mgrwt>
</event>
<event>
 8    1  0.2354930E-010  0.1857149E+04  0.7818608E-02  0.8676485E-01
          1   -1    0    0  501    0  0.00000000000E+00  0.00000000000E+00  0.10975455820E+04  0.10975455820E+04  0.50400000000E-02 0.  1.
         -1   -1    0    0    0  501 -0.00000000000E+00 -0.00000000000E+00 -0.78561693365E+03  0.78561693366E+03  0.50400000000E-02 0. -1.
     200001    2    1    2    0    0 -0.45442016345E+02  0.59866430772E+03  0.26719196223E+03  0.95987204065E+03  0.69964195098E+03 0.  0.
    5000001    2    3    3    0    0 -0.14078734919E+03  0.13637860254E+03  0.50773086556E+02  0.23901426311E+03  0.12700279810E+03 0.  0.
        -11    1    4    4    0    0 -0.10041076130E+03  0.17355201721E+02  0.39571357638E+02  0.10931338599E+03  0.51100000000E-03 0. -1.
     200002    1    4    4    0    0 -0.40376587888E+02  0.11902340082E+03  0.11201728918E+02  0.12970087711E+03  0.30000000000E+02 0. -1.
     200000    1    3    3    0    0  0.95345332845E+02  0.46228570518E+03  0.21641887567E+03  0.72085777755E+03  0.50000000000E+03 0.  1.
    -200001    1    1    2    0    0  0.45442016345E+02 -0.59866430772E+03  0.44736686129E+02  0.92329047503E+03  0.70000000000E+03 0. -1.
<mgrwt>
<rscale>  0 0.18571488E+04</rscale>
<asrwt>0</asrwt>
<pdfrwt beam="1">  1        1 0.15679223E+00 0.18571488E+04</pdfrwt>
<pdfrwt beam="2">  1       -1 0.11223099E+00 0.18571488E+04</pdfrwt>
<totfact> 0.10030826E+01</totfact>
</mgrwt>
</event>
<event>
 8    1  0.2354930E-010  0.1649434E+04  0.7818608E-02  0.8790741E-01
         -1   -1    0    0    0  501 -0.00000000000E+00  0.00000000000E+00  0.61599879416E+03  0.61599879418E+03  0.50400000000E-02 0. -1.
          1   -1    0    0  501    0  0.00000000000E+00 -0.00000000000E+00 -0.11041551615E+04  0.11041551615E+04  0.50400000000E-02 0.  1.
     200001    2    1    2    0    0 -0.42716085711E+03 -0.25885504884E+02 -0.33048238290E+03  0.88469148338E+03  0.70023136044E+03 0.  0.
    5000001    2    3    3    0    0 -0.16913453054E+03 -0.37148863571E-01 -0.12679989527E+03  0.28574884967E+03  0.19226986463E+03 0.  0.
        -11    1    4    4    0    0 -0.14824059849E+03  0.77019919247E+02 -0.10637361989E+03  0.19804719137E+03  0.51100000000E-03 0. -1.
     200002    1    4    4    0    0 -0.20893932057E+02 -0.77057068110E+02 -0.20426275379E+02  0.87701658299E+02  0.30000000000E+02 0. -1.
     200000    1    3    3    0    0 -0.25802632657E+03 -0.25848356020E+02 -0.20368248763E+03  0.59894263371E+03  0.50000000000E+03 0. -1.
    -200001    1    1    2    0    0  0.42716085711E+03  0.25885504884E+02 -0.15767398441E+03  0.83546247227E+03  0.70000000000E+03 0. -1.
<mgrwt>
<rscale>  0 0.16494341E+04</rscale>
<asrwt>0</asrwt>
<pdfrwt beam="1">  1        1 0.15773645E+00 0.16494341E+04</pdfrwt>
<pdfrwt beam="2">  1       -1 0.87999828E-01 0.16494341E+04</pdfrwt>
<totfact> 0.17596832E+01</totfact>
</mgrwt>
</event>
<event>
 8    1  0.2354930E-010  0.1471381E+04  0.7818608E-02  0.8903711E-01
          1   -1    0    0  501    0  0.00000000000E+00  0.00000000000E+00  0.83981828595E+03  0.83981828597E+03  0.50400000000E-02 0.  1.
         -1   -1    0    0    0  501 -0.00000000000E+00 -0.00000000000E+00 -0.64447297334E+03  0.64447297336E+03  0.50400000000E-02 0. -1.
     200001    2    1    2    0    0  0.50108120296E+02  0.38859261539E+02 -0.12146777091E+03  0.71332342874E+03  0.70003930510E+03 0.  0.
    5000001    2    3    3    0    0  0.99947113485E+02  0.10876875102E+02  0.47178467794E+02  0.18256124751E+03  0.14489675415E+03 0.  0.
        -11    1    4    4    0    0  0.24783587575E+02  0.15171928904E+01  0.88001042325E+02  0.91436926555E+02  0.51100000000E-03 0. -1.
     200002    1    4    4    0    0  0.75163525910E+02  0.93596822114E+01 -0.40822574531E+02  0.91124320955E+02  0.30000000000E+02 0. -1.
     200000    1    3    3    0    0 -0.49838993189E+02  0.27982386438E+02 -0.16864623870E+03  0.53076218123E+03  0.50000000000E+03 0. -1.
    -200001    1    1    2    0    0 -0.50108120296E+02 -0.38859261539E+02  0.31681308352E+03  0.77096783060E+03  0.70000000000E+03 0.  1.
<mgrwt>
<rscale>  0 0.14713806E+04</rscale>
<asrwt>0</asrwt>
<pdfrwt beam="1">  1        1 0.11997404E+00 0.14713806E+04</pdfrwt>
<pdfrwt beam="2">  1       -1 0.92067567E-01 0.14713806E+04</pdfrwt>
<totfact> 0.25721755E+01</totfact>
</mgrwt>
</event>
<event>
 8    1  0.2354930E-010  0.1561673E+04  0.7818608E-02  0.8844446E-01
          1   -1    0    0  501    0  0.00000000000E+00  0.00000000000E+00  0.52461773684E+03  0.52461773687E+03  0.50400000000E-02 0.  1.
         -1   -1    0    0    0  501 -0.00000000000E+00 -0.00000000000E+00 -0.11621900038E+04  0.11621900038E+04  0.50400000000E-02 0. -1.
     200001    2    1    2    0    0  0.30673351022E+03  0.28873618568E+02 -0.48881336909E+03  0.90767466996E+03  0.70001118886E+03 0.  0.
    5000001    2    3    3    0    0  0.95486793135E+02  0.10113766577E+03  0.73870299594E+01  0.16871451946E+03  0.95202236134E+02 0.  0.
        -11    1    4    4    0    0  0.15953897463E+02  0.78246514106E+02 -0.39630462706E+01  0.79954671846E+02  0.51100000000E-03 0. -1.
     200002    1    4    4    0    0  0.79532895672E+02  0.22891151667E+02  0.11350076230E+02  0.88759847617E+02  0.30000000000E+02 0. -1.
     200000    1    3    3    0    0  0.21124671709E+03 -0.72264047205E+02 -0.49620039905E+03  0.73896015049E+03  0.50000000000E+03 0. -1.
    -200001    1    1    2    0    0 -0.30673351022E+03 -0.28873618568E+02 -0.14875889783E+03  0.77913307068E+03  0.70000000000E+03 0.  1.
<mgrwt>
<rscale>  0 0.15616728E+04</rscale>
<asrwt>0</asrwt>
<pdfrwt beam="1">  1        1 0.74945392E-01 0.15616728E+04</pdfrwt>
<pdfrwt beam="2">  1       -1 0.16602714E+00 0.15616728E+04</pdfrwt>
<totfact> 0.11673066E+01</totfact>
</mgrwt>
</event>
<event>
 8    1  0.2354930E-010  0.2005048E+04  0.7818608E-02  0.8604264E-01
          1   -1    0    0  501    0  0.00000000000E+00  0.00000000000E+00  0.27484778325E+04  0.27484778325E+04  0.50400000000E-02 0.  1.
         -1   -1    0    0    0  501 -0.00000000000E+00 -0.00000000000E+00 -0.36567684587E+03  0.36567684591E+03  0.50400000000E-02 0. -1.
     200001    2    1    2    0    0  0.25514169053E+03 -0.44793918416E+03  0.19668194429E+04  0.21504184906E+04  0.70012439521E+03 0.  0.
    5000001    2    3    3    0    0  0.43240631987E+01 -0.68621123786E+02  0.21570950668E+03  0.27340552265E+03  0.15327241236E+03 0.  0.
        -11    1    4    4    0    0 -0.14552775113E+02 -0.10450789937E+03  0.92687155164E+02  0.14044427018E+03  0.51100000000E-03 0. -1.
     200002    1    4    4    0    0  0.18876838312E+02  0.35886775580E+02  0.12302235151E+03  0.13296125247E+03  0.30000000000E+02 0. -1.
     200000    1    3    3    0    0  0.25081762733E+03 -0.37931806037E+03  0.17511099362E+04  0.18770129679E+04  0.50000000000E+03 0. -1.
    -200001    1    1    2    0    0 -0.25514169053E+03  0.44793918416E+03  0.41598154370E+03  0.96373618779E+03  0.70000000000E+03 0.  1.
<mgrwt>
<rscale>  0 0.20050483E+04</rscale>
<asrwt>0</asrwt>
<pdfrwt beam="1">  1        1 0.39263970E+00 0.20050483E+04</pdfrwt>
<pdfrwt beam="2">  1       -1 0.52239548E-01 0.20050483E+04</pdfrwt>
<totfact> 0.42809360E+00</totfact>
</mgrwt>
</event>
<event>
 8    1  0.2354930E-010  0.1499210E+04  0.7818608E-02  0.8884978E-01
         -1   -1    0    0    0  501 -0.00000000000E+00  0.00000000000E+00  0.27758079000E+03  0.27758079005E+03  0.50400000000E-02 0. -1.
          1   -1    0    0  501    0  0.00000000000E+00 -0.00000000000E+00 -0.20243035909E+04  0.20243035909E+04  0.50400000000E-02 0.  1.
     200001    2    1    2    0    0 -0.69308069872E+02  0.25798963080E+03 -0.85577270909E+03  0.11377734222E+04  0.70058487889E+03 0.  0.
    5000001    2    3    3    0    0 -0.15795093998E+03  0.89458553691E+02 -0.24666700008E+03  0.32705149262E+03  0.11474640574E+03 0.  0.
        -11    1    4    4    0    0  0.13704596077E+02 -0.66290758860E+01 -0.12092694654E+02  0.19442064319E+02  0.51100000000E-03 0. -1.
     200002    1    4    4    0    0 -0.17165553606E+03  0.96087629577E+02 -0.23457430542E+03  0.30760942830E+03  0.30000000000E+02 0. -1.
     200000    1    3    3    0    0  0.88642870106E+02  0.16853107711E+03 -0.60910570902E+03  0.81072192960E+03  0.50000000000E+03 0. -1.
    -200001    1    1    2    0    0  0.69308069872E+02 -0.25798963080E+03 -0.89095009178E+03  0.11641109587E+04  0.70000000000E+03 0. -1.
<mgrwt>
<rscale>  0 0.14992102E+04</rscale>
<asrwt>0</asrwt>
<pdfrwt beam="1">  1        1 0.28918622E+00 0.14992102E+04</pdfrwt>
<pdfrwt beam="2">  1       -1 0.39654400E-01 0.14992102E+04</pdfrwt>
<totfact> 0.21568730E+01</totfact>
</mgrwt>
</event>
<event>
 8    1  0.2354930E-010  0.1549986E+04  0.7818608E-02  0.8851876E-01
          1   -1    0    0  501    0  0.00000000000E+00  0.00000000000E+00  0.80429644562E+03  0.80429644563E+03  0.50400000000E-02 0. -1.
         -1   -1    0    0    0  501 -0.00000000000E+00 -0.00000000000E+00 -0.74675755652E+03  0.74675755653E+03  0.50400000000E-02 0.  1.
     200001    2    1    2    0    0  0.24371487100E+03  0.68795139053E+01 -0.19609932878E+03  0.76761503733E+03  0.70095194751E+03 0.  0.
    5000001    2    3    3    0    0  0.38387520195E+02  0.53914774002E+02 -0.33378361191E+02  0.20117903037E+03  0.18702535310E+03 0.  0.
        -11    1    4    4    0    0  0.36941074976E+02 -0.20797189791E+02 -0.92187024254E+02  0.10146730293E+03  0.51100000000E-03 0. -1.
     200002    1    4    4    0    0  0.14464452192E+01  0.74711963793E+02  0.58808663063E+02  0.99711727439E+02  0.30000000000E+02 0. -1.
     200000    1    3    3    0    0  0.20532735081E+03 -0.47035260097E+02 -0.16272096759E+03  0.56643600696E+03  0.50000000000E+03 0. -1.
    -200001    1    1    2    0    0 -0.24371487100E+03 -0.68795139053E+01  0.25363821788E+03  0.78343896484E+03  0.70000000000E+03 0. -1.
<mgrwt>
<rscale>  0 0.15499864E+04</rscale>
<asrwt>0</asrwt>
<pdfrwt beam="1">  1        1 0.11489949E+00 0.15499864E+04</pdfrwt>
<pdfrwt beam="2">  1       -1 0.10667965E+00 0.15499864E+04</pdfrwt>
<totfact> 0.19547341E+01</totfact>
</mgrwt>
</event>
<event>
 8    1  0.2354930E-010  0.1564824E+04  0.7818608E-02  0.8842454E-01
          1   -1    0    0  501    0  0.00000000000E+00  0.00000000000E+00  0.15539561923E+04  0.15539561923E+04  0.50400000000E-02 0.  1.
         -1   -1    0    0    0  501 -0.00000000000E+00 -0.00000000000E+00 -0.39394186987E+03  0.39394186990E+03  0.50400000000E-02 0. -1.
     200001    2    1    2    0    0  0.27755519570E+03  0.12565437848E+03  0.36987340945E+03  0.84919493040E+03  0.70107045388E+03 0.  0.
    5000001    2    3    3    0    0  0.12233878932E+03  0.14521013670E+03  0.12877519822E+03  0.27247757506E+03  0.14699732671E+03 0.  0.
        -11    1    4    4    0    0  0.66584445667E+01  0.94346511640E+01 -0.29781836420E+02  0.31942218261E+02  0.51100000000E-03 0. -1.
     200002    1    4    4    0    0  0.11568034475E+03  0.13577548554E+03  0.15855703464E+03  0.24053535680E+03  0.30000000000E+02 0. -1.
     200000    1    3    3    0    0  0.15521640638E+03 -0.19555758226E+02  0.24109821123E+03  0.57671735534E+03  0.50000000000E+03 0. -1.
    -200001    1    1    2    0    0 -0.27755519570E+03 -0.12565437848E+03  0.79014091296E+03  0.10987031318E+04  0.70000000000E+03 0.  1.
<mgrwt>
<rscale>  0 0.15648238E+04</rscale>
<asrwt>0</asrwt>
<pdfrwt beam="1">  1        1 0.22199375E+00 0.15648238E+04</pdfrwt>
<pdfrwt beam="2">  1       -1 0.56277408E-01 0.15648238E+04</pdfrwt>
<totfact> 0.22084555E+01</totfact>
</mgrwt>
</event>
<event>
 8    1  0.2354930E-010  0.2216900E+04  0.7818608E-02  0.8511427E-01
         -1   -1    0    0    0  501 -0.00000000000E+00  0.00000000000E+00  0.49673368711E+03  0.49673368713E+03  0.50400000000E-02 0. -1.
          1   -1    0    0  501    0  0.00000000000E+00 -0.00000000000E+00 -0.24734819398E+04  0.24734819398E+04  0.50400000000E-02 0.  1.
     200001    2    1    2    0    0 -0.36192855077E+03  0.70714216945E+03 -0.55011560681E+03  0.11936112731E+04  0.70074129805E+03 0.  0.
    5000001    2    3    3    0    0 -0.30339734976E+02  0.30200861232E+03 -0.12420155246E+03  0.35367846416E+03  0.13241121155E+03 0.  0.
        -11    1    4    4    0    0 -0.31740233833E+02  0.15327719844E+03  0.16611629120E+01  0.15653785953E+03  0.51100000000E-03 0. -1.
     200002    1    4    4    0    0  0.14004988569E+01  0.14873141388E+03 -0.12586271537E+03  0.19714060463E+03  0.30000000000E+02 0. -1.
     200000    1    3    3    0    0 -0.33158881580E+03  0.40513355713E+03 -0.42591405436E+03  0.83993280896E+03  0.50000000000E+03 0. -1.
    -200001    1    1    2    0    0  0.36192855077E+03 -0.70714216945E+03 -0.14266326459E+04  0.17766043538E+04  0.70000000000E+03 0. -1.
<mgrwt>
<rscale>  0 0.22169004E+04</rscale>
<asrwt>0</asrwt>
<pdfrwt beam="1">  1        1 0.35335456E+00 0.22169004E+04</pdfrwt>
<pdfrwt beam="2">  1       -1 0.70961957E-01 0.22169004E+04</pdfrwt>
<totfact> 0.34304070E+00</totfact>
</mgrwt>
</event>
<event>
 8    1  0.2354930E-010  0.1601963E+04  0.7818608E-02  0.8819343E-01
          1   -1    0    0  501    0  0.00000000000E+00  0.00000000000E+00  0.18416554154E+04  0.18416554154E+04  0.50400000000E-02 0.  1.
         -1   -1    0    0    0  501 -0.00000000000E+00 -0.00000000000E+00 -0.34836656923E+03  0.34836656926E+03  0.50400000000E-02 0. -1.
     200001    2    1    2    0    0 -0.31260923908E+03  0.88750891357E+02  0.45444415512E+03  0.89588151732E+03  0.70034487639E+03 0.  0.
    5000001    2    3    3    0    0  0.88472724703E+01 -0.10430020664E+02  0.16512619997E+03  0.22739365558E+03  0.15573744932E+03 0.  0.
        -11    1    4    4    0    0  0.73310671684E+02  0.19579144705E+02  0.10506373458E+03  0.12960009959E+03  0.51100000000E-03 0. -1.
     200002    1    4    4    0    0 -0.64463399214E+02 -0.30009165369E+02  0.60062465391E+02  0.97793555990E+02  0.30000000000E+02 0. -1.
     200000    1    3    3    0    0 -0.32145651155E+03  0.99180912021E+02  0.28931795514E+03  0.66848786174E+03  0.50000000000E+03 0. -1.
    -200001    1    1    2    0    0  0.31260923908E+03 -0.88750891357E+02  0.10388446910E+04  0.12941404673E+04  0.70000000000E+03 0.  1.
<mgrwt>
<rscale>  0 0.16019628E+04</rscale>
<asrwt>0</asrwt>
<pdfrwt beam="1">  1        1 0.26309363E+00 0.16019628E+04</pdfrwt>
<pdfrwt beam="2">  1       -1 0.49766652E-01 0.16019628E+04</pdfrwt>
<totfact> 0.18263608E+01</totfact>
</mgrwt>
</event>
<event>
 8    1  0.2354930E-010  0.1802726E+04  0.7818608E-02  0.8704851E-01
         -1   -1    0    0    0  501 -0.00000000000E+00  0.00000000000E+00  0.20522035526E+03  0.20522035532E+03  0.50400000000E-02 0. -1.
          1   -1    0    0  501    0  0.00000000000E+00 -0.00000000000E+00 -0.39589393282E+04  0.39589393282E+04  0.50400000000E-02 0.  1.
     200001    2    1    2    0    0 -0.10723628201E+03  0.51489128981E+03 -0.13766886610E+04  0.16310024115E+04  0.69877359477E+03 0.  0.
    5000001    2    3    3    0    0 -0.32215521446E+02  0.53645958780E+02 -0.53531757833E+03  0.54643767462E+03  0.90074934643E+02 0.  0.
        -11    1    4    4    0    0 -0.52215961428E+02  0.29886965950E+02 -0.21631581639E+03  0.22452676852E+03  0.51100000000E-03 0. -1.
     200002    1    4    4    0    0  0.20000439982E+02  0.23758992831E+02 -0.31900176195E+03  0.32191090610E+03  0.30000000000E+02 0. -1.
     200000    1    3    3    0    0 -0.75020760564E+02  0.46124533103E+03 -0.84137108262E+03  0.10845647369E+04  0.50000000000E+03 0. -1.
    -200001    1    1    2    0    0  0.10723628201E+03 -0.51489128981E+03 -0.23770303120E+04  0.25331572720E+04  0.70000000000E+03 0.  1.
<mgrwt>
<rscale>  0 0.18027256E+04</rscale>
<asrwt>0</asrwt>
<pdfrwt beam="1">  1        1 0.56556271E+00 0.18027256E+04</pdfrwt>
<pdfrwt beam="2">  1       -1 0.29317196E-01 0.18027256E+04</pdfrwt>
<totfact> 0.18270954E+00</totfact>
</mgrwt>
</event>
<event>
 8    1  0.2354930E-010  0.1915128E+04  0.7818608E-02  0.8647362E-01
         -1   -1    0    0    0  501 -0.00000000000E+00  0.00000000000E+00  0.47325130482E+03  0.47325130485E+03  0.50400000000E-02 0.  1.
          1   -1    0    0  501    0  0.00000000000E+00 -0.00000000000E+00 -0.19375101108E+04  0.19375101108E+04  0.50400000000E-02 0. -1.
     200001    2    1    2    0    0 -0.18785995076E+03 -0.62442053619E+03 -0.77982642495E+03  0.12344791148E+04  0.70044062186E+03 0.  0.
    5000001    2    3    3    0    0 -0.39224336216E+02 -0.15950778731E+03 -0.12678927754E+03  0.27808279222E+03  0.18513032076E+03 0.  0.
        -11    1    4    4    0    0  0.63754901973E+02 -0.82275237407E+02 -0.15372775299E+02  0.10521513407E+03  0.51100000000E-03 0. -1.
     200002    1    4    4    0    0 -0.10297923819E+03 -0.77232549904E+02 -0.11141650225E+03  0.17286765815E+03  0.30000000000E+02 0. -1.
     200000    1    3    3    0    0 -0.14863561454E+03 -0.46491274888E+03 -0.65303714741E+03  0.95639632259E+03  0.50000000000E+03 0.  1.
    -200001    1    1    2    0    0  0.18785995076E+03  0.62442053619E+03 -0.68443238106E+03  0.11762823009E+04  0.70000000000E+03 0. -1.
<mgrwt>
<rscale>  0 0.19151284E+04</rscale>
<asrwt>0</asrwt>
<pdfrwt beam="1">  1        1 0.27678716E+00 0.19151284E+04</pdfrwt>
<pdfrwt beam="2">  1       -1 0.67607330E-01 0.19151284E+04</pdfrwt>
<totfact> 0.84746920E+00</totfact>
</mgrwt>
</event>
<event>
 8    1  0.2354930E-010  0.1527277E+04  0.7818608E-02  0.8866514E-01
         -1   -1    0    0    0  501 -0.00000000000E+00  0.00000000000E+00  0.45516403052E+03  0.45516403055E+03  0.50400000000E-02 0. -1.
          1   -1    0    0  501    0  0.00000000000E+00 -0.00000000000E+00 -0.12811727139E+04  0.12811727139E+04  0.50400000000E-02 0.  1.
     200001    2    1    2    0    0 -0.21104433385E+03  0.14543648256E+03 -0.60031818814E+03  0.95747367502E+03  0.70048728042E+03 0.  0.
    5000001    2    3    3    0    0 -0.23518600262E+01  0.48696107005E+02 -0.10827772319E+03  0.21922231672E+03  0.18427565418E+03 0.  0.
        -11    1    4    4    0    0 -0.20384336830E+02 -0.19426042633E+02 -0.13515314201E+03  0.13805529369E+03  0.51100000000E-03 0. -1.
     200002    1    4    4    0    0  0.18032476804E+02  0.68122149638E+02  0.26875418814E+02  0.81167023029E+02  0.30000000000E+02 0. -1.
     200000    1    3    3    0    0 -0.20869247382E+03  0.96740375553E+02 -0.49204046495E+03  0.73825135831E+03  0.50000000000E+03 0.  1.
    -200001    1    1    2    0    0  0.21104433385E+03 -0.14543648256E+03 -0.22569049526E+03  0.77886306945E+03  0.70000000000E+03 0. -1.
<mgrwt>
<rscale>  0 0.15272770E+04</rscale>
<asrwt>0</asrwt>
<pdfrwt beam="1">  1        1 0.18302467E+00 0.15272770E+04</pdfrwt>
<pdfrwt beam="2">  1       -1 0.65023434E-01 0.15272770E+04</pdfrwt>
<totfact> 0.25226621E+01</totfact>
</mgrwt>
</event>
<event>
 8    1  0.2354930E-010  0.2672216E+04  0.7818608E-02  0.8344076E-01
         -1   -1    0    0    0  501 -0.00000000000E+00  0.00000000000E+00  0.81474839051E+03  0.81474839052E+03  0.50400000000E-02 0. -1.
          1   -1    0    0  501    0  0.00000000000E+00 -0.00000000000E+00 -0.21910877307E+04  0.21910877307E+04  0.50400000000E-02 0.  1.
     200001    2    1    2    0    0 -0.56756667217E+03 -0.60987749833E+03 -0.15603268907E+04  0.19022356913E+04  0.69985579159E+03 0.  0.
    5000001    2    3    3    0    0 -0.74165376431E+02 -0.20473972100E+03 -0.54357007134E+03  0.60170661165E+03  0.13843253819E+03 0.  0.
        -11    1    4    4    0    0 -0.54964647051E+02 -0.21391856070E+03 -0.45385259643E+03  0.50474195618E+03  0.51100000000E-03 0. -1.
     200002    1    4    4    0    0 -0.19200729380E+02  0.91788396999E+01 -0.89717474909E+02  0.96964655473E+02  0.30000000000E+02 0. -1.
     200000    1    3    3    0    0 -0.49340129573E+03 -0.40513777733E+03 -0.10167568193E+04  0.13005290796E+04  0.50000000000E+03 0. -1.
    -200001    1    1    2    0    0  0.56756667217E+03  0.60987749833E+03  0.18398755048E+03  0.11036004300E+04  0.70000000000E+03 0. -1.
<mgrwt>
<rscale>  0 0.26722165E+04</rscale>
<asrwt>0</asrwt>
<pdfrwt beam="1">  1        1 0.31301253E+00 0.26722165E+04</pdfrwt>
<pdfrwt beam="2">  1       -1 0.11639263E+00 0.26722165E+04</pdfrwt>
<totfact> 0.16577841E+00</totfact>
</mgrwt>
</event>
<event>
 8    1  0.2354930E-010  0.1494659E+04  0.7818608E-02  0.8888012E-01
          1   -1    0    0  501    0  0.00000000000E+00  0.00000000000E+00  0.75005987883E+03  0.75005987885E+03  0.50400000000E-02 0.  1.
         -1   -1    0    0    0  501 -0.00000000000E+00 -0.00000000000E+00 -0.74460924468E+03  0.74460924470E+03  0.50400000000E-02 0. -1.
     200001    2    1    2    0    0  0.60801044234E+01 -0.25648694854E+03 -0.54767352290E+02  0.74670607077E+03  0.69910512142E+03 0.  0.
    5000001    2    3    3    0    0 -0.25766147386E+02 -0.15490643554E+02 -0.71968823623E+02  0.19047833558E+03  0.17377753124E+03 0.  0.
        -11    1    4    4    0    0 -0.73640916902E+02 -0.25060247699E+02  0.21623145862E+02  0.80737606443E+02  0.51100000000E-03 0. -1.
     200002    1    4    4    0    0  0.47874769516E+02  0.95696041452E+01 -0.93591969484E+02  0.10974072914E+03  0.30000000000E+02 0. -1.
     200000    1    3    3    0    0  0.31846251809E+02 -0.24099630499E+03  0.17201471333E+02  0.55622773518E+03  0.50000000000E+03 0. -1.
    -200001    1    1    2    0    0 -0.60801044234E+01  0.25648694854E+03  0.60217986441E+02  0.74796305279E+03  0.70000000000E+03 0.  1.
<mgrwt>
<rscale>  0 0.14946592E+04</rscale>
<asrwt>0</asrwt>
<pdfrwt beam="1">  1        1 0.10715141E+00 0.14946592E+04</pdfrwt>
<pdfrwt beam="2">  1       -1 0.10637275E+00 0.14946592E+04</pdfrwt>
<totfact> 0.22008203E+01</totfact>
</mgrwt>
</event>
<event>
 8    1  0.2354930E-010  0.2140553E+04  0.7818608E-02  0.8543587E-01
          1   -1    0    0  501    0  0.00000000000E+00  0.00000000000E+00  0.24646515986E+04  0.24646515987E+04  0.50400000000E-02 0.  1.
         -1   -1    0    0    0  501 -0.00000000000E+00 -0.00000000000E+00 -0.46476816204E+03  0.46476816207E+03  0.50400000000E-02 0. -1.
     200001    2    1    2    0    0 -0.57900135042E+03  0.49129070515E+03  0.13842865045E+04  0.17271017065E+04  0.70001575493E+03 0.  0.
    5000001    2    3    3    0    0 -0.17240921640E+03  0.87209961782E+02  0.45334478635E+03  0.52491582516E+03  0.18078886264E+03 0.  0.
        -11    1    4    4    0    0 -0.73325978022E+02 -0.48627671380E+02  0.20933124161E+03  0.22707029351E+03  0.51100000000E-03 0. -1.
     200002    1    4    4    0    0 -0.99083238381E+02  0.13583763316E+03  0.24401354474E+03  0.29784553165E+03  0.30000000000E+02 0. -1.
     200000    1    3    3    0    0 -0.40659213402E+03  0.40408074337E+03  0.93094171819E+03  0.12021858813E+04  0.50000000000E+03 0.  1.
    -200001    1    1    2    0    0  0.57900135042E+03 -0.49129070515E+03  0.61559693207E+03  0.12023180542E+04  0.70000000000E+03 0. -1.
<mgrwt>
<rscale>  0 0.21405528E+04</rscale>
<asrwt>0</asrwt>
<pdfrwt beam="1">  1        1 0.35209308E+00 0.21405528E+04</pdfrwt>
<pdfrwt beam="2">  1       -1 0.66395452E-01 0.21405528E+04</pdfrwt>
<totfact> 0.40077068E+00</totfact>
</mgrwt>
</event>
<event>
 8    1  0.2354930E-010  0.2009790E+04  0.7818608E-02  0.8602057E-01
          1   -1    0    0  501    0  0.00000000000E+00  0.00000000000E+00  0.23637404195E+04  0.23637404195E+04  0.50400000000E-02 0. -1.
         -1   -1    0    0    0  501 -0.00000000000E+00 -0.00000000000E+00 -0.42721019196E+03  0.42721019199E+03  0.50400000000E-02 0.  1.
     200001    2    1    2    0    0 -0.71899222690E+03  0.17213723903E+02  0.10381806914E+04  0.14439992302E+04  0.70004892261E+03 0.  0.
    5000001    2    3    3    0    0 -0.26693801918E+03 -0.50135666576E+01  0.32342971502E+03  0.46129071925E+03  0.19209712432E+03 0.  0.
        -11    1    4    4    0    0 -0.28835759862E+03 -0.10375218581E+02  0.26365934337E+03  0.39086314637E+03  0.51100000000E-03 0. -1.
     200002    1    4    4    0    0  0.21419579440E+02  0.53616519230E+01  0.59770371650E+02  0.70427572881E+02  0.30000000000E+02 0. -1.
     200000    1    3    3    0    0 -0.45205420772E+03  0.22227290560E+02  0.71475097640E+03  0.98270851092E+03  0.50000000000E+03 0. -1.
    -200001    1    1    2    0    0  0.71899222690E+03 -0.17213723903E+02  0.89834953611E+03  0.13469513813E+04  0.70000000000E+03 0.  1.
<mgrwt>
<rscale>  0 0.20097900E+04</rscale>
<asrwt>0</asrwt>
<pdfrwt beam="1">  1        1 0.33767722E+00 0.20097900E+04</pdfrwt>
<pdfrwt beam="2">  1       -1 0.61030025E-01 0.20097900E+04</pdfrwt>
<totfact> 0.55622288E+00</totfact>
</mgrwt>
</event>
<event>
 8    1  0.2354930E-010  0.1448104E+04  0.7818608E-02  0.8919716E-01
         -1   -1    0    0    0  501 -0.00000000000E+00  0.00000000000E+00  0.17373806361E+03  0.17373806368E+03  0.50400000000E-02 0. -1.
          1   -1    0    0  501    0  0.00000000000E+00 -0.00000000000E+00 -0.30174793607E+04  0.30174793607E+04  0.50400000000E-02 0.  1.
     200001    2    1    2    0    0  0.11402816111E+03  0.12616239346E+03 -0.12573340124E+04  0.14489179541E+04  0.69968210501E+03 0.  0.
    5000001    2    3    3    0    0 -0.30958945361E+02  0.54784181010E+02 -0.38176008084E+03  0.42776868989E+03  0.18244322389E+03 0.  0.
        -11    1    4    4    0    0 -0.51707391010E+02  0.91018521906E+01 -0.12579377931E+02  0.53988320476E+02  0.51100000000E-03 0. -1.
     200002    1    4    4    0    0  0.20748445650E+02  0.45682328819E+02 -0.36918070291E+03  0.37378036942E+03  0.30000000000E+02 0. -1.
     200000    1    3    3    0    0  0.14498710647E+03  0.71378212446E+02 -0.87557393153E+03  0.10211492642E+04  0.50000000000E+03 0. -1.
    -200001    1    1    2    0    0 -0.11402816111E+03 -0.12616239346E+03 -0.15864072847E+04  0.17422994702E+04  0.70000000000E+03 0.  1.
<mgrwt>
<rscale>  0 0.14481036E+04</rscale>
<asrwt>0</asrwt>
<pdfrwt beam="1">  1        1 0.43106845E+00 0.14481036E+04</pdfrwt>
<pdfrwt beam="2">  1       -1 0.24819725E-01 0.14481036E+04</pdfrwt>
<totfact> 0.11516649E+01</totfact>
</mgrwt>
</event>
<event>
 8    1  0.2354930E-010  0.1614106E+04  0.7818608E-02  0.8811929E-01
          1   -1    0    0  501    0  0.00000000000E+00  0.00000000000E+00  0.32232029354E+04  0.32232029354E+04  0.50400000000E-02 0.  1.
         -1   -1    0    0    0  501 -0.00000000000E+00 -0.00000000000E+00 -0.20207674282E+03  0.20207674288E+03  0.50400000000E-02 0. -1.
     200001    2    1    2    0    0  0.17668728886E+03  0.35154734164E+03  0.13369037077E+04  0.15594261712E+04  0.69978177182E+03 0.  0.
    5000001    2    3    3    0    0  0.15318195422E+03 -0.18550215351E+02  0.34469699490E+03  0.38810261920E+03  0.89436028242E+02 0.  0.
        -11    1    4    4    0    0  0.11204210003E+03  0.12928732721E+02  0.17538372377E+03  0.20851866792E+03  0.51100000000E-03 0. -1.
     200002    1    4    4    0    0  0.41139854188E+02 -0.31478948072E+02  0.16931327114E+03  0.17958395128E+03  0.30000000000E+02 0. -1.
     200000    1    3    3    0    0  0.23505334641E+02  0.37009755699E+03  0.99220671279E+03  0.11713235520E+04  0.50000000000E+03 0. -1.
    -200001    1    1    2    0    0 -0.17668728886E+03 -0.35154734164E+03  0.16842224849E+04  0.18658535071E+04  0.70000000000E+03 0.  1.
<mgrwt>
<rscale>  0 0.16141058E+04</rscale>
<asrwt>0</asrwt>
<pdfrwt beam="1">  1        1 0.46045754E+00 0.16141058E+04</pdfrwt>
<pdfrwt beam="2">  1       -1 0.28868108E-01 0.16141058E+04</pdfrwt>
<totfact> 0.63675340E+00</totfact>
</mgrwt>
</event>
<event>
 8    1  0.2354930E-010  0.1836686E+04  0.7818608E-02  0.8687030E-01
          1   -1    0    0  501    0  0.00000000000E+00  0.00000000000E+00  0.24467270560E+04  0.24467270560E+04  0.50400000000E-02 0. -1.
         -1   -1    0    0    0  501 -0.00000000000E+00 -0.00000000000E+00 -0.34468644676E+03  0.34468644680E+03  0.50400000000E-02 0.  1.
     200001    2    1    2    0    0  0.25624859017E+03 -0.12030449773E+03  0.18455079263E+04  0.19939515730E+04  0.69986202710E+03 0.  0.
    5000001    2    3    3    0    0  0.13338682342E+03 -0.27547849873E+02  0.57963624021E+03  0.62423264734E+03  0.18744945544E+03 0.  0.
        -11    1    4    4    0    0  0.14477724971E+03  0.39059422261E+02  0.45764294714E+03  0.48158400884E+03  0.51100000000E-03 0. -1.
     200002    1    4    4    0    0 -0.11390426293E+02 -0.66607272134E+02  0.12199329307E+03  0.14264863850E+03  0.30000000000E+02 0. -1.
     200000    1    3    3    0    0  0.12286176675E+03 -0.92756647853E+02  0.12658716861E+04  0.13697189256E+04  0.50000000000E+03 0. -1.
    -200001    1    1    2    0    0 -0.25624859017E+03  0.12030449773E+03  0.25653268287E+03  0.79746192982E+03  0.70000000000E+03 0.  1.
<mgrwt>
<rscale>  0 0.18366858E+04</rscale>
<asrwt>0</asrwt>
<pdfrwt beam="1">  1        1 0.34953244E+00 0.18366858E+04</pdfrwt>
<pdfrwt beam="2">  1       -1 0.49240920E-01 0.18366858E+04</pdfrwt>
<totfact> 0.75857759E+00</totfact>
</mgrwt>
</event>
<event>
 8    1  0.2354930E-010  0.1689450E+04  0.7818608E-02  0.8767404E-01
         -1   -1    0    0    0  501 -0.00000000000E+00  0.00000000000E+00  0.88010349354E+03  0.88010349356E+03  0.50400000000E-02 0. -1.
          1   -1    0    0  501    0  0.00000000000E+00 -0.00000000000E+00 -0.81076853877E+03  0.81076853878E+03  0.50400000000E-02 0.  1.
     200001    2    1    2    0    0  0.62800424888E+02 -0.14393032594E+03  0.48098917722E+03  0.86375714858E+03  0.70004713486E+03 0.  0.
    5000001    2    3    3    0    0  0.18270205837E+02  0.54401253901E+02  0.20602583886E+03  0.25801529480E+03  0.14433277253E+03 0.  0.
        -11    1    4    4    0    0 -0.36248105778E+02  0.78684440923E+02  0.13592318655E+03  0.16118399132E+03  0.51100000000E-03 0. -1.
     200002    1    4    4    0    0  0.54518311615E+02 -0.24283187022E+02  0.70102652307E+02  0.96831303481E+02  0.30000000000E+02 0. -1.
     200000    1    3    3    0    0  0.44530219052E+02 -0.19833157984E+03  0.27496333836E+03  0.60574185377E+03  0.50000000000E+03 0. -1.
    -200001    1    1    2    0    0 -0.62800424888E+02  0.14393032594E+03 -0.41165422244E+03  0.82711488376E+03  0.70000000000E+03 0.  1.
<mgrwt>
<rscale>  0 0.16894499E+04</rscale>
<asrwt>0</asrwt>
<pdfrwt beam="1">  1        1 0.11582408E+00 0.16894499E+04</pdfrwt>
<pdfrwt beam="2">  1       -1 0.12572907E+00 0.16894499E+04</pdfrwt>
<totfact> 0.12836733E+01</totfact>
</mgrwt>
</event>
<event>
 8    1  0.2354930E-010  0.2355911E+04  0.7818608E-02  0.8456197E-01
         -1   -1    0    0    0  501 -0.00000000000E+00  0.00000000000E+00  0.47848689619E+03  0.47848689621E+03  0.50400000000E-02 0. -1.
          1   -1    0    0  501    0  0.00000000000E+00 -0.00000000000E+00 -0.28999319952E+04  0.28999319952E+04  0.50400000000E-02 0.  1.
     200001    2    1    2    0    0  0.24731073783E+03  0.50582661904E+03 -0.11887185196E+03  0.90680671965E+03  0.70081719445E+03 0.  0.
    5000001    2    3    3    0    0  0.39294865693E+02  0.23793062069E+03 -0.35936306098E+02  0.29695659564E+03  0.16951912831E+03 0.  0.
        -11    1    4    4    0    0  0.68675900683E+02  0.19962622510E+03 -0.79252526841E+02  0.22549494915E+03  0.51100000000E-03 0. -1.
     200002    1    4    4    0    0 -0.29381034989E+02  0.38304395591E+02  0.43316220742E+02  0.71461646483E+02  0.30000000000E+02 0. -1.
     200000    1    3    3    0    0  0.20801587214E+03  0.26789599835E+03 -0.82935545866E+02  0.60985012402E+03  0.50000000000E+03 0. -1.
    -200001    1    1    2    0    0 -0.24731073783E+03 -0.50582661904E+03 -0.23025732470E+04  0.24716121718E+04  0.70000000000E+03 0.  1.
<mgrwt>
<rscale>  0 0.23559113E+04</rscale>
<asrwt>0</asrwt>
<pdfrwt beam="1">  1        1 0.41427599E+00 0.23559113E+04</pdfrwt>
<pdfrwt beam="2">  1       -1 0.68355273E-01 0.23559113E+04</pdfrwt>
<totfact> 0.19437351E+00</totfact>
</mgrwt>
</event>
<event>
 8    1  0.2354930E-010  0.1498134E+04  0.7818608E-02  0.8885694E-01
         -1   -1    0    0    0  501 -0.00000000000E+00  0.00000000000E+00  0.24864506789E+03  0.24864506794E+03  0.50400000000E-02 0. -1.
          1   -1    0    0  501    0  0.00000000000E+00 -0.00000000000E+00 -0.22566372168E+04  0.22566372168E+04  0.50400000000E-02 0.  1.
     200001    2    1    2    0    0 -0.10437395237E+03  0.24419655700E+03 -0.10226311266E+04  0.12677596689E+04  0.70065275043E+03 0.  0.
    5000001    2    3    3    0    0  0.33113644299E+02  0.75186547619E+02 -0.27508365171E+03  0.34239787497E+03  0.18658981473E+03 0.  0.
        -11    1    4    4    0    0  0.43317383838E+02 -0.45242955588E+02 -0.34532868778E+02  0.71525099086E+02  0.51100000000E-03 0. -1.
     200002    1    4    4    0    0 -0.10203739539E+02  0.12042950321E+03 -0.24055078294E+03  0.27087277588E+03  0.30000000000E+02 0. -1.
     200000    1    3    3    0    0 -0.13748759667E+03  0.16901000938E+03 -0.74754747488E+03  0.92536179396E+03  0.50000000000E+03 0. -1.
    -200001    1    1    2    0    0  0.10437395237E+03 -0.24419655700E+03 -0.98536102232E+03  0.12375226158E+04  0.70000000000E+03 0.  1.
<mgrwt>
<rscale>  0 0.14981345E+04</rscale>
<asrwt>0</asrwt>
<pdfrwt beam="1">  1        1 0.32237673E+00 0.14981345E+04</pdfrwt>
<pdfrwt beam="2">  1       -1 0.35520725E-01 0.14981345E+04</pdfrwt>
<totfact> 0.18805688E+01</totfact>
</mgrwt>
</event>
<event>
 8    1  0.2354930E-010  0.2207329E+04  0.7818608E-02  0.8515384E-01
         -1   -1    0    0    0  501 -0.00000000000E+00  0.00000000000E+00  0.78404109264E+03  0.78404109266E+03  0.50400000000E-02 0.  1.
          1   -1    0    0  501    0  0.00000000000E+00 -0.00000000000E+00 -0.15535856833E+04  0.15535856833E+04  0.50400000000E-02 0. -1.
     200001    2    1    2    0    0  0.76248208801E+03 -0.34303548457E+03 -0.56563159173E+03  0.12282878786E+04  0.69978549346E+03 0.  0.
    5000001    2    3    3    0    0  0.19642560652E+03 -0.20101171833E+02 -0.22466439833E+03  0.33892567026E+03  0.15940339420E+03 0.  0.
        -11    1    4    4    0    0  0.20140717343E+03 -0.40025065187E+02 -0.22209584336E+03  0.30247879098E+03  0.51100000000E-03 0. -1.
     200002    1    4    4    0    0 -0.49815669030E+01  0.19923893354E+02 -0.25685549623E+01  0.36446879287E+02  0.30000000000E+02 0. -1.
     200000    1    3    3    0    0  0.56605648149E+03 -0.32293431274E+03 -0.34096719340E+03  0.88936220830E+03  0.50000000000E+03 0.  1.
    -200001    1    1    2    0    0 -0.76248208801E+03  0.34303548457E+03 -0.20391299897E+03  0.11093388974E+04  0.70000000000E+03 0. -1.
<mgrwt>
<rscale>  0 0.22073287E+04</rscale>
<asrwt>0</asrwt>
<pdfrwt beam="1">  1        1 0.22194081E+00 0.22073287E+04</pdfrwt>
<pdfrwt beam="2">  1       -1 0.11200587E+00 0.22073287E+04</pdfrwt>
<totfact> 0.48022558E+00</totfact>
</mgrwt>
</event>
<event>
 8    1  0.2354930E-010  0.1645448E+04  0.7818608E-02  0.8793104E-01
          1   -1    0    0  501    0  0.00000000000E+00  0.00000000000E+00  0.14113789014E+04  0.14113789014E+04  0.50400000000E-02 0. -1.
         -1   -1    0    0    0  501 -0.00000000000E+00 -0.00000000000E+00 -0.47958408850E+03  0.47958408853E+03  0.50400000000E-02 0.  1.
     200001    2    1    2    0    0  0.26195254180E+03  0.27595355854E+03  0.69953429733E+03  0.10610747760E+04  0.70125740384E+03 0.  0.
    5000001    2    3    3    0    0  0.58485990692E+02 -0.14739477330E+02  0.10490444612E+03  0.20697540326E+03  0.16791668005E+03 0.  0.
        -11    1    4    4    0    0 -0.84312549007E+01  0.41464006356E+02  0.10646781580E+03  0.11456764676E+03  0.51100000000E-03 0. -1.
     200002    1    4    4    0    0  0.66917245592E+02 -0.56203483686E+02 -0.15633696852E+01  0.92407756497E+02  0.30000000000E+02 0. -1.
     200000    1    3    3    0    0  0.20346655111E+03  0.29069303587E+03  0.59462985121E+03  0.85409937272E+03  0.50000000000E+03 0. -1.
    -200001    1    1    2    0    0 -0.26195254180E+03 -0.27595355854E+03  0.23226051561E+03  0.82988821400E+03  0.70000000000E+03 0. -1.
<mgrwt>
<rscale>  0 0.16454481E+04</rscale>
<asrwt>0</asrwt>
<pdfrwt beam="1">  1        1 0.20162556E+00 0.16454481E+04</pdfrwt>
<pdfrwt beam="2">  1       -1 0.68512013E-01 0.16454481E+04</pdfrwt>
<totfact> 0.18374045E+01</totfact>
</mgrwt>
</event>
<event>
 8    1  0.2354930E-010  0.1762260E+04  0.7818608E-02  0.8726631E-01
          1   -1    0    0  501    0  0.00000000000E+00  0.00000000000E+00  0.16241438708E+04  0.16241438708E+04  0.50400000000E-02 0.  1.
         -1   -1    0    0    0  501 -0.00000000000E+00 -0.00000000000E+00 -0.47803025054E+03  0.47803025056E+03  0.50400000000E-02 0. -1.
     200001    2    1    2    0    0  0.39178264605E+03  0.20952487296E+02  0.10077915223E+04  0.12878856889E+04  0.69933764856E+03 0.  0.
    5000001    2    3    3    0    0  0.13274658520E+03 -0.16212791455E+02  0.22570247748E+03  0.32344584482E+03  0.18918534748E+03 0.  0.
        -11    1    4    4    0    0  0.70361439279E+02 -0.95497668236E+02  0.16070666778E+03  0.19974275918E+03  0.51100000000E-03 0. -1.
     200002    1    4    4    0    0  0.62385145921E+02  0.79284876780E+02  0.64995809705E+02  0.12370308564E+03  0.30000000000E+02 0. -1.
     200000    1    3    3    0    0  0.25903606085E+03  0.37165278751E+02  0.78208904482E+03  0.96443984405E+03  0.50000000000E+03 0.  1.
    -200001    1    1    2    0    0 -0.39178264605E+03 -0.20952487296E+02  0.13832209792E+03  0.81428843246E+03  0.70000000000E+03 0.  1.
<mgrwt>
<rscale>  0 0.17622598E+04</rscale>
<asrwt>0</asrwt>
<pdfrwt beam="1">  1        1 0.23202056E+00 0.17622598E+04</pdfrwt>
<pdfrwt beam="2">  1       -1 0.68290034E-01 0.17622598E+04</pdfrwt>
<totfact> 0.13308241E+01</totfact>
</mgrwt>
</event>
<event>
 8    1  0.2354930E-010  0.2165779E+04  0.7818608E-02  0.8532808E-01
         -1   -1    0    0    0  501 -0.00000000000E+00  0.00000000000E+00  0.55500943022E+03  0.55500943024E+03  0.50400000000E-02 0. -1.
          1   -1    0    0  501    0  0.00000000000E+00 -0.00000000000E+00 -0.21128468311E+04  0.21128468312E+04  0.50400000000E-02 0.  1.
     200001    2    1    2    0    0 -0.17995669709E+02 -0.47423733363E+03 -0.16123890469E+04  0.18203889908E+04  0.69913714407E+03 0.  0.
    5000001    2    3    3    0    0 -0.91765896434E+01 -0.15014620190E+03 -0.34760702549E+03  0.42225223076E+03  0.18664996778E+03 0.  0.
        -11    1    4    4    0    0 -0.24381135899E+00  0.38192790049E+02 -0.20103531324E+02  0.43161332552E+02  0.51100000000E-03 0. -1.
     200002    1    4    4    0    0 -0.89327782844E+01 -0.18833899195E+03 -0.32750349417E+03  0.37909089821E+03  0.30000000000E+02 0. -1.
     200000    1    3    3    0    0 -0.88190800656E+01 -0.32409113173E+03 -0.12647820215E+04  0.13981367600E+04  0.50000000000E+03 0.  1.
    -200001    1    1    2    0    0  0.17995669709E+02  0.47423733363E+03  0.54551646014E+02  0.84746727065E+03  0.70000000000E+03 0. -1.
<mgrwt>
<rscale>  0 0.21657792E+04</rscale>
<asrwt>0</asrwt>
<pdfrwt beam="1">  1        1 0.30183526E+00 0.21657792E+04</pdfrwt>
<pdfrwt beam="2">  1       -1 0.79287063E-01 0.21657792E+04</pdfrwt>
<totfact> 0.46178532E+00</totfact>
</mgrwt>
</event>
<event>
 8    1  0.2354930E-010  0.1485715E+04  0.7818608E-02  0.8894008E-01
         -1   -1    0    0    0  501 -0.00000000000E+00  0.00000000000E+00  0.29637261964E+03  0.29637261968E+03  0.50400000000E-02 0. -1.
          1   -1    0    0  501    0  0.00000000000E+00 -0.00000000000E+00 -0.18619704455E+04  0.18619704455E+04  0.50400000000E-02 0.  1.
     200001    2    1    2    0    0 -0.97181863072E+02  0.25184236319E+02 -0.11160086295E+04  0.13203639451E+04  0.69843190513E+03 0.  0.
    5000001    2    3    3    0    0 -0.59684394860E+02 -0.42467823094E+02 -0.15130912065E+03  0.23103938205E+03  0.15848975701E+03 0.  0.
        -11    1    4    4    0    0 -0.76785100151E+02  0.38330342060E+02 -0.86552114025E+02  0.12188697703E+03  0.51100000000E-03 0. -1.
     200002    1    4    4    0    0  0.17100705291E+02 -0.80798165155E+02 -0.64757006630E+02  0.10915240502E+03  0.30000000000E+02 0. -1.
     200000    1    3    3    0    0 -0.37497468211E+02  0.67652059414E+02 -0.96469950885E+03  0.10893245630E+04  0.50000000000E+03 0.  1.
    -200001    1    1    2    0    0  0.97181863072E+02 -0.25184236319E+02 -0.44958919639E+03  0.83797912014E+03  0.70000000000E+03 0. -1.
<mgrwt>
<rscale>  0 0.14857147E+04</rscale>
<asrwt>0</asrwt>
<pdfrwt beam="1">  1        1 0.26599577E+00 0.14857147E+04</pdfrwt>
<pdfrwt beam="2">  1       -1 0.42338947E-01 0.14857147E+04</pdfrwt>
<totfact> 0.24230715E+01</totfact>
</mgrwt>
</event>
<event>
 8    1  0.2354930E-010  0.1607786E+04  0.7818608E-02  0.8815779E-01
         -1   -1    0    0    0  501 -0.00000000000E+00  0.00000000000E+00  0.41197736284E+03  0.41197736287E+03  0.50400000000E-02 0. -1.
          1   -1    0    0  501    0  0.00000000000E+00 -0.00000000000E+00 -0.15686403469E+04  0.15686403469E+04  0.50400000000E-02 0.  1.
     200001    2    1    2    0    0 -0.26797461147E+03  0.28872526481E+03 -0.61679021958E+03  0.10128185195E+04  0.70014177670E+03 0.  0.
    5000001    2    3    3    0    0  0.64991481847E+02  0.13133658701E+03 -0.60958217111E+02  0.17939975908E+03  0.83637177890E+02 0.  0.
        -11    1    4    4    0    0  0.15709718956E+02  0.23620164218E+02  0.18294182252E+02  0.33754770506E+02  0.51100000000E-03 0. -1.
     200002    1    4    4    0    0  0.49281762891E+02  0.10771642280E+03 -0.79252399363E+02  0.14564498858E+03  0.30000000000E+02 0. -1.
     200000    1    3    3    0    0 -0.33296609332E+03  0.15738867780E+03 -0.55583200247E+03  0.83341876039E+03  0.50000000000E+03 0. -1.
    -200001    1    1    2    0    0  0.26797461147E+03 -0.28872526481E+03 -0.53987276449E+03  0.96779919031E+03  0.70000000000E+03 0.  1.
<mgrwt>
<rscale>  0 0.16077864E+04</rscale>
<asrwt>0</asrwt>
<pdfrwt beam="1">  1        1 0.22409147E+00 0.16077864E+04</pdfrwt>
<pdfrwt beam="2">  1       -1 0.58853910E-01 0.16077864E+04</pdfrwt>
<totfact> 0.19722443E+01</totfact>
</mgrwt>
</event>
<event>
 8    1  0.2354930E-010  0.1615083E+04  0.7818608E-02  0.8811335E-01
         -1   -1    0    0    0  501 -0.00000000000E+00  0.00000000000E+00  0.34749863603E+03  0.34749863607E+03  0.50400000000E-02 0. -1.
          1   -1    0    0  501    0  0.00000000000E+00 -0.00000000000E+00 -0.18766209844E+04  0.18766209844E+04  0.50400000000E-02 0.  1.
     200001    2    1    2    0    0  0.37362028957E+03 -0.12565077777E+03 -0.88195117425E+03  0.11925137038E+04  0.69919297854E+03 0.  0.
    5000001    2    3    3    0    0  0.85121556800E+02 -0.12694801347E+03 -0.24979022415E+03  0.33644088653E+03  0.16563766628E+03 0.  0.
        -11    1    4    4    0    0 -0.12933261094E+02 -0.10772752551E+02 -0.15260388589E+03  0.15352936992E+03  0.51100000000E-03 0. -1.
     200002    1    4    4    0    0  0.98054817893E+02 -0.11617526092E+03 -0.97186338264E+02  0.18291151661E+03  0.30000000000E+02 0. -1.
     200000    1    3    3    0    0  0.28849873277E+03  0.12972357075E+01 -0.63216095010E+03  0.85607281726E+03  0.50000000000E+03 0.  1.
    -200001    1    1    2    0    0 -0.37362028957E+03  0.12565077777E+03 -0.64717117413E+03  0.10316059167E+04  0.70000000000E+03 0.  1.
<mgrwt>
<rscale>  0 0.16150829E+04</rscale>
<asrwt>0</asrwt>
<pdfrwt beam="1">  1        1 0.26808871E+00 0.16150829E+04</pdfrwt>
<pdfrwt beam="2">  1       -1 0.49642664E-01 0.16150829E+04</pdfrwt>
<totfact> 0.17420682E+01</totfact>
</mgrwt>
</event>
<event>
 8    1  0.2354930E-010  0.1454428E+04  0.7818608E-02  0.8915336E-01
         -1   -1    0    0    0  501 -0.00000000000E+00  0.00000000000E+00  0.30464918197E+03  0.30464918201E+03  0.50400000000E-02 0. -1.
          1   -1    0    0  501    0  0.00000000000E+00 -0.00000000000E+00 -0.17358995275E+04  0.17358995275E+04  0.50400000000E-02 0.  1.
     200001    2    1    2    0    0  0.14413534491E+03 -0.21535461271E+02 -0.52911175718E+03  0.88942195441E+03  0.69990955677E+03 0.  0.
    5000001    2    3    3    0    0 -0.10854535032E+02  0.37997420316E+02 -0.10361631260E+03  0.21221268082E+03  0.18093163566E+03 0.  0.
        -11    1    4    4    0    0  0.68978614389E+02  0.27427042079E+02 -0.10213812803E+03  0.12626356988E+03  0.51100000000E-03 0. -1.
     200002    1    4    4    0    0 -0.79833149421E+02  0.10570378238E+02 -0.14781845663E+01  0.85949110945E+02  0.30000000000E+02 0. -1.
     200000    1    3    3    0    0  0.15498987994E+03 -0.59532881588E+02 -0.42549544459E+03  0.67720927359E+03  0.50000000000E+03 0. -1.
    -200001    1    1    2    0    0 -0.14413534491E+03  0.21535461271E+02 -0.90213858838E+03  0.11511267551E+04  0.70000000000E+03 0.  1.
<mgrwt>
<rscale>  0 0.14544282E+04</rscale>
<asrwt>0</asrwt>
<pdfrwt beam="1">  1        1 0.24798564E+00 0.14544282E+04</pdfrwt>
<pdfrwt beam="2">  1       -1 0.43521313E-01 0.14544282E+04</pdfrwt>
<totfact> 0.27750120E+01</totfact>
</mgrwt>
</event>
<event>
 8    1  0.2354930E-010  0.1522210E+04  0.7818608E-02  0.8869816E-01
         -1   -1    0    0    0  501 -0.00000000000E+00  0.00000000000E+00  0.95346767578E+03  0.95346767579E+03  0.50400000000E-02 0. -1.
          1   -1    0    0  501    0  0.00000000000E+00 -0.00000000000E+00 -0.60755195693E+03  0.60755195695E+03  0.50400000000E-02 0.  1.
     200001    2    1    2    0    0  0.21271066216E+03 -0.90870526862E+02 -0.24279952498E+02  0.73606623191E+03  0.69835571396E+03 0.  0.
    5000001    2    3    3    0    0  0.55214440830E+01 -0.10126409846E+03 -0.54839800633E+02  0.19387687132E+03  0.15587152889E+03 0.  0.
        -11    1    4    4    0    0 -0.10480563951E+02  0.39641546605E+02 -0.12726832235E+02  0.42933281926E+02  0.51100000000E-03 0. -1.
     200002    1    4    4    0    0  0.16002008034E+02 -0.14090564506E+03 -0.42112968398E+02  0.15094358939E+03  0.30000000000E+02 0. -1.
     200000    1    3    3    0    0  0.20718921808E+03  0.10393571596E+02  0.30559848134E+02  0.54218936059E+03  0.50000000000E+03 0.  1.
    -200001    1    1    2    0    0 -0.21271066216E+03  0.90870526862E+02  0.37019567135E+03  0.82495340083E+03  0.70000000000E+03 0. -1.
<mgrwt>
<rscale>  0 0.15222104E+04</rscale>
<asrwt>0</asrwt>
<pdfrwt beam="1">  1        1 0.86793137E-01 0.15222104E+04</pdfrwt>
<pdfrwt beam="2">  1       -1 0.13620967E+00 0.15222104E+04</pdfrwt>
<totfact> 0.16310340E+01</totfact>
</mgrwt>
</event>
<event>
 8    1  0.2354930E-010  0.1426443E+04  0.7818608E-02  0.8934897E-01
         -1   -1    0    0    0  501 -0.00000000000E+00  0.00000000000E+00  0.58505727865E+03  0.58505727867E+03  0.50400000000E-02 0. -1.
          1   -1    0    0  501    0  0.00000000000E+00 -0.00000000000E+00 -0.86946194138E+03  0.86946194139E+03  0.50400000000E-02 0.  1.
     200001    2    1    2    0    0  0.69961233555E+02  0.97758074428E+02 -0.81971823779E+02  0.71598670920E+03  0.70104662651E+03 0.  0.
    5000001    2    3    3    0    0  0.76607144813E+02  0.99479332924E+02 -0.11285717703E+02  0.21096823780E+03  0.16916098138E+03 0.  0.
        -11    1    4    4    0    0  0.14306216727E+02 -0.23246575809E+02  0.50299723175E+02  0.57228780134E+02  0.51100000000E-03 0. -1.
     200002    1    4    4    0    0  0.62300928086E+02  0.12272590873E+03 -0.61585440878E+02  0.15373945766E+03  0.30000000000E+02 0. -1.
     200000    1    3    3    0    0 -0.66459112585E+01 -0.17212584955E+01 -0.70686106077E+02  0.50501847140E+03  0.50000000000E+03 0. -1.
    -200001    1    1    2    0    0 -0.69961233555E+02 -0.97758074428E+02 -0.20243283895E+03  0.73853251086E+03  0.70000000000E+03 0.  1.
<mgrwt>
<rscale>  0 0.14264432E+04</rscale>
<asrwt>0</asrwt>
<pdfrwt beam="1">  1        1 0.12420885E+00 0.14264432E+04</pdfrwt>
<pdfrwt beam="2">  1       -1 0.83579612E-01 0.14264432E+04</pdfrwt>
<totfact> 0.30179655E+01</totfact>
</mgrwt>
</event>
<event>
 8    1  0.2354930E-010  0.1599306E+04  0.7818608E-02  0.8820975E-01
         -1   -1    0    0    0  501 -0.00000000000E+00  0.00000000000E+00  0.21674702557E+03  0.21674702563E+03  0.50400000000E-02 0.  1.
          1   -1    0    0  501    0  0.00000000000E+00 -0.00000000000E+00 -0.29501893929E+04  0.29501893929E+04  0.50400000000E-02 0. -1.
     200001    2    1    2    0    0 -0.22586785069E+03 -0.79548931554E+02 -0.76763365541E+03  0.10665202192E+04  0.70061375280E+03 0.  0.
    5000001    2    3    3    0    0 -0.76768240541E+02 -0.47027410699E+02 -0.22648361190E+03  0.31410297284E+03  0.19814366246E+03 0.  0.
        -11    1    4    4    0    0 -0.71617090066E+02  0.46035398240E+02 -0.22846671345E+02  0.88148941414E+02  0.51100000000E-03 0. -1.
     200002    1    4    4    0    0 -0.51511504750E+01 -0.93062808939E+02 -0.20363694055E+03  0.22595403142E+03  0.30000000000E+02 0. -1.
     200000    1    3    3    0    0 -0.14909961015E+03 -0.32521520855E+02 -0.54115004351E+03  0.75241724639E+03  0.50000000000E+03 0.  1.
    -200001    1    1    2    0    0  0.22586785069E+03  0.79548931554E+02 -0.19658087119E+04  0.21004161993E+04  0.70000000000E+03 0. -1.
<mgrwt>
<rscale>  0 0.15993058E+04</rscale>
<asrwt>0</asrwt>
<pdfrwt beam="1">  1        1 0.42145560E+00 0.15993058E+04</pdfrwt>
<pdfrwt beam="2">  1       -1 0.30963863E-01 0.15993058E+04</pdfrwt>
<totfact> 0.85627149E+00</totfact>
</mgrwt>
</event>
<event>
 8    1  0.2354930E-010  0.1554525E+04  0.7818608E-02  0.8848983E-01
          1   -1    0    0  501    0  0.00000000000E+00  0.00000000000E+00  0.80400124798E+03  0.80400124800E+03  0.50400000000E-02 0.  1.
         -1   -1    0    0    0  501 -0.00000000000E+00 -0.00000000000E+00 -0.75141271866E+03  0.75141271867E+03  0.50400000000E-02 0. -1.
     200001    2    1    2    0    0  0.12373353457E+03 -0.83489049008E+01 -0.28527992049E+03  0.76830864896E+03  0.70251964758E+03 0.  0.
    5000001    2    3    3    0    0  0.34803329802E+02  0.30554580249E+02 -0.46574405706E+02  0.20581208429E+03  0.19505021055E+03 0.  0.
        -11    1    4    4    0    0  0.51385786438E+02 -0.73734986053E+02 -0.30240006499E+02  0.94825129630E+02  0.51100000000E-03 0. -1.
     200002    1    4    4    0    0 -0.16582456635E+02  0.10428956630E+03 -0.16334399207E+02  0.11098695466E+03  0.30000000000E+02 0. -1.
     200000    1    3    3    0    0  0.88930204770E+02 -0.38903485150E+02 -0.23870551478E+03  0.56249656467E+03  0.50000000000E+03 0. -1.
    -200001    1    1    2    0    0 -0.12373353457E+03  0.83489049008E+01  0.33786844982E+03  0.78710531771E+03  0.70000000000E+03 0.  1.
<mgrwt>
<rscale>  0 0.15545247E+04</rscale>
<asrwt>0</asrwt>
<pdfrwt beam="1">  1        1 0.11485732E+00 0.15545247E+04</pdfrwt>
<pdfrwt beam="2">  1       -1 0.10734467E+00 0.15545247E+04</pdfrwt>
<totfact> 0.19268539E+01</totfact>
</mgrwt>
</event>
<event>
 8    1  0.2354930E-010  0.1426960E+04  0.7818608E-02  0.8934531E-01
          1   -1    0    0  501    0  0.00000000000E+00  0.00000000000E+00  0.48414346320E+03  0.48414346322E+03  0.50400000000E-02 0.  1.
         -1   -1    0    0    0  501 -0.00000000000E+00 -0.00000000000E+00 -0.10514527309E+04  0.10514527310E+04  0.50400000000E-02 0. -1.
     200001    2    1    2    0    0 -0.55573672115E+02  0.12385845950E+03 -0.29739612512E+03  0.77317737516E+03  0.70066357634E+03 0.  0.
    5000001    2    3    3    0    0 -0.34434802110E+02  0.10922396763E+03 -0.21284827611E+03  0.26542806797E+03  0.10969065559E+03 0.  0.
        -11    1    4    4    0    0 -0.27527728039E+02  0.11491542746E+03 -0.19845518155E+03  0.23097140595E+03  0.51100000000E-03 0. -1.
     200002    1    4    4    0    0 -0.69070740711E+01 -0.56914598272E+01 -0.14393094553E+02  0.34456662027E+02  0.30000000000E+02 0. -1.
     200000    1    3    3    0    0 -0.21138870005E+02  0.14634491863E+02 -0.84547849008E+02  0.50774930719E+03  0.50000000000E+03 0.  1.
    -200001    1    1    2    0    0  0.55573672115E+02 -0.12385845950E+03 -0.26991314263E+03  0.76241881901E+03  0.70000000000E+03 0.  1.
<mgrwt>
<rscale>  0 0.14269604E+04</rscale>
<asrwt>0</asrwt>
<pdfrwt beam="1">  1        1 0.69163352E-01 0.14269604E+04</pdfrwt>
<pdfrwt beam="2">  1       -1 0.15020753E+00 0.14269604E+04</pdfrwt>
<totfact> 0.17376729E+01</totfact>
</mgrwt>
</event>
<event>
 8    1  0.2354930E-010  0.3289436E+04  0.7818608E-02  0.8165589E-01
         -1   -1    0    0    0  501 -0.00000000000E+00  0.00000000000E+00  0.18618561113E+04  0.18618561113E+04  0.50400000000E-02 0. -1.
          1   -1    0    0  501    0  0.00000000000E+00 -0.00000000000E+00 -0.14529031252E+04  0.14529031252E+04  0.50400000000E-02 0.  1.
     200001    2    1    2    0    0  0.14397464475E+04  0.58693041419E+02  0.58280856999E+03  0.17033807986E+04  0.69679667738E+03 0.  0.
    5000001    2    3    3    0    0  0.35797103013E+03  0.49629947511E+02  0.29117404540E+03  0.47644523012E+03  0.10775593943E+03 0.  0.
        -11    1    4    4    0    0  0.17780094506E+03 -0.53145857126E+00  0.19542927269E+03  0.26420836311E+03  0.51100000000E-03 0. -1.
     200002    1    4    4    0    0  0.18017008507E+03  0.50161406083E+02  0.95744772709E+02  0.21223686701E+03  0.30000000000E+02 0. -1.
     200000    1    3    3    0    0  0.10817754174E+04  0.90630939073E+01  0.29163452459E+03  0.12269355685E+04  0.50000000000E+03 0. -1.
    -200001    1    1    2    0    0 -0.14397464475E+04 -0.58693041419E+02 -0.17385558385E+03  0.16113784379E+04  0.70000000000E+03 0.  1.
<mgrwt>
<rscale>  0 0.32894356E+04</rscale>
<asrwt>0</asrwt>
<pdfrwt beam="1">  1        1 0.20755759E+00 0.32894356E+04</pdfrwt>
<pdfrwt beam="2">  1       -1 0.26597944E+00 0.32894356E+04</pdfrwt>
<totfact> 0.38349425E-01</totfact>
</mgrwt>
</event>
<event>
 8    1  0.2354930E-010  0.1818516E+04  0.7818608E-02  0.8696514E-01
          1   -1    0    0  501    0  0.00000000000E+00  0.00000000000E+00  0.10239917547E+04  0.10239917548E+04  0.50400000000E-02 0.  1.
         -1   -1    0    0    0  501 -0.00000000000E+00 -0.00000000000E+00 -0.80737986110E+03  0.80737986111E+03  0.50400000000E-02 0. -1.
     200001    2    1    2    0    0 -0.24236988607E+03 -0.16183880472E+03 -0.39665511549E+03  0.85616323563E+03  0.70053211562E+03 0.  0.
    5000001    2    3    3    0    0 -0.59587774971E+02 -0.36358674318E+02 -0.20744890439E+03  0.27741151548E+03  0.17043897695E+03 0.  0.
        -11    1    4    4    0    0 -0.95116039529E+02 -0.52021919226E+02 -0.20039347968E+03  0.22783960971E+03  0.51100000000E-03 0. -1.
     200002    1    4    4    0    0  0.35528264558E+02  0.15663244908E+02 -0.70554247147E+01  0.49571905768E+02  0.30000000000E+02 0. -1.
     200000    1    3    3    0    0 -0.18278211110E+03 -0.12548013041E+03 -0.18920621110E+03  0.57875172015E+03  0.50000000000E+03 0.  1.
    -200001    1    1    2    0    0  0.24236988607E+03  0.16183880472E+03  0.61326700913E+03  0.97520838023E+03  0.70000000000E+03 0.  1.
<mgrwt>
<rscale>  0 0.18185162E+04</rscale>
<asrwt>0</asrwt>
<pdfrwt beam="1">  1        1 0.14628454E+00 0.18185162E+04</pdfrwt>
<pdfrwt beam="2">  1       -1 0.11533998E+00 0.18185162E+04</pdfrwt>
<totfact> 0.10669417E+01</totfact>
</mgrwt>
</event>
<event>
 8    1  0.2354930E-010  0.1852587E+04  0.7818608E-02  0.8678824E-01
         -1   -1    0    0    0  501 -0.00000000000E+00  0.00000000000E+00  0.61739625847E+03  0.61739625849E+03  0.50400000000E-02 0. -1.
          1   -1    0    0  501    0  0.00000000000E+00 -0.00000000000E+00 -0.13897385056E+04  0.13897385056E+04  0.50400000000E-02 0.  1.
     200001    2    1    2    0    0  0.12086484180E+03 -0.20847301598E+02  0.25767106166E+03  0.75574739951E+03  0.69979771068E+03 0.  0.
    5000001    2    3    3    0    0  0.78048494880E+02 -0.79915071118E+02  0.17688394079E+02  0.19636030482E+03  0.16051948131E+03 0.  0.
        -11    1    4    4    0    0  0.80016630158E+02 -0.11031604743E+03 -0.21974148528E+02  0.13804040939E+03  0.51100000000E-03 0. -1.
     200002    1    4    4    0    0 -0.19681352783E+01  0.30400976308E+02  0.39662542607E+02  0.58319895430E+02  0.30000000000E+02 0. -1.
     200000    1    3    3    0    0  0.42816346918E+02  0.59067769520E+02  0.23998266758E+03  0.55938709468E+03  0.50000000000E+03 0. -1.
    -200001    1    1    2    0    0 -0.12086484180E+03  0.20847301598E+02 -0.10300133088E+04  0.12513873646E+04  0.70000000000E+03 0.  1.
<mgrwt>
<rscale>  0 0.18525867E+04</rscale>
<asrwt>0</asrwt>
<pdfrwt beam="1">  1        1 0.19853407E+00 0.18525867E+04</pdfrwt>
<pdfrwt beam="2">  1       -1 0.88199466E-01 0.18525867E+04</pdfrwt>
<totfact> 0.10943189E+01</totfact>
</mgrwt>
</event>
<event>
 8    1  0.2354930E-010  0.2022721E+04  0.7818608E-02  0.8596071E-01
         -1   -1    0    0    0  501 -0.00000000000E+00  0.00000000000E+00  0.25091666711E+04  0.25091666711E+04  0.50400000000E-02 0. -1.
          1   -1    0    0  501    0  0.00000000000E+00 -0.00000000000E+00 -0.40764534665E+03  0.40764534668E+03  0.50400000000E-02 0.  1.
     200001    2    1    2    0    0  0.30232631961E+03  0.62488738321E+03  0.73992852189E+03  0.12357943483E+04  0.70555510665E+03 0.  0.
    5000001    2    3    3    0    0  0.66069992987E+02  0.21767053672E+03  0.25294067765E+03  0.39389187628E+03  0.19856010993E+03 0.  0.
        -11    1    4    4    0    0  0.11309349829E+03  0.48210143329E+02  0.91065715168E+02  0.15299451544E+03  0.51100000000E-03 0. -1.
     200002    1    4    4    0    0 -0.47023505301E+02  0.16946039339E+03  0.16187496248E+03  0.24089736084E+03  0.30000000000E+02 0. -1.
     200000    1    3    3    0    0  0.23625632662E+03  0.40721684648E+03  0.48698784424E+03  0.84190247200E+03  0.50000000000E+03 0. -1.
    -200001    1    1    2    0    0 -0.30232631961E+03 -0.62488738321E+03  0.13615928026E+04  0.16810176695E+04  0.70000000000E+03 0.  1.
<mgrwt>
<rscale>  0 0.20227211E+04</rscale>
<asrwt>0</asrwt>
<pdfrwt beam="1">  1        1 0.58235048E-01 0.20227211E+04</pdfrwt>
<pdfrwt beam="2">  1       -1 0.35845239E+00 0.20227211E+04</pdfrwt>
<totfact> 0.82014147E-01</totfact>
</mgrwt>
</event>
<event>
 8    1  0.2354930E-010  0.1468662E+04  0.7818608E-02  0.8905564E-01
         -1   -1    0    0    0  501 -0.00000000000E+00  0.00000000000E+00  0.43300973534E+03  0.43300973537E+03  0.50400000000E-02 0. -1.
          1   -1    0    0  501    0  0.00000000000E+00 -0.00000000000E+00 -0.12453344924E+04  0.12453344924E+04  0.50400000000E-02 0.  1.
     200001    2    1    2    0    0 -0.11237058367E+03  0.17720478092E+03 -0.48890028632E+03  0.87919964092E+03  0.69995702452E+03 0.  0.
    5000001    2    3    3    0    0  0.37855834028E+02  0.91828432974E+02 -0.11194925654E+03  0.22962348972E+03  0.17415161704E+03 0.  0.
        -11    1    4    4    0    0 -0.37490402954E+02  0.47203661147E+02 -0.12243078392E+03  0.13646615987E+03  0.51100000000E-03 0. -1.
     200002    1    4    4    0    0  0.75346236982E+02  0.44624771826E+02  0.10481527376E+02  0.93157329846E+02  0.30000000000E+02 0. -1.
     200000    1    3    3    0    0 -0.15022641769E+03  0.85376347944E+02 -0.37695102978E+03  0.64957615121E+03  0.50000000000E+03 0.  1.
    -200001    1    1    2    0    0  0.11237058367E+03 -0.17720478092E+03 -0.32342447077E+03  0.79914458688E+03  0.70000000000E+03 0. -1.
<mgrwt>
<rscale>  0 0.14686619E+04</rscale>
<asrwt>0</asrwt>
<pdfrwt beam="1">  1        1 0.17790493E+00 0.14686619E+04</pdfrwt>
<pdfrwt beam="2">  1       -1 0.61858534E-01 0.14686619E+04</pdfrwt>
<totfact> 0.29638729E+01</totfact>
</mgrwt>
</event>
<event>
 8    1  0.2354930E-010  0.1635290E+04  0.7818608E-02  0.8799157E-01
         -1   -1    0    0    0  501 -0.00000000000E+00  0.00000000000E+00  0.39443678111E+03  0.39443678114E+03  0.50400000000E-02 0. -1.
          1   -1    0    0  501    0  0.00000000000E+00 -0.00000000000E+00 -0.16949314281E+04  0.16949314281E+04  0.50400000000E-02 0.  1.
     200001    2    1    2    0    0  0.41738634369E+02  0.33188221083E+03 -0.31935047144E+03  0.83855574980E+03  0.69950204178E+03 0.  0.
    5000001    2    3    3    0    0  0.12045101880E+03 -0.19606262283E+01 -0.69858258258E+02  0.18289345581E+03  0.11856453073E+03 0.  0.
        -11    1    4    4    0    0  0.55849861038E+01 -0.42978116780E+02 -0.20418794387E+02  0.47908639682E+02  0.51100000000E-03 0. -1.
     200002    1    4    4    0    0  0.11486603269E+03  0.41017490551E+02 -0.49439463871E+02  0.13498481613E+03  0.30000000000E+02 0. -1.
     200000    1    3    3    0    0 -0.78712384430E+02  0.33384283706E+03 -0.24949221318E+03  0.65566229399E+03  0.50000000000E+03 0. -1.
    -200001    1    1    2    0    0 -0.41738634369E+02 -0.33188221083E+03 -0.98114417552E+03  0.12508124594E+04  0.70000000000E+03 0.  1.
<mgrwt>
<rscale>  0 0.16352899E+04</rscale>
<asrwt>0</asrwt>
<pdfrwt beam="1">  1        1 0.24213306E+00 0.16352899E+04</pdfrwt>
<pdfrwt beam="2">  1       -1 0.56348112E-01 0.16352899E+04</pdfrwt>
<totfact> 0.17775880E+01</totfact>
</mgrwt>
</event>
<event>
 8    1  0.2354930E-010  0.1630673E+04  0.7818608E-02  0.8801923E-01
         -1   -1    0    0    0  501 -0.00000000000E+00  0.00000000000E+00  0.24394463308E+03  0.24394463313E+03  0.50400000000E-02 0.  1.
          1   -1    0    0  501    0  0.00000000000E+00 -0.00000000000E+00 -0.27251011079E+04  0.27251011079E+04  0.50400000000E-02 0. -1.
     200001    2    1    2    0    0  0.97303755574E+01  0.34537387660E+03 -0.81120656213E+03  0.11256492819E+04  0.69975168770E+03 0.  0.
    5000001    2    3    3    0    0 -0.37817185280E+02  0.20140309609E+03 -0.15090134808E+03  0.28363305167E+03  0.12523236216E+03 0.  0.
        -11    1    4    4    0    0 -0.75223186739E+02  0.12635598484E+03 -0.68198462408E+02  0.16209686303E+03  0.51100000000E-03 0. -1.
     200002    1    4    4    0    0  0.37406001459E+02  0.75047111252E+02 -0.82702885672E+02  0.12153618865E+03  0.30000000000E+02 0. -1.
     200000    1    3    3    0    0  0.47547560838E+02  0.14397078051E+03 -0.66030521405E+03  0.84201623018E+03  0.50000000000E+03 0.  1.
    -200001    1    1    2    0    0 -0.97303755574E+01 -0.34537387660E+03 -0.16699499127E+04  0.18433964592E+04  0.70000000000E+03 0. -1.
<mgrwt>
<rscale>  0 0.16306732E+04</rscale>
<asrwt>0</asrwt>
<pdfrwt beam="1">  1        1 0.38930014E+00 0.16306732E+04</pdfrwt>
<pdfrwt beam="2">  1       -1 0.34849235E-01 0.16306732E+04</pdfrwt>
<totfact> 0.96926466E+00</totfact>
</mgrwt>
</event>
<event>
 8    1  0.2354930E-010  0.1792008E+04  0.7818608E-02  0.8710561E-01
          1   -1    0    0  501    0  0.00000000000E+00  0.00000000000E+00  0.11334739612E+04  0.11334739612E+04  0.50400000000E-02 0.  1.
         -1   -1    0    0    0  501 -0.00000000000E+00 -0.00000000000E+00 -0.70828529135E+03  0.70828529137E+03  0.50400000000E-02 0. -1.
     200001    2    1    2    0    0  0.21036827700E+03 -0.49820539880E+03  0.65406961444E+02  0.88682139645E+03  0.69979331752E+03 0.  0.
    5000001    2    3    3    0    0  0.24051320823E+02 -0.17991933690E+03  0.18398870664E+02  0.26374051410E+03  0.19044974800E+03 0.  0.
        -11    1    4    4    0    0 -0.52596558737E+02 -0.13099719704E+03  0.67120110340E+02  0.15630666280E+03  0.51100000000E-03 0. -1.
     200002    1    4    4    0    0  0.76647879560E+02 -0.48922139860E+02 -0.48721239676E+02  0.10743385130E+03  0.30000000000E+02 0. -1.
     200000    1    3    3    0    0  0.18631695617E+03 -0.31828606190E+03  0.47008090780E+02  0.62308088235E+03  0.50000000000E+03 0. -1.
    -200001    1    1    2    0    0 -0.21036827700E+03  0.49820539880E+03  0.35978170839E+03  0.95493785612E+03  0.70000000000E+03 0.  1.
<mgrwt>
<rscale>  0 0.17920077E+04</rscale>
<asrwt>0</asrwt>
<pdfrwt beam="1">  1        1 0.16192485E+00 0.17920077E+04</pdfrwt>
<pdfrwt beam="2">  1       -1 0.10118361E+00 0.17920077E+04</pdfrwt>
<totfact> 0.12115884E+01</totfact>
</mgrwt>
</event>
<event>
 8    1  0.2354930E-010  0.1424316E+04  0.7818608E-02  0.8936403E-01
          1   -1    0    0  501    0  0.00000000000E+00  0.00000000000E+00  0.20407494426E+04  0.20407494426E+04  0.50400000000E-02 0.  1.
         -1   -1    0    0    0  501 -0.00000000000E+00 -0.00000000000E+00 -0.24852110438E+03  0.24852110443E+03  0.50400000000E-02 0. -1.
     200001    2    1    2    0    0 -0.74644344575E+02 -0.93592853881E+02  0.93332239290E+03  0.11747972080E+04  0.70336789121E+03 0.  0.
    5000001    2    3    3    0    0 -0.26629655717E+02 -0.98566956944E+02  0.32903110241E+03  0.38898672462E+03  0.18062287234E+03 0.  0.
        -11    1    4    4    0    0 -0.71574895134E+02 -0.83296430001E+02  0.85823233964E+02  0.13938037291E+03  0.51100000000E-03 0. -1.
     200002    1    4    4    0    0  0.44945239417E+02 -0.15270526942E+02  0.24320786845E+03  0.24960635171E+03  0.30000000000E+02 0. -1.
     200000    1    3    3    0    0 -0.48014688858E+02  0.49741030623E+01  0.60429129048E+03  0.78581048339E+03  0.50000000000E+03 0.  1.
    -200001    1    1    2    0    0  0.74644344575E+02  0.93592853881E+02  0.85890594532E+03  0.11144733390E+04  0.70000000000E+03 0.  1.
<mgrwt>
<rscale>  0 0.14243164E+04</rscale>
<asrwt>0</asrwt>
<pdfrwt beam="1">  1        1 0.29153564E+00 0.14243164E+04</pdfrwt>
<pdfrwt beam="2">  1       -1 0.35503015E-01 0.14243164E+04</pdfrwt>
<totfact> 0.25887599E+01</totfact>
</mgrwt>
</event>
<event>
 8    1  0.2354930E-010  0.2839878E+04  0.7818608E-02  0.8290994E-01
          1   -1    0    0  501    0  0.00000000000E+00  0.00000000000E+00  0.19659864534E+04  0.19659864534E+04  0.50400000000E-02 0. -1.
         -1   -1    0    0    0  501 -0.00000000000E+00 -0.00000000000E+00 -0.10255544410E+04  0.10255544410E+04  0.50400000000E-02 0.  1.
     200001    2    1    2    0    0  0.34340501436E+03 -0.11766570918E+04  0.30779460330E+03  0.14447122009E+04  0.70000493583E+03 0.  0.
    5000001    2    3    3    0    0  0.39416770792E+02 -0.35456032327E+03  0.76820971793E+02  0.40953068667E+03  0.18586881654E+03 0.  0.
        -11    1    4    4    0    0 -0.49381457400E+02 -0.76553053383E+02 -0.32090521420E+02  0.96585194944E+02  0.51100000000E-03 0. -1.
     200002    1    4    4    0    0  0.88798228192E+02 -0.27800726988E+03  0.10891149321E+03  0.31294549173E+03  0.30000000000E+02 0. -1.
     200000    1    3    3    0    0  0.30398824356E+03 -0.82209676851E+03  0.23097363151E+03  0.10351815143E+04  0.50000000000E+03 0. -1.
    -200001    1    1    2    0    0 -0.34340501436E+03  0.11766570918E+04  0.63263740911E+03  0.15468286935E+04  0.70000000000E+03 0. -1.
<mgrwt>
<rscale>  0 0.28398776E+04</rscale>
<asrwt>0</asrwt>
<pdfrwt beam="1">  1        1 0.28085521E+00 0.28398776E+04</pdfrwt>
<pdfrwt beam="2">  1       -1 0.14650777E+00 0.28398776E+04</pdfrwt>
<totfact> 0.12642241E+00</totfact>
</mgrwt>
</event>
<event>
 8    1  0.2354930E-010  0.1502678E+04  0.7818608E-02  0.8882674E-01
          1   -1    0    0  501    0  0.00000000000E+00  0.00000000000E+00  0.80927355857E+03  0.80927355859E+03  0.50400000000E-02 0.  1.
         -1   -1    0    0    0  501 -0.00000000000E+00 -0.00000000000E+00 -0.69755224282E+03  0.69755224283E+03  0.50400000000E-02 0. -1.
     200001    2    1    2    0    0 -0.18285010591E+03  0.17998452790E+03 -0.61314089304E+02  0.74146977779E+03  0.69295701332E+03 0.  0.
    5000001    2    3    3    0    0 -0.76349856829E+02  0.63325243679E+02  0.44846848519E+02  0.20647273446E+03  0.17544333310E+03 0.  0.
        -11    1    4    4    0    0  0.36219218490E+02 -0.26162976740E+02  0.39239115554E+02  0.59464622504E+02  0.51100000000E-03 0. -1.
     200002    1    4    4    0    0 -0.11256907532E+03  0.89488220418E+02  0.56077329650E+01  0.14700811196E+03  0.30000000000E+02 0. -1.
     200000    1    3    3    0    0 -0.10650024908E+03  0.11665928422E+03 -0.10616093782E+03  0.53499704333E+03  0.50000000000E+03 0. -1.
    -200001    1    1    2    0    0  0.18285010591E+03 -0.17998452790E+03  0.17303540506E+03  0.76535602364E+03  0.70000000000E+03 0.  1.
<mgrwt>
<rscale>  0 0.15026784E+04</rscale>
<asrwt>0</asrwt>
<pdfrwt beam="1">  1        1 0.11561051E+00 0.15026784E+04</pdfrwt>
<pdfrwt beam="2">  1       -1 0.99650320E-01 0.15026784E+04</pdfrwt>
<totfact> 0.22757469E+01</totfact>
</mgrwt>
</event>
<event>
 8    1  0.2354930E-010  0.1964851E+04  0.7818608E-02  0.8623233E-01
         -1   -1    0    0    0  501 -0.00000000000E+00  0.00000000000E+00  0.46100993855E+03  0.46100993858E+03  0.50400000000E-02 0. -1.
          1   -1    0    0  501    0  0.00000000000E+00 -0.00000000000E+00 -0.20935765208E+04  0.20935765208E+04  0.50400000000E-02 0.  1.
     200001    2    1    2    0    0  0.64821839414E+03 -0.19020476521E+03 -0.63674265071E+03  0.11624549132E+04  0.69963939486E+03 0.  0.
    5000001    2    3    3    0    0  0.23956968495E+03 -0.13570570077E+02 -0.27188378005E+03  0.40001448807E+03  0.16885794767E+03 0.  0.
        -11    1    4    4    0    0 -0.16423130851E+02 -0.17480686706E+02 -0.65646830621E+02  0.69891344281E+02  0.51100000000E-03 0. -1.
     200002    1    4    4    0    0  0.25599281580E+03  0.39101166282E+01 -0.20623694943E+03  0.33012314379E+03  0.30000000000E+02 0. -1.
     200000    1    3    3    0    0  0.40864870919E+03 -0.17663419513E+03 -0.36485887066E+03  0.76244042515E+03  0.50000000000E+03 0. -1.
    -200001    1    1    2    0    0 -0.64821839414E+03  0.19020476521E+03 -0.99582393152E+03  0.13921315462E+04  0.70000000000E+03 0. -1.
<mgrwt>
<rscale>  0 0.19648507E+04</rscale>
<asrwt>0</asrwt>
<pdfrwt beam="1">  1        1 0.29908235E+00 0.19648507E+04</pdfrwt>
<pdfrwt beam="2">  1       -1 0.65858564E-01 0.19648507E+04</pdfrwt>
<totfact> 0.70964032E+00</totfact>
</mgrwt>
</event>
<event>
 8    1  0.2354930E-010  0.1902458E+04  0.7818608E-02  0.8653634E-01
          1   -1    0    0  501    0  0.00000000000E+00  0.00000000000E+00  0.79454267102E+03  0.79454267103E+03  0.50400000000E-02 0.  1.
         -1   -1    0    0    0  501 -0.00000000000E+00 -0.00000000000E+00 -0.11388139860E+04  0.11388139860E+04  0.50400000000E-02 0. -1.
     200001    2    1    2    0    0 -0.28751674917E+02  0.42827098137E+03 -0.66004391795E+03  0.10536095178E+04  0.70013737938E+03 0.  0.
    5000001    2    3    3    0    0 -0.50238314105E+02  0.23935147383E+03 -0.33766105761E+03  0.42904329659E+03  0.10124299627E+03 0.  0.
        -11    1    4    4    0    0 -0.50170903307E+02  0.13200529632E+03 -0.12345110059E+03  0.18757049883E+03  0.51100000000E-03 0. -1.
     200002    1    4    4    0    0 -0.67410797622E-01  0.10734617751E+03 -0.21420995702E+03  0.24147279776E+03  0.30000000000E+02 0. -1.
     200000    1    3    3    0    0  0.21486639188E+02  0.18891950754E+03 -0.32238286034E+03  0.62456622118E+03  0.50000000000E+03 0.  1.
    -200001    1    1    2    0    0  0.28751674917E+02 -0.42827098137E+03  0.31577260296E+03  0.87974713928E+03  0.70000000000E+03 0.  1.
<mgrwt>
<rscale>  0 0.19024577E+04</rscale>
<asrwt>0</asrwt>
<pdfrwt beam="1">  1        1 0.11350610E+00 0.19024577E+04</pdfrwt>
<pdfrwt beam="2">  1       -1 0.16268771E+00 0.19024577E+04</pdfrwt>
<totfact> 0.65825303E+00</totfact>
</mgrwt>
</event>
<event>
 8    1  0.2354930E-010  0.1868659E+04  0.7818608E-02  0.8670616E-01
          1   -1    0    0  501    0  0.00000000000E+00  0.00000000000E+00  0.20890187251E+04  0.20890187251E+04  0.50400000000E-02 0.  1.
         -1   -1    0    0    0  501 -0.00000000000E+00 -0.00000000000E+00 -0.41788617507E+03  0.41788617510E+03  0.50400000000E-02 0. -1.
     200001    2    1    2    0    0  0.60244423019E+02 -0.13175554873E+03  0.28508004045E+02  0.71547968150E+03  0.70007824793E+03 0.  0.
    5000001    2    3    3    0    0  0.72242884231E+02 -0.52508810170E+02  0.95420100884E+02  0.20469475871E+03  0.15753964302E+03 0.  0.
        -11    1    4    4    0    0 -0.40908706022E+02 -0.48700007690E+02  0.27401511873E+02  0.69253561862E+02  0.51100000000E-03 0. -1.
     200002    1    4    4    0    0  0.11315159025E+03 -0.38088024804E+01  0.68018589011E+02  0.13544119685E+03  0.30000000000E+02 0. -1.
     200000    1    3    3    0    0 -0.11998461212E+02 -0.79246738559E+02 -0.66912096839E+02  0.51078492279E+03  0.50000000000E+03 0. -1.
    -200001    1    1    2    0    0 -0.60244423019E+02  0.13175554873E+03  0.16426245460E+04  0.17914252187E+04  0.70000000000E+03 0.  1.
<mgrwt>
<rscale>  0 0.18686595E+04</rscale>
<asrwt>0</asrwt>
<pdfrwt beam="1">  1        1 0.29843125E+00 0.18686595E+04</pdfrwt>
<pdfrwt beam="2">  1       -1 0.59698024E-01 0.18686595E+04</pdfrwt>
<totfact> 0.87648075E+00</totfact>
</mgrwt>
</event>
<event>
 8    1  0.2354930E-010  0.1619332E+04  0.7818608E-02  0.8808759E-01
          1   -1    0    0  501    0  0.00000000000E+00  0.00000000000E+00  0.27314643768E+03  0.27314643773E+03  0.50400000000E-02 0. -1.
         -1   -1    0    0    0  501 -0.00000000000E+00 -0.00000000000E+00 -0.24000265085E+04  0.24000265085E+04  0.50400000000E-02 0.  1.
     200001    2    1    2    0    0  0.14709140978E+03 -0.24205926128E+03 -0.15451949984E+04  0.17199751219E+04  0.70032725796E+03 0.  0.
    5000001    2    3    3    0    0 -0.21723274711E+02 -0.24124350674E+02 -0.50999675954E+03  0.53776134403E+03  0.16744158215E+03 0.  0.
        -11    1    4    4    0    0 -0.67461957776E+01  0.53552782480E+02 -0.37198653714E+03  0.37588215638E+03  0.51100000000E-03 0. -1.
     200002    1    4    4    0    0 -0.14977078933E+02 -0.77677133154E+02 -0.13801022240E+03  0.16187918765E+03  0.30000000000E+02 0. -1.
     200000    1    3    3    0    0  0.16881468449E+03 -0.21793491060E+03 -0.10351982388E+04  0.11822137779E+04  0.50000000000E+03 0.  1.
    -200001    1    1    2    0    0 -0.14709140978E+03  0.24205926128E+03 -0.58168507249E+03  0.95319782436E+03  0.70000000000E+03 0. -1.
<mgrwt>
<rscale>  0 0.16193316E+04</rscale>
<asrwt>0</asrwt>
<pdfrwt beam="1">  1        1 0.39020921E-01 0.16193316E+04</pdfrwt>
<pdfrwt beam="2">  1       -1 0.34286092E+00 0.16193316E+04</pdfrwt>
<totfact> 0.18211592E+00</totfact>
</mgrwt>
</event>
<event>
 8    1  0.2354930E-010  0.1655985E+04  0.7818608E-02  0.8786874E-01
         -1   -1    0    0    0  501 -0.00000000000E+00  0.00000000000E+00  0.39587566873E+03  0.39587566876E+03  0.50400000000E-02 0. -1.
          1   -1    0    0  501    0  0.00000000000E+00 -0.00000000000E+00 -0.17317851429E+04  0.17317851429E+04  0.50400000000E-02 0.  1.
     200001    2    1    2    0    0 -0.21058787579E+03 -0.74572208657E+02 -0.17799749770E+03  0.75628616811E+03  0.70026951322E+03 0.  0.
    5000001    2    3    3    0    0 -0.99966836143E+02 -0.43373083847E+02 -0.13209370528E+03  0.24119631385E+03  0.16985971303E+03 0.  0.
        -11    1    4    4    0    0 -0.15874191257E+02 -0.96569932502E+02 -0.65431034602E+02  0.11772409312E+03  0.51100000000E-03 0. -1.
     200002    1    4    4    0    0 -0.84092644887E+02  0.53196848655E+02 -0.66662670673E+02  0.12347222073E+03  0.30000000000E+02 0. -1.
     200000    1    3    3    0    0 -0.11062103965E+03 -0.31199124810E+02 -0.45903792426E+02  0.51508985426E+03  0.50000000000E+03 0. -1.
    -200001    1    1    2    0    0  0.21058787579E+03  0.74572208657E+02 -0.11579119764E+04  0.13713746435E+04  0.70000000000E+03 0.  1.
<mgrwt>
<rscale>  0 0.16559850E+04</rscale>
<asrwt>0</asrwt>
<pdfrwt beam="1">  1        1 0.24739787E+00 0.16559850E+04</pdfrwt>
<pdfrwt beam="2">  1       -1 0.56553668E-01 0.16559850E+04</pdfrwt>
<totfact> 0.16691238E+01</totfact>
</mgrwt>
</event>
<event>
 8    1  0.2354930E-010  0.1497975E+04  0.7818608E-02  0.8885801E-01
         -1   -1    0    0    0  501 -0.00000000000E+00  0.00000000000E+00  0.52647866967E+03  0.52647866969E+03  0.50400000000E-02 0. -1.
          1   -1    0    0  501    0  0.00000000000E+00 -0.00000000000E+00 -0.10655362420E+04  0.10655362420E+04  0.50400000000E-02 0.  1.
     200001    2    1    2    0    0 -0.26429556327E+03 -0.48408082360E+02 -0.28237246191E+03  0.79949820327E+03  0.69804561640E+03 0.  0.
    5000001    2    3    3    0    0 -0.50199627565E+02 -0.47664115201E+02 -0.95400120738E+02  0.22434928382E+03  0.19089145510E+03 0.  0.
        -11    1    4    4    0    0 -0.54571706236E+02  0.42133660619E+02 -0.10862126696E+03  0.12865417255E+03  0.51100000000E-03 0. -1.
     200002    1    4    4    0    0  0.43720786706E+01 -0.89797775820E+02  0.13221146221E+02  0.95695111273E+02  0.30000000000E+02 0. -1.
     200000    1    3    3    0    0 -0.21409593571E+03 -0.74396715884E+00 -0.18697234117E+03  0.57514891944E+03  0.50000000000E+03 0.  1.
    -200001    1    1    2    0    0  0.26429556327E+03  0.48408082360E+02 -0.25668511039E+03  0.79251670840E+03  0.70000000000E+03 0.  1.
<mgrwt>
<rscale>  0 0.14979748E+04</rscale>
<asrwt>0</asrwt>
<pdfrwt beam="1">  1        1 0.15221946E+00 0.14979748E+04</pdfrwt>
<pdfrwt beam="2">  1       -1 0.75211238E-01 0.14979748E+04</pdfrwt>
<totfact> 0.26590989E+01</totfact>
</mgrwt>
</event>
<event>
 8    1  0.2354930E-010  0.1461562E+04  0.7818608E-02  0.8910424E-01
         -1   -1    0    0    0  501 -0.00000000000E+00  0.00000000000E+00  0.17622285923E+04  0.17622285923E+04  0.50400000000E-02 0. -1.
          1   -1    0    0  501    0  0.00000000000E+00 -0.00000000000E+00 -0.30304858997E+03  0.30304859001E+03  0.50400000000E-02 0.  1.
     200001    2    1    2    0    0  0.13505590652E+03  0.14255735499E+03  0.83060657046E+03  0.11042010893E+04  0.70056411079E+03 0.  0.
    5000001    2    3    3    0    0 -0.74366047485E+02  0.67267065504E+02  0.18333922549E+03  0.25656838676E+03  0.14885865229E+03 0.  0.
        -11    1    4    4    0    0 -0.27415744685E+02  0.56768717990E+02  0.18933560132E+03  0.19955520621E+03  0.51100000000E-03 0. -1.
     200002    1    4    4    0    0 -0.46950302800E+02  0.10498347515E+02 -0.59963758279E+01  0.57013180552E+02  0.30000000000E+02 0. -1.
     200000    1    3    3    0    0  0.20942195401E+03  0.75290289490E+02  0.64726734497E+03  0.84763270252E+03  0.50000000000E+03 0.  1.
    -200001    1    1    2    0    0 -0.13505590652E+03 -0.14255735499E+03  0.62857343185E+03  0.96107609302E+03  0.70000000000E+03 0. -1.
<mgrwt>
<rscale>  0 0.14615620E+04</rscale>
<asrwt>0</asrwt>
<pdfrwt beam="1">  1        1 0.43292656E-01 0.14615620E+04</pdfrwt>
<pdfrwt beam="2">  1       -1 0.25174694E+00 0.14615620E+04</pdfrwt>
<totfact> 0.62957817E+00</totfact>
</mgrwt>
</event>
<event>
 8    1  0.2354930E-010  0.1758580E+04  0.7818608E-02  0.8728642E-01
         -1   -1    0    0    0  501 -0.00000000000E+00  0.00000000000E+00  0.47283103997E+03  0.47283104000E+03  0.50400000000E-02 0.  1.
          1   -1    0    0  501    0  0.00000000000E+00 -0.00000000000E+00 -0.16351522185E+04  0.16351522185E+04  0.50400000000E-02 0. -1.
     200001    2    1    2    0    0 -0.30965560501E+03  0.35735821627E+03 -0.86981395731E+03  0.12140302604E+04  0.70263907113E+03 0.  0.
    5000001    2    3    3    0    0 -0.10059293793E+03  0.20616325953E+03 -0.31092042753E+03  0.42097976301E+03  0.16712336721E+03 0.  0.
        -11    1    4    4    0    0  0.26059427106E+02  0.41099061142E+02 -0.38027781313E+01  0.48812782031E+02  0.51100000000E-03 0. -1.
     200002    1    4    4    0    0 -0.12665236504E+03  0.16506419839E+03 -0.30711764940E+03  0.37216698098E+03  0.30000000000E+02 0. -1.
     200000    1    3    3    0    0 -0.20906266708E+03  0.15119495673E+03 -0.55889352979E+03  0.79305049735E+03  0.50000000000E+03 0.  1.
    -200001    1    1    2    0    0  0.30965560501E+03 -0.35735821627E+03 -0.29250722121E+03  0.89395299815E+03  0.70000000000E+03 0. -1.
<mgrwt>
<rscale>  0 0.17585798E+04</rscale>
<asrwt>0</asrwt>
<pdfrwt beam="1">  1        1 0.23359317E+00 0.17585798E+04</pdfrwt>
<pdfrwt beam="2">  1       -1 0.67547292E-01 0.17585798E+04</pdfrwt>
<totfact> 0.13392335E+01</totfact>
</mgrwt>
</event>
<event>
 8    1  0.2354930E-010  0.1896813E+04  0.7818608E-02  0.8656444E-01
         -1   -1    0    0    0  501 -0.00000000000E+00  0.00000000000E+00  0.45857888390E+03  0.45857888393E+03  0.50400000000E-02 0. -1.
          1   -1    0    0  501    0  0.00000000000E+00 -0.00000000000E+00 -0.19614394529E+04  0.19614394529E+04  0.50400000000E-02 0.  1.
     200001    2    1    2    0    0 -0.32717299884E+03  0.50518323744E+02 -0.52799478356E+02  0.77615963281E+03  0.70002979829E+03 0.  0.
    5000001    2    3    3    0    0 -0.11092591965E+03  0.44231279517E+02 -0.50802275948E+02  0.23136029820E+03  0.19153524637E+03 0.  0.
        -11    1    4    4    0    0 -0.14082764125E+03  0.38991885861E+02 -0.91481421314E+02  0.17239965821E+03  0.51100000000E-03 0. -1.
     200002    1    4    4    0    0  0.29901721598E+02  0.52393936553E+01  0.40679145366E+02  0.58960639991E+02  0.30000000000E+02 0. -1.
     200000    1    3    3    0    0 -0.21624707918E+03  0.62870442275E+01 -0.19972024083E+01  0.54479933461E+03  0.50000000000E+03 0. -1.
    -200001    1    1    2    0    0  0.32717299884E+03 -0.50518323744E+02 -0.14500610906E+04  0.16438587040E+04  0.70000000000E+03 0.  1.
<mgrwt>
<rscale>  0 0.18968128E+04</rscale>
<asrwt>0</asrwt>
<pdfrwt beam="1">  1        1 0.28020563E+00 0.18968128E+04</pdfrwt>
<pdfrwt beam="2">  1       -1 0.65511270E-01 0.18968128E+04</pdfrwt>
<totfact> 0.87385767E+00</totfact>
</mgrwt>
</event>
<event>
 8    1  0.2354930E-010  0.1741107E+04  0.7818608E-02  0.8738261E-01
         -1   -1    0    0    0  501 -0.00000000000E+00  0.00000000000E+00  0.45143072263E+03  0.45143072266E+03  0.50400000000E-02 0. -1.
          1   -1    0    0  501    0  0.00000000000E+00 -0.00000000000E+00 -0.16788027339E+04  0.16788027339E+04  0.50400000000E-02 0.  1.
     200001    2    1    2    0    0  0.60295654322E+01 -0.37801991401E+03 -0.10458988097E+04  0.13142261442E+04  0.70025040292E+03 0.  0.
    5000001    2    3    3    0    0  0.29101163098E+02 -0.10226676640E+03 -0.11277452825E+03  0.22001728764E+03  0.15615422964E+03 0.  0.
        -11    1    4    4    0    0 -0.24125515863E+02 -0.10086822588E+03 -0.11984974917E+03  0.15849416987E+03  0.51100000000E-03 0. -1.
     200002    1    4    4    0    0  0.53226678962E+02 -0.13985405285E+01  0.70752209176E+01  0.61523117768E+02  0.30000000000E+02 0. -1.
     200000    1    3    3    0    0 -0.23071597666E+02 -0.27575314761E+03 -0.93312428147E+03  0.10942088565E+04  0.50000000000E+03 0.  1.
    -200001    1    1    2    0    0 -0.60295654322E+01  0.37801991401E+03 -0.18147320158E+03  0.81600731243E+03  0.70000000000E+03 0. -1.
<mgrwt>
<rscale>  0 0.17411067E+04</rscale>
<asrwt>0</asrwt>
<pdfrwt beam="1">  1        1 0.23982896E+00 0.17411067E+04</pdfrwt>
<pdfrwt beam="2">  1       -1 0.64490104E-01 0.17411067E+04</pdfrwt>
<totfact> 0.13810459E+01</totfact>
</mgrwt>
</event>
<event>
 8    1  0.2354930E-010  0.1434555E+04  0.7818608E-02  0.8929179E-01
          1   -1    0    0  501    0  0.00000000000E+00  0.00000000000E+00  0.92795435522E+03  0.92795435524E+03  0.50400000000E-02 0.  1.
         -1   -1    0    0    0  501 -0.00000000000E+00 -0.00000000000E+00 -0.55443104299E+03  0.55443104302E+03  0.50400000000E-02 0. -1.
     200001    2    1    2    0    0 -0.11160283526E+03 -0.19147185723E+02  0.29372497618E+03  0.76881018708E+03  0.70140782329E+03 0.  0.
    5000001    2    3    3    0    0 -0.30763664581E+02  0.71933293799E+02  0.55577912579E+01  0.17900432773E+03  0.16090636558E+03 0.  0.
        -11    1    4    4    0    0 -0.38667707395E+02 -0.21405107121E+02  0.53655781868E+02  0.69514841108E+02  0.51100000000E-03 0. -1.
     200002    1    4    4    0    0  0.79040428143E+01  0.93338400920E+02 -0.48097990610E+02  0.10948948662E+03  0.30000000000E+02 0. -1.
     200000    1    3    3    0    0 -0.80839170680E+02 -0.91080479522E+02  0.28816718492E+03  0.58980585936E+03  0.50000000000E+03 0.  1.
    -200001    1    1    2    0    0  0.11160283526E+03  0.19147185723E+02  0.79798336050E+02  0.71357521117E+03  0.70000000000E+03 0. -1.
<mgrwt>
<rscale>  0 0.14345546E+04</rscale>
<asrwt>0</asrwt>
<pdfrwt beam="1">  1        1 0.13256491E+00 0.14345546E+04</pdfrwt>
<pdfrwt beam="2">  1       -1 0.79204436E-01 0.14345546E+04</pdfrwt>
<totfact> 0.30415908E+01</totfact>
</mgrwt>
</event>
<event>
 8    1  0.2354930E-010  0.1973703E+04  0.7818608E-02  0.8619015E-01
         -1   -1    0    0    0  501 -0.00000000000E+00  0.00000000000E+00  0.37139404340E+03  0.37139404344E+03  0.50400000000E-02 0. -1.
          1   -1    0    0  501    0  0.00000000000E+00 -0.00000000000E+00 -0.26222173273E+04  0.26222173273E+04  0.50400000000E-02 0.  1.
     200001    2    1    2    0    0 -0.54498291754E+03  0.43106518959E+03 -0.10767902244E+04  0.14602564859E+04  0.70003445567E+03 0.  0.
    5000001    2    3    3    0    0 -0.23287482404E+03  0.97065120143E+02 -0.44002983861E+03  0.53050851072E+03  0.15543712509E+03 0.  0.
        -11    1    4    4    0    0 -0.24613956318E+03  0.92247181695E+02 -0.39817575181E+03  0.47711440601E+03  0.51100000000E-03 0. -1.
     200002    1    4    4    0    0  0.13264739143E+02  0.48179384477E+01 -0.41854086799E+02  0.53394104704E+02  0.30000000000E+02 0. -1.
     200000    1    3    3    0    0 -0.31210809351E+03  0.33400006944E+03 -0.63676038576E+03  0.92974797515E+03  0.50000000000E+03 0. -1.
    -200001    1    1    2    0    0  0.54498291754E+03 -0.43106518959E+03 -0.11740330595E+04  0.15333548848E+04  0.70000000000E+03 0.  1.
<mgrwt>
<rscale>  0 0.19737030E+04</rscale>
<asrwt>0</asrwt>
<pdfrwt beam="1">  1        1 0.37460246E+00 0.19737030E+04</pdfrwt>
<pdfrwt beam="2">  1       -1 0.53056294E-01 0.19737030E+04</pdfrwt>
<totfact> 0.50236303E+00</totfact>
</mgrwt>
</event>
<event>
 8    1  0.2354930E-010  0.1448495E+04  0.7818608E-02  0.8919445E-01
         -1   -1    0    0    0  501 -0.00000000000E+00  0.00000000000E+00  0.40729051950E+03  0.40729051953E+03  0.50400000000E-02 0. -1.
          1   -1    0    0  501    0  0.00000000000E+00 -0.00000000000E+00 -0.12878622565E+04  0.12878622566E+04  0.50400000000E-02 0.  1.
     200001    2    1    2    0    0 -0.33490781584E+02 -0.16367827434E+03 -0.53312274655E+03  0.89600760096E+03  0.70049807147E+03 0.  0.
    5000001    2    3    3    0    0 -0.48136521008E+02 -0.10744933854E+03 -0.18665242627E+03  0.28492833135E+03  0.18022913407E+03 0.  0.
        -11    1    4    4    0    0 -0.59508718906E+02 -0.14724357808E+03 -0.16617952990E+03  0.22986429707E+03  0.51100000000E-03 0. -1.
     200002    1    4    4    0    0  0.11372197898E+02  0.39794239535E+02 -0.20472896365E+02  0.55064034276E+02  0.30000000000E+02 0. -1.
     200000    1    3    3    0    0  0.14645739424E+02 -0.56228935801E+02 -0.34647032028E+03  0.61107926960E+03  0.50000000000E+03 0.  1.
    -200001    1    1    2    0    0  0.33490781584E+02  0.16367827434E+03 -0.34744899049E+03  0.79914517513E+03  0.70000000000E+03 0.  1.
<mgrwt>
<rscale>  0 0.14484945E+04</rscale>
<asrwt>0</asrwt>
<pdfrwt beam="1">  1        1 0.18398032E+00 0.14484945E+04</pdfrwt>
<pdfrwt beam="2">  1       -1 0.58184361E-01 0.14484945E+04</pdfrwt>
<totfact> 0.31338925E+01</totfact>
</mgrwt>
</event>
<event>
 8    1  0.2354930E-010  0.2803177E+04  0.7818608E-02  0.8302283E-01
          1   -1    0    0  501    0  0.00000000000E+00  0.00000000000E+00  0.28862091655E+04  0.28862091655E+04  0.50400000000E-02 0.  1.
         -1   -1    0    0    0  501 -0.00000000000E+00 -0.00000000000E+00 -0.68063337711E+03  0.68063337713E+03  0.50400000000E-02 0. -1.
     200001    2    1    2    0    0 -0.10386259200E+04  0.50759649087E+03  0.62995958210E+03  0.14910380170E+04  0.69996235169E+03 0.  0.
    5000001    2    3    3    0    0 -0.36752877308E+03  0.60491259642E+02  0.16251507470E+03  0.43331459572E+03  0.15037884766E+03 0.  0.
        -11    1    4    4    0    0 -0.30707438809E+03 -0.46786306438E+01  0.13558384847E+03  0.33570753547E+03  0.51100000000E-03 0. -1.
     200002    1    4    4    0    0 -0.60454384992E+02  0.65169890286E+02  0.26931226224E+02  0.97607060250E+02  0.30000000000E+02 0. -1.
     200000    1    3    3    0    0 -0.67109714690E+03  0.44710523123E+03  0.46744450741E+03  0.10577234213E+04  0.50000000000E+03 0. -1.
    -200001    1    1    2    0    0  0.10386259200E+04 -0.50759649087E+03  0.15756162063E+04  0.20758045257E+04  0.70000000000E+03 0.  1.
<mgrwt>
<rscale>  0 0.28031770E+04</rscale>
<asrwt>0</asrwt>
<pdfrwt beam="1">  1        1 0.41231559E+00 0.28031770E+04</pdfrwt>
<pdfrwt beam="2">  1       -1 0.97233340E-01 0.28031770E+04</pdfrwt>
<totfact> 0.89651497E-01</totfact>
</mgrwt>
</event>
<event>
 8    1  0.2354930E-010  0.1754523E+04  0.7818608E-02  0.8730865E-01
         -1   -1    0    0    0  501 -0.00000000000E+00  0.00000000000E+00  0.42484177819E+03  0.42484177822E+03  0.50400000000E-02 0. -1.
          1   -1    0    0  501    0  0.00000000000E+00 -0.00000000000E+00 -0.18114689863E+04  0.18114689863E+04  0.50400000000E-02 0.  1.
     200001    2    1    2    0    0  0.75890376556E+01 -0.24659166558E+03 -0.12894774582E+04  0.14877767860E+04  0.69990185515E+03 0.  0.
    5000001    2    3    3    0    0 -0.10417402371E+02 -0.63171224478E+02 -0.50156844851E+03  0.53658390463E+03  0.17958912075E+03 0.  0.
        -11    1    4    4    0    0  0.14763953898E+02  0.29631388743E+02 -0.96862117020E+01  0.34493712919E+02  0.51100000000E-03 0. -1.
     200002    1    4    4    0    0 -0.25181356269E+02 -0.92802613222E+02 -0.49188223680E+03  0.50209019171E+03  0.30000000000E+02 0. -1.
     200000    1    3    3    0    0  0.18006440027E+02 -0.18342044110E+03 -0.78790900969E+03  0.95119288141E+03  0.50000000000E+03 0.  1.
    -200001    1    1    2    0    0 -0.75890376556E+01  0.24659166558E+03 -0.97149749895E+02  0.74853397847E+03  0.70000000000E+03 0. -1.
<mgrwt>
<rscale>  0 0.17545230E+04</rscale>
<asrwt>0</asrwt>
<pdfrwt beam="1">  1        1 0.25878128E+00 0.17545230E+04</pdfrwt>
<pdfrwt beam="2">  1       -1 0.60691683E-01 0.17545230E+04</pdfrwt>
<totfact> 0.12820695E+01</totfact>
</mgrwt>
</event>
<event>
 8    1  0.2354930E-010  0.1998624E+04  0.7818608E-02  0.8607264E-01
         -1   -1    0    0    0  501 -0.00000000000E+00  0.00000000000E+00  0.77933016441E+03  0.77933016443E+03  0.50400000000E-02 0.  1.
          1   -1    0    0  501    0  0.00000000000E+00 -0.00000000000E+00 -0.12813880879E+04  0.12813880880E+04  0.50400000000E-02 0. -1.
     200001    2    1    2    0    0  0.46798430075E+03  0.52994063912E+03 -0.35066886195E+03  0.10543559743E+04  0.69917914950E+03 0.  0.
    5000001    2    3    3    0    0  0.16516165202E+03  0.30374706918E+03 -0.81666266098E+02  0.37228011033E+03  0.11127644940E+03 0.  0.
        -11    1    4    4    0    0  0.31475728109E+02  0.10671212215E+02  0.12222184869E+02  0.35411552258E+02  0.51100000000E-03 0. -1.
     200002    1    4    4    0    0  0.13368592391E+03  0.29307585697E+03 -0.93888450967E+02  0.33686855807E+03  0.30000000000E+02 0. -1.
     200000    1    3    3    0    0  0.30282264873E+03  0.22619356994E+03 -0.26900259585E+03  0.68207586399E+03  0.50000000000E+03 0. -1.
    -200001    1    1    2    0    0 -0.46798430075E+03 -0.52994063912E+03 -0.15138906159E+03  0.10063622781E+04  0.70000000000E+03 0.  1.
<mgrwt>
<rscale>  0 0.19986239E+04</rscale>
<asrwt>0</asrwt>
<pdfrwt beam="1">  1        1 0.18305544E+00 0.19986239E+04</pdfrwt>
<pdfrwt beam="2">  1       -1 0.11133288E+00 0.19986239E+04</pdfrwt>
<totfact> 0.75140309E+00</totfact>
</mgrwt>
</event>
<event>
 8    1  0.2354930E-010  0.3190052E+04  0.7818608E-02  0.8191449E-01
         -1   -1    0    0    0  501 -0.00000000000E+00  0.00000000000E+00  0.11634026871E+04  0.11634026871E+04  0.50400000000E-02 0. -1.
          1   -1    0    0  501    0  0.00000000000E+00 -0.00000000000E+00 -0.21867822744E+04  0.21867822744E+04  0.50400000000E-02 0.  1.
     200001    2    1    2    0    0 -0.42037126049E+03  0.13109545711E+04 -0.92601626818E+03  0.18026729260E+04  0.70484726355E+03 0.  0.
    5000001    2    3    3    0    0 -0.12849131594E+03  0.29558360351E+03 -0.16512142960E+03  0.40799265463E+03  0.18791815982E+03 0.  0.
        -11    1    4    4    0    0 -0.13374618471E+03  0.20331139684E+03 -0.18876737828E+03  0.30798813145E+03  0.51100000000E-03 0. -1.
     200002    1    4    4    0    0  0.52548687778E+01  0.92272206664E+02  0.23645948677E+02  0.10000452318E+03  0.30000000000E+02 0. -1.
     200000    1    3    3    0    0 -0.29187994455E+03  0.10153709676E+04 -0.76089483858E+03  0.13946802713E+04  0.50000000000E+03 0.  1.
    -200001    1    1    2    0    0  0.42037126049E+03 -0.13109545711E+04 -0.97363319069E+02  0.15475120355E+04  0.70000000000E+03 0. -1.
<mgrwt>
<rscale>  0 0.31900523E+04</rscale>
<asrwt>0</asrwt>
<pdfrwt beam="1">  1        1 0.31239747E+00 0.31900523E+04</pdfrwt>
<pdfrwt beam="2">  1       -1 0.16620038E+00 0.31900523E+04</pdfrwt>
<totfact> 0.62964128E-01</totfact>
</mgrwt>
</event>
<event>
 8    1  0.2354930E-010  0.1536249E+04  0.7818608E-02  0.8860699E-01
          1   -1    0    0  501    0  0.00000000000E+00  0.00000000000E+00  0.97615097205E+03  0.97615097206E+03  0.50400000000E-02 0.  1.
         -1   -1    0    0    0  501 -0.00000000000E+00 -0.00000000000E+00 -0.60443042520E+03  0.60443042522E+03  0.50400000000E-02 0. -1.
     200001    2    1    2    0    0 -0.28535717292E+03 -0.11863780954E+03  0.11664725657E+03  0.77400466231E+03  0.69998070604E+03 0.  0.
    5000001    2    3    3    0    0 -0.12958750686E+03 -0.41432510519E+02  0.72768277143E+02  0.24282652656E+03  0.18750979969E+03 0.  0.
        -11    1    4    4    0    0 -0.94556154897E+02 -0.72445653608E+02  0.12059223131E+03  0.16950435218E+03  0.51100000000E-03 0. -1.
     200002    1    4    4    0    0 -0.35031351963E+02  0.31013143089E+02 -0.47823954163E+02  0.73322174384E+02  0.30000000000E+02 0. -1.
     200000    1    3    3    0    0 -0.15576966606E+03 -0.77205299017E+02  0.43878979424E+02  0.53117813575E+03  0.50000000000E+03 0. -1.
    -200001    1    1    2    0    0  0.28535717292E+03  0.11863780954E+03  0.25507329029E+03  0.80657673498E+03  0.70000000000E+03 0. -1.
<mgrwt>
<rscale>  0 0.15362491E+04</rscale>
<asrwt>0</asrwt>
<pdfrwt beam="1">  1        1 0.13945014E+00 0.15362491E+04</pdfrwt>
<pdfrwt beam="2">  1       -1 0.86347204E-01 0.15362491E+04</pdfrwt>
<totfact> 0.23008117E+01</totfact>
</mgrwt>
</event>
<event>
 8    1  0.2354930E-010  0.1941705E+04  0.7818608E-02  0.8634371E-01
         -1   -1    0    0    0  501 -0.00000000000E+00  0.00000000000E+00  0.62195081941E+03  0.62195081943E+03  0.50400000000E-02 0.  1.
          1   -1    0    0  501    0  0.00000000000E+00 -0.00000000000E+00 -0.15154804504E+04  0.15154804504E+04  0.50400000000E-02 0. -1.
     200001    2    1    2    0    0 -0.16359963292E+03  0.34031256800E+03 -0.10595405109E+04  0.13249430569E+04  0.70019320632E+03 0.  0.
    5000001    2    3    3    0    0 -0.94563015655E+02  0.10002878642E+03 -0.48975652023E+03  0.52672244447E+03  0.13648136267E+03 0.  0.
        -11    1    4    4    0    0 -0.10747872153E+03  0.34728515583E+02 -0.36600884251E+03  0.38304075263E+03  0.51100000000E-03 0. -1.
     200002    1    4    4    0    0  0.12915705874E+02  0.65300270836E+02 -0.12374767772E+03  0.14368169184E+03  0.30000000000E+02 0. -1.
     200000    1    3    3    0    0 -0.69036617260E+02  0.24028378158E+03 -0.56978399062E+03  0.79822061247E+03  0.50000000000E+03 0. -1.
    -200001    1    1    2    0    0  0.16359963292E+03 -0.34031256800E+03  0.16601087987E+03  0.81248821288E+03  0.70000000000E+03 0.  1.
<mgrwt>
<rscale>  0 0.19417047E+04</rscale>
<asrwt>0</asrwt>
<pdfrwt beam="1">  1        1 0.21649721E+00 0.19417047E+04</pdfrwt>
<pdfrwt beam="2">  1       -1 0.88850118E-01 0.19417047E+04</pdfrwt>
<totfact> 0.88328727E+00</totfact>
</mgrwt>
</event>
<event>
 8    1  0.2354930E-010  0.2201504E+04  0.7818608E-02  0.8517803E-01
         -1   -1    0    0    0  501 -0.00000000000E+00  0.00000000000E+00  0.55603301553E+03  0.55603301556E+03  0.50400000000E-02 0. -1.
          1   -1    0    0  501    0  0.00000000000E+00 -0.00000000000E+00 -0.21791052106E+04  0.21791052106E+04  0.50400000000E-02 0.  1.
     200001    2    1    2    0    0 -0.10213251798E+03  0.34652102818E+03 -0.17668899493E+04  0.19343939345E+04  0.69962270312E+03 0.  0.
    5000001    2    3    3    0    0 -0.10033897779E+03  0.10587690591E+03 -0.50453531935E+03  0.55546245611E+03  0.18084474558E+03 0.  0.
        -11    1    4    4    0    0 -0.33329114134E+01  0.14681493321E+02 -0.34577433449E+03  0.34610192854E+03  0.51100000000E-03 0. -1.
     200002    1    4    4    0    0 -0.97006066372E+02  0.91195412591E+02 -0.15876098486E+03  0.20936052757E+03  0.30000000000E+02 0. -1.
     200000    1    3    3    0    0 -0.17935401913E+01  0.24064412227E+03 -0.12623546299E+04  0.13789314784E+04  0.50000000000E+03 0.  1.
    -200001    1    1    2    0    0  0.10213251798E+03 -0.34652102818E+03  0.14381775422E+03  0.80074429166E+03  0.70000000000E+03 0. -1.
<mgrwt>
<rscale>  0 0.22015035E+04</rscale>
<asrwt>0</asrwt>
<pdfrwt beam="1">  1        1 0.31130074E+00 0.22015035E+04</pdfrwt>
<pdfrwt beam="2">  1       -1 0.79433289E-01 0.22015035E+04</pdfrwt>
<totfact> 0.41653598E+00</totfact>
</mgrwt>
</event>
<event>
 8    1  0.2354930E-010  0.2500789E+04  0.7818608E-02  0.8402704E-01
          1   -1    0    0  501    0  0.00000000000E+00  0.00000000000E+00  0.43859543755E+04  0.43859543755E+04  0.50400000000E-02 0.  1.
         -1   -1    0    0    0  501 -0.00000000000E+00 -0.00000000000E+00 -0.35647587588E+03  0.35647587591E+03  0.50400000000E-02 0. -1.
     200001    2    1    2    0    0 -0.77208220951E+03  0.48527198806E+03  0.10847253907E+04  0.15812325807E+04  0.70147520304E+03 0.  0.
    5000001    2    3    3    0    0 -0.27762705879E+03  0.73180366689E+02  0.22287707088E+03  0.39502520979E+03  0.15472096757E+03 0.  0.
        -11    1    4    4    0    0 -0.48874362246E+02  0.67182925570E+02  0.11072684641E+03  0.13842934403E+03  0.51100000000E-03 0. -1.
     200002    1    4    4    0    0 -0.22875269654E+03  0.59974411189E+01  0.11215022446E+03  0.25659586575E+03  0.30000000000E+02 0. -1.
     200000    1    3    3    0    0 -0.49445515073E+03  0.41209162138E+03  0.86184831980E+03  0.11862073709E+04  0.50000000000E+03 0.  1.
    -200001    1    1    2    0    0  0.77208220951E+03 -0.48527198806E+03  0.29447531090E+04  0.31611976707E+04  0.70000000000E+03 0.  1.
<mgrwt>
<rscale>  0 0.25007894E+04</rscale>
<asrwt>0</asrwt>
<pdfrwt beam="1">  1        1 0.62656492E+00 0.25007894E+04</pdfrwt>
<pdfrwt beam="2">  1       -1 0.50925124E-01 0.25007894E+04</pdfrwt>
<totfact> 0.28672070E-01</totfact>
</mgrwt>
</event>
<event>
 8    1  0.2354930E-010  0.1677065E+04  0.7818608E-02  0.8774554E-01
         -1   -1    0    0    0  501 -0.00000000000E+00  0.00000000000E+00  0.35615210296E+03  0.35615210299E+03  0.50400000000E-02 0.  1.
          1   -1    0    0  501    0  0.00000000000E+00 -0.00000000000E+00 -0.19742595907E+04  0.19742595907E+04  0.50400000000E-02 0. -1.
     200001    2    1    2    0    0 -0.15127858082E+03 -0.41478020194E+03 -0.62146070658E+03  0.10349455107E+04  0.69997926778E+03 0.  0.
    5000001    2    3    3    0    0 -0.52921792593E+02  0.16931259973E+02 -0.11909359457E+03  0.19922931521E+03  0.14973861252E+03 0.  0.
        -11    1    4    4    0    0  0.37396791578E+02 -0.15559923133E+02 -0.83050311778E+02  0.92401220311E+02  0.51100000000E-03 0. -1.
     200002    1    4    4    0    0 -0.90318584172E+02  0.32491183107E+02 -0.36043282790E+02  0.10682809490E+03  0.30000000000E+02 0. -1.
     200000    1    3    3    0    0 -0.98356788229E+02 -0.43171146191E+03 -0.50236711201E+03  0.83571619546E+03  0.50000000000E+03 0.  1.
    -200001    1    1    2    0    0  0.15127858082E+03  0.41478020194E+03 -0.99664678116E+03  0.12954661830E+04  0.70000000000E+03 0.  1.
<mgrwt>
<rscale>  0 0.16770649E+04</rscale>
<asrwt>0</asrwt>
<pdfrwt beam="1">  1        1 0.28203708E+00 0.16770649E+04</pdfrwt>
<pdfrwt beam="2">  1       -1 0.50878873E-01 0.16770649E+04</pdfrwt>
<totfact> 0.14350767E+01</totfact>
</mgrwt>
</event>
<event>
 8    1  0.2354930E-010  0.1423344E+04  0.7818608E-02  0.8937092E-01
         -1   -1    0    0    0  501 -0.00000000000E+00  0.00000000000E+00  0.67001032637E+03  0.67001032638E+03  0.50400000000E-02 0.  1.
          1   -1    0    0  501    0  0.00000000000E+00 -0.00000000000E+00 -0.75592441183E+03  0.75592441185E+03  0.50400000000E-02 0. -1.
     200001    2    1    2    0    0  0.66698615165E+02 -0.24488928998E+02  0.62817694108E+02  0.70678972145E+03  0.70039791172E+03 0.  0.
    5000001    2    3    3    0    0  0.98002299335E+02 -0.10320572383E+02  0.39079850480E+02  0.20504860474E+03  0.17551846257E+03 0.  0.
        -11    1    4    4    0    0  0.23264686950E+02 -0.10696482135E+02 -0.67078162521E+02  0.71799305543E+02  0.51100000000E-03 0. -1.
     200002    1    4    4    0    0  0.74737612384E+02  0.37590975179E+00  0.10615801300E+03  0.13324929920E+03  0.30000000000E+02 0. -1.
     200000    1    3    3    0    0 -0.31303684169E+02 -0.14168356615E+02  0.23737843628E+02  0.50174111670E+03  0.50000000000E+03 0.  1.
    -200001    1    1    2    0    0 -0.66698615165E+02  0.24488928998E+02 -0.14873177957E+03  0.71914501678E+03  0.70000000000E+03 0. -1.
<mgrwt>
<rscale>  0 0.14233442E+04</rscale>
<asrwt>0</asrwt>
<pdfrwt beam="1">  1        1 0.10798920E+00 0.14233442E+04</pdfrwt>
<pdfrwt beam="2">  1       -1 0.95715762E-01 0.14233442E+04</pdfrwt>
<totfact> 0.27874668E+01</totfact>
</mgrwt>
</event>
<event>
 8    1  0.2354930E-010  0.1428320E+04  0.7818608E-02  0.8933570E-01
         -1   -1    0    0    0  501 -0.00000000000E+00  0.00000000000E+00  0.64424082743E+03  0.64424082745E+03  0.50400000000E-02 0. -1.
          1   -1    0    0  501    0  0.00000000000E+00 -0.00000000000E+00 -0.79166796061E+03  0.79166796063E+03  0.50400000000E-02 0.  1.
     200001    2    1    2    0    0 -0.52256381690E+02 -0.12327773165E+03 -0.11894099731E+03  0.72264895570E+03  0.70010458061E+03 0.  0.
    5000001    2    3    3    0    0 -0.11485142983E+02 -0.11007974212E+02 -0.11157192918E+03  0.20852728187E+03  0.17544870446E+03 0.  0.
        -11    1    4    4    0    0  0.31017157710E+02  0.50717654331E+02 -0.11311650951E+03  0.12778767256E+03  0.51100000000E-03 0. -1.
     200002    1    4    4    0    0 -0.42502300693E+02 -0.61725628543E+02  0.15445803267E+01  0.80739609310E+02  0.30000000000E+02 0. -1.
     200000    1    3    3    0    0 -0.40771238707E+02 -0.11226975744E+03 -0.73690681256E+01  0.51412167383E+03  0.50000000000E+03 0.  1.
    -200001    1    1    2    0    0  0.52256381690E+02  0.12327773165E+03 -0.28486135878E+02  0.71325983238E+03  0.70000000000E+03 0.  1.
<mgrwt>
<rscale>  0 0.14283204E+04</rscale>
<asrwt>0</asrwt>
<pdfrwt beam="1">  1        1 0.11309542E+00 0.14283204E+04</pdfrwt>
<pdfrwt beam="2">  1       -1 0.92034405E-01 0.14283204E+04</pdfrwt>
<totfact> 0.28336152E+01</totfact>
</mgrwt>
</event>
<event>
 8    1  0.2354930E-010  0.1766410E+04  0.7818608E-02  0.8724369E-01
          1   -1    0    0  501    0  0.00000000000E+00  0.00000000000E+00  0.10047589190E+04  0.10047589190E+04  0.50400000000E-02 0.  1.
         -1   -1    0    0    0  501 -0.00000000000E+00 -0.00000000000E+00 -0.77635673427E+03  0.77635673429E+03  0.50400000000E-02 0. -1.
     200001    2    1    2    0    0  0.39561633694E+03  0.57540234460E+02  0.47793261768E+03  0.93726222900E+03  0.70015550717E+03 0.  0.
    5000001    2    3    3    0    0  0.11383886713E+03 -0.47372669290E+02  0.10506388075E+03  0.24484880130E+03  0.18360026960E+03 0.  0.
        -11    1    4    4    0    0  0.12031301556E+03 -0.31344750246E+02 -0.99594241038E+01  0.12472732343E+03  0.51100000000E-03 0. -1.
     200002    1    4    4    0    0 -0.64741484383E+01 -0.16027919044E+02  0.11502330485E+03  0.12012147787E+03  0.30000000000E+02 0. -1.
     200000    1    3    3    0    0  0.28177746982E+03  0.10491290375E+03  0.37286873693E+03  0.69241342769E+03  0.50000000000E+03 0.  1.
    -200001    1    1    2    0    0 -0.39561633694E+03 -0.57540234460E+02 -0.24953043300E+03  0.84385342426E+03  0.70000000000E+03 0. -1.
<mgrwt>
<rscale>  0 0.17664103E+04</rscale>
<asrwt>0</asrwt>
<pdfrwt beam="1">  1        1 0.14353699E+00 0.17664103E+04</pdfrwt>
<pdfrwt beam="2">  1       -1 0.11090811E+00 0.17664103E+04</pdfrwt>
<totfact> 0.12161981E+01</totfact>
</mgrwt>
</event>
<event>
 8    1  0.2354930E-010  0.2494629E+04  0.7818608E-02  0.8404902E-01
         -1   -1    0    0    0  501 -0.00000000000E+00  0.00000000000E+00  0.12671987187E+04  0.12671987187E+04  0.50400000000E-02 0. -1.
          1   -1    0    0  501    0  0.00000000000E+00 -0.00000000000E+00 -0.12277418762E+04  0.12277418762E+04  0.50400000000E-02 0.  1.
     200001    2    1    2    0    0  0.87927998205E+03 -0.12619210164E+03  0.54482143961E+03  0.12562109596E+04  0.70155387575E+03 0.  0.
    5000001    2    3    3    0    0  0.27159068220E+03  0.16340646280E+02  0.24273898678E+03  0.40130998422E+03  0.16762748090E+03 0.  0.
        -11    1    4    4    0    0  0.83261421546E+02  0.82500442880E+02  0.10017361322E+03  0.15418670559E+03  0.51100000000E-03 0. -1.
     200002    1    4    4    0    0  0.18832926066E+03 -0.66159796600E+02  0.14256537356E+03  0.24712327863E+03  0.30000000000E+02 0. -1.
     200000    1    3    3    0    0  0.60768929985E+03 -0.14253274792E+03  0.30208245283E+03  0.85490097537E+03  0.50000000000E+03 0. -1.
    -200001    1    1    2    0    0 -0.87927998205E+03  0.12619210164E+03 -0.50536459711E+03  0.12387296353E+04  0.70000000000E+03 0.  1.
<mgrwt>
<rscale>  0 0.24946286E+04</rscale>
<asrwt>0</asrwt>
<pdfrwt beam="1">  1        1 0.17539170E+00 0.24946286E+04</pdfrwt>
<pdfrwt beam="2">  1       -1 0.18102839E+00 0.24946286E+04</pdfrwt>
<totfact> 0.21654184E+00</totfact>
</mgrwt>
</event>
<event>
 8    1  0.2354930E-010  0.1822821E+04  0.7818608E-02  0.8694257E-01
         -1   -1    0    0    0  501 -0.00000000000E+00  0.00000000000E+00  0.75800171974E+03  0.75800171975E+03  0.50400000000E-02 0. -1.
          1   -1    0    0  501    0  0.00000000000E+00 -0.00000000000E+00 -0.10958666343E+04  0.10958666343E+04  0.50400000000E-02 0.  1.
     200001    2    1    2    0    0 -0.47333761859E+03 -0.19373976685E+03 -0.45600487759E+03  0.97891655575E+03  0.69910913047E+03 0.  0.
    5000001    2    3    3    0    0 -0.83358210807E+02 -0.46792892184E+02 -0.20764608594E+03  0.28223914700E+03  0.16554115207E+03 0.  0.
        -11    1    4    4    0    0 -0.11634919495E+03 -0.74633042816E+02 -0.15801943983E+03  0.20994611120E+03  0.51100000000E-03 0. -1.
     200002    1    4    4    0    0  0.32990984139E+02  0.27840150631E+02 -0.49626646108E+02  0.72293035803E+02  0.30000000000E+02 0. -1.
     200000    1    3    3    0    0 -0.38997940778E+03 -0.14694687466E+03 -0.24835879165E+03  0.69667740875E+03  0.50000000000E+03 0.  1.
    -200001    1    1    2    0    0  0.47333761859E+03  0.19373976685E+03  0.11813996307E+03  0.87495179827E+03  0.70000000000E+03 0. -1.
<mgrwt>
<rscale>  0 0.18228207E+04</rscale>
<asrwt>0</asrwt>
<pdfrwt beam="1">  1        1 0.15655238E+00 0.18228207E+04</pdfrwt>
<pdfrwt beam="2">  1       -1 0.10828596E+00 0.18228207E+04</pdfrwt>
<totfact> 0.10979603E+01</totfact>
</mgrwt>
</event>
<event>
 8    1  0.2354930E-010  0.2058222E+04  0.7818608E-02  0.8579874E-01
          1   -1    0    0  501    0  0.00000000000E+00  0.00000000000E+00  0.17794802323E+04  0.17794802323E+04  0.50400000000E-02 0.  1.
         -1   -1    0    0    0  501 -0.00000000000E+00 -0.00000000000E+00 -0.59515635573E+03  0.59515635575E+03  0.50400000000E-02 0. -1.
     200001    2    1    2    0    0  0.23105693768E+03 -0.66544563560E+03  0.27756054778E+03  0.10298596784E+04  0.69811596246E+03 0.  0.
    5000001    2    3    3    0    0  0.47204798071E+02 -0.27003827093E+03  0.70448113071E+02  0.33484589872E+03  0.17891304740E+03 0.  0.
        -11    1    4    4    0    0  0.33611375402E+02 -0.19640290175E+02 -0.42979641255E+02  0.57988922367E+02  0.51100000000E-03 0. -1.
     200002    1    4    4    0    0  0.13593422669E+02 -0.25039798075E+03  0.11342775433E+03  0.27685697635E+03  0.30000000000E+02 0. -1.
     200000    1    3    3    0    0  0.18385213961E+03 -0.39540736467E+03  0.20711243471E+03  0.69501377964E+03  0.50000000000E+03 0. -1.
    -200001    1    1    2    0    0 -0.23105693768E+03  0.66544563560E+03  0.90676332875E+03  0.13447769097E+04  0.70000000000E+03 0.  1.
<mgrwt>
<rscale>  0 0.20582215E+04</rscale>
<asrwt>0</asrwt>
<pdfrwt beam="1">  1        1 0.25421147E+00 0.20582215E+04</pdfrwt>
<pdfrwt beam="2">  1       -1 0.85022335E-01 0.20582215E+04</pdfrwt>
<totfact> 0.65150584E+00</totfact>
</mgrwt>
</event>
<event>
 8    1  0.2354930E-010  0.1974736E+04  0.7818608E-02  0.8618524E-01
          1   -1    0    0  501    0  0.00000000000E+00  0.00000000000E+00  0.76661985605E+03  0.76661985607E+03  0.50400000000E-02 0.  1.
         -1   -1    0    0    0  501 -0.00000000000E+00 -0.00000000000E+00 -0.12716807088E+04  0.12716807088E+04  0.50400000000E-02 0. -1.
     200001    2    1    2    0    0  0.36225191121E+03 -0.33168718457E+03  0.25658535516E+03  0.89315962089E+03  0.70046786387E+03 0.  0.
    5000001    2    3    3    0    0  0.10872012300E+03 -0.41769098560E+02 -0.44458270630E+02  0.19390421057E+03  0.14851795282E+03 0.  0.
        -11    1    4    4    0    0  0.97870423693E+02 -0.17595866334E+02  0.34603250944E+02  0.10528826773E+03  0.51100000000E-03 0. -1.
     200002    1    4    4    0    0  0.10849699305E+02 -0.24173232226E+02 -0.79061521574E+02  0.88615942837E+02  0.30000000000E+02 0. -1.
     200000    1    3    3    0    0  0.25353178821E+03 -0.28991808601E+03  0.30104362579E+03  0.69925541032E+03  0.50000000000E+03 0.  1.
    -200001    1    1    2    0    0 -0.36225191121E+03  0.33168718457E+03 -0.76164620788E+03  0.11451409440E+04  0.70000000000E+03 0. -1.
<mgrwt>
<rscale>  0 0.19747361E+04</rscale>
<asrwt>0</asrwt>
<pdfrwt beam="1">  1        1 0.10951712E+00 0.19747361E+04</pdfrwt>
<pdfrwt beam="2">  1       -1 0.18166867E+00 0.19747361E+04</pdfrwt>
<totfact> 0.50189485E+00</totfact>
</mgrwt>
</event>
<event>
 8    1  0.2354930E-010  0.1607351E+04  0.7818608E-02  0.8816045E-01
         -1   -1    0    0    0  501 -0.00000000000E+00  0.00000000000E+00  0.32471162785E+03  0.32471162789E+03  0.50400000000E-02 0. -1.
          1   -1    0    0  501    0  0.00000000000E+00 -0.00000000000E+00 -0.19891328176E+04  0.19891328177E+04  0.50400000000E-02 0.  1.
     200001    2    1    2    0    0  0.31141832277E+02 -0.24450336094E+03 -0.38659585904E+03  0.83614715478E+03  0.69923815613E+03 0.  0.
    5000001    2    3    3    0    0  0.28255403566E+02 -0.13929382596E+03 -0.25529097699E+02  0.21049023292E+03  0.15314459033E+03 0.  0.
        -11    1    4    4    0    0 -0.17176378959E+01 -0.14890727551E+03  0.16731227419E+02  0.14985413224E+03  0.51100000000E-03 0. -1.
     200002    1    4    4    0    0  0.29973041462E+02  0.96134495490E+01 -0.42260325118E+02  0.60636100681E+02  0.30000000000E+02 0. -1.
     200000    1    3    3    0    0  0.28864287104E+01 -0.10520953498E+03 -0.36106676134E+03  0.62565692186E+03  0.50000000000E+03 0. -1.
    -200001    1    1    2    0    0 -0.31141832277E+02  0.24450336094E+03 -0.12778253308E+04  0.14776972908E+04  0.70000000000E+03 0.  1.
<mgrwt>
<rscale>  0 0.16073513E+04</rscale>
<asrwt>0</asrwt>
<pdfrwt beam="1">  1        1 0.28416182E+00 0.16073513E+04</pdfrwt>
<pdfrwt beam="2">  1       -1 0.46387377E-01 0.16073513E+04</pdfrwt>
<totfact> 0.16826849E+01</totfact>
</mgrwt>
</event>
<event>
 8    1  0.2354930E-010  0.1954178E+04  0.7818608E-02  0.8628349E-01
         -1   -1    0    0    0  501 -0.00000000000E+00  0.00000000000E+00  0.35311818426E+03  0.35311818430E+03  0.50400000000E-02 0. -1.
          1   -1    0    0  501    0  0.00000000000E+00 -0.00000000000E+00 -0.27036346821E+04  0.27036346821E+04  0.50400000000E-02 0.  1.
     200001    2    1    2    0    0  0.35324671660E+02 -0.17543313453E+03 -0.14610622268E+03  0.73695777236E+03  0.69981076929E+03 0.  0.
    5000001    2    3    3    0    0 -0.47403591453E+02 -0.21695387669E+02 -0.77530760596E+02  0.20293356474E+03  0.18014777970E+03 0.  0.
        -11    1    4    4    0    0 -0.97697341522E+02 -0.36036029825E+02  0.73939405832E+00  0.10413410916E+03  0.51100000000E-03 0. -1.
     200002    1    4    4    0    0  0.50293750068E+02  0.14340642156E+02 -0.78270154654E+02  0.98799455581E+02  0.30000000000E+02 0. -1.
     200000    1    3    3    0    0  0.82728263113E+02 -0.15373774686E+03 -0.68575462088E+02  0.53402420762E+03  0.50000000000E+03 0. -1.
    -200001    1    1    2    0    0 -0.35324671660E+02  0.17543313453E+03 -0.22044102752E+04  0.23197950941E+04  0.70000000000E+03 0.  1.
<mgrwt>
<rscale>  0 0.19541776E+04</rscale>
<asrwt>0</asrwt>
<pdfrwt beam="1">  1        1 0.38623352E+00 0.19541776E+04</pdfrwt>
<pdfrwt beam="2">  1       -1 0.50445456E-01 0.19541776E+04</pdfrwt>
<totfact> 0.49141423E+00</totfact>
</mgrwt>
</event>
<event>
 8    1  0.2354930E-010  0.3542692E+04  0.7818608E-02  0.8103746E-01
         -1   -1    0    0    0  501 -0.00000000000E+00  0.00000000000E+00  0.12489943500E+04  0.12489943500E+04  0.50400000000E-02 0. -1.
          1   -1    0    0  501    0  0.00000000000E+00 -0.00000000000E+00 -0.25121540626E+04  0.25121540626E+04  0.50400000000E-02 0.  1.
     200001    2    1    2    0    0  0.28808697559E+03 -0.19975481756E+03 -0.23185007990E+04  0.24471313270E+04  0.70007834134E+03 0.  0.
    5000001    2    3    3    0    0 -0.24151871981E+02 -0.11209347825E+03 -0.86396640300E+03  0.87523822712E+03  0.80347668953E+02 0.  0.
        -11    1    4    4    0    0  0.18542544439E+02 -0.28745277862E+01 -0.13311340174E+03  0.13442941117E+03  0.51100000000E-03 0. -1.
     200002    1    4    4    0    0 -0.42694416420E+02 -0.10921895046E+03 -0.73085300127E+03  0.74080881595E+03  0.30000000000E+02 0. -1.
     200000    1    3    3    0    0  0.31223884758E+03 -0.87661339315E+02 -0.14545343960E+04  0.15718930999E+04  0.50000000000E+03 0.  1.
    -200001    1    1    2    0    0 -0.28808697559E+03  0.19975481756E+03  0.10553410864E+04  0.13140170856E+04  0.70000000000E+03 0. -1.
<mgrwt>
<rscale>  0 0.35426918E+04</rscale>
<asrwt>0</asrwt>
<pdfrwt beam="1">  1        1 0.35887915E+00 0.35426918E+04</pdfrwt>
<pdfrwt beam="2">  1       -1 0.17842777E+00 0.35426918E+04</pdfrwt>
<totfact> 0.30972202E-01</totfact>
</mgrwt>
</event>
<event>
 8    1  0.2383295E-010  0.1890134E+04  0.7818608E-02  0.8659783E-01
          1   -1    0    0  501    0  0.00000000000E+00  0.00000000000E+00  0.19581608128E+04  0.19581608128E+04  0.50400000000E-02 0.  1.
         -1   -1    0    0    0  501 -0.00000000000E+00 -0.00000000000E+00 -0.45611773133E+03  0.45611773135E+03  0.50400000000E-02 0. -1.
     200001    2    1    2    0    0 -0.19613401286E+03  0.31843274081E+03  0.10494808566E+03  0.80749841335E+03  0.70793476074E+03 0.  0.
    5000001    2    3    3    0    0  0.61856851007E+01  0.13363104093E+03 -0.53758566627E+02  0.21565998105E+03  0.16038617815E+03 0.  0.
        -11    1    4    4    0    0 -0.27734203300E+02  0.84190565805E+02 -0.10044333595E+03  0.13396305886E+03  0.51100000000E-03 0. -1.
     200002    1    4    4    0    0  0.33919888401E+02  0.49440475124E+02  0.46684769319E+02  0.81696922194E+02  0.30000000000E+02 0. -1.
     200000    1    3    3    0    0 -0.20231969796E+03  0.18480169988E+03  0.15870665228E+03  0.59183843230E+03  0.50000000000E+03 0. -1.
    -200001    1    1    2    0    0  0.19613401286E+03 -0.31843274081E+03  0.13970949958E+04  0.16067801308E+04  0.70000000000E+03 0.  1.
<mgrwt>
<rscale>  0 0.18901342E+04</rscale>
<asrwt>0</asrwt>
<pdfrwt beam="1">  1        1 0.27973726E+00 0.18901342E+04</pdfrwt>
<pdfrwt beam="2">  1       -1 0.65159675E-01 0.18901342E+04</pdfrwt>
<totfact> 0.88812105E+00</totfact>
</mgrwt>
</event>
<event>
 8    1  0.2354930E-010  0.1633765E+04  0.7818608E-02  0.8800069E-01
          1   -1    0    0  501    0  0.00000000000E+00  0.00000000000E+00  0.14408697546E+04  0.14408697546E+04  0.50400000000E-02 0.  1.
         -1   -1    0    0    0  501 -0.00000000000E+00 -0.00000000000E+00 -0.46312087880E+03  0.46312087882E+03  0.50400000000E-02 0. -1.
     200001    2    1    2    0    0 -0.62630399032E+02  0.40534222139E+03  0.37819060589E+03  0.89518192891E+03  0.70006975948E+03 0.  0.
    5000001    2    3    3    0    0 -0.15129453118E+02  0.26680421830E+03  0.14772683895E+03  0.32547791274E+03  0.11269100001E+03 0.  0.
        -11    1    4    4    0    0 -0.35345926951E+02  0.68570001052E+02  0.26705477051E+01  0.77190099246E+02  0.51100000000E-03 0. -1.
     200002    1    4    4    0    0  0.20216473833E+02  0.19823421725E+03  0.14505629124E+03  0.24828781350E+03  0.30000000000E+02 0. -1.
     200000    1    3    3    0    0 -0.47500945914E+02  0.13853800309E+03  0.23046376695E+03  0.56970401617E+03  0.50000000000E+03 0. -1.
    -200001    1    1    2    0    0  0.62630399032E+02 -0.40534222139E+03  0.59955826995E+03  0.10088087046E+04  0.70000000000E+03 0. -1.
<mgrwt>
<rscale>  0 0.16337648E+04</rscale>
<asrwt>0</asrwt>
<pdfrwt beam="1">  1        1 0.20583853E+00 0.16337648E+04</pdfrwt>
<pdfrwt beam="2">  1       -1 0.66160127E-01 0.16337648E+04</pdfrwt>
<totfact> 0.18878936E+01</totfact>
</mgrwt>
</event>
<event>
 8    1  0.2354930E-010  0.1544498E+04  0.7818608E-02  0.8855390E-01
          1   -1    0    0  501    0  0.00000000000E+00  0.00000000000E+00  0.14958393052E+04  0.14958393052E+04  0.50400000000E-02 0. -1.
         -1   -1    0    0    0  501 -0.00000000000E+00 -0.00000000000E+00 -0.39868510743E+03  0.39868510746E+03  0.50400000000E-02 0.  1.
     200001    2    1    2    0    0 -0.10937440924E+03 -0.27150925880E+03  0.36949680351E+03  0.84325597766E+03  0.69919433424E+03 0.  0.
    5000001    2    3    3    0    0  0.22414780380E+02 -0.48971154750E+02  0.67453999220E+02  0.20441213611E+03  0.18529350502E+03 0.  0.
        -11    1    4    4    0    0 -0.44771627548E+02 -0.94819850680E+02  0.24609570597E+02  0.10770763056E+03  0.51100000000E-03 0. -1.
     200002    1    4    4    0    0  0.67186407929E+02  0.45848695930E+02  0.42844428623E+02  0.96704505546E+02  0.30000000000E+02 0. -1.
     200000    1    3    3    0    0 -0.13178918962E+03 -0.22253810405E+03  0.30204280429E+03  0.63884384155E+03  0.50000000000E+03 0. -1.
    -200001    1    1    2    0    0  0.10937440924E+03  0.27150925880E+03  0.72765739422E+03  0.10512684350E+04  0.70000000000E+03 0.  1.
<mgrwt>
<rscale>  0 0.15444984E+04</rscale>
<asrwt>0</asrwt>
<pdfrwt beam="1">  1        1 0.21369133E+00 0.15444984E+04</pdfrwt>
<pdfrwt beam="2">  1       -1 0.56955015E-01 0.15444984E+04</pdfrwt>
<totfact> 0.23576746E+01</totfact>
</mgrwt>
</event>
<event>
 8    1  0.2354930E-010  0.1619673E+04  0.7818608E-02  0.8808553E-01
          1   -1    0    0  501    0  0.00000000000E+00  0.00000000000E+00  0.10172465616E+04  0.10172465616E+04  0.50400000000E-02 0.  1.
         -1   -1    0    0    0  501 -0.00000000000E+00 -0.00000000000E+00 -0.64471596382E+03  0.64471596384E+03  0.50400000000E-02 0. -1.
     200001    2    1    2    0    0 -0.10225918128E+03 -0.23222676334E+03  0.51293673998E+03  0.90426859349E+03  0.70015096957E+03 0.  0.
    5000001    2    3    3    0    0 -0.81388242783E+02 -0.17008015769E+03  0.26869371119E+03  0.34395399099E+03  0.10274595555E+03 0.  0.
        -11    1    4    4    0    0 -0.34293240007E+02 -0.32936872312E+02  0.13970886555E+03  0.14757855868E+03  0.51100000000E-03 0. -1.
     200002    1    4    4    0    0 -0.47095002776E+02 -0.13714328538E+03  0.12898484563E+03  0.19637543231E+03  0.30000000000E+02 0. -1.
     200000    1    3    3    0    0 -0.20870938497E+02 -0.62146605651E+02  0.24424302879E+03  0.56031460251E+03  0.50000000000E+03 0.  1.
    -200001    1    1    2    0    0  0.10225918128E+03  0.23222676334E+03 -0.14040614220E+03  0.75769393196E+03  0.70000000000E+03 0. -1.
<mgrwt>
<rscale>  0 0.16196729E+04</rscale>
<asrwt>0</asrwt>
<pdfrwt beam="1">  1        1 0.14532094E+00 0.16196729E+04</pdfrwt>
<pdfrwt beam="2">  1       -1 0.92102280E-01 0.16196729E+04</pdfrwt>
<totfact> 0.18465777E+01</totfact>
</mgrwt>
</event>
<event>
 8    1  0.2354930E-010  0.1493889E+04  0.7818608E-02  0.8888527E-01
          1   -1    0    0  501    0  0.00000000000E+00  0.00000000000E+00  0.70834330549E+03  0.70834330550E+03  0.50400000000E-02 0.  1.
         -1   -1    0    0    0  501 -0.00000000000E+00 -0.00000000000E+00 -0.78764961017E+03  0.78764961019E+03  0.50400000000E-02 0. -1.
     200001    2    1    2    0    0  0.86415789735E+02  0.23887742391E+03  0.30562754857E+02  0.74326366648E+03  0.69783714687E+03 0.  0.
    5000001    2    3    3    0    0  0.75803339689E+01  0.52143749821E+02 -0.39801455080E+02  0.19917211521E+03  0.18790674161E+03 0.  0.
        -11    1    4    4    0    0  0.50298276209E+02  0.45634009610E+02 -0.98950712319E+02  0.12001509443E+03  0.51100000000E-03 0. -1.
     200002    1    4    4    0    0 -0.42717942240E+02  0.65097402110E+01  0.59149257238E+02  0.79157020780E+02  0.30000000000E+02 0. -1.
     200000    1    3    3    0    0  0.78835455766E+02  0.18673367409E+03  0.70364209937E+02  0.54409155127E+03  0.50000000000E+03 0. -1.
    -200001    1    1    2    0    0 -0.86415789735E+02 -0.23887742391E+03 -0.10986905954E+03  0.75272924921E+03  0.70000000000E+03 0. -1.
<mgrwt>
<rscale>  0 0.14938893E+04</rscale>
<asrwt>0</asrwt>
<pdfrwt beam="1">  1        1 0.10119190E+00 0.14938893E+04</pdfrwt>
<pdfrwt beam="2">  1       -1 0.11252137E+00 0.14938893E+04</pdfrwt>
<totfact> 0.21005179E+01</totfact>
</mgrwt>
</event>
<event>
 8    1  0.2354930E-010  0.1772172E+04  0.7818608E-02  0.8721240E-01
          1   -1    0    0  501    0  0.00000000000E+00  0.00000000000E+00  0.31560343865E+04  0.31560343865E+04  0.50400000000E-02 0.  1.
         -1   -1    0    0    0  501 -0.00000000000E+00 -0.00000000000E+00 -0.24877686621E+03  0.24877686626E+03  0.50400000000E-02 0. -1.
     200001    2    1    2    0    0  0.45537913763E+03 -0.26196058864E+03  0.17208461542E+04  0.19305095745E+04  0.69968723141E+03 0.  0.
    5000001    2    3    3    0    0  0.11789420324E+03 -0.92891102396E+02  0.54517300000E+03  0.59833543512E+03  0.19561158689E+03 0.  0.
        -11    1    4    4    0    0  0.54098426298E+02 -0.29496417468E+02  0.20161153971E+02  0.64831709071E+02  0.51100000000E-03 0. -1.
     200002    1    4    4    0    0  0.63795776938E+02 -0.63394684928E+02  0.52501184603E+03  0.53350372605E+03  0.30000000000E+02 0. -1.
     200000    1    3    3    0    0  0.33748493439E+03 -0.16906948624E+03  0.11756731542E+04  0.13321741394E+04  0.50000000000E+03 0.  1.
    -200001    1    1    2    0    0 -0.45537913763E+03  0.26196058864E+03  0.11864113661E+04  0.14743016783E+04  0.70000000000E+03 0.  1.
<mgrwt>
<rscale>  0 0.17721719E+04</rscale>
<asrwt>0</asrwt>
<pdfrwt beam="1">  1        1 0.45086202E+00 0.17721719E+04</pdfrwt>
<pdfrwt beam="2">  1       -1 0.35539555E-01 0.17721719E+04</pdfrwt>
<totfact> 0.48183146E+00</totfact>
</mgrwt>
</event>
<event>
 8    1  0.2354930E-010  0.1774101E+04  0.7818608E-02  0.8720195E-01
          1   -1    0    0  501    0  0.00000000000E+00  0.00000000000E+00  0.86515462984E+03  0.86515462986E+03  0.50400000000E-02 0.  1.
         -1   -1    0    0    0  501 -0.00000000000E+00 -0.00000000000E+00 -0.90950021331E+03  0.90950021332E+03  0.50400000000E-02 0. -1.
     200001    2    1    2    0    0 -0.25530246516E+02 -0.54384662551E+03 -0.31426613004E+02  0.88775696554E+03  0.70050257123E+03 0.  0.
    5000001    2    3    3    0    0  0.54259673413E+02 -0.17449710748E+03  0.28363538481E+02  0.25818539693E+03  0.18017174084E+03 0.  0.
        -11    1    4    4    0    0  0.51052945286E+02  0.13695016996E+01  0.58026922219E+02  0.77300727420E+02  0.51100000000E-03 0. -1.
     200002    1    4    4    0    0  0.32067281276E+01 -0.17586660918E+03 -0.29663383738E+02  0.18088466951E+03  0.30000000000E+02 0. -1.
     200000    1    3    3    0    0 -0.79789919930E+02 -0.36934951803E+03 -0.59790151484E+02  0.62957156861E+03  0.50000000000E+03 0. -1.
    -200001    1    1    2    0    0  0.25530246516E+02  0.54384662551E+03 -0.12918970461E+02  0.88689787764E+03  0.70000000000E+03 0.  1.
<mgrwt>
<rscale>  0 0.17741007E+04</rscale>
<asrwt>0</asrwt>
<pdfrwt beam="1">  1        1 0.12359352E+00 0.17741007E+04</pdfrwt>
<pdfrwt beam="2">  1       -1 0.12992860E+00 0.17741007E+04</pdfrwt>
<totfact> 0.10588299E+01</totfact>
</mgrwt>
</event>
<event>
 8    1  0.2354930E-010  0.1459427E+04  0.7818608E-02  0.8911891E-01
          1   -1    0    0  501    0  0.00000000000E+00  0.00000000000E+00  0.47010591368E+03  0.47010591371E+03  0.50400000000E-02 0.  1.
         -1   -1    0    0    0  501 -0.00000000000E+00 -0.00000000000E+00 -0.11326851983E+04  0.11326851983E+04  0.50400000000E-02 0. -1.
     200001    2    1    2    0    0 -0.10718916677E+03  0.16878711302E+03 -0.27518048521E+03  0.77813576776E+03  0.69985167473E+03 0.  0.
    5000001    2    3    3    0    0 -0.43173884530E+02  0.73872730261E+02 -0.90940734958E+02  0.23311193159E+03  0.19684966547E+03 0.  0.
        -11    1    4    4    0    0  0.56272286106E+02  0.57211808034E+01 -0.93012176851E+02  0.10886031020E+03  0.51100000000E-03 0. -1.
     200002    1    4    4    0    0 -0.99446170636E+02  0.68151549458E+02  0.20714418931E+01  0.12425162139E+03  0.30000000000E+02 0. -1.
     200000    1    3    3    0    0 -0.64015282238E+02  0.94914382757E+02 -0.18423975025E+03  0.54502383616E+03  0.50000000000E+03 0. -1.
    -200001    1    1    2    0    0  0.10718916677E+03 -0.16878711302E+03 -0.38739879937E+03  0.82465534422E+03  0.70000000000E+03 0.  1.
<mgrwt>
<rscale>  0 0.14594273E+04</rscale>
<asrwt>0</asrwt>
<pdfrwt beam="1">  1        1 0.67157988E-01 0.14594273E+04</pdfrwt>
<pdfrwt beam="2">  1       -1 0.16181217E+00 0.14594273E+04</pdfrwt>
<totfact> 0.14692438E+01</totfact>
</mgrwt>
</event>
<event>
 8    1  0.2354930E-010  0.1540234E+04  0.7818608E-02  0.8858130E-01
          1   -1    0    0  501    0  0.00000000000E+00  0.00000000000E+00  0.93280881635E+03  0.93280881636E+03  0.50400000000E-02 0.  1.
         -1   -1    0    0    0  501 -0.00000000000E+00 -0.00000000000E+00 -0.63580026796E+03  0.63580026798E+03  0.50400000000E-02 0. -1.
     200001    2    1    2    0    0 -0.15791581312E+03 -0.14257645536E+01 -0.13599786749E+03  0.73049573101E+03  0.70013509855E+03 0.  0.
    5000001    2    3    3    0    0 -0.25446298717E+02  0.79724307822E+02  0.14425361347E+02  0.18573830401E+03  0.16518821735E+03 0.  0.
        -11    1    4    4    0    0 -0.12359158665E+02  0.12118061597E+03 -0.18925768975E+02  0.12327073952E+03  0.51100000000E-03 0. -1.
     200002    1    4    4    0    0 -0.13087140052E+02 -0.41456308149E+02  0.33351130322E+02  0.62467564494E+02  0.30000000000E+02 0. -1.
     200000    1    3    3    0    0 -0.13246951440E+03 -0.81150072376E+02 -0.15042322883E+03  0.54475742699E+03  0.50000000000E+03 0. -1.
    -200001    1    1    2    0    0  0.15791581312E+03  0.14257645536E+01  0.43300641588E+03  0.83811335333E+03  0.70000000000E+03 0.  1.
<mgrwt>
<rscale>  0 0.15402339E+04</rscale>
<asrwt>0</asrwt>
<pdfrwt beam="1">  1        1 0.13325840E+00 0.15402339E+04</pdfrwt>
<pdfrwt beam="2">  1       -1 0.90828610E-01 0.15402339E+04</pdfrwt>
<totfact> 0.22220408E+01</totfact>
</mgrwt>
</event>
<event>
 8    1  0.2354930E-010  0.1604027E+04  0.7818608E-02  0.8818078E-01
         -1   -1    0    0    0  501 -0.00000000000E+00  0.00000000000E+00  0.42628601719E+03  0.42628601722E+03  0.50400000000E-02 0. -1.
          1   -1    0    0  501    0  0.00000000000E+00 -0.00000000000E+00 -0.15089065816E+04  0.15089065816E+04  0.50400000000E-02 0.  1.
     200001    2    1    2    0    0 -0.72810929064E+02  0.37892488242E+03 -0.49870656091E+03  0.94532338452E+03  0.70430289615E+03 0.  0.
    5000001    2    3    3    0    0 -0.35731872312E+02  0.65247301548E+02 -0.42628083636E+02  0.19847931872E+03  0.17900533340E+03 0.  0.
        -11    1    4    4    0    0 -0.47663441666E+02 -0.17338369865E+02  0.49316674634E+02  0.70742894613E+02  0.51100000000E-03 0. -1.
     200002    1    4    4    0    0  0.11931569353E+02  0.82585671413E+02 -0.91944758270E+02  0.12773642411E+03  0.30000000000E+02 0. -1.
     200000    1    3    3    0    0 -0.37079056752E+02  0.31367758088E+03 -0.45607847727E+03  0.74684406580E+03  0.50000000000E+03 0. -1.
    -200001    1    1    2    0    0  0.72810929064E+02 -0.37892488242E+03 -0.58391400347E+03  0.98986921427E+03  0.70000000000E+03 0. -1.
<mgrwt>
<rscale>  0 0.16040272E+04</rscale>
<asrwt>0</asrwt>
<pdfrwt beam="1">  1        1 0.21555808E+00 0.16040272E+04</pdfrwt>
<pdfrwt beam="2">  1       -1 0.60898003E-01 0.16040272E+04</pdfrwt>
<totfact> 0.20164131E+01</totfact>
</mgrwt>
</event>
<event>
 8    1  0.2354930E-010  0.1499485E+04  0.7818608E-02  0.8884796E-01
         -1   -1    0    0    0  501 -0.00000000000E+00  0.00000000000E+00  0.32237004592E+03  0.32237004596E+03  0.50400000000E-02 0. -1.
          1   -1    0    0  501    0  0.00000000000E+00 -0.00000000000E+00 -0.17436905562E+04  0.17436905562E+04  0.50400000000E-02 0.  1.
     200001    2    1    2    0    0 -0.30665348723E+02 -0.52017684194E+02 -0.34945238007E+03  0.78444151224E+03  0.69970373524E+03 0.  0.
    5000001    2    3    3    0    0 -0.28279594319E+02 -0.14958726389E+02 -0.22575669908E+03  0.26803113311E+03  0.14089393950E+03 0.  0.
        -11    1    4    4    0    0 -0.47995471176E+02 -0.57493518193E+02 -0.69559415705E+02  0.10221341498E+03  0.51100000000E-03 0. -1.
     200002    1    4    4    0    0  0.19715876857E+02  0.42534791804E+02 -0.15619728338E+03  0.16581771814E+03  0.30000000000E+02 0. -1.
     200000    1    3    3    0    0 -0.23857544037E+01 -0.37058957806E+02 -0.12369568099E+03  0.51641037913E+03  0.50000000000E+03 0. -1.
    -200001    1    1    2    0    0  0.30665348723E+02  0.52017684194E+02 -0.10718681302E+04  0.12816190899E+04  0.70000000000E+03 0.  1.
<mgrwt>
<rscale>  0 0.14994847E+04</rscale>
<asrwt>0</asrwt>
<pdfrwt beam="1">  1        1 0.24909865E+00 0.14994847E+04</pdfrwt>
<pdfrwt beam="2">  1       -1 0.46052865E-01 0.14994847E+04</pdfrwt>
<totfact> 0.24600456E+01</totfact>
</mgrwt>
</event>
<event>
 8    1  0.2354930E-010  0.1467014E+04  0.7818608E-02  0.8906689E-01
         -1   -1    0    0    0  501 -0.00000000000E+00  0.00000000000E+00  0.64785949118E+03  0.64785949120E+03  0.50400000000E-02 0. -1.
          1   -1    0    0  501    0  0.00000000000E+00 -0.00000000000E+00 -0.83047725871E+03  0.83047725873E+03  0.50400000000E-02 0.  1.
     200001    2    1    2    0    0 -0.17789549280E+03  0.14053984771E+03 -0.13299185219E+03  0.74086743760E+03  0.69267558943E+03 0.  0.
    5000001    2    3    3    0    0  0.97544499485E+01  0.71338231966E+02 -0.11399377656E+02  0.18879308165E+03  0.17415105293E+03 0.  0.
        -11    1    4    4    0    0  0.30453807555E+02 -0.59308361475E+01  0.66369900812E+02  0.73263721896E+02  0.51100000000E-03 0. -1.
     200002    1    4    4    0    0 -0.20699357606E+02  0.77269068114E+02 -0.77769278468E+02  0.11552935976E+03  0.30000000000E+02 0. -1.
     200000    1    3    3    0    0 -0.18764994274E+03  0.69201615743E+02 -0.12159247453E+03  0.55207435595E+03  0.50000000000E+03 0.  1.
    -200001    1    1    2    0    0  0.17789549280E+03 -0.14053984771E+03 -0.49625915341E+02  0.73746931233E+03  0.70000000000E+03 0. -1.
<mgrwt>
<rscale>  0 0.14670141E+04</rscale>
<asrwt>0</asrwt>
<pdfrwt beam="1">  1        1 0.11863961E+00 0.14670141E+04</pdfrwt>
<pdfrwt beam="2">  1       -1 0.92551357E-01 0.14670141E+04</pdfrwt>
<totfact> 0.25887290E+01</totfact>
</mgrwt>
</event>
<event>
 8    1  0.2354930E-010  0.1463290E+04  0.7818608E-02  0.8909238E-01
          1   -1    0    0  501    0  0.00000000000E+00  0.00000000000E+00  0.15893513815E+04  0.15893513815E+04  0.50400000000E-02 0. -1.
         -1   -1    0    0    0  501 -0.00000000000E+00 -0.00000000000E+00 -0.33680704911E+03  0.33680704915E+03  0.50400000000E-02 0.  1.
     200001    2    1    2    0    0 -0.16192493243E+03 -0.13882957518E+03  0.60141018696E+03  0.94663354071E+03  0.69923351802E+03 0.  0.
    5000001    2    3    3    0    0  0.47389051031E+02 -0.65025764361E+02  0.15917585924E+03  0.24319161221E+03  0.16532130502E+03 0.  0.
        -11    1    4    4    0    0 -0.42318206930E+02 -0.65453375427E+02  0.30975948964E+02  0.83871833216E+02  0.51100000000E-03 0. -1.
     200002    1    4    4    0    0  0.89707257961E+02  0.42761106580E+00  0.12819991028E+03  0.15931977899E+03  0.30000000000E+02 0. -1.
     200000    1    3    3    0    0 -0.20931398346E+03 -0.73803810817E+02  0.44223432772E+03  0.70344192850E+03  0.50000000000E+03 0.  1.
    -200001    1    1    2    0    0  0.16192493243E+03  0.13882957518E+03  0.65113414544E+03  0.97952488995E+03  0.70000000000E+03 0. -1.
<mgrwt>
<rscale>  0 0.14632905E+04</rscale>
<asrwt>0</asrwt>
<pdfrwt beam="1">  1        1 0.22705020E+00 0.14632905E+04</pdfrwt>
<pdfrwt beam="2">  1       -1 0.48115292E-01 0.14632905E+04</pdfrwt>
<totfact> 0.28528007E+01</totfact>
</mgrwt>
</event>
<event>
 8    1  0.2354930E-010  0.2552685E+04  0.7818608E-02  0.8384453E-01
         -1   -1    0    0    0  501 -0.00000000000E+00  0.00000000000E+00  0.60573847185E+03  0.60573847187E+03  0.50400000000E-02 0.  1.
          1   -1    0    0  501    0  0.00000000000E+00 -0.00000000000E+00 -0.26893618440E+04  0.26893618440E+04  0.50400000000E-02 0. -1.
     200001    2    1    2    0    0 -0.97217557860E+02 -0.23141817344E+02  0.32988484421E+03  0.78014331669E+03  0.69986626356E+03 0.  0.
    5000001    2    3    3    0    0  0.42242210798E+02  0.73448737044E+02  0.16435135654E+03  0.22680788694E+03  0.13134431026E+03 0.  0.
        -11    1    4    4    0    0  0.59294292149E+02 -0.15129719701E+02  0.61700461995E+02  0.86900336653E+02  0.51100000000E-03 0. -1.
     200002    1    4    4    0    0 -0.17052081351E+02  0.88578456745E+02  0.10265089454E+03  0.13990755029E+03  0.30000000000E+02 0. -1.
     200000    1    3    3    0    0 -0.13945976866E+03 -0.96590554388E+02  0.16553348768E+03  0.55333542975E+03  0.50000000000E+03 0.  1.
    -200001    1    1    2    0    0  0.97217557860E+02  0.23141817344E+02 -0.24135082164E+04  0.25149569992E+04  0.70000000000E+03 0. -1.
<mgrwt>
<rscale>  0 0.25526848E+04</rscale>
<asrwt>0</asrwt>
<pdfrwt beam="1">  1        1 0.38419454E+00 0.25526848E+04</pdfrwt>
<pdfrwt beam="2">  1       -1 0.86534069E-01 0.25526848E+04</pdfrwt>
<totfact> 0.15926365E+00</totfact>
</mgrwt>
</event>
<event>
 8    1  0.2354930E-010  0.1487198E+04  0.7818608E-02  0.8893011E-01
          1   -1    0    0  501    0  0.00000000000E+00  0.00000000000E+00  0.19353748532E+04  0.19353748532E+04  0.50400000000E-02 0.  1.
         -1   -1    0    0    0  501 -0.00000000000E+00 -0.00000000000E+00 -0.28570130911E+03  0.28570130915E+03  0.50400000000E-02 0. -1.
     200001    2    1    2    0    0  0.14522654814E+03 -0.26490787427E+02  0.52190762276E+03  0.88554312816E+03  0.70000468072E+03 0.  0.
    5000001    2    3    3    0    0  0.39730148805E+02  0.61949001918E+02  0.13806634497E+03  0.24034144407E+03  0.18244322559E+03 0.  0.
        -11    1    4    4    0    0  0.47235293513E+02 -0.22861696097E+02 -0.21738932077E+02  0.56801507637E+02  0.51100000000E-03 0. -1.
     200002    1    4    4    0    0 -0.75051447080E+01  0.84810698016E+02  0.15980527705E+03  0.18353993644E+03  0.30000000000E+02 0. -1.
     200000    1    3    3    0    0  0.10549639933E+03 -0.88439789345E+02  0.38384127779E+03  0.64520168409E+03  0.50000000000E+03 0. -1.
    -200001    1    1    2    0    0 -0.14522654814E+03  0.26490787427E+02  0.11277659213E+04  0.13355330342E+04  0.70000000000E+03 0.  1.
<mgrwt>
<rscale>  0 0.14871975E+04</rscale>
<asrwt>0</asrwt>
<pdfrwt beam="1">  1        1 0.27648213E+00 0.14871975E+04</pdfrwt>
<pdfrwt beam="2">  1       -1 0.40814471E-01 0.14871975E+04</pdfrwt>
<totfact> 0.23297633E+01</totfact>
</mgrwt>
</event>
<event>
 8    1  0.2354930E-010  0.2195566E+04  0.7818608E-02  0.8520276E-01
         -1   -1    0    0    0  501 -0.00000000000E+00  0.00000000000E+00  0.42669508166E+03  0.42669508169E+03  0.50400000000E-02 0. -1.
          1   -1    0    0  501    0  0.00000000000E+00 -0.00000000000E+00 -0.28243291197E+04  0.28243291197E+04  0.50400000000E-02 0.  1.
     200001    2    1    2    0    0 -0.43762508048E+03 -0.72259283640E+03 -0.11410287455E+04  0.15828776312E+04  0.69992776709E+03 0.  0.
    5000001    2    3    3    0    0 -0.10213707403E+03 -0.11243372554E+03 -0.31707031979E+03  0.39386382546E+03  0.17754379963E+03 0.  0.
        -11    1    4    4    0    0 -0.53995347330E+02  0.32960162397E+02 -0.37111827406E+02  0.73342740419E+02  0.51100000000E-03 0. -1.
     200002    1    4    4    0    0 -0.48141726696E+02 -0.14539388794E+03 -0.27995849239E+03  0.32052108504E+03  0.30000000000E+02 0. -1.
     200000    1    3    3    0    0 -0.33548800645E+03 -0.61015911086E+03 -0.82395842571E+03  0.11890138058E+04  0.50000000000E+03 0. -1.
    -200001    1    1    2    0    0  0.43762508048E+03  0.72259283640E+03 -0.12566052925E+04  0.16681465701E+04  0.70000000000E+03 0. -1.
<mgrwt>
<rscale>  0 0.21955658E+04</rscale>
<asrwt>0</asrwt>
<pdfrwt beam="1">  1        1 0.40347558E+00 0.21955658E+04</pdfrwt>
<pdfrwt beam="2">  1       -1 0.60956442E-01 0.21955658E+04</pdfrwt>
<totfact> 0.27811873E+00</totfact>
</mgrwt>
</event>
<event>
 8    1  0.2354930E-010  0.1689154E+04  0.7818608E-02  0.8767575E-01
         -1   -1    0    0    0  501 -0.00000000000E+00  0.00000000000E+00  0.10187980448E+04  0.10187980448E+04  0.50400000000E-02 0. -1.
          1   -1    0    0  501    0  0.00000000000E+00 -0.00000000000E+00 -0.70014871121E+03  0.70014871123E+03  0.50400000000E-02 0.  1.
     200001    2    1    2    0    0  0.19072237923E+03 -0.36211442974E+03  0.40698815023E+03  0.90328406062E+03  0.69482433289E+03 0.  0.
    5000001    2    3    3    0    0  0.91273673456E+02 -0.21462016203E+03  0.21696453529E+03  0.33958770768E+03  0.11770091000E+03 0.  0.
        -11    1    4    4    0    0 -0.17276368844E+01  0.11348344823E+02  0.67972942635E-01  0.11479297888E+02  0.51100000000E-03 0. -1.
     200002    1    4    4    0    0  0.93001310340E+02 -0.22596850685E+03  0.21689656235E+03  0.32810840979E+03  0.30000000000E+02 0. -1.
     200000    1    3    3    0    0  0.99448705769E+02 -0.14749426771E+03  0.19002361494E+03  0.56369635294E+03  0.50000000000E+03 0. -1.
    -200001    1    1    2    0    0 -0.19072237923E+03  0.36211442974E+03 -0.88338816658E+02  0.81566269541E+03  0.70000000000E+03 0.  1.
<mgrwt>
<rscale>  0 0.16891538E+04</rscale>
<asrwt>0</asrwt>
<pdfrwt beam="1">  1        1 0.10002125E+00 0.16891538E+04</pdfrwt>
<pdfrwt beam="2">  1       -1 0.14554258E+00 0.16891538E+04</pdfrwt>
<totfact> 0.11008057E+01</totfact>
</mgrwt>
</event>
<event>
 8    1  0.2354930E-010  0.2040333E+04  0.7818608E-02  0.8587992E-01
          1   -1    0    0  501    0  0.00000000000E+00  0.00000000000E+00  0.88485447802E+03  0.88485447803E+03  0.50400000000E-02 0.  1.
         -1   -1    0    0    0  501 -0.00000000000E+00 -0.00000000000E+00 -0.11761705014E+04  0.11761705014E+04  0.50400000000E-02 0. -1.
     200001    2    1    2    0    0  0.43397135259E+03 -0.24662781480E+03  0.40924233176E+03  0.95199909028E+03  0.69976179368E+03 0.  0.
    5000001    2    3    3    0    0  0.14444700299E+03 -0.13792006569E+03  0.11705877536E+03  0.29548332173E+03  0.18363211957E+03 0.  0.
        -11    1    4    4    0    0 -0.42548465693E+02 -0.37394094852E+02  0.29677214833E+02  0.63948630503E+02  0.51100000000E-03 0. -1.
     200002    1    4    4    0    0  0.18699546869E+03 -0.10052597084E+03  0.87381560531E+02  0.23153469123E+03  0.30000000000E+02 0. -1.
     200000    1    3    3    0    0  0.28952434959E+03 -0.10870774911E+03  0.29218355639E+03  0.65651576855E+03  0.50000000000E+03 0.  1.
    -200001    1    1    2    0    0 -0.43397135259E+03  0.24662781480E+03 -0.70055835517E+03  0.11090258892E+04  0.70000000000E+03 0. -1.
<mgrwt>
<rscale>  0 0.20403330E+04</rscale>
<asrwt>0</asrwt>
<pdfrwt beam="1">  1        1 0.12640778E+00 0.20403330E+04</pdfrwt>
<pdfrwt beam="2">  1       -1 0.16802436E+00 0.20403330E+04</pdfrwt>
<totfact> 0.50043039E+00</totfact>
</mgrwt>
</event>
<event>
 8    1  0.2354930E-010  0.1495552E+04  0.7818608E-02  0.8887416E-01
         -1   -1    0    0    0  501 -0.00000000000E+00  0.00000000000E+00  0.25106102386E+03  0.25106102391E+03  0.50400000000E-02 0.  1.
          1   -1    0    0  501    0  0.00000000000E+00 -0.00000000000E+00 -0.22272229609E+04  0.22272229609E+04  0.50400000000E-02 0. -1.
     200001    2    1    2    0    0 -0.21147829382E+03  0.14927124450E+03 -0.91886007166E+03  0.11841077187E+04  0.70057282636E+03 0.  0.
    5000001    2    3    3    0    0  0.16442769019E+02  0.99664570755E+02 -0.34434863296E+03  0.38757006978E+03  0.14639394336E+03 0.  0.
        -11    1    4    4    0    0  0.23041739161E+02  0.13139928252E+03 -0.24883565595E+03  0.28234000223E+03  0.51100000000E-03 0. -1.
     200002    1    4    4    0    0 -0.65989701414E+01 -0.31734711767E+02 -0.95512977013E+02  0.10523006755E+03  0.30000000000E+02 0. -1.
     200000    1    3    3    0    0 -0.22792106284E+03  0.49606673746E+02 -0.57451143870E+03  0.79653764893E+03  0.50000000000E+03 0. -1.
    -200001    1    1    2    0    0  0.21147829382E+03 -0.14927124450E+03 -0.10573018653E+04  0.12941762661E+04  0.70000000000E+03 0. -1.
<mgrwt>
<rscale>  0 0.14955519E+04</rscale>
<asrwt>0</asrwt>
<pdfrwt beam="1">  1        1 0.31817470E+00 0.14955519E+04</pdfrwt>
<pdfrwt beam="2">  1       -1 0.35865862E-01 0.14955519E+04</pdfrwt>
<totfact> 0.19290967E+01</totfact>
</mgrwt>
</event>
<event>
 8    1  0.2354930E-010  0.1864871E+04  0.7818608E-02  0.8672543E-01
         -1   -1    0    0    0  501 -0.00000000000E+00  0.00000000000E+00  0.55367680803E+03  0.55367680805E+03  0.50400000000E-02 0. -1.
          1   -1    0    0  501    0  0.00000000000E+00 -0.00000000000E+00 -0.15702949425E+04  0.15702949425E+04  0.50400000000E-02 0.  1.
     200001    2    1    2    0    0 -0.82875972981E+02  0.45980544748E+03 -0.48229066495E+02  0.84098037747E+03  0.69759047873E+03 0.  0.
    5000001    2    3    3    0    0  0.12194051159E+02  0.10415409457E+03  0.13968761193E+02  0.21696534233E+03  0.18942561385E+03 0.  0.
        -11    1    4    4    0    0  0.39407412793E+02 -0.39697078906E+02 -0.26850267283E+02  0.62046265884E+02  0.51100000000E-03 0. -1.
     200002    1    4    4    0    0 -0.27213361634E+02  0.14385117347E+03  0.40819028476E+02  0.15491907645E+03  0.30000000000E+02 0. -1.
     200000    1    3    3    0    0 -0.95070024140E+02  0.35565135291E+03 -0.62197827688E+02  0.62401503514E+03  0.50000000000E+03 0. -1.
    -200001    1    1    2    0    0  0.82875972981E+02 -0.45980544748E+03 -0.96838906796E+03  0.12829913731E+04  0.70000000000E+03 0.  1.
<mgrwt>
<rscale>  0 0.18648709E+04</rscale>
<asrwt>0</asrwt>
<pdfrwt beam="1">  1        1 0.22432785E+00 0.18648709E+04</pdfrwt>
<pdfrwt beam="2">  1       -1 0.79096687E-01 0.18648709E+04</pdfrwt>
<totfact> 0.10528438E+01</totfact>
</mgrwt>
</event>
<event>
 8    1  0.2354930E-010  0.1901747E+04  0.7818608E-02  0.8653987E-01
         -1   -1    0    0    0  501 -0.00000000000E+00  0.00000000000E+00  0.62060440894E+03  0.62060440896E+03  0.50400000000E-02 0. -1.
          1   -1    0    0  501    0  0.00000000000E+00 -0.00000000000E+00 -0.14569030789E+04  0.14569030789E+04  0.50400000000E-02 0.  1.
     200001    2    1    2    0    0 -0.42842748038E+03 -0.69148567101E+02  0.99375732587E+02  0.83098503806E+03  0.70166157582E+03 0.  0.
    5000001    2    3    3    0    0 -0.22369277800E+03 -0.91267616388E+02  0.92815962236E+02  0.29019988545E+03  0.13127426990E+03 0.  0.
        -11    1    4    4    0    0 -0.63862979118E+02 -0.90248159169E+02  0.53834880155E+02  0.12296912074E+03  0.51100000000E-03 0. -1.
     200002    1    4    4    0    0 -0.15982979888E+03 -0.10194572190E+01  0.38981082081E+02  0.16723076470E+03  0.30000000000E+02 0. -1.
     200000    1    3    3    0    0 -0.20473470238E+03  0.22119049287E+02  0.65597703510E+01  0.54078515261E+03  0.50000000000E+03 0. -1.
    -200001    1    1    2    0    0  0.42842748038E+03  0.69148567101E+02 -0.93567440251E+03  0.12465224498E+04  0.70000000000E+03 0.  1.
<mgrwt>
<rscale>  0 0.19017471E+04</rscale>
<asrwt>0</asrwt>
<pdfrwt beam="1">  1        1 0.20812901E+00 0.19017471E+04</pdfrwt>
<pdfrwt beam="2">  1       -1 0.88657773E-01 0.19017471E+04</pdfrwt>
<totfact> 0.97271287E+00</totfact>
</mgrwt>
</event>
<event>
 8    1  0.2354930E-010  0.1512701E+04  0.7818608E-02  0.8876050E-01
         -1   -1    0    0    0  501 -0.00000000000E+00  0.00000000000E+00  0.37785826381E+03  0.37785826384E+03  0.50400000000E-02 0. -1.
          1   -1    0    0  501    0  0.00000000000E+00 -0.00000000000E+00 -0.15139704632E+04  0.15139704632E+04  0.50400000000E-02 0.  1.
     200001    2    1    2    0    0 -0.14614831512E+02 -0.12290151267E+03 -0.89247991933E+03  0.11403800841E+04  0.69901928058E+03 0.  0.
    5000001    2    3    3    0    0  0.11147091524E+03  0.27974583354E+02 -0.22692590007E+03  0.28503023492E+03  0.12860221009E+03 0.  0.
        -11    1    4    4    0    0  0.10376517777E+03 -0.27658950260E+02 -0.15957665199E+03  0.19234587988E+03  0.51100000000E-03 0. -1.
     200002    1    4    4    0    0  0.77057374703E+01  0.55633533614E+02 -0.67349248072E+02  0.92684355034E+02  0.30000000000E+02 0. -1.
     200000    1    3    3    0    0 -0.12608574675E+03 -0.15087609603E+03 -0.66555401926E+03  0.85534984915E+03  0.50000000000E+03 0.  1.
    -200001    1    1    2    0    0  0.14614831512E+02  0.12290151267E+03 -0.24363228003E+03  0.75144864295E+03  0.70000000000E+03 0. -1.
<mgrwt>
<rscale>  0 0.15127012E+04</rscale>
<asrwt>0</asrwt>
<pdfrwt beam="1">  1        1 0.21628149E+00 0.15127012E+04</pdfrwt>
<pdfrwt beam="2">  1       -1 0.53979753E-01 0.15127012E+04</pdfrwt>
<totfact> 0.25528963E+01</totfact>
</mgrwt>
</event>
<event>
 8    1  0.2354930E-010  0.2911867E+04  0.7818608E-02  0.8269356E-01
         -1   -1    0    0    0  501 -0.00000000000E+00  0.00000000000E+00  0.95192005991E+03  0.95192005993E+03  0.50400000000E-02 0.  1.
          1   -1    0    0  501    0  0.00000000000E+00 -0.00000000000E+00 -0.22268065033E+04  0.22268065033E+04  0.50400000000E-02 0. -1.
     200001    2    1    2    0    0 -0.71249814138E+03  0.10574002271E+04 -0.56636375162E+03  0.15607793309E+04  0.69965375644E+03 0.  0.
    5000001    2    3    3    0    0 -0.29379619555E+03  0.43059456085E+03 -0.22765668497E+03  0.59490193720E+03  0.17422074594E+03 0.  0.
        -11    1    4    4    0    0 -0.18936563101E+02 -0.15667089103E+02 -0.12137782211E+02  0.27411254264E+02  0.51100000000E-03 0. -1.
     200002    1    4    4    0    0 -0.27485963245E+03  0.44626164996E+03 -0.21551890275E+03  0.56749068293E+03  0.30000000000E+02 0. -1.
     200000    1    3    3    0    0 -0.41870194583E+03  0.62680566625E+03 -0.33870706665E+03  0.96587739371E+03  0.50000000000E+03 0. -1.
    -200001    1    1    2    0    0  0.71249814138E+03 -0.10574002271E+04 -0.70852269173E+03  0.16179472323E+04  0.70000000000E+03 0.  1.
<mgrwt>
<rscale>  0 0.29118666E+04</rscale>
<asrwt>0</asrwt>
<pdfrwt beam="1">  1        1 0.31811521E+00 0.29118666E+04</pdfrwt>
<pdfrwt beam="2">  1       -1 0.13598858E+00 0.29118666E+04</pdfrwt>
<totfact> 0.10464406E+00</totfact>
</mgrwt>
</event>
<event>
 8    1  0.2354930E-010  0.1525634E+04  0.7818608E-02  0.8867584E-01
         -1   -1    0    0    0  501 -0.00000000000E+00  0.00000000000E+00  0.56251188805E+03  0.56251188807E+03  0.50400000000E-02 0. -1.
          1   -1    0    0  501    0  0.00000000000E+00 -0.00000000000E+00 -0.10344482326E+04  0.10344482326E+04  0.50400000000E-02 0.  1.
     200001    2    1    2    0    0  0.24886121842E+03 -0.31458092472E+02 -0.41504436223E+03  0.85119996131E+03  0.69954130249E+03 0.  0.
    5000001    2    3    3    0    0  0.30466024508E+02  0.15324612240E+02 -0.25084016053E+03  0.27949365380E+03  0.11846051659E+03 0.  0.
        -11    1    4    4    0    0  0.44180618145E+02  0.47494527102E+02 -0.82418602577E+02  0.10488318824E+03  0.51100000000E-03 0. -1.
     200002    1    4    4    0    0 -0.13714593637E+02 -0.32169914862E+02 -0.16842155795E+03  0.17461046556E+03  0.30000000000E+02 0. -1.
     200000    1    3    3    0    0  0.21839519391E+03 -0.46782704712E+02 -0.16420420170E+03  0.57170630750E+03  0.50000000000E+03 0. -1.
    -200001    1    1    2    0    0 -0.24886121842E+03  0.31458092472E+02 -0.56891982292E+02  0.74576015934E+03  0.70000000000E+03 0. -1.
<mgrwt>
<rscale>  0 0.15256335E+04</rscale>
<asrwt>0</asrwt>
<pdfrwt beam="1">  1        1 0.14777832E+00 0.15256335E+04</pdfrwt>
<pdfrwt beam="2">  1       -1 0.80358841E-01 0.15256335E+04</pdfrwt>
<totfact> 0.24314381E+01</totfact>
</mgrwt>
</event>
<event>
 8    1  0.2354930E-010  0.1578092E+04  0.7818608E-02  0.8834121E-01
          1   -1    0    0  501    0  0.00000000000E+00  0.00000000000E+00  0.12807374703E+04  0.12807374703E+04  0.50400000000E-02 0.  1.
         -1   -1    0    0    0  501 -0.00000000000E+00 -0.00000000000E+00 -0.48612105772E+03  0.48612105774E+03  0.50400000000E-02 0. -1.
     200001    2    1    2    0    0  0.35947971698E+03 -0.61047521819E+02  0.38497173597E+03  0.87761096528E+03  0.69931774041E+03 0.  0.
    5000001    2    3    3    0    0  0.94579748348E+02  0.41902412090E+02  0.18884496468E+03  0.26996271778E+03  0.16283828595E+03 0.  0.
        -11    1    4    4    0    0  0.67206320165E+01 -0.56534401815E+02  0.66502885836E+02  0.87543927876E+02  0.51100000000E-03 0. -1.
     200002    1    4    4    0    0  0.87859116332E+02  0.98436813904E+02  0.12234207885E+03  0.18241878991E+03  0.30000000000E+02 0. -1.
     200000    1    3    3    0    0  0.26489996863E+03 -0.10294993391E+03  0.19612677129E+03  0.60764824750E+03  0.50000000000E+03 0. -1.
    -200001    1    1    2    0    0 -0.35947971698E+03  0.61047521819E+02  0.40964467664E+03  0.88924756280E+03  0.70000000000E+03 0. -1.
<mgrwt>
<rscale>  0 0.15780918E+04</rscale>
<asrwt>0</asrwt>
<pdfrwt beam="1">  1        1 0.18296249E+00 0.15780918E+04</pdfrwt>
<pdfrwt beam="2">  1       -1 0.69445867E-01 0.15780918E+04</pdfrwt>
<totfact> 0.21993594E+01</totfact>
</mgrwt>
</event>
<event>
 8    1  0.2354930E-010  0.1579839E+04  0.7818608E-02  0.8833030E-01
          1   -1    0    0  501    0  0.00000000000E+00  0.00000000000E+00  0.16868404499E+04  0.16868404499E+04  0.50400000000E-02 0. -1.
         -1   -1    0    0    0  501 -0.00000000000E+00 -0.00000000000E+00 -0.36990640148E+03  0.36990640151E+03  0.50400000000E-02 0.  1.
     200001    2    1    2    0    0  0.21325403446E+02 -0.22937663851E+03  0.29057289818E+03  0.79322572937E+03  0.70121753647E+03 0.  0.
    5000001    2    3    3    0    0  0.60349849330E+02 -0.33745790488E+02  0.10699845039E+03  0.22446047555E+03  0.18480517852E+03 0.  0.
        -11    1    4    4    0    0 -0.46774060805E+02 -0.49397441609E+02  0.86858821704E+02  0.11032848639E+03  0.51100000000E-03 0. -1.
     200002    1    4    4    0    0  0.10712391013E+03  0.15651651121E+02  0.20139628685E+02  0.11413198916E+03  0.30000000000E+02 0. -1.
     200000    1    3    3    0    0 -0.39024445884E+02 -0.19563084803E+03  0.18357444779E+03  0.56876525382E+03  0.50000000000E+03 0.  1.
    -200001    1    1    2    0    0 -0.21325403446E+02  0.22937663851E+03  0.10263611503E+04  0.12635211221E+04  0.70000000000E+03 0. -1.
<mgrwt>
<rscale>  0 0.15798393E+04</rscale>
<asrwt>0</asrwt>
<pdfrwt beam="1">  1        1 0.24097720E+00 0.15798393E+04</pdfrwt>
<pdfrwt beam="2">  1       -1 0.52843773E-01 0.15798393E+04</pdfrwt>
<totfact> 0.20463344E+01</totfact>
</mgrwt>
</event>
<event>
 8    1  0.2354930E-010  0.2031977E+04  0.7818608E-02  0.8591814E-01
         -1   -1    0    0    0  501 -0.00000000000E+00  0.00000000000E+00  0.49609402553E+03  0.49609402555E+03  0.50400000000E-02 0. -1.
          1   -1    0    0  501    0  0.00000000000E+00 -0.00000000000E+00 -0.20807206346E+04  0.20807206346E+04  0.50400000000E-02 0.  1.
     200001    2    1    2    0    0  0.26375344799E+03  0.65415199922E+03 -0.10656028541E+04  0.14557141394E+04  0.69721839731E+03 0.  0.
    5000001    2    3    3    0    0  0.82136026153E+02  0.19041425209E+03 -0.13622102454E+03  0.28875734021E+03  0.14771838007E+03 0.  0.
        -11    1    4    4    0    0  0.32391227055E+01  0.14716847815E+03 -0.37595236636E+02  0.15192911075E+03  0.51100000000E-03 0. -1.
     200002    1    4    4    0    0  0.78896903447E+02  0.43245773937E+02 -0.98625787903E+02  0.13682822946E+03  0.30000000000E+02 0. -1.
     200000    1    3    3    0    0  0.18161742184E+03  0.46373774714E+03 -0.92938182959E+03  0.11669567992E+04  0.50000000000E+03 0.  1.
    -200001    1    1    2    0    0 -0.26375344799E+03 -0.65415199922E+03 -0.51902375495E+03  0.11211005207E+04  0.70000000000E+03 0. -1.
<mgrwt>
<rscale>  0 0.20319774E+04</rscale>
<asrwt>0</asrwt>
<pdfrwt beam="1">  1        1 0.29724580E+00 0.20319774E+04</pdfrwt>
<pdfrwt beam="2">  1       -1 0.70870576E-01 0.20319774E+04</pdfrwt>
<totfact> 0.61889019E+00</totfact>
</mgrwt>
</event>
<event>
 8    1  0.2354930E-010  0.2083338E+04  0.7818608E-02  0.8568619E-01
         -1   -1    0    0    0  501 -0.00000000000E+00  0.00000000000E+00  0.10441130228E+04  0.10441130228E+04  0.50400000000E-02 0. -1.
          1   -1    0    0  501    0  0.00000000000E+00 -0.00000000000E+00 -0.10392308164E+04  0.10392308164E+04  0.50400000000E-02 0.  1.
     200001    2    1    2    0    0 -0.15954869811E+03 -0.39426204376E+03 -0.64222694395E+03  0.10394814926E+04  0.69797419705E+03 0.  0.
    5000001    2    3    3    0    0  0.81908577076E+02 -0.15184127213E+03 -0.22649669842E+03  0.30470187715E+03  0.10852507831E+03 0.  0.
        -11    1    4    4    0    0 -0.22132674939E+01  0.10918524168E+02 -0.40113054197E+02  0.41631356455E+02  0.51100000000E-03 0. -1.
     200002    1    4    4    0    0  0.84121844570E+02 -0.16275979630E+03 -0.18638364422E+03  0.26307052070E+03  0.30000000000E+02 0. -1.
     200000    1    3    3    0    0 -0.24145727518E+03 -0.24242077162E+03 -0.41573024553E+03  0.73477961547E+03  0.50000000000E+03 0.  1.
    -200001    1    1    2    0    0  0.15954869811E+03  0.39426204376E+03  0.64710915037E+03  0.10438623466E+04  0.70000000000E+03 0. -1.
<mgrwt>
<rscale>  0 0.20833381E+04</rscale>
<asrwt>0</asrwt>
<pdfrwt beam="1">  1        1 0.14846154E+00 0.20833381E+04</pdfrwt>
<pdfrwt beam="2">  1       -1 0.14915900E+00 0.20833381E+04</pdfrwt>
<totfact> 0.52867327E+00</totfact>
</mgrwt>
</event>
<event>
 8    1  0.2354930E-010  0.1690583E+04  0.7818608E-02  0.8766753E-01
         -1   -1    0    0    0  501 -0.00000000000E+00  0.00000000000E+00  0.75966010722E+03  0.75966010723E+03  0.50400000000E-02 0. -1.
          1   -1    0    0  501    0  0.00000000000E+00 -0.00000000000E+00 -0.94057566407E+03  0.94057566408E+03  0.50400000000E-02 0.  1.
     200001    2    1    2    0    0  0.44254818001E+03  0.10346116145E+03 -0.22725751377E+03  0.86435259734E+03  0.69921837176E+03 0.  0.
    5000001    2    3    3    0    0 -0.48726923476E+01  0.34014735667E+02 -0.79944919565E+02  0.17391125770E+03  0.15057619340E+03 0.  0.
        -11    1    4    4    0    0 -0.64068330850E+02  0.90282188049E+01 -0.80141259930E+02  0.10299942377E+03  0.51100000000E-03 0. -1.
     200002    1    4    4    0    0  0.59195638503E+02  0.24986516862E+02  0.19634036525E+00  0.70911833936E+02  0.30000000000E+02 0. -1.
     200000    1    3    3    0    0  0.44742087236E+03  0.69446425784E+02 -0.14731259420E+03  0.69044133964E+03  0.50000000000E+03 0.  1.
    -200001    1    1    2    0    0 -0.44254818001E+03 -0.10346116145E+03  0.46341956913E+02  0.83588317397E+03  0.70000000000E+03 0. -1.
<mgrwt>
<rscale>  0 0.16905831E+04</rscale>
<asrwt>0</asrwt>
<pdfrwt beam="1">  1        1 0.13436795E+00 0.16905831E+04</pdfrwt>
<pdfrwt beam="2">  1       -1 0.10852287E+00 0.16905831E+04</pdfrwt>
<totfact> 0.14417306E+01</totfact>
</mgrwt>
</event>
<event>
 8    1  0.2354930E-010  0.1753850E+04  0.7818608E-02  0.8731234E-01
         -1   -1    0    0    0  501 -0.00000000000E+00  0.00000000000E+00  0.79946427194E+03  0.79946427196E+03  0.50400000000E-02 0. -1.
          1   -1    0    0  501    0  0.00000000000E+00 -0.00000000000E+00 -0.96189118729E+03  0.96189118731E+03  0.50400000000E-02 0.  1.
     200001    2    1    2    0    0  0.22507301691E+03  0.47780161010E+03 -0.97804281872E+02  0.88207829801E+03  0.69967435619E+03 0.  0.
    5000001    2    3    3    0    0  0.43468233586E+02  0.16665646353E+03 -0.10775165397E+03  0.26572567996E+03  0.17127712600E+03 0.  0.
        -11    1    4    4    0    0 -0.56003513826E+02  0.92511929596E+02 -0.81498088147E+02  0.13541340056E+03  0.51100000000E-03 0. -1.
     200002    1    4    4    0    0  0.99471747412E+02  0.74144533934E+02 -0.26253565823E+02  0.13031227941E+03  0.30000000000E+02 0. -1.
     200000    1    3    3    0    0  0.18160478332E+03  0.31114514657E+03  0.99473720982E+01  0.61635261805E+03  0.50000000000E+03 0. -1.
    -200001    1    1    2    0    0 -0.22507301691E+03 -0.47780161010E+03 -0.64622633480E+02  0.87927716126E+03  0.70000000000E+03 0.  1.
<mgrwt>
<rscale>  0 0.17538502E+04</rscale>
<asrwt>0</asrwt>
<pdfrwt beam="1">  1        1 0.13741303E+00 0.17538502E+04</pdfrwt>
<pdfrwt beam="2">  1       -1 0.11420918E+00 0.17538502E+04</pdfrwt>
<totfact> 0.12233178E+01</totfact>
</mgrwt>
</event>
<event>
 8    1  0.2354930E-010  0.1546835E+04  0.7818608E-02  0.8853892E-01
          1   -1    0    0  501    0  0.00000000000E+00  0.00000000000E+00  0.46163716575E+04  0.46163716575E+04  0.50400000000E-02 0.  1.
         -1   -1    0    0    0  501 -0.00000000000E+00 -0.00000000000E+00 -0.12957683452E+03  0.12957683462E+03  0.50400000000E-02 0. -1.
     200001    2    1    2    0    0 -0.29945184822E+03  0.13679049913E+03  0.22368452661E+04  0.23667351645E+04  0.69969675153E+03 0.  0.
    5000001    2    3    3    0    0 -0.10629938048E+03  0.45501004315E+02  0.72735792773E+03  0.76230577294E+03  0.19669935620E+03 0.  0.
        -11    1    4    4    0    0 -0.34726268015E+02  0.11539995957E+03  0.32535749237E+03  0.34695902093E+03  0.51100000000E-03 0. -1.
     200002    1    4    4    0    0 -0.71573112461E+02 -0.69898955258E+02  0.40200043536E+03  0.41534675201E+03  0.30000000000E+02 0. -1.
     200000    1    3    3    0    0 -0.19315246774E+03  0.91289494819E+02  0.15094873384E+04  0.16044293916E+04  0.50000000000E+03 0.  1.
    -200001    1    1    2    0    0  0.29945184822E+03 -0.13679049913E+03  0.22499495568E+04  0.23792133276E+04  0.70000000000E+03 0.  1.
<mgrwt>
<rscale>  0 0.15468353E+04</rscale>
<asrwt>0</asrwt>
<pdfrwt beam="1">  1        1 0.65948165E+00 0.15468353E+04</pdfrwt>
<pdfrwt beam="2">  1       -1 0.18510977E-01 0.15468353E+04</pdfrwt>
<totfact> 0.12051398E+00</totfact>
</mgrwt>
</event>
<event>
 8    1  0.2354930E-010  0.1489630E+04  0.7818608E-02  0.8891378E-01
         -1   -1    0    0    0  501 -0.00000000000E+00  0.00000000000E+00  0.12281654816E+04  0.12281654816E+04  0.50400000000E-02 0. -1.
          1   -1    0    0  501    0  0.00000000000E+00 -0.00000000000E+00 -0.45168965463E+03  0.45168965466E+03  0.50400000000E-02 0.  1.
     200001    2    1    2    0    0  0.20790312129E+03  0.13338792207E+03  0.45817304851E+03  0.87218397522E+03  0.69983305056E+03 0.  0.
    5000001    2    3    3    0    0 -0.66372309672E+02  0.32985658859E+02  0.17696528173E+03  0.22845621088E+03  0.12402496593E+03 0.  0.
        -11    1    4    4    0    0 -0.42604201235E+02 -0.37185206340E+02  0.37960747275E+02  0.68109293546E+02  0.51100000000E-03 0. -1.
     200002    1    4    4    0    0 -0.23768108437E+02  0.70170865199E+02  0.13900453445E+03  0.16034691734E+03  0.30000000000E+02 0. -1.
     200000    1    3    3    0    0  0.27427543096E+03  0.10040226321E+03  0.28120776679E+03  0.64372776434E+03  0.50000000000E+03 0.  1.
    -200001    1    1    2    0    0 -0.20790312129E+03 -0.13338792207E+03  0.31830277845E+03  0.80767116103E+03  0.70000000000E+03 0. -1.
<mgrwt>
<rscale>  0 0.14896303E+04</rscale>
<asrwt>0</asrwt>
<pdfrwt beam="1">  1        1 0.64527093E-01 0.14896303E+04</pdfrwt>
<pdfrwt beam="2">  1       -1 0.17545221E+00 0.14896303E+04</pdfrwt>
<totfact> 0.12261467E+01</totfact>
</mgrwt>
</event>
<event>
 8    1  0.2354930E-010  0.1659161E+04  0.7818608E-02  0.8785005E-01
          1   -1    0    0  501    0  0.00000000000E+00  0.00000000000E+00  0.22252636289E+04  0.22252636289E+04  0.50400000000E-02 0.  1.
         -1   -1    0    0    0  501 -0.00000000000E+00 -0.00000000000E+00 -0.30926836449E+03  0.30926836454E+03  0.50400000000E-02 0. -1.
     200001    2    1    2    0    0  0.26273319504E+03 -0.13238574645E+03  0.44940408855E+03  0.88303437166E+03  0.70087869784E+03 0.  0.
    5000001    2    3    3    0    0  0.97327474284E+02 -0.98463533985E+02  0.71719887974E+02  0.23406971598E+03  0.17457716011E+03 0.  0.
        -11    1    4    4    0    0  0.11104399318E+03 -0.12939891816E+03  0.79578018816E+02  0.18816883249E+03  0.51100000000E-03 0. -1.
     200002    1    4    4    0    0 -0.13716518893E+02  0.30935384176E+02 -0.78581308422E+01  0.45900883488E+02  0.30000000000E+02 0. -1.
     200000    1    3    3    0    0  0.16540572076E+03 -0.33922212469E+02  0.37768420058E+03  0.64896465568E+03  0.50000000000E+03 0. -1.
    -200001    1    1    2    0    0 -0.26273319504E+03  0.13238574645E+03  0.14665911758E+04  0.16514976218E+04  0.70000000000E+03 0.  1.
<mgrwt>
<rscale>  0 0.16591608E+04</rscale>
<asrwt>0</asrwt>
<pdfrwt beam="1">  1        1 0.31789481E+00 0.16591608E+04</pdfrwt>
<pdfrwt beam="2">  1       -1 0.44181194E-01 0.16591608E+04</pdfrwt>
<totfact> 0.13033338E+01</totfact>
</mgrwt>
</event>
<event>
 8    1  0.2354930E-010  0.1603966E+04  0.7818608E-02  0.8818115E-01
          1   -1    0    0  501    0  0.00000000000E+00  0.00000000000E+00  0.97359257482E+03  0.97359257483E+03  0.50400000000E-02 0.  1.
         -1   -1    0    0    0  501 -0.00000000000E+00 -0.00000000000E+00 -0.66062229051E+03  0.66062229053E+03  0.50400000000E-02 0. -1.
     200001    2    1    2    0    0  0.32564210482E+03 -0.21825268662E+03  0.12012067949E+03  0.80906761443E+03  0.69748434493E+03 0.  0.
    5000001    2    3    3    0    0  0.47163381583E+02 -0.96519031455E+02 -0.12730994992E+02  0.20905174005E+03  0.17888611961E+03 0.  0.
        -11    1    4    4    0    0  0.76186534927E+02 -0.79779799817E+02 -0.74156611605E+02  0.13292256245E+03  0.51100000000E-03 0. -1.
     200002    1    4    4    0    0 -0.29023153344E+02 -0.16739231639E+02  0.61425616613E+02  0.76129177601E+02  0.30000000000E+02 0. -1.
     200000    1    3    3    0    0  0.27847872323E+03 -0.12173365516E+03  0.13285167448E+03  0.60001587438E+03  0.50000000000E+03 0.  1.
    -200001    1    1    2    0    0 -0.32564210482E+03  0.21825268662E+03  0.19284960482E+03  0.82514725093E+03  0.70000000000E+03 0.  1.
<mgrwt>
<rscale>  0 0.16039663E+04</rscale>
<asrwt>0</asrwt>
<pdfrwt beam="1">  1        1 0.13908465E+00 0.16039663E+04</pdfrwt>
<pdfrwt beam="2">  1       -1 0.94374612E-01 0.16039663E+04</pdfrwt>
<totfact> 0.18885914E+01</totfact>
</mgrwt>
</event>
<event>
 8    1  0.2354930E-010  0.1838367E+04  0.7818608E-02  0.8686158E-01
          1   -1    0    0  501    0  0.00000000000E+00  0.00000000000E+00  0.10620385049E+04  0.10620385049E+04  0.50400000000E-02 0.  1.
         -1   -1    0    0    0  501 -0.00000000000E+00 -0.00000000000E+00 -0.79554403686E+03  0.79554403688E+03  0.50400000000E-02 0. -1.
     200001    2    1    2    0    0 -0.59855525145E+02  0.76481298471E+02 -0.46019323312E+03  0.84392229893E+03  0.70071032668E+03 0.  0.
    5000001    2    3    3    0    0  0.16419918189E+02  0.33975171421E+01 -0.16257756264E+03  0.25253894639E+03  0.19251830752E+03 0.  0.
        -11    1    4    4    0    0  0.93779025263E+01  0.50831300226E+01 -0.20210744611E+03  0.20238874237E+03  0.51100000000E-03 0. -1.
     200002    1    4    4    0    0  0.70420156627E+01 -0.16856128805E+01  0.39529883470E+02  0.50150204013E+02  0.30000000000E+02 0. -1.
     200000    1    3    3    0    0 -0.76275443334E+02  0.73083781329E+02 -0.29761567049E+03  0.59138335255E+03  0.50000000000E+03 0. -1.
    -200001    1    1    2    0    0  0.59855525145E+02 -0.76481298471E+02  0.72668770112E+03  0.10136602428E+04  0.70000000000E+03 0.  1.
<mgrwt>
<rscale>  0 0.18383671E+04</rscale>
<asrwt>0</asrwt>
<pdfrwt beam="1">  1        1 0.15171979E+00 0.18383671E+04</pdfrwt>
<pdfrwt beam="2">  1       -1 0.11364915E+00 0.18383671E+04</pdfrwt>
<totfact> 0.10345923E+01</totfact>
</mgrwt>
</event>
<event>
 8    1  0.2354930E-010  0.1491662E+04  0.7818608E-02  0.8890017E-01
         -1   -1    0    0    0  501 -0.00000000000E+00  0.00000000000E+00  0.19677654620E+03  0.19677654626E+03  0.50400000000E-02 0. -1.
          1   -1    0    0  501    0  0.00000000000E+00 -0.00000000000E+00 -0.28268796425E+04  0.28268796425E+04  0.50400000000E-02 0.  1.
     200001    2    1    2    0    0  0.23694056592E+03 -0.43453884747E+02 -0.14969378926E+04  0.16701080918E+04  0.70029201922E+03 0.  0.
    5000001    2    3    3    0    0  0.15043478011E+02 -0.31741310750E+02 -0.50808231672E+03  0.53997055507E+03  0.17940664075E+03 0.  0.
        -11    1    4    4    0    0  0.98143019732E+01  0.56680050257E+02 -0.63592475545E+02  0.85749353155E+02  0.51100000000E-03 0. -1.
     200002    1    4    4    0    0  0.52291760374E+01 -0.88421361007E+02 -0.44448984117E+03  0.45422120191E+03  0.30000000000E+02 0. -1.
     200000    1    3    3    0    0  0.22189708791E+03 -0.11712573997E+02 -0.98885557590E+03  0.11301375368E+04  0.50000000000E+03 0.  1.
    -200001    1    1    2    0    0 -0.23694056592E+03  0.43453884747E+02 -0.11331652037E+04  0.13535480970E+04  0.70000000000E+03 0. -1.
<mgrwt>
<rscale>  0 0.14916616E+04</rscale>
<asrwt>0</asrwt>
<pdfrwt beam="1">  1        1 0.40383992E+00 0.14916616E+04</pdfrwt>
<pdfrwt beam="2">  1       -1 0.28110937E-01 0.14916616E+04</pdfrwt>
<totfact> 0.12323431E+01</totfact>
</mgrwt>
</event>
<event>
 8    1  0.2354930E-010  0.1506743E+04  0.7818608E-02  0.8879981E-01
          1   -1    0    0  501    0  0.00000000000E+00  0.00000000000E+00  0.88187827902E+03  0.88187827904E+03  0.50400000000E-02 0.  1.
         -1   -1    0    0    0  501 -0.00000000000E+00 -0.00000000000E+00 -0.64359095502E+03  0.64359095504E+03  0.50400000000E-02 0. -1.
     200001    2    1    2    0    0 -0.26130963877E+03 -0.39944779985E+02  0.20901648628E+03  0.77664676199E+03  0.69972422325E+03 0.  0.
    5000001    2    3    3    0    0  0.14521092317E+02 -0.91899332680E+01 -0.56548757395E+02  0.14612844230E+03  0.13364296723E+03 0.  0.
        -11    1    4    4    0    0 -0.18499814640E+02  0.54116421349E+02 -0.26876906770E+02  0.63191758316E+02  0.51100000000E-03 0. -1.
     200002    1    4    4    0    0  0.33020906957E+02 -0.63306354617E+02 -0.29671850625E+02  0.82936683986E+02  0.30000000000E+02 0. -1.
     200000    1    3    3    0    0 -0.27583073109E+03 -0.30754846717E+02  0.26556524368E+03  0.63051831968E+03  0.50000000000E+03 0. -1.
    -200001    1    1    2    0    0  0.26130963877E+03  0.39944779985E+02  0.29270837724E+02  0.74882247209E+03  0.70000000000E+03 0.  1.
<mgrwt>
<rscale>  0 0.15067434E+04</rscale>
<asrwt>0</asrwt>
<pdfrwt beam="1">  1        1 0.12598261E+00 0.15067434E+04</pdfrwt>
<pdfrwt beam="2">  1       -1 0.91941565E-01 0.15067434E+04</pdfrwt>
<totfact> 0.23785138E+01</totfact>
</mgrwt>
</event>
<event>
 8    1  0.2354930E-010  0.1629161E+04  0.7818608E-02  0.8802831E-01
          1   -1    0    0  501    0  0.00000000000E+00  0.00000000000E+00  0.24462967486E+04  0.24462967486E+04  0.50400000000E-02 0.  1.
         -1   -1    0    0    0  501 -0.00000000000E+00 -0.00000000000E+00 -0.27124323143E+03  0.27124323148E+03  0.50400000000E-02 0. -1.
     200001    2    1    2    0    0  0.20832378394E+03  0.35990455641E+03  0.10466678619E+04  0.13260715918E+04  0.70001583171E+03 0.  0.
    5000001    2    3    3    0    0  0.16306974749E+03  0.18558240096E+03  0.29070116071E+03  0.40199270173E+03  0.12672173179E+03 0.  0.
        -11    1    4    4    0    0  0.80972001896E+02  0.18229160073E+02  0.53184624514E+02  0.98576729774E+02  0.51100000000E-03 0. -1.
     200002    1    4    4    0    0  0.82097745598E+02  0.16735324089E+03  0.23751653620E+03  0.30341597195E+03  0.30000000000E+02 0. -1.
     200000    1    3    3    0    0  0.45254036446E+02  0.17432215545E+03  0.75596670122E+03  0.92407889005E+03  0.50000000000E+03 0.  1.
    -200001    1    1    2    0    0 -0.20832378394E+03 -0.35990455641E+03  0.11283856552E+04  0.13914683883E+04  0.70000000000E+03 0.  1.
<mgrwt>
<rscale>  0 0.16291611E+04</rscale>
<asrwt>0</asrwt>
<pdfrwt beam="1">  1        1 0.34947094E+00 0.16291611E+04</pdfrwt>
<pdfrwt beam="2">  1       -1 0.38749036E-01 0.16291611E+04</pdfrwt>
<totfact> 0.12061652E+01</totfact>
</mgrwt>
</event>
<event>
 8    1  0.2354930E-010  0.1599695E+04  0.7818608E-02  0.8820735E-01
          1   -1    0    0  501    0  0.00000000000E+00  0.00000000000E+00  0.12250100345E+04  0.12250100345E+04  0.50400000000E-02 0.  1.
         -1   -1    0    0    0  501 -0.00000000000E+00 -0.00000000000E+00 -0.52224549002E+03  0.52224549004E+03  0.50400000000E-02 0. -1.
     200001    2    1    2    0    0  0.22915737706E+03  0.28359252795E+03  0.22119270528E+03  0.82267493766E+03  0.70351262591E+03 0.  0.
    5000001    2    3    3    0    0  0.14778961367E+03  0.14321977666E+03 -0.21977837002E+02  0.24348832278E+03  0.12825702194E+03 0.  0.
        -11    1    4    4    0    0  0.14957968898E+03  0.88875470644E+02  0.87299745932E+01  0.17421006025E+03  0.51100000000E-03 0. -1.
     200002    1    4    4    0    0 -0.17900753068E+01  0.54344306015E+02 -0.30707811595E+02  0.69278262527E+02  0.30000000000E+02 0. -1.
     200000    1    3    3    0    0  0.81367763391E+02  0.14037275129E+03  0.24317054228E+03  0.57918661488E+03  0.50000000000E+03 0. -1.
    -200001    1    1    2    0    0 -0.22915737706E+03 -0.28359252795E+03  0.48157183923E+03  0.92458058692E+03  0.70000000000E+03 0.  1.
<mgrwt>
<rscale>  0 0.15996949E+04</rscale>
<asrwt>0</asrwt>
<pdfrwt beam="1">  1        1 0.17500143E+00 0.15996949E+04</pdfrwt>
<pdfrwt beam="2">  1       -1 0.74606499E-01 0.15996949E+04</pdfrwt>
<totfact> 0.20672211E+01</totfact>
</mgrwt>
</event>
<event>
 8    1  0.2354930E-010  0.1709393E+04  0.7818608E-02  0.8756025E-01
         -1   -1    0    0    0  501 -0.00000000000E+00  0.00000000000E+00  0.45531501782E+03  0.45531501785E+03  0.50400000000E-02 0. -1.
          1   -1    0    0  501    0  0.00000000000E+00 -0.00000000000E+00 -0.16043974322E+04  0.16043974322E+04  0.50400000000E-02 0.  1.
     200001    2    1    2    0    0 -0.36867611710E+03  0.12799188511E+02 -0.18973422877E+03  0.81615511734E+03  0.70286855061E+03 0.  0.
    5000001    2    3    3    0    0 -0.17024474755E+03 -0.10070901404E+03 -0.11169253452E+03  0.26086273804E+03  0.12825196393E+03 0.  0.
        -11    1    4    4    0    0 -0.14153811426E+03 -0.20051461137E+02 -0.84939840035E+02  0.16628251655E+03  0.51100000000E-03 0. -1.
     200002    1    4    4    0    0 -0.28706633282E+02 -0.80657552904E+02 -0.26752694489E+02  0.94580221491E+02  0.30000000000E+02 0. -1.
     200000    1    3    3    0    0 -0.19843136956E+03  0.11350820255E+03 -0.78041694243E+02  0.55529237930E+03  0.50000000000E+03 0. -1.
    -200001    1    1    2    0    0  0.36867611710E+03 -0.12799188511E+02 -0.95934818564E+03  0.12435573328E+04  0.70000000000E+03 0.  1.
<mgrwt>
<rscale>  0 0.17093932E+04</rscale>
<asrwt>0</asrwt>
<pdfrwt beam="1">  1        1 0.22919963E+00 0.17093932E+04</pdfrwt>
<pdfrwt beam="2">  1       -1 0.65045003E-01 0.17093932E+04</pdfrwt>
<totfact> 0.15193260E+01</totfact>
</mgrwt>
</event>
<event>
 8    1  0.2354930E-010  0.1715642E+04  0.7818608E-02  0.8752493E-01
         -1   -1    0    0    0  501 -0.00000000000E+00  0.00000000000E+00  0.14536557654E+04  0.14536557654E+04  0.50400000000E-02 0. -1.
          1   -1    0    0  501    0  0.00000000000E+00 -0.00000000000E+00 -0.50621147178E+03  0.50621147181E+03  0.50400000000E-02 0.  1.
     200001    2    1    2    0    0  0.20454647548E+03 -0.91211218605E+02  0.97872804560E+03  0.12242468051E+04  0.70050903318E+03 0.  0.
    5000001    2    3    3    0    0 -0.49226150004E+02  0.16333699766E+02  0.51673089697E+02  0.13548726042E+03  0.11400300849E+03 0.  0.
        -11    1    4    4    0    0 -0.74730658604E+01 -0.43806882780E+02  0.29421112745E+02  0.53296262230E+02  0.51100000000E-03 0. -1.
     200002    1    4    4    0    0 -0.41753084143E+02  0.60140582547E+02  0.22251976952E+02  0.82190998186E+02  0.30000000000E+02 0. -1.
     200000    1    3    3    0    0  0.25377262548E+03 -0.10754491837E+03  0.92705495590E+03  0.10887595447E+04  0.50000000000E+03 0. -1.
    -200001    1    1    2    0    0 -0.20454647548E+03  0.91211218605E+02 -0.31283751956E+02  0.73562043213E+03  0.70000000000E+03 0.  1.
<mgrwt>
<rscale>  0 0.17156424E+04</rscale>
<asrwt>0</asrwt>
<pdfrwt beam="1">  1        1 0.72315924E-01 0.17156424E+04</pdfrwt>
<pdfrwt beam="2">  1       -1 0.20766511E+00 0.17156424E+04</pdfrwt>
<totfact> 0.61319084E+00</totfact>
</mgrwt>
</event>
<event>
 8    1  0.2354930E-010  0.1412340E+04  0.7818608E-02  0.8944934E-01
          1   -1    0    0  501    0  0.00000000000E+00  0.00000000000E+00  0.44999100289E+03  0.44999100292E+03  0.50400000000E-02 0. -1.
         -1   -1    0    0    0  501 -0.00000000000E+00 -0.00000000000E+00 -0.11081912037E+04  0.11081912037E+04  0.50400000000E-02 0.  1.
     200001    2    1    2    0    0 -0.61061982598E+01  0.55309312747E+02 -0.41182807990E+03  0.81400774610E+03  0.69993559531E+03 0.  0.
    5000001    2    3    3    0    0 -0.12871119661E+02 -0.11443199427E+03 -0.14705378333E+03  0.22327658593E+03  0.12234080104E+03 0.  0.
        -11    1    4    4    0    0  0.34136210782E+02 -0.86216101431E+00 -0.76027346953E+01  0.34983221453E+02  0.51100000000E-03 0. -1.
     200002    1    4    4    0    0 -0.47007330442E+02 -0.11356983326E+03 -0.13945104864E+03  0.18829336448E+03  0.30000000000E+02 0. -1.
     200000    1    3    3    0    0  0.67649214008E+01  0.16974130702E+03 -0.26477429657E+03  0.59073116017E+03  0.50000000000E+03 0.  1.
    -200001    1    1    2    0    0  0.61061982598E+01 -0.55309312747E+02 -0.24637212089E+03  0.74417446052E+03  0.70000000000E+03 0. -1.
<mgrwt>
<rscale>  0 0.14123400E+04</rscale>
<asrwt>0</asrwt>
<pdfrwt beam="1">  1        1 0.64284429E-01 0.14123400E+04</pdfrwt>
<pdfrwt beam="2">  1       -1 0.15831303E+00 0.14123400E+04</pdfrwt>
<totfact> 0.16623904E+01</totfact>
</mgrwt>
</event>
<event>
 8    1  0.2354930E-010  0.1904205E+04  0.7818608E-02  0.8652766E-01
         -1   -1    0    0    0  501 -0.00000000000E+00  0.00000000000E+00  0.30215673517E+03  0.30215673521E+03  0.50400000000E-02 0. -1.
          1   -1    0    0  501    0  0.00000000000E+00 -0.00000000000E+00 -0.30000945965E+04  0.30000945965E+04  0.50400000000E-02 0.  1.
     200001    2    1    2    0    0  0.36644766946E+03 -0.26957619553E+03 -0.55548532643E+03  0.10028909676E+04  0.70019363423E+03 0.  0.
    5000001    2    3    3    0    0  0.12190835169E+03 -0.21873947210E+02 -0.17207066463E+03  0.28305578882E+03  0.18754239569E+03 0.  0.
        -11    1    4    4    0    0  0.58912865451E+02  0.52851958655E+02 -0.16203015645E+03  0.18032699978E+03  0.51100000000E-03 0. -1.
     200002    1    4    4    0    0  0.62995486236E+02 -0.74725905865E+02 -0.10040508180E+02  0.10272878904E+03  0.30000000000E+02 0. -1.
     200000    1    3    3    0    0  0.24453931777E+03 -0.24770224832E+03 -0.38341466180E+03  0.71983517880E+03  0.50000000000E+03 0.  1.
    -200001    1    1    2    0    0 -0.36644766946E+03  0.26957619553E+03 -0.21424525349E+04  0.22993603641E+04  0.70000000000E+03 0.  1.
<mgrwt>
<rscale>  0 0.19042046E+04</rscale>
<asrwt>0</asrwt>
<pdfrwt beam="1">  1        1 0.42858493E+00 0.19042046E+04</pdfrwt>
<pdfrwt beam="2">  1       -1 0.43165250E-01 0.19042046E+04</pdfrwt>
<totfact> 0.42404198E+00</totfact>
</mgrwt>
</event>
<event>
 8    1  0.2354930E-010  0.1858584E+04  0.7818608E-02  0.8675751E-01
         -1   -1    0    0    0  501 -0.00000000000E+00  0.00000000000E+00  0.20018210397E+04  0.20018210397E+04  0.50400000000E-02 0. -1.
          1   -1    0    0  501    0  0.00000000000E+00 -0.00000000000E+00 -0.43139900130E+03  0.43139900133E+03  0.50400000000E-02 0.  1.
     200001    2    1    2    0    0  0.20322879874E+03 -0.30333861715E+03  0.14257405041E+04  0.16305688044E+04  0.70192761708E+03 0.  0.
    5000001    2    3    3    0    0  0.51747075167E+02 -0.16046186258E+03  0.46212846628E+03  0.52516904008E+03  0.18388592165E+03 0.  0.
        -11    1    4    4    0    0  0.10993324607E+03 -0.62253218188E+02  0.29147286630E+03  0.31767469770E+03  0.51100000000E-03 0. -1.
     200002    1    4    4    0    0 -0.58186170900E+02 -0.98208644389E+02  0.17065559998E+03  0.20749434238E+03  0.30000000000E+02 0. -1.
     200000    1    3    3    0    0  0.15148172358E+03 -0.14287675457E+03  0.96361203781E+03  0.11053997643E+04  0.50000000000E+03 0. -1.
    -200001    1    1    2    0    0 -0.20322879874E+03  0.30333861715E+03  0.14468153432E+03  0.80265123663E+03  0.70000000000E+03 0.  1.
<mgrwt>
<rscale>  0 0.18585840E+04</rscale>
<asrwt>0</asrwt>
<pdfrwt beam="1">  1        1 0.61628427E-01 0.18585840E+04</pdfrwt>
<pdfrwt beam="2">  1       -1 0.28597444E+00 0.18585840E+04</pdfrwt>
<totfact> 0.22975987E+00</totfact>
</mgrwt>
</event>
<event>
 8    1  0.2354930E-010  0.2024558E+04  0.7818608E-02  0.8595224E-01
         -1   -1    0    0    0  501 -0.00000000000E+00  0.00000000000E+00  0.35157193911E+03  0.35157193915E+03  0.50400000000E-02 0.  1.
          1   -1    0    0  501    0  0.00000000000E+00 -0.00000000000E+00 -0.29146494773E+04  0.29146494773E+04  0.50400000000E-02 0. -1.
     200001    2    1    2    0    0  0.34402460856E+03  0.49438852254E+03 -0.19501980390E+04  0.21578919424E+04  0.70032299789E+03 0.  0.
    5000001    2    3    3    0    0  0.68082836085E+02  0.21010520262E+03 -0.58811525018E+03  0.65382067039E+03  0.18116967957E+03 0.  0.
        -11    1    4    4    0    0 -0.58828713172E+02  0.87582132116E+02 -0.18964893520E+03  0.21702111874E+03  0.51100000000E-03 0. -1.
     200002    1    4    4    0    0  0.12691154926E+03  0.12252307051E+03 -0.39846631499E+03  0.43679955165E+03  0.30000000000E+02 0. -1.
     200000    1    3    3    0    0  0.27594177247E+03  0.28428331992E+03 -0.13620827888E+04  0.15040712720E+04  0.50000000000E+03 0. -1.
    -200001    1    1    2    0    0 -0.34402460856E+03 -0.49438852254E+03 -0.61287949926E+03  0.11083294741E+04  0.70000000000E+03 0.  1.
<mgrwt>
<rscale>  0 0.20245582E+04</rscale>
<asrwt>0</asrwt>
<pdfrwt beam="1">  1        1 0.41637848E+00 0.20245582E+04</pdfrwt>
<pdfrwt beam="2">  1       -1 0.50224564E-01 0.20245582E+04</pdfrwt>
<totfact> 0.35921791E+00</totfact>
</mgrwt>
</event>
<event>
 8    1  0.2354930E-010  0.1827126E+04  0.7818608E-02  0.8692005E-01
          1   -1    0    0  501    0  0.00000000000E+00  0.00000000000E+00  0.20376374285E+04  0.20376374286E+04  0.50400000000E-02 0.  1.
         -1   -1    0    0    0  501 -0.00000000000E+00 -0.00000000000E+00 -0.40959091856E+03  0.40959091859E+03  0.50400000000E-02 0. -1.
     200001    2    1    2    0    0  0.26117159693E+03  0.30685994384E+02  0.15161212550E+04  0.16911334483E+04  0.70153862833E+03 0.  0.
    5000001    2    3    3    0    0  0.61215824796E+02  0.11638721851E+03  0.50136772999E+03  0.53915613646E+03  0.14841285987E+03 0.  0.
        -11    1    4    4    0    0  0.29253792362E+02 -0.30681422800E+02  0.77089833254E+02  0.87977136030E+02  0.51100000000E-03 0. -1.
     200002    1    4    4    0    0  0.31962032434E+02  0.14706864131E+03  0.42427789673E+03  0.45117900043E+03  0.30000000000E+02 0. -1.
     200000    1    3    3    0    0  0.19995577214E+03 -0.85701224127E+02  0.10147535250E+04  0.11519773119E+04  0.50000000000E+03 0.  1.
    -200001    1    1    2    0    0 -0.26117159693E+03 -0.30685994384E+02  0.11192525504E+03  0.75609489881E+03  0.70000000000E+03 0. -1.
<mgrwt>
<rscale>  0 0.18271265E+04</rscale>
<asrwt>0</asrwt>
<pdfrwt beam="1">  1        1 0.29109107E+00 0.18271265E+04</pdfrwt>
<pdfrwt beam="2">  1       -1 0.58512986E-01 0.18271265E+04</pdfrwt>
<totfact> 0.98583045E+00</totfact>
</mgrwt>
</event>
<event>
 8    1  0.2354930E-010  0.1562388E+04  0.7818608E-02  0.8843994E-01
         -1   -1    0    0    0  501 -0.00000000000E+00  0.00000000000E+00  0.17220088159E+03  0.17220088166E+03  0.50400000000E-02 0.  1.
          1   -1    0    0  501    0  0.00000000000E+00 -0.00000000000E+00 -0.35439077964E+04  0.35439077964E+04  0.50400000000E-02 0. -1.
     200001    2    1    2    0    0  0.30372316777E+03  0.55077754774E+02 -0.13126791440E+04  0.15195484848E+04  0.70044253212E+03 0.  0.
    5000001    2    3    3    0    0  0.15523672917E+03  0.25570916455E+02 -0.46179190842E+03  0.52108568447E+03  0.18310163849E+03 0.  0.
        -11    1    4    4    0    0  0.14049549465E+03  0.90769047888E+02 -0.30005113732E+03  0.34352392795E+03  0.51100000000E-03 0. -1.
     200002    1    4    4    0    0  0.14741234524E+02 -0.65198131432E+02 -0.16174077111E+03  0.17756175651E+03  0.30000000000E+02 0. -1.
     200000    1    3    3    0    0  0.14848643860E+03  0.29506838318E+02 -0.85088723556E+03  0.99846280030E+03  0.50000000000E+03 0.  1.
    -200001    1    1    2    0    0 -0.30372316777E+03 -0.55077754774E+02 -0.20590277708E+04  0.21965601933E+04  0.70000000000E+03 0.  1.
<mgrwt>
<rscale>  0 0.15623880E+04</rscale>
<asrwt>0</asrwt>
<pdfrwt beam="1">  1        1 0.50627250E+00 0.15623880E+04</pdfrwt>
<pdfrwt beam="2">  1       -1 0.24600128E-01 0.15623880E+04</pdfrwt>
<totfact> 0.50781397E+00</totfact>
</mgrwt>
</event>
<event>
 8    1  0.2354930E-010  0.2205995E+04  0.7818608E-02  0.8515937E-01
         -1   -1    0    0    0  501 -0.00000000000E+00  0.00000000000E+00  0.23422769262E+04  0.23422769263E+04  0.50400000000E-02 0. -1.
          1   -1    0    0  501    0  0.00000000000E+00 -0.00000000000E+00 -0.51941052889E+03  0.51941052892E+03  0.50400000000E-02 0.  1.
     200001    2    1    2    0    0 -0.21665783474E+03 -0.82097163996E+03  0.10079015450E+04  0.14923435387E+04  0.70020615687E+03 0.  0.
    5000001    2    3    3    0    0 -0.73032748982E+02 -0.42945977200E+03  0.38127284407E+03  0.58869911923E+03  0.10690272760E+03 0.  0.
        -11    1    4    4    0    0 -0.83711878678E+02 -0.20631018158E+03  0.17565776020E+03  0.28359692941E+03  0.51100000000E-03 0. -1.
     200002    1    4    4    0    0  0.10679129696E+02 -0.22314959042E+03  0.20561508387E+03  0.30510218982E+03  0.30000000000E+02 0. -1.
     200000    1    3    3    0    0 -0.14362508576E+03 -0.39151186797E+03  0.62662870095E+03  0.90364441949E+03  0.50000000000E+03 0. -1.
    -200001    1    1    2    0    0  0.21665783474E+03  0.82097163996E+03  0.81496485233E+03  0.13693439164E+04  0.70000000000E+03 0.  1.
<mgrwt>
<rscale>  0 0.22059948E+04</rscale>
<asrwt>0</asrwt>
<pdfrwt beam="1">  1        1 0.74201506E-01 0.22059948E+04</pdfrwt>
<pdfrwt beam="2">  1       -1 0.33461098E+00 0.22059948E+04</pdfrwt>
<totfact> 0.83753744E-01</totfact>
</mgrwt>
</event>
<event>
 8    1  0.2354930E-010  0.1488715E+04  0.7818608E-02  0.8891992E-01
         -1   -1    0    0    0  501 -0.00000000000E+00  0.00000000000E+00  0.33143195528E+03  0.33143195532E+03  0.50400000000E-02 0. -1.
          1   -1    0    0  501    0  0.00000000000E+00 -0.00000000000E+00 -0.16717401701E+04  0.16717401701E+04  0.50400000000E-02 0.  1.
     200001    2    1    2    0    0 -0.17102812381E+03  0.16185062934E+03 -0.54655344326E+03  0.91897062999E+03  0.70024289150E+03 0.  0.
    5000001    2    3    3    0    0  0.33143296811E+02  0.16180812794E+03 -0.13052301552E+03  0.23723219950E+03  0.10937326231E+03 0.  0.
        -11    1    4    4    0    0  0.53369392169E+02  0.63579780404E+02 -0.96212024974E+02  0.12707255505E+03  0.51100000000E-03 0. -1.
     200002    1    4    4    0    0 -0.20226095358E+02  0.98228347534E+02 -0.34310990542E+02  0.11015964445E+03  0.30000000000E+02 0. -1.
     200000    1    3    3    0    0 -0.20417142062E+03  0.42501401399E-01 -0.41603042775E+03  0.68173843050E+03  0.50000000000E+03 0. -1.
    -200001    1    1    2    0    0  0.17102812381E+03 -0.16185062934E+03 -0.79375477160E+03  0.10842014955E+04  0.70000000000E+03 0. -1.
<mgrwt>
<rscale>  0 0.14887150E+04</rscale>
<asrwt>0</asrwt>
<pdfrwt beam="1">  1        1 0.23882002E+00 0.14887150E+04</pdfrwt>
<pdfrwt beam="2">  1       -1 0.47347423E-01 0.14887150E+04</pdfrwt>
<totfact> 0.25978732E+01</totfact>
</mgrwt>
</event>
<event>
 8    1  0.2354930E-010  0.1578834E+04  0.7818608E-02  0.8833658E-01
         -1   -1    0    0    0  501 -0.00000000000E+00  0.00000000000E+00  0.63265513904E+03  0.63265513906E+03  0.50400000000E-02 0. -1.
          1   -1    0    0  501    0  0.00000000000E+00 -0.00000000000E+00 -0.98502189126E+03  0.98502189127E+03  0.50400000000E-02 0.  1.
     200001    2    1    2    0    0 -0.20530170520E+03  0.60147570590E+02  0.12128698776E+03  0.74583163933E+03  0.70412199257E+03 0.  0.
    5000001    2    3    3    0    0 -0.16854406290E+03 -0.30723505574E+02  0.41844234133E+02  0.23015749042E+03  0.14788676592E+03 0.  0.
        -11    1    4    4    0    0 -0.14736423255E+03  0.25148957678E+02 -0.32176370161E+01  0.14952939609E+03  0.51100000000E-03 0. -1.
     200002    1    4    4    0    0 -0.21179830347E+02 -0.55872463252E+02  0.45061871149E+02  0.80628094327E+02  0.30000000000E+02 0. -1.
     200000    1    3    3    0    0 -0.36757642300E+02  0.90871076163E+02  0.79442753629E+02  0.51567414891E+03  0.50000000000E+03 0. -1.
    -200001    1    1    2    0    0  0.20530170520E+03 -0.60147570590E+02 -0.47365373998E+03  0.87184539100E+03  0.70000000000E+03 0. -1.
<mgrwt>
<rscale>  0 0.15788340E+04</rscale>
<asrwt>0</asrwt>
<pdfrwt beam="1">  1        1 0.14071741E+00 0.15788340E+04</pdfrwt>
<pdfrwt beam="2">  1       -1 0.90379306E-01 0.15788340E+04</pdfrwt>
<totfact> 0.20425481E+01</totfact>
</mgrwt>
</event>
<event>
 8    1  0.2354930E-010  0.1403215E+04  0.7818608E-02  0.8951495E-01
          1   -1    0    0  501    0  0.00000000000E+00  0.00000000000E+00  0.96742726232E+03  0.96742726233E+03  0.50400000000E-02 0.  1.
         -1   -1    0    0    0  501 -0.00000000000E+00 -0.00000000000E+00 -0.50882696910E+03  0.50882696912E+03  0.50400000000E-02 0. -1.
     200001    2    1    2    0    0 -0.24397132970E+02  0.27534926655E+02  0.20497011204E+03  0.73081364959E+03  0.70051584658E+03 0.  0.
    5000001    2    3    3    0    0  0.11148457536E+03  0.34991843878E+02  0.70815147807E+01  0.17612514133E+03  0.13159284887E+03 0.  0.
        -11    1    4    4    0    0  0.51577661277E+02 -0.45130662857E+02 -0.13030929191E+02  0.69762719189E+02  0.51100000000E-03 0. -1.
     200002    1    4    4    0    0  0.59906914085E+02  0.80122506735E+02  0.20112443972E+02  0.10636242214E+03  0.30000000000E+02 0. -1.
     200000    1    3    3    0    0 -0.13588170833E+03 -0.74569172231E+01  0.19788859726E+03  0.55468850826E+03  0.50000000000E+03 0. -1.
    -200001    1    1    2    0    0  0.24397132970E+02 -0.27534926655E+02  0.25363018119E+03  0.74544058186E+03  0.70000000000E+03 0.  1.
<mgrwt>
<rscale>  0 0.14032150E+04</rscale>
<asrwt>0</asrwt>
<pdfrwt beam="1">  1        1 0.13820389E+00 0.14032150E+04</pdfrwt>
<pdfrwt beam="2">  1       -1 0.72689567E-01 0.14032150E+04</pdfrwt>
<totfact> 0.34038854E+01</totfact>
</mgrwt>
</event>
<event>
 8    1  0.2354930E-010  0.1669181E+04  0.7818608E-02  0.8779140E-01
          1   -1    0    0  501    0  0.00000000000E+00  0.00000000000E+00  0.45398331263E+03  0.45398331265E+03  0.50400000000E-02 0.  1.
         -1   -1    0    0    0  501 -0.00000000000E+00 -0.00000000000E+00 -0.15342878005E+04  0.15342878005E+04  0.50400000000E-02 0. -1.
     200001    2    1    2    0    0 -0.13157240844E+03  0.33054493680E+03 -0.87701505299E+03  0.11771620895E+04  0.69998851984E+03 0.  0.
    5000001    2    3    3    0    0  0.81986785160E+02  0.15979333707E+03 -0.32897110071E+03  0.38651943217E+03  0.94443331306E+02 0.  0.
        -11    1    4    4    0    0  0.76464576395E+02  0.14897226755E+03 -0.29742474914E+03  0.34132250050E+03  0.51100000000E-03 0. -1.
     200002    1    4    4    0    0  0.55222087647E+01  0.10821069516E+02 -0.31546351564E+02  0.45196931667E+02  0.30000000000E+02 0.  1.
     200000    1    3    3    0    0 -0.21355919360E+03  0.17075159973E+03 -0.54804395228E+03  0.79064265734E+03  0.50000000000E+03 0. -1.
    -200001    1    1    2    0    0  0.13157240844E+03 -0.33054493680E+03 -0.20328943488E+03  0.81110902365E+03  0.70000000000E+03 0.  1.
<mgrwt>
<rscale>  0 0.16691807E+04</rscale>
<asrwt>0</asrwt>
<pdfrwt beam="1">  1        1 0.64854760E-01 0.16691807E+04</pdfrwt>
<pdfrwt beam="2">  1       -1 0.21918397E+00 0.16691807E+04</pdfrwt>
<totfact> 0.59613450E+00</totfact>
</mgrwt>
</event>
<event>
 8    1  0.2354930E-010  0.1553847E+04  0.7818608E-02  0.8849414E-01
         -1   -1    0    0    0  501 -0.00000000000E+00  0.00000000000E+00  0.14258676431E+03  0.14258676440E+03  0.50400000000E-02 0. -1.
          1   -1    0    0  501    0  0.00000000000E+00 -0.00000000000E+00 -0.42332826905E+04  0.42332826905E+04  0.50400000000E-02 0.  1.
     200001    2    1    2    0    0 -0.15964299572E+03 -0.17737837665E+02 -0.12064378660E+04  0.14035395482E+04  0.69902104524E+03 0.  0.
    5000001    2    3    3    0    0 -0.70302368568E+02  0.12094115590E+03 -0.35063892026E+03  0.39874830293E+03  0.12838757911E+03 0.  0.
        -11    1    4    4    0    0  0.26731456719E+01 -0.91665388277E+01 -0.13215254031E+03  0.13249703790E+03  0.51100000000E-03 0. -1.
     200002    1    4    4    0    0 -0.72975514240E+02  0.13010769472E+03 -0.21848637995E+03  0.26625126503E+03  0.30000000000E+02 0. -1.
     200000    1    3    3    0    0 -0.89340627155E+02 -0.13867899356E+03 -0.85579894579E+03  0.10047912452E+04  0.50000000000E+03 0. -1.
    -200001    1    1    2    0    0  0.15964299572E+03  0.17737837665E+02 -0.28842580601E+04  0.29723299067E+04  0.70000000000E+03 0.  1.
<mgrwt>
<rscale>  0 0.15538469E+04</rscale>
<asrwt>0</asrwt>
<pdfrwt beam="1">  1        1 0.60475459E+00 0.15538469E+04</pdfrwt>
<pdfrwt beam="2">  1       -1 0.20369540E-01 0.15538469E+04</pdfrwt>
<totfact> 0.21448722E+00</totfact>
</mgrwt>
</event>
<event>
 8    1  0.2354930E-010  0.1734826E+04  0.7818608E-02  0.8741747E-01
          1   -1    0    0  501    0  0.00000000000E+00  0.00000000000E+00  0.15145290840E+04  0.15145290840E+04  0.50400000000E-02 0.  1.
         -1   -1    0    0    0  501 -0.00000000000E+00 -0.00000000000E+00 -0.49679152621E+03  0.49679152623E+03  0.50400000000E-02 0. -1.
     200001    2    1    2    0    0 -0.24630455448E+03 -0.18210976021E+03  0.98562369920E+03  0.12465584261E+04  0.69901640542E+03 0.  0.
    5000001    2    3    3    0    0 -0.30680242529E+02  0.30373230877E+02  0.28084464177E+03  0.33094039159E+03  0.16965853807E+03 0.  0.
        -11    1    4    4    0    0 -0.89367675313E+02  0.54229865191E+02  0.15654261992E+03  0.18823669015E+03  0.51100000000E-03 0. -1.
     200002    1    4    4    0    0  0.58687432784E+02 -0.23856634315E+02  0.12430202185E+03  0.14270370144E+03  0.30000000000E+02 0. -1.
     200000    1    3    3    0    0 -0.21562431195E+03 -0.21248299109E+03  0.70477905743E+03  0.91561803455E+03  0.50000000000E+03 0.  1.
    -200001    1    1    2    0    0  0.24630455448E+03  0.18210976021E+03  0.32113858606E+02  0.76476218410E+03  0.70000000000E+03 0. -1.
<mgrwt>
<rscale>  0 0.17348259E+04</rscale>
<asrwt>0</asrwt>
<pdfrwt beam="1">  1        1 0.21636130E+00 0.17348259E+04</pdfrwt>
<pdfrwt beam="2">  1       -1 0.70970218E-01 0.17348259E+04</pdfrwt>
<totfact> 0.14514380E+01</totfact>
</mgrwt>
</event>
<event>
 8    1  0.2354930E-010  0.1500218E+04  0.7818608E-02  0.8884308E-01
          1   -1    0    0  501    0  0.00000000000E+00  0.00000000000E+00  0.24666706811E+04  0.24666706811E+04  0.50400000000E-02 0. -1.
         -1   -1    0    0    0  501 -0.00000000000E+00 -0.00000000000E+00 -0.22810641104E+03  0.22810641110E+03  0.50400000000E-02 0.  1.
     200001    2    1    2    0    0  0.64880295044E+02  0.21198039422E+03  0.14121412255E+04  0.15892816427E+04  0.69464246844E+03 0.  0.
    5000001    2    3    3    0    0 -0.95518358546E+01 -0.94444624416E+01  0.43466077780E+03  0.46676788562E+03  0.16959313623E+03 0.  0.
        -11    1    4    4    0    0  0.43554472508E+02  0.19043972456E+02  0.29268044590E+02  0.55823681325E+02  0.51100000000E-03 0. -1.
     200002    1    4    4    0    0 -0.53106308362E+02 -0.28488434898E+02  0.40539273321E+03  0.41094420430E+03  0.30000000000E+02 0. -1.
     200000    1    3    3    0    0  0.74432130899E+02  0.22142485667E+03  0.97748044767E+03  0.11225137571E+04  0.50000000000E+03 0. -1.
    -200001    1    1    2    0    0 -0.64880295044E+02 -0.21198039422E+03  0.82642304456E+03  0.11054954495E+04  0.70000000000E+03 0.  1.
<mgrwt>
<rscale>  0 0.15002178E+04</rscale>
<asrwt>0</asrwt>
<pdfrwt beam="1">  1        1 0.35238155E+00 0.15002178E+04</pdfrwt>
<pdfrwt beam="2">  1       -1 0.32586628E-01 0.15002178E+04</pdfrwt>
<totfact> 0.16157817E+01</totfact>
</mgrwt>
</event>
<event>
 8    1  0.2354930E-010  0.1467749E+04  0.7818608E-02  0.8906187E-01
         -1   -1    0    0    0  501 -0.00000000000E+00  0.00000000000E+00  0.80943835150E+03  0.80943835152E+03  0.50400000000E-02 0. -1.
          1   -1    0    0  501    0  0.00000000000E+00 -0.00000000000E+00 -0.66536497738E+03  0.66536497740E+03  0.50400000000E-02 0.  1.
     200001    2    1    2    0    0 -0.74312680393E+02  0.20463115987E+03  0.10902792767E+03  0.74089293291E+03  0.69974206888E+03 0.  0.
    5000001    2    3    3    0    0 -0.85648550753E+02 -0.22528511105E+02 -0.48885839233E+02  0.16934523074E+03  0.13581153794E+03 0.  0.
        -11    1    4    4    0    0 -0.76523689397E+02 -0.55552336125E+02 -0.71451931411E+02  0.11852137187E+03  0.51100000000E-03 0. -1.
     200002    1    4    4    0    0 -0.91248613561E+01  0.33023825019E+02  0.22566092178E+02  0.50823858864E+02  0.30000000000E+02 0. -1.
     200000    1    3    3    0    0  0.11335870360E+02  0.22715967098E+03  0.15791376691E+03  0.57154770217E+03  0.50000000000E+03 0. -1.
    -200001    1    1    2    0    0  0.74312680393E+02 -0.20463115987E+03  0.35045446446E+02  0.73391039601E+03  0.70000000000E+03 0. -1.
<mgrwt>
<rscale>  0 0.14677492E+04</rscale>
<asrwt>0</asrwt>
<pdfrwt beam="1">  1        1 0.95052139E-01 0.14677492E+04</pdfrwt>
<pdfrwt beam="2">  1       -1 0.11563405E+00 0.14677492E+04</pdfrwt>
<totfact> 0.21621658E+01</totfact>
</mgrwt>
</event>
<event>
 8    1  0.2354930E-010  0.1463264E+04  0.7818608E-02  0.8909256E-01
          1   -1    0    0  501    0  0.00000000000E+00  0.00000000000E+00  0.19751268863E+04  0.19751268863E+04  0.50400000000E-02 0.  1.
         -1   -1    0    0    0  501 -0.00000000000E+00 -0.00000000000E+00 -0.27101306296E+03  0.27101306301E+03  0.50400000000E-02 0. -1.
     200001    2    1    2    0    0 -0.28545315890E+02 -0.20651673780E+03  0.78410013145E+03  0.10714531011E+04  0.69981049844E+03 0.  0.
    5000001    2    3    3    0    0 -0.54408941576E+02 -0.80513638137E+02  0.19426316685E+03  0.28758235090E+03  0.18847453861E+03 0.  0.
        -11    1    4    4    0    0  0.35152816563E+02 -0.94635081666E+02  0.15355014041E+03  0.18376388333E+03  0.51100000000E-03 0. -1.
     200002    1    4    4    0    0 -0.89561758138E+02  0.14121443529E+02  0.40713026441E+02  0.10381846758E+03  0.30000000000E+02 0. -1.
     200000    1    3    3    0    0  0.25863625685E+02 -0.12600309967E+03  0.58983696459E+03  0.78387075023E+03  0.50000000000E+03 0.  1.
    -200001    1    1    2    0    0  0.28545315890E+02  0.20651673780E+03  0.92001369193E+03  0.11746868482E+04  0.70000000000E+03 0.  1.
<mgrwt>
<rscale>  0 0.14632637E+04</rscale>
<asrwt>0</asrwt>
<pdfrwt beam="1">  1        1 0.28216098E+00 0.14632637E+04</pdfrwt>
<pdfrwt beam="2">  1       -1 0.38716152E-01 0.14632637E+04</pdfrwt>
<totfact> 0.24266554E+01</totfact>
</mgrwt>
</event>
<event>
 8    1  0.2354930E-010  0.1710015E+04  0.7818608E-02  0.8755673E-01
         -1   -1    0    0    0  501 -0.00000000000E+00  0.00000000000E+00  0.35988019154E+03  0.35988019158E+03  0.50400000000E-02 0. -1.
          1   -1    0    0  501    0  0.00000000000E+00 -0.00000000000E+00 -0.20313365402E+04  0.20313365402E+04  0.50400000000E-02 0.  1.
     200001    2    1    2    0    0 -0.29362200479E+03  0.39374808647E+03 -0.82629806269E+03  0.11889089652E+04  0.69963176155E+03 0.  0.
    5000001    2    3    3    0    0 -0.12825985314E+03  0.18843399789E+03 -0.11931927656E+03  0.28374736623E+03  0.11965582558E+03 0.  0.
        -11    1    4    4    0    0 -0.96178418840E+00  0.53535044966E+01  0.18913456741E+02  0.19680037738E+02  0.51100000000E-03 0. -1.
     200002    1    4    4    0    0 -0.12729806895E+03  0.18308049339E+03 -0.13823273330E+03  0.26406732849E+03  0.30000000000E+02 0. -1.
     200000    1    3    3    0    0 -0.16536215164E+03  0.20531408858E+03 -0.70697878614E+03  0.90516159895E+03  0.50000000000E+03 0.  1.
    -200001    1    1    2    0    0  0.29362200479E+03 -0.39374808647E+03 -0.84515828593E+03  0.12023077666E+04  0.70000000000E+03 0. -1.
<mgrwt>
<rscale>  0 0.17100150E+04</rscale>
<asrwt>0</asrwt>
<pdfrwt beam="1">  1        1 0.29019093E+00 0.17100150E+04</pdfrwt>
<pdfrwt beam="2">  1       -1 0.51411457E-01 0.17100150E+04</pdfrwt>
<totfact> 0.12914554E+01</totfact>
</mgrwt>
</event>
<event>
 8    1  0.2354930E-010  0.1624518E+04  0.7818608E-02  0.8805626E-01
         -1   -1    0    0    0  501 -0.00000000000E+00  0.00000000000E+00  0.73465091426E+03  0.73465091427E+03  0.50400000000E-02 0. -1.
          1   -1    0    0  501    0  0.00000000000E+00 -0.00000000000E+00 -0.89806531482E+03  0.89806531483E+03  0.50400000000E-02 0.  1.
     200001    2    1    2    0    0 -0.73338276925E+02 -0.35976106964E+03 -0.26744314713E+03  0.83545309174E+03  0.70117722543E+03 0.  0.
    5000001    2    3    3    0    0 -0.58881475566E+02 -0.13232819444E+03 -0.79067056249E+02  0.25457422016E+03  0.19385214721E+03 0.  0.
        -11    1    4    4    0    0  0.12499201564E+02 -0.57113476838E+02  0.56483392583E+02  0.81293006552E+02  0.51100000000E-03 0. -1.
     200002    1    4    4    0    0 -0.71380677130E+02 -0.75214717606E+02 -0.13555044883E+03  0.17328121361E+03  0.30000000000E+02 0. -1.
     200000    1    3    3    0    0 -0.14456801360E+02 -0.22743287520E+03 -0.18837609088E+03  0.58087887157E+03  0.50000000000E+03 0. -1.
    -200001    1    1    2    0    0  0.73338276925E+02  0.35976106964E+03  0.10402874656E+03  0.79726313737E+03  0.70000000000E+03 0.  1.
<mgrwt>
<rscale>  0 0.16245178E+04</rscale>
<asrwt>0</asrwt>
<pdfrwt beam="1">  1        1 0.12829504E+00 0.16245178E+04</pdfrwt>
<pdfrwt beam="2">  1       -1 0.10495013E+00 0.16245178E+04</pdfrwt>
<totfact> 0.16925885E+01</totfact>
</mgrwt>
</event>
<event>
 8    1  0.2354930E-010  0.1668113E+04  0.7818608E-02  0.8779763E-01
          1   -1    0    0  501    0  0.00000000000E+00  0.00000000000E+00  0.34629852676E+03  0.34629852679E+03  0.50400000000E-02 0.  1.
         -1   -1    0    0    0  501 -0.00000000000E+00 -0.00000000000E+00 -0.20088162336E+04  0.20088162336E+04  0.50400000000E-02 0. -1.
     200001    2    1    2    0    0 -0.15937813096E+02 -0.30530421727E+03 -0.35793181218E+03  0.84335782375E+03  0.69976607358E+03 0.  0.
    5000001    2    3    3    0    0 -0.30136590592E+02 -0.14327685267E+03 -0.49608577200E+02  0.23383531441E+03  0.17544649534E+03 0.  0.
        -11    1    4    4    0    0 -0.60613547773E+02 -0.54314107274E+02  0.48435326386E+02  0.94710111735E+02  0.51100000000E-03 0. -1.
     200002    1    4    4    0    0  0.30476957181E+02 -0.88962745398E+02 -0.98043903586E+02  0.13912520267E+03  0.30000000000E+02 0. -1.
     200000    1    3    3    0    0  0.14198777496E+02 -0.16202736460E+03 -0.30832323498E+03  0.60952250934E+03  0.50000000000E+03 0.  1.
    -200001    1    1    2    0    0  0.15937813096E+02  0.30530421727E+03 -0.13045858946E+04  0.15117569366E+04  0.70000000000E+03 0. -1.
<mgrwt>
<rscale>  0 0.16681128E+04</rscale>
<asrwt>0</asrwt>
<pdfrwt beam="1">  1        1 0.49471219E-01 0.16681128E+04</pdfrwt>
<pdfrwt beam="2">  1       -1 0.28697374E+00 0.16681128E+04</pdfrwt>
<totfact> 0.30747133E+00</totfact>
</mgrwt>
</event>
<event>
 8    1  0.2354930E-010  0.1663754E+04  0.7818608E-02  0.8782311E-01
          1   -1    0    0  501    0  0.00000000000E+00  0.00000000000E+00  0.20701096223E+04  0.20701096223E+04  0.50400000000E-02 0.  1.
         -1   -1    0    0    0  501 -0.00000000000E+00 -0.00000000000E+00 -0.33429103346E+03  0.33429103350E+03  0.50400000000E-02 0. -1.
     200001    2    1    2    0    0  0.28413257329E+03  0.33960789004E+03  0.95831030678E+03  0.12683619386E+04  0.70307789408E+03 0.  0.
    5000001    2    3    3    0    0  0.11469050509E+03  0.66648200644E+02  0.25204751357E+03  0.34531007684E+03  0.19523115905E+03 0.  0.
        -11    1    4    4    0    0  0.16431409135E+03  0.30245596987E+02  0.18867649889E+03  0.25201733668E+03  0.51100000000E-03 0. -1.
     200002    1    4    4    0    0 -0.49623586253E+02  0.36402603656E+02  0.63371014682E+02  0.93292740164E+02  0.30000000000E+02 0. -1.
     200000    1    3    3    0    0  0.16944206820E+03  0.27295968940E+03  0.70626279321E+03  0.92305186180E+03  0.50000000000E+03 0.  1.
    -200001    1    1    2    0    0 -0.28413257329E+03 -0.33960789004E+03  0.77750828201E+03  0.11360387171E+04  0.70000000000E+03 0. -1.
<mgrwt>
<rscale>  0 0.16637537E+04</rscale>
<asrwt>0</asrwt>
<pdfrwt beam="1">  1        1 0.29572994E+00 0.16637537E+04</pdfrwt>
<pdfrwt beam="2">  1       -1 0.47755863E-01 0.16637537E+04</pdfrwt>
<totfact> 0.14100321E+01</totfact>
</mgrwt>
</event>
<event>
 8    1  0.2354930E-010  0.1444691E+04  0.7818608E-02  0.8922090E-01
         -1   -1    0    0    0  501 -0.00000000000E+00  0.00000000000E+00  0.90059435428E+03  0.90059435430E+03  0.50400000000E-02 0. -1.
          1   -1    0    0  501    0  0.00000000000E+00 -0.00000000000E+00 -0.57937614559E+03  0.57937614561E+03  0.50400000000E-02 0.  1.
     200001    2    1    2    0    0  0.34591370580E+02  0.14095486001E+03  0.52694640371E+02  0.71631498711E+03  0.69947523198E+03 0.  0.
    5000001    2    3    3    0    0 -0.65376607672E+02  0.41724878050E+02 -0.89760433483E+02  0.17767444458E+03  0.13227322691E+03 0.  0.
        -11    1    4    4    0    0 -0.74520435172E+02  0.36087149399E+02 -0.11166022061E+03  0.13900928918E+03  0.51100000000E-03 0. -1.
     200002    1    4    4    0    0  0.91438274997E+01  0.56377286503E+01  0.21899787131E+02  0.38665155399E+02  0.30000000000E+02 0. -1.
     200000    1    3    3    0    0  0.99967978252E+02  0.99229981961E+02  0.14245507385E+03  0.53864054254E+03  0.50000000000E+03 0. -1.
    -200001    1    1    2    0    0 -0.34591370580E+02 -0.14095486001E+03  0.26852356832E+03  0.76365551280E+03  0.70000000000E+03 0. -1.
<mgrwt>
<rscale>  0 0.14446908E+04</rscale>
<asrwt>0</asrwt>
<pdfrwt beam="1">  1        1 0.82768021E-01 0.14446908E+04</pdfrwt>
<pdfrwt beam="2">  1       -1 0.12865634E+00 0.14446908E+04</pdfrwt>
<totfact> 0.20294679E+01</totfact>
</mgrwt>
</event>
<event>
 8    1  0.2354930E-010  0.1973907E+04  0.7818608E-02  0.8618918E-01
          1   -1    0    0  501    0  0.00000000000E+00  0.00000000000E+00  0.39701401714E+03  0.39701401717E+03  0.50400000000E-02 0.  1.
         -1   -1    0    0    0  501 -0.00000000000E+00 -0.00000000000E+00 -0.24535092998E+04  0.24535092998E+04  0.50400000000E-02 0. -1.
     200001    2    1    2    0    0 -0.14392560420E+03 -0.87734536189E+02 -0.20025289114E+04  0.21284954105E+04  0.70139770690E+03 0.  0.
    5000001    2    3    3    0    0 -0.34302889618E+02 -0.29488034446E+02 -0.80497753203E+03  0.82483168826E+03  0.17410414836E+03 0.  0.
        -11    1    4    4    0    0 -0.37153141703E+02 -0.98124163600E+02 -0.46761461866E+03  0.47924121171E+03  0.51100000000E-03 0. -1.
     200002    1    4    4    0    0  0.28502520852E+01  0.68636129154E+02 -0.33736291337E+03  0.34559047654E+03  0.30000000000E+02 0. -1.
     200000    1    3    3    0    0 -0.10962271458E+03 -0.58246501743E+02 -0.11975513794E+04  0.13036637223E+04  0.50000000000E+03 0. -1.
    -200001    1    1    2    0    0  0.14392560420E+03  0.87734536189E+02 -0.53966371193E+02  0.72202790639E+03  0.70000000000E+03 0.  1.
<mgrwt>
<rscale>  0 0.19739074E+04</rscale>
<asrwt>0</asrwt>
<pdfrwt beam="1">  1        1 0.56716289E-01 0.19739074E+04</pdfrwt>
<pdfrwt beam="2">  1       -1 0.35050132E+00 0.19739074E+04</pdfrwt>
<totfact> 0.96331179E-01</totfact>
</mgrwt>
</event>
<event>
 8    1  0.2354930E-010  0.1493874E+04  0.7818608E-02  0.8888537E-01
         -1   -1    0    0    0  501 -0.00000000000E+00  0.00000000000E+00  0.68560017900E+03  0.68560017902E+03  0.50400000000E-02 0. -1.
          1   -1    0    0  501    0  0.00000000000E+00 -0.00000000000E+00 -0.81376145160E+03  0.81376145161E+03  0.50400000000E-02 0.  1.
     200001    2    1    2    0    0  0.15813911766E+03  0.16557561504E+03 -0.18560210324E+03  0.76063115619E+03  0.70120492740E+03 0.  0.
    5000001    2    3    3    0    0  0.27656661977E+02  0.81898839375E+02 -0.25239496707E+02  0.21314267266E+03  0.19318503015E+03 0.  0.
        -11    1    4    4    0    0 -0.76646441750E+02  0.35200195839E+02  0.19904751602E+02  0.86659852046E+02  0.51100000000E-03 0. -1.
     200002    1    4    4    0    0  0.10430310373E+03  0.46698643537E+02 -0.45144248308E+02  0.12648282061E+03  0.30000000000E+02 0. -1.
     200000    1    3    3    0    0  0.13048245568E+03  0.83676775669E+02 -0.16036260654E+03  0.54748848353E+03  0.50000000000E+03 0.  1.
    -200001    1    1    2    0    0 -0.15813911766E+03 -0.16557561504E+03  0.57440830642E+02  0.73873047443E+03  0.70000000000E+03 0.  1.
<mgrwt>
<rscale>  0 0.14938742E+04</rscale>
<asrwt>0</asrwt>
<pdfrwt beam="1">  1        1 0.11625164E+00 0.14938742E+04</pdfrwt>
<pdfrwt beam="2">  1       -1 0.97942883E-01 0.14938742E+04</pdfrwt>
<totfact> 0.23483368E+01</totfact>
</mgrwt>
</event>
<event>
 8    1  0.2354930E-010  0.1864580E+04  0.7818608E-02  0.8672691E-01
          1   -1    0    0  501    0  0.00000000000E+00  0.00000000000E+00  0.57354878450E+03  0.57354878453E+03  0.50400000000E-02 0.  1.
         -1   -1    0    0    0  501 -0.00000000000E+00 -0.00000000000E+00 -0.15154146365E+04  0.15154146365E+04  0.50400000000E-02 0. -1.
     200001    2    1    2    0    0  0.63218666159E+02  0.54588097533E+03 -0.78232734726E+03  0.11848422049E+04  0.69988022782E+03 0.  0.
    5000001    2    3    3    0    0 -0.55877922893E+02  0.16937873156E+03 -0.11930743001E+03  0.26531333220E+03  0.15603013944E+03 0.  0.
        -11    1    4    4    0    0  0.49682679423E+02  0.56589964780E+02 -0.15763480444E+02  0.76936857646E+02  0.51100000000E-03 0. -1.
     200002    1    4    4    0    0 -0.10556060232E+03  0.11278876678E+03 -0.10354394956E+03  0.18837647455E+03  0.30000000000E+02 0. -1.
     200000    1    3    3    0    0  0.11909658905E+03  0.37650224378E+03 -0.66301991725E+03  0.91952887272E+03  0.50000000000E+03 0. -1.
    -200001    1    1    2    0    0 -0.63218666159E+02 -0.54588097533E+03 -0.15953850477E+03  0.90412121615E+03  0.70000000000E+03 0.  1.
<mgrwt>
<rscale>  0 0.18645795E+04</rscale>
<asrwt>0</asrwt>
<pdfrwt beam="1">  1        1 0.81935541E-01 0.18645795E+04</pdfrwt>
<pdfrwt beam="2">  1       -1 0.21648780E+00 0.18645795E+04</pdfrwt>
<totfact> 0.44413675E+00</totfact>
</mgrwt>
</event>
<event>
 8    1  0.2354930E-010  0.1670076E+04  0.7818608E-02  0.8778617E-01
         -1   -1    0    0    0  501 -0.00000000000E+00  0.00000000000E+00  0.95959855971E+03  0.95959855972E+03  0.50400000000E-02 0. -1.
          1   -1    0    0  501    0  0.00000000000E+00 -0.00000000000E+00 -0.72664623502E+03  0.72664623504E+03  0.50400000000E-02 0.  1.
     200001    2    1    2    0    0  0.19948103428E+03  0.89578795845E+01  0.52935519711E+03  0.90028831415E+03  0.70030650235E+03 0.  0.
    5000001    2    3    3    0    0  0.94963749088E+02 -0.22044374896E+02  0.15592199810E+03  0.26677639096E+03  0.19327158400E+03 0.  0.
        -11    1    4    4    0    0  0.62379565460E+02 -0.18105431762E+02  0.19626644185E+03  0.20673541797E+03  0.51100000000E-03 0. -1.
     200002    1    4    4    0    0  0.32584183627E+02 -0.39389431338E+01 -0.40344443757E+02  0.60040972991E+02  0.30000000000E+02 0. -1.
     200000    1    3    3    0    0  0.10451728519E+03  0.31002254481E+02  0.37343319902E+03  0.63351192318E+03  0.50000000000E+03 0. -1.
    -200001    1    1    2    0    0 -0.19948103428E+03 -0.89578795845E+01 -0.29640287242E+03  0.78595648062E+03  0.70000000000E+03 0.  1.
<mgrwt>
<rscale>  0 0.16700763E+04</rscale>
<asrwt>0</asrwt>
<pdfrwt beam="1">  1        1 0.10380661E+00 0.16700763E+04</pdfrwt>
<pdfrwt beam="2">  1       -1 0.13708551E+00 0.16700763E+04</pdfrwt>
<totfact> 0.12208407E+01</totfact>
</mgrwt>
</event>
<event>
 8    1  0.2354930E-010  0.1459605E+04  0.7818608E-02  0.8911768E-01
          1   -1    0    0  501    0  0.00000000000E+00  0.00000000000E+00  0.14143210559E+04  0.14143210559E+04  0.50400000000E-02 0.  1.
         -1   -1    0    0    0  501 -0.00000000000E+00 -0.00000000000E+00 -0.37658492602E+03  0.37658492605E+03  0.50400000000E-02 0. -1.
     200001    2    1    2    0    0 -0.82181213740E+02 -0.16542192551E+03  0.40551908100E+03  0.82975221577E+03  0.69994631880E+03 0.  0.
    5000001    2    3    3    0    0 -0.33318015595E+02 -0.48018652605E+02  0.78516839658E+02  0.21893177860E+03  0.19583244984E+03 0.  0.
        -11    1    4    4    0    0 -0.76739533724E+01  0.74776465153E+02  0.33797962587E+02  0.82417908105E+02  0.51100000000E-03 0. -1.
     200002    1    4    4    0    0 -0.25644062222E+02 -0.12279511776E+03  0.44718877070E+02  0.13651387050E+03  0.30000000000E+02 0. -1.
     200000    1    3    3    0    0 -0.48863198146E+02 -0.11740327290E+03  0.32700224134E+03  0.61082043717E+03  0.50000000000E+03 0.  1.
    -200001    1    1    2    0    0  0.82181213740E+02  0.16542192551E+03  0.63221704884E+03  0.96115376614E+03  0.70000000000E+03 0.  1.
<mgrwt>
<rscale>  0 0.14596054E+04</rscale>
<asrwt>0</asrwt>
<pdfrwt beam="1">  1        1 0.20204587E+00 0.14596054E+04</pdfrwt>
<pdfrwt beam="2">  1       -1 0.53797845E-01 0.14596054E+04</pdfrwt>
<totfact> 0.30002538E+01</totfact>
</mgrwt>
</event>
<event>
 8    1  0.2354930E-010  0.1491612E+04  0.7818608E-02  0.8890050E-01
          1   -1    0    0  501    0  0.00000000000E+00  0.00000000000E+00  0.17259862062E+04  0.17259862062E+04  0.50400000000E-02 0.  1.
         -1   -1    0    0    0  501 -0.00000000000E+00 -0.00000000000E+00 -0.32226601764E+03  0.32226601768E+03  0.50400000000E-02 0. -1.
     200001    2    1    2    0    0  0.20817725704E+03  0.81443437270E+02  0.87804164990E+03  0.11447541720E+04  0.69966718621E+03 0.  0.
    5000001    2    3    3    0    0  0.13611296578E+03  0.36717962450E+02  0.16152696593E+03  0.26692336679E+03  0.15900369429E+03 0.  0.
        -11    1    4    4    0    0 -0.32289206225E+02 -0.73121006936E+01  0.11098300306E+02  0.34917501703E+02  0.51100000000E-03 0. -1.
     200002    1    4    4    0    0  0.16840217200E+03  0.44030063144E+02  0.15042866562E+03  0.23200586509E+03  0.30000000000E+02 0. -1.
     200000    1    3    3    0    0  0.72064291264E+02  0.44725474820E+02  0.71651468397E+03  0.87783080518E+03  0.50000000000E+03 0.  1.
    -200001    1    1    2    0    0 -0.20817725704E+03 -0.81443437270E+02  0.52567853868E+03  0.90349805193E+03  0.70000000000E+03 0.  1.
<mgrwt>
<rscale>  0 0.14916121E+04</rscale>
<asrwt>0</asrwt>
<pdfrwt beam="1">  1        1 0.24656946E+00 0.14916121E+04</pdfrwt>
<pdfrwt beam="2">  1       -1 0.46038002E-01 0.14916121E+04</pdfrwt>
<totfact> 0.25278803E+01</totfact>
</mgrwt>
</event>
<event>
 8    1  0.2354930E-010  0.1815849E+04  0.7818608E-02  0.8697916E-01
         -1   -1    0    0    0  501 -0.00000000000E+00  0.00000000000E+00  0.69871530999E+03  0.69871531000E+03  0.50400000000E-02 0. -1.
          1   -1    0    0  501    0  0.00000000000E+00 -0.00000000000E+00 -0.11797748916E+04  0.11797748916E+04  0.50400000000E-02 0.  1.
     200001    2    1    2    0    0 -0.22963909595E+03 -0.29631286997E+03  0.21509603769E+03  0.82247501348E+03  0.69975953804E+03 0.  0.
    5000001    2    3    3    0    0 -0.19194749997E+03 -0.47344125483E+02  0.70283654070E+02  0.24422185215E+03  0.12497684616E+03 0.  0.
        -11    1    4    4    0    0 -0.17434770208E+03  0.61523569612E-01  0.43977488196E+02  0.17980863293E+03  0.51100000000E-03 0. -1.
     200002    1    4    4    0    0 -0.17599797885E+02 -0.47405649053E+02  0.26306165874E+02  0.64413219223E+02  0.30000000000E+02 0. -1.
     200000    1    3    3    0    0 -0.37691595982E+02 -0.24896874449E+03  0.14481238362E+03  0.57825316133E+03  0.50000000000E+03 0. -1.
    -200001    1    1    2    0    0  0.22963909595E+03  0.29631286997E+03 -0.69615561933E+03  0.10560151882E+04  0.70000000000E+03 0.  1.
<mgrwt>
<rscale>  0 0.18158489E+04</rscale>
<asrwt>0</asrwt>
<pdfrwt beam="1">  1        1 0.16853927E+00 0.18158489E+04</pdfrwt>
<pdfrwt beam="2">  1       -1 0.99816473E-01 0.18158489E+04</pdfrwt>
<totfact> 0.11570621E+01</totfact>
</mgrwt>
</event>
<event>
 8    1  0.2354930E-010  0.1881179E+04  0.7818608E-02  0.8664282E-01
         -1   -1    0    0    0  501 -0.00000000000E+00  0.00000000000E+00  0.23928570763E+04  0.23928570763E+04  0.50400000000E-02 0. -1.
          1   -1    0    0  501    0  0.00000000000E+00 -0.00000000000E+00 -0.36972904684E+03  0.36972904688E+03  0.50400000000E-02 0.  1.
     200001    2    1    2    0    0  0.23776361435E+03 -0.19529916764E+03  0.20732731201E+03  0.79235630241E+03  0.70012184259E+03 0.  0.
    5000001    2    3    3    0    0  0.77371722612E+02 -0.31816466395E+02  0.19719390499E+02  0.21128067501E+03  0.19300776740E+03 0.  0.
        -11    1    4    4    0    0  0.10335894338E+03  0.32107341963E+02  0.62242914224E+02  0.12485244474E+03  0.51100000000E-03 0. -1.
     200002    1    4    4    0    0 -0.25987220771E+02 -0.63923808358E+02 -0.42523523725E+02  0.86428230274E+02  0.30000000000E+02 0. -1.
     200000    1    3    3    0    0  0.16039189174E+03 -0.16348270124E+03  0.18760792151E+03  0.58107562740E+03  0.50000000000E+03 0.  1.
    -200001    1    1    2    0    0 -0.23776361435E+03  0.19529916764E+03  0.18158007175E+04  0.19702298208E+04  0.70000000000E+03 0. -1.
<mgrwt>
<rscale>  0 0.18811792E+04</rscale>
<asrwt>0</asrwt>
<pdfrwt beam="1">  1        1 0.52818436E-01 0.18811792E+04</pdfrwt>
<pdfrwt beam="2">  1       -1 0.34183672E+00 0.18811792E+04</pdfrwt>
<totfact> 0.12170951E+00</totfact>
</mgrwt>
</event>
<event>
 8    1  0.2354930E-010  0.1665419E+04  0.7818608E-02  0.8781337E-01
         -1   -1    0    0    0  501 -0.00000000000E+00  0.00000000000E+00  0.60148156035E+03  0.60148156037E+03  0.50400000000E-02 0. -1.
          1   -1    0    0  501    0  0.00000000000E+00 -0.00000000000E+00 -0.11528284397E+04  0.11528284397E+04  0.50400000000E-02 0.  1.
     200001    2    1    2    0    0  0.12954458415E+03  0.18381739249E+03  0.13576425814E+03  0.74798383608E+03  0.70034081146E+03 0.  0.
    5000001    2    3    3    0    0  0.51870129246E+02  0.15546099513E+03  0.26891912931E+02  0.22963010188E+03  0.15858176879E+03 0.  0.
        -11    1    4    4    0    0  0.97465759225E+02  0.12110541378E+03 -0.91981737116E+01  0.15572636857E+03  0.51100000000E-03 0. -1.
     200002    1    4    4    0    0 -0.45595629979E+02  0.34355581345E+02  0.36090086642E+02  0.73903733307E+02  0.30000000000E+02 0. -1.
     200000    1    3    3    0    0  0.77674454905E+02  0.28356397369E+02  0.10887234520E+03  0.51835373421E+03  0.50000000000E+03 0. -1.
    -200001    1    1    2    0    0 -0.12954458415E+03 -0.18381739249E+03 -0.68711113747E+03  0.10063261640E+04  0.70000000000E+03 0.  1.
<mgrwt>
<rscale>  0 0.16654189E+04</rscale>
<asrwt>0</asrwt>
<pdfrwt beam="1">  1        1 0.16468978E+00 0.16654189E+04</pdfrwt>
<pdfrwt beam="2">  1       -1 0.85925938E-01 0.16654189E+04</pdfrwt>
<totfact> 0.17091691E+01</totfact>
</mgrwt>
</event>
<event>
 8    1  0.3440211E-010  0.1547195E+04  0.7818608E-02  0.8853661E-01
          1   -1    0    0  501    0  0.00000000000E+00  0.00000000000E+00  0.15457529854E+04  0.15457529854E+04  0.50400000000E-02 0.  1.
         -1   -1    0    0    0  501 -0.00000000000E+00 -0.00000000000E+00 -0.38715978968E+03  0.38715978971E+03  0.50400000000E-02 0. -1.
     200001    2    1    2    0    0 -0.19838404024E+03 -0.10080827024E+03  0.87457695686E+03  0.11453953095E+04  0.70535595746E+03 0.  0.
    5000001    2    3    3    0    0 -0.47357575173E+02 -0.48296226069E+02  0.12941661832E+03  0.23389630340E+03  0.18271166977E+03 0.  0.
        -11    1    4    4    0    0 -0.44293779928E+02 -0.57523751927E+02 -0.24621970041E+02  0.76662653130E+02  0.51100000000E-03 0. -1.
     200002    1    4    4    0    0 -0.30637952458E+01  0.92275258580E+01  0.15403858836E+03  0.15723365027E+03  0.30000000000E+02 0. -1.
     200000    1    3    3    0    0 -0.15102646507E+03 -0.52512044172E+02  0.74516033854E+03  0.91149900607E+03  0.50000000000E+03 0.  1.
    -200001    1    1    2    0    0  0.19838404024E+03  0.10080827024E+03  0.28401623888E+03  0.78751746566E+03  0.70000000000E+03 0. -1.
<mgrwt>
<rscale>  0 0.15471954E+04</rscale>
<asrwt>0</asrwt>
<pdfrwt beam="1">  1        1 0.22082186E+00 0.15471954E+04</pdfrwt>
<pdfrwt beam="2">  1       -1 0.55308540E-01 0.15471954E+04</pdfrwt>
<totfact> 0.23157926E+01</totfact>
</mgrwt>
</event>
<event>
 8    1  0.2354930E-010  0.1510788E+04  0.7818608E-02  0.8877311E-01
          1   -1    0    0  501    0  0.00000000000E+00  0.00000000000E+00  0.26337720886E+04  0.26337720886E+04  0.50400000000E-02 0.  1.
         -1   -1    0    0    0  501 -0.00000000000E+00 -0.00000000000E+00 -0.21665502433E+03  0.21665502439E+03  0.50400000000E-02 0. -1.
     200001    2    1    2    0    0 -0.11344988519E+03  0.19080393808E+03  0.87200850271E+03  0.11396853188E+04  0.69943318334E+03 0.  0.
    5000001    2    3    3    0    0  0.27748963138E+02  0.10191813595E+03  0.23745769293E+03  0.31476560713E+03  0.17757792686E+03 0.  0.
        -11    1    4    4    0    0 -0.58983037849E+02  0.93054119424E+01  0.13931892188E+03  0.15157622320E+03  0.51100000000E-03 0. -1.
     200002    1    4    4    0    0  0.86732000987E+02  0.92612724011E+02  0.98138771053E+02  0.16318938393E+03  0.30000000000E+02 0. -1.
     200000    1    3    3    0    0 -0.14119884832E+03  0.88885802121E+02  0.63455080978E+03  0.82491971172E+03  0.50000000000E+03 0. -1.
    -200001    1    1    2    0    0  0.11344988519E+03 -0.19080393808E+03  0.15451085616E+04  0.17107417942E+04  0.70000000000E+03 0.  1.
<mgrwt>
<rscale>  0 0.15107878E+04</rscale>
<asrwt>0</asrwt>
<pdfrwt beam="1">  1        1 0.37625314E+00 0.15107878E+04</pdfrwt>
<pdfrwt beam="2">  1       -1 0.30950719E-01 0.15107878E+04</pdfrwt>
<totfact> 0.13839793E+01</totfact>
</mgrwt>
</event>
<event>
 8    1  0.2354930E-010  0.1787460E+04  0.7818608E-02  0.8712996E-01
         -1   -1    0    0    0  501 -0.00000000000E+00  0.00000000000E+00  0.63123675656E+03  0.63123675658E+03  0.50400000000E-02 0. -1.
          1   -1    0    0  501    0  0.00000000000E+00 -0.00000000000E+00 -0.12653789260E+04  0.12653789260E+04  0.50400000000E-02 0.  1.
     200001    2    1    2    0    0 -0.53545426930E+03 -0.14582556483E+03 -0.29699960408E+03  0.94181649993E+03  0.70059487926E+03 0.  0.
    5000001    2    3    3    0    0 -0.11783718386E+03 -0.50467898886E+02 -0.47262543118E+02  0.23763916849E+03  0.19443769104E+03 0.  0.
        -11    1    4    4    0    0  0.55431003333E+01 -0.36900503352E+02 -0.94409138634E+02  0.10151580452E+03  0.51100000000E-03 0. -1.
     200002    1    4    4    0    0 -0.12338028419E+03 -0.13567395534E+02  0.47146595516E+02  0.13612336397E+03  0.30000000000E+02 0. -1.
     200000    1    3    3    0    0 -0.41761708544E+03 -0.95357665945E+02 -0.24973706096E+03  0.70417733145E+03  0.50000000000E+03 0. -1.
    -200001    1    1    2    0    0  0.53545426930E+03  0.14582556483E+03 -0.33714256539E+03  0.95479918269E+03  0.70000000000E+03 0.  1.
<mgrwt>
<rscale>  0 0.17874604E+04</rscale>
<asrwt>0</asrwt>
<pdfrwt beam="1">  1        1 0.18076842E+00 0.17874604E+04</pdfrwt>
<pdfrwt beam="2">  1       -1 0.90176681E-01 0.17874604E+04</pdfrwt>
<totfact> 0.12711382E+01</totfact>
</mgrwt>
</event>
<event>
 8    1  0.2354930E-010  0.1584174E+04  0.7818608E-02  0.8830330E-01
          1   -1    0    0  501    0  0.00000000000E+00  0.00000000000E+00  0.63858563519E+03  0.63858563521E+03  0.50400000000E-02 0.  1.
         -1   -1    0    0    0  501 -0.00000000000E+00 -0.00000000000E+00 -0.98248617368E+03  0.98248617369E+03  0.50400000000E-02 0. -1.
     200001    2    1    2    0    0  0.31612146265E+03 -0.11469390349E+02  0.24616238708E+02  0.76909238361E+03  0.70059461121E+03 0.  0.
    5000001    2    3    3    0    0  0.91585410580E+02  0.84261523437E+01 -0.25377289192E+02  0.21835503774E+03  0.19640781101E+03 0.  0.
        -11    1    4    4    0    0 -0.39273692568E+02 -0.40729049727E+02  0.31183082293E+02  0.64603893390E+02  0.51100000000E-03 0. -1.
     200002    1    4    4    0    0  0.13085910315E+03  0.49155202070E+02 -0.56560371486E+02  0.15375114435E+03  0.30000000000E+02 0. -1.
     200000    1    3    3    0    0  0.22453605207E+03 -0.19895542693E+02  0.49993527900E+02  0.55073734586E+03  0.50000000000E+03 0.  1.
    -200001    1    1    2    0    0 -0.31612146265E+03  0.11469390349E+02 -0.36851677719E+03  0.85197942530E+03  0.70000000000E+03 0. -1.
<mgrwt>
<rscale>  0 0.15841737E+04</rscale>
<asrwt>0</asrwt>
<pdfrwt beam="1">  1        1 0.91226519E-01 0.15841737E+04</pdfrwt>
<pdfrwt beam="2">  1       -1 0.14035517E+00 0.15841737E+04</pdfrwt>
<totfact> 0.13978356E+01</totfact>
</mgrwt>
</event>
<event>
 8    1  0.2354930E-010  0.1578998E+04  0.7818608E-02  0.8833555E-01
          1   -1    0    0  501    0  0.00000000000E+00  0.00000000000E+00  0.57220549748E+03  0.57220549750E+03  0.50400000000E-02 0. -1.
         -1   -1    0    0    0  501 -0.00000000000E+00 -0.00000000000E+00 -0.10893086388E+04  0.10893086388E+04  0.50400000000E-02 0.  1.
     200001    2    1    2    0    0 -0.21085116302E+02  0.13068702721E+02  0.12545687049E+03  0.71098862803E+03  0.69939261486E+03 0.  0.
    5000001    2    3    3    0    0  0.59596435305E+02  0.19444303011E+02 -0.98650076385E+01  0.18671563450E+03  0.17560066563E+03 0.  0.
        -11    1    4    4    0    0  0.69768461757E+02  0.77189088857E+02  0.31778530699E+02  0.10879185957E+03  0.51100000000E-03 0. -1.
     200002    1    4    4    0    0 -0.10172026453E+02 -0.57744785845E+02 -0.41643538338E+02  0.77923774933E+02  0.30000000000E+02 0. -1.
     200000    1    3    3    0    0 -0.80681551607E+02 -0.63756002900E+01  0.13532187813E+03  0.52427299353E+03  0.50000000000E+03 0. -1.
    -200001    1    1    2    0    0  0.21085116302E+02 -0.13068702721E+02 -0.64256001183E+03  0.95052550830E+03  0.70000000000E+03 0.  1.
<mgrwt>
<rscale>  0 0.15789976E+04</rscale>
<asrwt>0</asrwt>
<pdfrwt beam="1">  1        1 0.81743643E-01 0.15789976E+04</pdfrwt>
<pdfrwt beam="2">  1       -1 0.15561552E+00 0.15789976E+04</pdfrwt>
<totfact> 0.12390065E+01</totfact>
</mgrwt>
</event>
<event>
 8    1  0.2354930E-010  0.2211458E+04  0.7818608E-02  0.8513674E-01
         -1   -1    0    0    0  501 -0.00000000000E+00  0.00000000000E+00  0.70615136616E+03  0.70615136618E+03  0.50400000000E-02 0. -1.
          1   -1    0    0  501    0  0.00000000000E+00 -0.00000000000E+00 -0.17314086017E+04  0.17314086017E+04  0.50400000000E-02 0.  1.
     200001    2    1    2    0    0 -0.24254351075E+03  0.62715323961E+03  0.70308974952E+02  0.97386127548E+03  0.70093786555E+03 0.  0.
    5000001    2    3    3    0    0  0.17439368667E+02  0.12443134823E+03  0.93384521233E+02  0.21831321050E+03  0.15216010342E+03 0.  0.
        -11    1    4    4    0    0 -0.37311939830E+02 -0.18282090495E+02  0.20575948680E+02  0.46365777801E+02  0.51100000000E-03 0. -1.
     200002    1    4    4    0    0  0.54751308498E+02  0.14271343872E+03  0.72808572553E+02  0.17194743270E+03  0.30000000000E+02 0. -1.
     200000    1    3    3    0    0 -0.25998287941E+03  0.50272189138E+03 -0.23075546281E+02  0.75554806498E+03  0.50000000000E+03 0.  1.
    -200001    1    1    2    0    0  0.24254351075E+03 -0.62715323961E+03 -0.10955662105E+04  0.14636986924E+04  0.70000000000E+03 0. -1.
<mgrwt>
<rscale>  0 0.22114579E+04</rscale>
<asrwt>0</asrwt>
<pdfrwt beam="1">  1        1 0.24734409E+00 0.22114579E+04</pdfrwt>
<pdfrwt beam="2">  1       -1 0.10087877E+00 0.22114579E+04</pdfrwt>
<totfact> 0.47130321E+00</totfact>
</mgrwt>
</event>
<event>
 8    1  0.2354930E-010  0.1757046E+04  0.7818608E-02  0.8729481E-01
         -1   -1    0    0    0  501 -0.00000000000E+00  0.00000000000E+00  0.42824509588E+03  0.42824509591E+03  0.50400000000E-02 0. -1.
          1   -1    0    0  501    0  0.00000000000E+00 -0.00000000000E+00 -0.18022461039E+04  0.18022461039E+04  0.50400000000E-02 0.  1.
     200001    2    1    2    0    0  0.52736699848E+03  0.37478474800E+02 -0.74408108282E+03  0.11505283767E+04  0.70038439493E+03 0.  0.
    5000001    2    3    3    0    0  0.18468426747E+03 -0.40705032243E+02 -0.94585718345E+02  0.25868290614E+03  0.14901412522E+03 0.  0.
        -11    1    4    4    0    0  0.29558406949E+02 -0.73642647291E+02 -0.32760937146E+02  0.85849973351E+02  0.51100000000E-03 0. -1.
     200002    1    4    4    0    0  0.15512586052E+03  0.32937615048E+02 -0.61824781199E+02  0.17283293279E+03  0.30000000000E+02 0. -1.
     200000    1    3    3    0    0  0.34268273101E+03  0.78183507043E+02 -0.64949536448E+03  0.89184547057E+03  0.50000000000E+03 0.  1.
    -200001    1    1    2    0    0 -0.52736699848E+03 -0.37478474800E+02 -0.62991992521E+03  0.10799628231E+04  0.70000000000E+03 0.  1.
<mgrwt>
<rscale>  0 0.17570464E+04</rscale>
<asrwt>0</asrwt>
<pdfrwt beam="1">  1        1 0.25746373E+00 0.17570464E+04</pdfrwt>
<pdfrwt beam="2">  1       -1 0.61177872E-01 0.17570464E+04</pdfrwt>
<totfact> 0.12787553E+01</totfact>
</mgrwt>
</event>
<event>
 8    1  0.2354930E-010  0.2055195E+04  0.7818608E-02  0.8581241E-01
         -1   -1    0    0    0  501 -0.00000000000E+00  0.00000000000E+00  0.16972981338E+04  0.16972981338E+04  0.50400000000E-02 0. -1.
          1   -1    0    0  501    0  0.00000000000E+00 -0.00000000000E+00 -0.62213954344E+03  0.62213954346E+03  0.50400000000E-02 0.  1.
     200001    2    1    2    0    0  0.34957151686E+03 -0.84126012578E+02  0.12832397378E+04  0.15054504566E+04  0.70028524284E+03 0.  0.
    5000001    2    3    3    0    0  0.10920051718E+03 -0.38636561583E+02  0.39845993538E+03  0.46013576412E+03  0.19883929308E+03 0.  0.
        -11    1    4    4    0    0  0.11202430972E+03  0.50723724380E+02  0.29785661930E+03  0.32224355361E+03  0.51100000000E-03 0. -1.
     200002    1    4    4    0    0 -0.28237925382E+01 -0.89360285963E+02  0.10060331607E+03  0.13789221050E+03  0.30000000000E+02 0. -1.
     200000    1    3    3    0    0  0.24037099968E+03 -0.45489450996E+02  0.88477980242E+03  0.10453146925E+04  0.50000000000E+03 0. -1.
    -200001    1    1    2    0    0 -0.34957151686E+03  0.84126012578E+02 -0.20808114746E+03  0.81398722061E+03  0.70000000000E+03 0.  1.
<mgrwt>
<rscale>  0 0.20551947E+04</rscale>
<asrwt>0</asrwt>
<pdfrwt beam="1">  1        1 0.88877079E-01 0.20551947E+04</pdfrwt>
<pdfrwt beam="2">  1       -1 0.24247116E+00 0.20551947E+04</pdfrwt>
<totfact> 0.26188973E+00</totfact>
</mgrwt>
</event>
<event>
 8    1  0.2354930E-010  0.1446763E+04  0.7818608E-02  0.8920648E-01
         -1   -1    0    0    0  501 -0.00000000000E+00  0.00000000000E+00  0.76648209746E+03  0.76648209748E+03  0.50400000000E-02 0.  1.
          1   -1    0    0  501    0  0.00000000000E+00 -0.00000000000E+00 -0.68270449265E+03  0.68270449267E+03  0.50400000000E-02 0. -1.
     200001    2    1    2    0    0  0.12213387215E+03  0.13003003579E+03  0.86356720758E+01  0.72291473816E+03  0.70050456878E+03 0.  0.
    5000001    2    3    3    0    0 -0.14564485494E+02  0.54642203177E+02 -0.48137320403E+02  0.19604384414E+03  0.18143343850E+03 0.  0.
        -11    1    4    4    0    0  0.42772369202E+02 -0.26659800461E+02 -0.73463873282E+02  0.89090747026E+02  0.51100000000E-03 0. -1.
     200002    1    4    4    0    0 -0.57336854696E+02  0.81302003637E+02  0.25326552880E+02  0.10695309712E+03  0.30000000000E+02 0. -1.
     200000    1    3    3    0    0  0.13669835764E+03  0.75387832615E+02  0.56772992478E+02  0.52687089402E+03  0.50000000000E+03 0. -1.
    -200001    1    1    2    0    0 -0.12213387215E+03 -0.13003003579E+03  0.75141932738E+02  0.72627185199E+03  0.70000000000E+03 0.  1.
<mgrwt>
<rscale>  0 0.14467630E+04</rscale>
<asrwt>0</asrwt>
<pdfrwt beam="1">  1        1 0.97529214E-01 0.14467630E+04</pdfrwt>
<pdfrwt beam="2">  1       -1 0.10949744E+00 0.14467630E+04</pdfrwt>
<totfact> 0.23752557E+01</totfact>
</mgrwt>
</event>
<event>
 8    1  0.2354930E-010  0.2119962E+04  0.7818608E-02  0.8552501E-01
         -1   -1    0    0    0  501 -0.00000000000E+00  0.00000000000E+00  0.77808852506E+03  0.77808852507E+03  0.50400000000E-02 0.  1.
          1   -1    0    0  501    0  0.00000000000E+00 -0.00000000000E+00 -0.14440000759E+04  0.14440000759E+04  0.50400000000E-02 0. -1.
     200001    2    1    2    0    0  0.50568827727E+03 -0.26867885435E+02 -0.97695617993E+03  0.13038341273E+04  0.69935508647E+03 0.  0.
    5000001    2    3    3    0    0  0.11960821828E+03 -0.38700703937E+02 -0.18973421087E+03  0.29442030923E+03  0.18676289071E+03 0.  0.
        -11    1    4    4    0    0  0.12698731922E+03 -0.25692360582E+02 -0.21597129736E+03  0.25185209532E+03  0.51100000000E-03 0. -1.
     200002    1    4    4    0    0 -0.73791009373E+01 -0.13008343355E+02  0.26237086492E+02  0.42568213905E+02  0.30000000000E+02 0. -1.
     200000    1    3    3    0    0  0.38608005899E+03  0.11832818502E+02 -0.78722196906E+03  0.10094138181E+04  0.50000000000E+03 0. -1.
    -200001    1    1    2    0    0 -0.50568827727E+03  0.26867885435E+02  0.31104462913E+03  0.91825447364E+03  0.70000000000E+03 0.  1.
<mgrwt>
<rscale>  0 0.21199622E+04</rscale>
<asrwt>0</asrwt>
<pdfrwt beam="1">  1        1 0.20628572E+00 0.21199622E+04</pdfrwt>
<pdfrwt beam="2">  1       -1 0.11115550E+00 0.21199622E+04</pdfrwt>
<totfact> 0.58100736E+00</totfact>
</mgrwt>
</event>
<event>
 8    1  0.2354930E-010  0.1595951E+04  0.7818608E-02  0.8823039E-01
         -1   -1    0    0    0  501 -0.00000000000E+00  0.00000000000E+00  0.71893293887E+03  0.71893293889E+03  0.50400000000E-02 0. -1.
          1   -1    0    0  501    0  0.00000000000E+00 -0.00000000000E+00 -0.88570807289E+03  0.88570807290E+03  0.50400000000E-02 0.  1.
     200001    2    1    2    0    0  0.10945702118E+03 -0.17975656215E+03  0.23252076067E+03  0.77173617170E+03  0.70513654951E+03 0.  0.
    5000001    2    3    3    0    0  0.65645832650E+02 -0.13244855282E+01 -0.47461014017E+02  0.16994948162E+03  0.14939594655E+03 0.  0.
        -11    1    4    4    0    0  0.63876038109E+02 -0.56658677604E+02  0.83718246287E+01  0.85793015101E+02  0.51100000000E-03 0. -1.
     200002    1    4    4    0    0  0.17697945412E+01  0.55334192075E+02 -0.55832838645E+02  0.84156466516E+02  0.30000000000E+02 0. -1.
     200000    1    3    3    0    0  0.43811188534E+02 -0.17843207662E+03  0.27998177468E+03  0.60178669009E+03  0.50000000000E+03 0. -1.
    -200001    1    1    2    0    0 -0.10945702118E+03  0.17975656215E+03 -0.39929589469E+03  0.83290484009E+03  0.70000000000E+03 0. -1.
<mgrwt>
<rscale>  0 0.15959508E+04</rscale>
<asrwt>0</asrwt>
<pdfrwt beam="1">  1        1 0.12652973E+00 0.15959508E+04</pdfrwt>
<pdfrwt beam="2">  1       -1 0.10270471E+00 0.15959508E+04</pdfrwt>
<totfact> 0.18246978E+01</totfact>
</mgrwt>
</event>
<event>
 8    1  0.2354930E-010  0.1714828E+04  0.7818608E-02  0.8752953E-01
         -1   -1    0    0    0  501 -0.00000000000E+00  0.00000000000E+00  0.72475521197E+03  0.72475521199E+03  0.50400000000E-02 0. -1.
          1   -1    0    0  501    0  0.00000000000E+00 -0.00000000000E+00 -0.10143541737E+04  0.10143541738E+04  0.50400000000E-02 0.  1.
     200001    2    1    2    0    0  0.14910086266E+03 -0.46905603060E+03 -0.89314774484E+02  0.86027016110E+03  0.69988784391E+03 0.  0.
    5000001    2    3    3    0    0  0.15175775140E+03 -0.13510157289E+03  0.36605451696E+02  0.24595058446E+03  0.13367453308E+03 0.  0.
        -11    1    4    4    0    0  0.13319715930E+03 -0.12619621169E+03  0.70173738013E+02  0.19644673730E+03  0.51100000000E-03 0. -1.
     200002    1    4    4    0    0  0.18560592099E+02 -0.89053612067E+01 -0.33568286317E+02  0.49503847159E+02  0.30000000000E+02 0. -1.
     200000    1    3    3    0    0 -0.26568887363E+01 -0.33395445771E+03 -0.12592022618E+03  0.61431957664E+03  0.50000000000E+03 0. -1.
    -200001    1    1    2    0    0 -0.14910086266E+03  0.46905603060E+03 -0.20028418729E+03  0.87883922464E+03  0.70000000000E+03 0. -1.
<mgrwt>
<rscale>  0 0.17148277E+04</rscale>
<asrwt>0</asrwt>
<pdfrwt beam="1">  1        1 0.14490774E+00 0.17148277E+04</pdfrwt>
<pdfrwt beam="2">  1       -1 0.10353646E+00 0.17148277E+04</pdfrwt>
<totfact> 0.14117764E+01</totfact>
</mgrwt>
</event>
<event>
 8    1  0.2354930E-010  0.1668138E+04  0.7818608E-02  0.8779748E-01
         -1   -1    0    0    0  501 -0.00000000000E+00  0.00000000000E+00  0.48040472412E+03  0.48040472414E+03  0.50400000000E-02 0. -1.
          1   -1    0    0  501    0  0.00000000000E+00 -0.00000000000E+00 -0.14480943533E+04  0.14480943533E+04  0.50400000000E-02 0.  1.
     200001    2    1    2    0    0 -0.33831569758E+03  0.29402739254E+03 -0.56537323489E+03  0.10050446390E+04  0.69968436657E+03 0.  0.
    5000001    2    3    3    0    0 -0.19210462236E+03  0.32662127322E+02 -0.14313292399E+03  0.28533889319E+03  0.15152639883E+03 0.  0.
        -11    1    4    4    0    0 -0.33610749228E+02  0.71065998878E+01 -0.11448144518E+03  0.11952484058E+03  0.51100000000E-03 0. -1.
     200002    1    4    4    0    0 -0.15849387313E+03  0.25555527434E+02 -0.28651478809E+02  0.16581405260E+03  0.30000000000E+02 0. -1.
     200000    1    3    3    0    0 -0.14621107522E+03  0.26136526522E+03 -0.42224031090E+03  0.71970574580E+03  0.50000000000E+03 0. -1.
    -200001    1    1    2    0    0  0.33831569758E+03 -0.29402739254E+03 -0.40231639427E+03  0.92345443845E+03  0.70000000000E+03 0. -1.
<mgrwt>
<rscale>  0 0.16681383E+04</rscale>
<asrwt>0</asrwt>
<pdfrwt beam="1">  1        1 0.20687062E+00 0.16681383E+04</pdfrwt>
<pdfrwt beam="2">  1       -1 0.68629247E-01 0.16681383E+04</pdfrwt>
<totfact> 0.17283096E+01</totfact>
</mgrwt>
</event>
<event>
 8    1  0.2354930E-010  0.1707559E+04  0.7818608E-02  0.8757065E-01
         -1   -1    0    0    0  501 -0.00000000000E+00  0.00000000000E+00  0.46703079803E+03  0.46703079805E+03  0.50400000000E-02 0.  1.
          1   -1    0    0  501    0  0.00000000000E+00 -0.00000000000E+00 -0.15607954435E+04  0.15607954435E+04  0.50400000000E-02 0. -1.
     200001    2    1    2    0    0 -0.10889809763E+02 -0.16984297696E+03 -0.10960069733E+04  0.13074303415E+04  0.69222654353E+03 0.  0.
    5000001    2    3    3    0    0 -0.11536324554E+03 -0.91158595424E+02 -0.30671851609E+03  0.36398866372E+03  0.12958754286E+03 0.  0.
        -11    1    4    4    0    0 -0.45254260584E+02 -0.41673048580E+02 -0.22366676911E+02  0.65458836800E+02  0.51100000000E-03 0. -1.
     200002    1    4    4    0    0 -0.70108984957E+02 -0.49485546844E+02 -0.28435183918E+03  0.29852982692E+03  0.30000000000E+02 0. -1.
     200000    1    3    3    0    0  0.10447343578E+03 -0.78684381535E+02 -0.78928845717E+03  0.94344167774E+03  0.50000000000E+03 0. -1.
    -200001    1    1    2    0    0  0.10889809763E+02  0.16984297696E+03  0.22423278280E+01  0.72039590005E+03  0.70000000000E+03 0.  1.
<mgrwt>
<rscale>  0 0.17075591E+04</rscale>
<asrwt>0</asrwt>
<pdfrwt beam="1">  1        1 0.22297078E+00 0.17075591E+04</pdfrwt>
<pdfrwt beam="2">  1       -1 0.66718686E-01 0.17075591E+04</pdfrwt>
<totfact> 0.15402044E+01</totfact>
</mgrwt>
</event>
<event>
 8    1  0.2354930E-010  0.1477147E+04  0.7818608E-02  0.8899793E-01
          1   -1    0    0  501    0  0.00000000000E+00  0.00000000000E+00  0.27008792465E+04  0.27008792466E+04  0.50400000000E-02 0. -1.
         -1   -1    0    0    0  501 -0.00000000000E+00 -0.00000000000E+00 -0.20196795418E+03  0.20196795424E+03  0.50400000000E-02 0.  1.
     200001    2    1    2    0    0 -0.27978940992E+02 -0.72906298064E+02  0.16838415517E+04  0.18256114645E+04  0.70102546214E+03 0.  0.
    5000001    2    3    3    0    0  0.79612921113E+02  0.98319901773E+01  0.36796247264E+03  0.41141226216E+03  0.16561637281E+03 0.  0.
        -11    1    4    4    0    0  0.95291944157E+02  0.52604692243E+02  0.32259944735E+03  0.34046763679E+03  0.51100000000E-03 0. -1.
     200002    1    4    4    0    0 -0.15679023044E+02 -0.42772702066E+02  0.45363025286E+02  0.70944625369E+02  0.30000000000E+02 0. -1.
     200000    1    3    3    0    0 -0.10759186210E+03 -0.82738288242E+02  0.13158790791E+04  0.14141992024E+04  0.50000000000E+03 0. -1.
    -200001    1    1    2    0    0  0.27978940992E+02  0.72906298064E+02  0.81506974063E+03  0.10772357363E+04  0.70000000000E+03 0.  1.
<mgrwt>
<rscale>  0 0.14771473E+04</rscale>
<asrwt>0</asrwt>
<pdfrwt beam="1">  1        1 0.38583988E+00 0.14771473E+04</pdfrwt>
<pdfrwt beam="2">  1       -1 0.28852566E-01 0.14771473E+04</pdfrwt>
<totfact> 0.14219520E+01</totfact>
</mgrwt>
</event>
<event>
 8    1  0.2354930E-010  0.1439755E+04  0.7818608E-02  0.8925534E-01
          1   -1    0    0  501    0  0.00000000000E+00  0.00000000000E+00  0.17402703557E+04  0.17402703557E+04  0.50400000000E-02 0. -1.
         -1   -1    0    0    0  501 -0.00000000000E+00 -0.00000000000E+00 -0.29778342613E+03  0.29778342617E+03  0.50400000000E-02 0.  1.
     200001    2    1    2    0    0  0.60086567521E+02 -0.14949339375E+03  0.79178498350E+03  0.10688418892E+04  0.69967196139E+03 0.  0.
    5000001    2    3    3    0    0  0.42484706542E+02 -0.63245661758E+02  0.23673738538E+03  0.31662760256E+03  0.19596807149E+03 0.  0.
        -11    1    4    4    0    0 -0.25786368407E+01  0.54798826585E+02  0.15190901139E+03  0.16151132624E+03  0.51100000000E-03 0. -1.
     200002    1    4    4    0    0  0.45063343383E+02 -0.11804448834E+03  0.84828373993E+02  0.15511627632E+03  0.30000000000E+02 0. -1.
     200000    1    3    3    0    0  0.17601860979E+02 -0.86247731993E+02  0.55504759812E+03  0.75221428660E+03  0.50000000000E+03 0. -1.
    -200001    1    1    2    0    0 -0.60086567521E+02  0.14949339375E+03  0.65070194606E+03  0.96921189272E+03  0.70000000000E+03 0. -1.
<mgrwt>
<rscale>  0 0.14397551E+04</rscale>
<asrwt>0</asrwt>
<pdfrwt beam="1">  1        1 0.24861005E+00 0.14397551E+04</pdfrwt>
<pdfrwt beam="2">  1       -1 0.42540490E-01 0.14397551E+04</pdfrwt>
<totfact> 0.28795444E+01</totfact>
</mgrwt>
</event>
<event>
 8    1  0.2354930E-010  0.1556741E+04  0.7818608E-02  0.8847574E-01
          1   -1    0    0  501    0  0.00000000000E+00  0.00000000000E+00  0.13486219248E+04  0.13486219248E+04  0.50400000000E-02 0.  1.
         -1   -1    0    0    0  501 -0.00000000000E+00 -0.00000000000E+00 -0.44924407727E+03  0.44924407730E+03  0.50400000000E-02 0. -1.
     200001    2    1    2    0    0 -0.13309118937E+03  0.17323057478E+03  0.14810612684E+03  0.74804159058E+03  0.69993478247E+03 0.  0.
    5000001    2    3    3    0    0 -0.63241245974E+02  0.34767805232E+02  0.13401740188E+03  0.22435328127E+03  0.16481952353E+03 0.  0.
        -11    1    4    4    0    0 -0.12321980854E+02 -0.20097113587E+02  0.14142197760E+03  0.14337329226E+03  0.51100000000E-03 0. -1.
     200002    1    4    4    0    0 -0.50919265120E+02  0.54864918819E+02 -0.74045757168E+01  0.80979989003E+02  0.30000000000E+02 0. -1.
     200000    1    3    3    0    0 -0.69849943391E+02  0.13846276955E+03  0.14088724963E+02  0.52368830932E+03  0.50000000000E+03 0. -1.
    -200001    1    1    2    0    0  0.13309118937E+03 -0.17323057478E+03  0.75127172068E+03  0.10498244115E+04  0.70000000000E+03 0.  1.
<mgrwt>
<rscale>  0 0.15567407E+04</rscale>
<asrwt>0</asrwt>
<pdfrwt beam="1">  1        1 0.19266028E+00 0.15567407E+04</pdfrwt>
<pdfrwt beam="2">  1       -1 0.64177724E-01 0.15567407E+04</pdfrwt>
<totfact> 0.23263940E+01</totfact>
</mgrwt>
</event>
<event>
 8    1  0.2354930E-010  0.1865949E+04  0.7818608E-02  0.8671994E-01
         -1   -1    0    0    0  501 -0.00000000000E+00  0.00000000000E+00  0.74943870263E+03  0.74943870264E+03  0.50400000000E-02 0.  1.
          1   -1    0    0  501    0  0.00000000000E+00 -0.00000000000E+00 -0.11614583749E+04  0.11614583749E+04  0.50400000000E-02 0. -1.
     200001    2    1    2    0    0 -0.18308933224E+02  0.36260867038E+02 -0.83619173036E+03  0.10914021097E+04  0.70020846010E+03 0.  0.
    5000001    2    3    3    0    0  0.63065085200E+02  0.53661983573E+02 -0.35118378950E+03  0.38986292160E+03  0.14766932714E+03 0.  0.
        -11    1    4    4    0    0  0.10119908561E+03  0.62630364889E+02 -0.26621832035E+03  0.29160934762E+03  0.51100000000E-03 0. -1.
     200002    1    4    4    0    0 -0.38134000407E+02 -0.89683813163E+01 -0.84965469152E+02  0.98253573974E+02  0.30000000000E+02 0. -1.
     200000    1    3    3    0    0 -0.81374018424E+02 -0.17401116534E+02 -0.48500794087E+03  0.70153918810E+03  0.50000000000E+03 0. -1.
    -200001    1    1    2    0    0  0.18308933224E+02 -0.36260867038E+02  0.42417205808E+03  0.81949496787E+03  0.70000000000E+03 0.  1.
<mgrwt>
<rscale>  0 0.18659495E+04</rscale>
<asrwt>0</asrwt>
<pdfrwt beam="1">  1        1 0.16592262E+00 0.18659495E+04</pdfrwt>
<pdfrwt beam="2">  1       -1 0.10706267E+00 0.18659495E+04</pdfrwt>
<totfact> 0.10089093E+01</totfact>
</mgrwt>
</event>
<event>
 8    1  0.2354930E-010  0.1827972E+04  0.7818608E-02  0.8691564E-01
          1   -1    0    0  501    0  0.00000000000E+00  0.00000000000E+00  0.11385441714E+04  0.11385441715E+04  0.50400000000E-02 0.  1.
         -1   -1    0    0    0  501 -0.00000000000E+00 -0.00000000000E+00 -0.73371823966E+03  0.73371823967E+03  0.50400000000E-02 0. -1.
     200001    2    1    2    0    0 -0.45955221836E+03  0.25060042987E+03  0.47580129090E+03  0.99532095444E+03  0.70020576766E+03 0.  0.
    5000001    2    3    3    0    0 -0.11370789132E+03 -0.94630380955E+01  0.22465910806E+02  0.19360138205E+03  0.15478289422E+03 0.  0.
        -11    1    4    4    0    0 -0.11268948880E+03  0.50954823309E+02  0.43635622149E+01  0.12375118416E+03  0.51100000000E-03 0. -1.
     200002    1    4    4    0    0 -0.10184025222E+01 -0.60417861404E+02  0.18102348591E+02  0.69850197887E+02  0.30000000000E+02 0. -1.
     200000    1    3    3    0    0 -0.34584432703E+03  0.26006346797E+03  0.45333538009E+03  0.80171957239E+03  0.50000000000E+03 0. -1.
    -200001    1    1    2    0    0  0.45955221836E+03 -0.25060042987E+03 -0.70975359117E+02  0.87694145669E+03  0.70000000000E+03 0. -1.
<mgrwt>
<rscale>  0 0.18279722E+04</rscale>
<asrwt>0</asrwt>
<pdfrwt beam="1">  1        1 0.16264917E+00 0.18279722E+04</pdfrwt>
<pdfrwt beam="2">  1       -1 0.10481689E+00 0.18279722E+04</pdfrwt>
<totfact> 0.11039837E+01</totfact>
</mgrwt>
</event>
<event>
 8    1  0.2354930E-010  0.2024221E+04  0.7818608E-02  0.8595380E-01
          1   -1    0    0  501    0  0.00000000000E+00  0.00000000000E+00  0.21448212762E+04  0.21448212763E+04  0.50400000000E-02 0.  1.
         -1   -1    0    0    0  501 -0.00000000000E+00 -0.00000000000E+00 -0.47760036526E+03  0.47760036529E+03  0.50400000000E-02 0. -1.
     200001    2    1    2    0    0 -0.71689206020E+03 -0.84502414428E+02  0.98608636450E+03  0.14079179757E+04  0.69913648446E+03 0.  0.
    5000001    2    3    3    0    0 -0.30500953791E+03  0.12146329194E+02  0.40582853173E+03  0.53288235107E+03  0.16151919819E+03 0.  0.
        -11    1    4    4    0    0 -0.24196732432E+03 -0.33738343206E+02  0.21847859950E+03  0.32774892872E+03  0.51100000000E-03 0. -1.
     200002    1    4    4    0    0 -0.63042213595E+02  0.45884672401E+02  0.18734993223E+03  0.20513342235E+03  0.30000000000E+02 0. -1.
     200000    1    3    3    0    0 -0.41188252229E+03 -0.96648743623E+02  0.58025783277E+03  0.87503562459E+03  0.50000000000E+03 0. -1.
    -200001    1    1    2    0    0  0.71689206020E+03  0.84502414428E+02  0.68113454649E+03  0.12145036659E+04  0.70000000000E+03 0. -1.
<mgrwt>
<rscale>  0 0.20242208E+04</rscale>
<asrwt>0</asrwt>
<pdfrwt beam="1">  1        1 0.30640305E+00 0.20242208E+04</pdfrwt>
<pdfrwt beam="2">  1       -1 0.68228622E-01 0.20242208E+04</pdfrwt>
<totfact> 0.61004693E+00</totfact>
</mgrwt>
</event>
<event>
 8    1  0.2354930E-010  0.2974982E+04  0.7818608E-02  0.8250911E-01
          1   -1    0    0  501    0  0.00000000000E+00  0.00000000000E+00  0.91423570461E+03  0.91423570463E+03  0.50400000000E-02 0.  1.
         -1   -1    0    0    0  501 -0.00000000000E+00 -0.00000000000E+00 -0.24201951615E+04  0.24201951615E+04  0.50400000000E-02 0. -1.
     200001    2    1    2    0    0  0.11410106756E+04  0.14703304751E+03 -0.14606171856E+04  0.19869962664E+04  0.70087625229E+03 0.  0.
    5000001    2    3    3    0    0  0.43681533006E+03  0.95158879214E+02 -0.62598571226E+03  0.78483500008E+03  0.15570812605E+03 0.  0.
        -11    1    4    4    0    0  0.79125975994E+02  0.38994382679E+01 -0.33279282456E+02  0.85928088172E+02  0.51100000000E-03 0. -1.
     200002    1    4    4    0    0  0.35768935407E+03  0.91259440946E+02 -0.59270642981E+03  0.69890691191E+03  0.30000000000E+02 0. -1.
     200000    1    3    3    0    0  0.70419534554E+03  0.51874168295E+02 -0.83463147330E+03  0.12021612663E+04  0.50000000000E+03 0. -1.
    -200001    1    1    2    0    0 -0.11410106756E+04 -0.14703304751E+03 -0.45342271296E+02  0.13474345997E+04  0.70000000000E+03 0.  1.
<mgrwt>
<rscale>  0 0.29749816E+04</rscale>
<asrwt>0</asrwt>
<pdfrwt beam="1">  1        1 0.13060510E+00 0.29749816E+04</pdfrwt>
<pdfrwt beam="2">  1       -1 0.34574216E+00 0.29749816E+04</pdfrwt>
<totfact> 0.28575713E-01</totfact>
</mgrwt>
</event>
<event>
 8    1  0.2354930E-010  0.1746493E+04  0.7818608E-02  0.8735283E-01
          1   -1    0    0  501    0  0.00000000000E+00  0.00000000000E+00  0.22921315727E+04  0.22921315727E+04  0.50400000000E-02 0.  1.
         -1   -1    0    0    0  501 -0.00000000000E+00 -0.00000000000E+00 -0.33268562494E+03  0.33268562498E+03  0.50400000000E-02 0. -1.
     200001    2    1    2    0    0  0.40056643562E+02 -0.45041739513E+03  0.58770920971E+03  0.10197807361E+04  0.70005019106E+03 0.  0.
    5000001    2    3    3    0    0 -0.29784909267E+02 -0.11172410883E+03  0.99612554499E+02  0.24014663633E+03  0.18541393856E+03 0.  0.
        -11    1    4    4    0    0 -0.39680519233E+01 -0.47437816709E+02  0.14462135756E+03  0.15225448747E+03  0.51100000000E-03 0. -1.
     200002    1    4    4    0    0 -0.25816857344E+02 -0.64286292126E+02 -0.45008803065E+02  0.87892148863E+02  0.30000000000E+02 0. -1.
     200000    1    3    3    0    0  0.69841552830E+02 -0.33869328630E+03  0.48809665522E+03  0.77963409977E+03  0.50000000000E+03 0. -1.
    -200001    1    1    2    0    0 -0.40056643562E+02  0.45041739513E+03  0.13717367380E+04  0.16050364616E+04  0.70000000000E+03 0.  1.
<mgrwt>
<rscale>  0 0.17464927E+04</rscale>
<asrwt>0</asrwt>
<pdfrwt beam="1">  1        1 0.32744735E+00 0.17464927E+04</pdfrwt>
<pdfrwt beam="2">  1       -1 0.47526520E-01 0.17464927E+04</pdfrwt>
<totfact> 0.10240123E+01</totfact>
</mgrwt>
</event>
<event>
 8    1  0.2354930E-010  0.2700390E+04  0.7818608E-02  0.8334878E-01
         -1   -1    0    0    0  501 -0.00000000000E+00  0.00000000000E+00  0.13052213037E+04  0.13052213037E+04  0.50400000000E-02 0. -1.
          1   -1    0    0  501    0  0.00000000000E+00 -0.00000000000E+00 -0.13967182510E+04  0.13967182510E+04  0.50400000000E-02 0.  1.
     200001    2    1    2    0    0  0.39209428366E+02 -0.38409787564E+03  0.10426015438E+04  0.13144065119E+04  0.70112619545E+03 0.  0.
    5000001    2    3    3    0    0  0.71631578496E+02 -0.73278159967E+02  0.23340436819E+03  0.31317718724E+03  0.18193839548E+03 0.  0.
        -11    1    4    4    0    0 -0.22221299402E+02 -0.59094802727E+01 -0.21645700310E+02  0.31579177417E+02  0.51100000000E-03 0. -1.
     200002    1    4    4    0    0  0.93852877897E+02 -0.67368679694E+02  0.25505006850E+03  0.28159800982E+03  0.30000000000E+02 0. -1.
     200000    1    3    3    0    0 -0.32422150130E+02 -0.31081971567E+03  0.80919717563E+03  0.10012293246E+04  0.50000000000E+03 0. -1.
    -200001    1    1    2    0    0 -0.39209428366E+02  0.38409787564E+03 -0.11340984911E+04  0.13875330428E+04  0.70000000000E+03 0.  1.
<mgrwt>
<rscale>  0 0.27003899E+04</rscale>
<asrwt>0</asrwt>
<pdfrwt beam="1">  1        1 0.19953118E+00 0.27003899E+04</pdfrwt>
<pdfrwt beam="2">  1       -1 0.18646019E+00 0.27003899E+04</pdfrwt>
<totfact> 0.14960510E+00</totfact>
</mgrwt>
</event>
<event>
 8    1  0.2354930E-010  0.1647871E+04  0.7818608E-02  0.8791667E-01
          1   -1    0    0  501    0  0.00000000000E+00  0.00000000000E+00  0.15678606218E+04  0.15678606218E+04  0.50400000000E-02 0.  1.
         -1   -1    0    0    0  501 -0.00000000000E+00 -0.00000000000E+00 -0.43299106395E+03  0.43299106398E+03  0.50400000000E-02 0. -1.
     200001    2    1    2    0    0 -0.14735418270E+03  0.39489031846E+03  0.43595844820E+03  0.92561759130E+03  0.69932577386E+03 0.  0.
    5000001    2    3    3    0    0 -0.62720115384E+01  0.10099746705E+03  0.43915840606E+02  0.21149253691E+03  0.18044574152E+03 0.  0.
        -11    1    4    4    0    0  0.61353215353E+02 -0.62614429335E+01  0.52387786697E+02  0.80919113299E+02  0.51100000000E-03 0. -1.
     200002    1    4    4    0    0 -0.67625226891E+02  0.10725890999E+03 -0.84719460908E+01  0.13057342361E+03  0.30000000000E+02 0. -1.
     200000    1    3    3    0    0 -0.14108217117E+03  0.29389285141E+03  0.39204260759E+03  0.71412505439E+03  0.50000000000E+03 0.  1.
    -200001    1    1    2    0    0  0.14735418270E+03 -0.39489031846E+03  0.69891110965E+03  0.10752340945E+04  0.70000000000E+03 0.  1.
<mgrwt>
<rscale>  0 0.16478709E+04</rscale>
<asrwt>0</asrwt>
<pdfrwt beam="1">  1        1 0.22398009E+00 0.16478709E+04</pdfrwt>
<pdfrwt beam="2">  1       -1 0.61855866E-01 0.16478709E+04</pdfrwt>
<totfact> 0.17833267E+01</totfact>
</mgrwt>
</event>
<event>
 8    1  0.2378778E-010  0.1875812E+04  0.7818608E-02  0.8666991E-01
         -1   -1    0    0    0  501 -0.00000000000E+00  0.00000000000E+00  0.40072298184E+03  0.40072298187E+03  0.50400000000E-02 0. -1.
          1   -1    0    0  501    0  0.00000000000E+00 -0.00000000000E+00 -0.21952009158E+04  0.21952009158E+04  0.50400000000E-02 0.  1.
     200001    2    1    2    0    0  0.49731336849E+03 -0.57783075207E+02 -0.14084901498E+04  0.16527134017E+04  0.70495220814E+03 0.  0.
    5000001    2    3    3    0    0  0.10699491698E+03  0.27774557303E+02 -0.37670994269E+03  0.43853096158E+03  0.19539622579E+03 0.  0.
        -11    1    4    4    0    0 -0.10928430457E+02  0.14610197203E+02  0.17789539818E+02  0.25482468126E+02  0.51100000000E-03 0. -1.
     200002    1    4    4    0    0  0.11792334744E+03  0.13164360100E+02 -0.39449948251E+03  0.41304849346E+03  0.30000000000E+02 0. -1.
     200000    1    3    3    0    0  0.39031845151E+03 -0.85557632511E+02 -0.10317802071E+04  0.12141824401E+04  0.50000000000E+03 0. -1.
    -200001    1    1    2    0    0 -0.49731336849E+03  0.57783075207E+02 -0.38598778418E+03  0.94321049601E+03  0.70000000000E+03 0. -1.
<mgrwt>
<rscale>  0 0.18758118E+04</rscale>
<asrwt>0</asrwt>
<pdfrwt beam="1">  1        1 0.31360013E+00 0.18758118E+04</pdfrwt>
<pdfrwt beam="2">  1       -1 0.57246141E-01 0.18758118E+04</pdfrwt>
<totfact> 0.81555326E+00</totfact>
</mgrwt>
</event>
<event>
 8    1  0.2354930E-010  0.1780672E+04  0.7818608E-02  0.8716646E-01
          1   -1    0    0  501    0  0.00000000000E+00  0.00000000000E+00  0.87572682190E+03  0.87572682192E+03  0.50400000000E-02 0.  1.
         -1   -1    0    0    0  501 -0.00000000000E+00 -0.00000000000E+00 -0.90518917536E+03  0.90518917537E+03  0.50400000000E-02 0. -1.
     200001    2    1    2    0    0  0.35646623967E+02 -0.54956409366E+03  0.77285272273E+00  0.88973389327E+03  0.69880929351E+03 0.  0.
    5000001    2    3    3    0    0  0.10539219375E+03 -0.12804809748E+03  0.24366804673E+01  0.23205391953E+03  0.16229372873E+03 0.  0.
        -11    1    4    4    0    0  0.99169836617E+02 -0.78293960023E+02 -0.65603725949E+02  0.14236730499E+03  0.51100000000E-03 0. -1.
     200002    1    4    4    0    0  0.62223571371E+01 -0.49754137460E+02  0.68040406416E+02  0.89686614542E+02  0.30000000000E+02 0. -1.
     200000    1    3    3    0    0 -0.69745569787E+02 -0.42151599617E+03 -0.16638277446E+01  0.65767997374E+03  0.50000000000E+03 0.  1.
    -200001    1    1    2    0    0 -0.35646623967E+02  0.54956409366E+03 -0.30235206180E+02  0.89118210402E+03  0.70000000000E+03 0. -1.
<mgrwt>
<rscale>  0 0.17806723E+04</rscale>
<asrwt>0</asrwt>
<pdfrwt beam="1">  1        1 0.12510383E+00 0.17806723E+04</pdfrwt>
<pdfrwt beam="2">  1       -1 0.12931274E+00 0.17806723E+04</pdfrwt>
<totfact> 0.10502313E+01</totfact>
</mgrwt>
</event>
<event>
 8    1  0.2354930E-010  0.1571920E+04  0.7818608E-02  0.8837987E-01
          1   -1    0    0  501    0  0.00000000000E+00  0.00000000000E+00  0.93588372423E+03  0.93588372424E+03  0.50400000000E-02 0.  1.
         -1   -1    0    0    0  501 -0.00000000000E+00 -0.00000000000E+00 -0.66005346098E+03  0.66005346100E+03  0.50400000000E-02 0. -1.
     200001    2    1    2    0    0  0.29152122380E+03  0.99657269032E+02 -0.46512006169E+02  0.76598493731E+03  0.69975235782E+03 0.  0.
    5000001    2    3    3    0    0  0.10399471876E+03 -0.11393968813E+02  0.11746560177E+02  0.21744813082E+03  0.19026556143E+03 0.  0.
        -11    1    4    4    0    0  0.74363568671E+02  0.77993245495E+02 -0.27322206485E+02  0.11117279189E+03  0.51100000000E-03 0. -1.
     200002    1    4    4    0    0  0.29631150088E+02 -0.89387214308E+02  0.39068766662E+02  0.10627533894E+03  0.30000000000E+02 0. -1.
     200000    1    3    3    0    0  0.18752650504E+03  0.11105123785E+03 -0.58258566346E+02  0.54853680649E+03  0.50000000000E+03 0. -1.
    -200001    1    1    2    0    0 -0.29152122380E+03 -0.99657269032E+02  0.32234226942E+03  0.82995224793E+03  0.70000000000E+03 0.  1.
<mgrwt>
<rscale>  0 0.15719202E+04</rscale>
<asrwt>0</asrwt>
<pdfrwt beam="1">  1        1 0.13369767E+00 0.15719202E+04</pdfrwt>
<pdfrwt beam="2">  1       -1 0.94293352E-01 0.15719202E+04</pdfrwt>
<totfact> 0.20278991E+01</totfact>
</mgrwt>
</event>
<event>
 8    1  0.2354930E-010  0.1654575E+04  0.7818608E-02  0.8787705E-01
          1   -1    0    0  501    0  0.00000000000E+00  0.00000000000E+00  0.45039819296E+03  0.45039819299E+03  0.50400000000E-02 0.  1.
         -1   -1    0    0    0  501 -0.00000000000E+00 -0.00000000000E+00 -0.15195539214E+04  0.15195539214E+04  0.50400000000E-02 0. -1.
     200001    2    1    2    0    0  0.48866261490E+02 -0.42017910052E+03 -0.38394421365E+03  0.90296888676E+03  0.69928625271E+03 0.  0.
    5000001    2    3    3    0    0  0.79497906860E+02 -0.19055535931E+03 -0.18691513781E+03  0.31774600875E+03  0.15295095675E+03 0.  0.
        -11    1    4    4    0    0  0.52285370349E+02 -0.70188907119E+02 -0.16788541260E+03  0.18932975043E+03  0.51100000000E-03 0. -1.
     200002    1    4    4    0    0  0.27212536510E+02 -0.12036645220E+03 -0.19029725214E+02  0.12841625831E+03  0.30000000000E+02 0. -1.
     200000    1    3    3    0    0 -0.30631645370E+02 -0.22962374121E+03 -0.19702907584E+03  0.58522287801E+03  0.50000000000E+03 0. -1.
    -200001    1    1    2    0    0 -0.48866261490E+02  0.42017910052E+03 -0.68521151477E+03  0.10669832276E+04  0.70000000000E+03 0. -1.
<mgrwt>
<rscale>  0 0.16545747E+04</rscale>
<asrwt>0</asrwt>
<pdfrwt beam="1">  1        1 0.64342600E-01 0.16545747E+04</pdfrwt>
<pdfrwt beam="2">  1       -1 0.21707913E+00 0.16545747E+04</pdfrwt>
<totfact> 0.62318607E+00</totfact>
</mgrwt>
</event>
<event>
 8    1  0.2354930E-010  0.2534678E+04  0.7818608E-02  0.8390734E-01
          1   -1    0    0  501    0  0.00000000000E+00  0.00000000000E+00  0.23144924659E+04  0.23144924659E+04  0.50400000000E-02 0.  1.
         -1   -1    0    0    0  501 -0.00000000000E+00 -0.00000000000E+00 -0.69395268505E+03  0.69395268506E+03  0.50400000000E-02 0. -1.
     200001    2    1    2    0    0 -0.87011281819E+03  0.55442004911E+03  0.10826815700E+04  0.16505904598E+04  0.69840645532E+03 0.  0.
    5000001    2    3    3    0    0 -0.15259865851E+03  0.13936773534E+03  0.30337636290E+03  0.40784688277E+03  0.17774179583E+03 0.  0.
        -11    1    4    4    0    0 -0.63802778743E+02  0.40795492041E+02  0.25086007604E+03  0.26204168465E+03  0.51100000000E-03 0. -1.
     200002    1    4    4    0    0 -0.88795879769E+02  0.98572243297E+02  0.52516286867E+02  0.14580519812E+03  0.30000000000E+02 0.  1.
     200000    1    3    3    0    0 -0.71751415968E+03  0.41505231377E+03  0.77930520705E+03  0.12427435770E+04  0.50000000000E+03 0. -1.
    -200001    1    1    2    0    0  0.87011281819E+03 -0.55442004911E+03  0.53785821086E+03  0.13578546911E+04  0.70000000000E+03 0.  1.
<mgrwt>
<rscale>  0 0.25346781E+04</rscale>
<asrwt>0</asrwt>
<pdfrwt beam="1">  1        1 0.33064178E+00 0.25346781E+04</pdfrwt>
<pdfrwt beam="2">  1       -1 0.99136099E-01 0.25346781E+04</pdfrwt>
<totfact> 0.20429101E+00</totfact>
</mgrwt>
</event>
<event>
 8    1  0.2354930E-010  0.1517404E+04  0.7818608E-02  0.8872962E-01
         -1   -1    0    0    0  501 -0.00000000000E+00  0.00000000000E+00  0.67547123278E+03  0.67547123280E+03  0.50400000000E-02 0. -1.
          1   -1    0    0  501    0  0.00000000000E+00 -0.00000000000E+00 -0.85218783378E+03  0.85218783380E+03  0.50400000000E-02 0.  1.
     200001    2    1    2    0    0 -0.34541896242E+02  0.20035403659E+03 -0.30030947416E+03  0.78832823343E+03  0.69995767070E+03 0.  0.
    5000001    2    3    3    0    0  0.86774815863E+00  0.69597365759E+02 -0.84451686146E+02  0.22712797102E+03  0.19902382174E+03 0.  0.
        -11    1    4    4    0    0  0.83346626138E+02  0.47890537052E+02 -0.96155825480E+02  0.13596362161E+03  0.51100000000E-03 0. -1.
     200002    1    4    4    0    0 -0.82478877980E+02  0.21706828708E+02  0.11704139333E+02  0.91164349407E+02  0.30000000000E+02 0. -1.
     200000    1    3    3    0    0 -0.35409644401E+02  0.13075667083E+03 -0.21585778802E+03  0.56120026241E+03  0.50000000000E+03 0. -1.
    -200001    1    1    2    0    0  0.34541896242E+02 -0.20035403659E+03  0.12359287316E+03  0.73933083317E+03  0.70000000000E+03 0. -1.
<mgrwt>
<rscale>  0 0.15174035E+04</rscale>
<asrwt>0</asrwt>
<pdfrwt beam="1">  1        1 0.12174112E+00 0.15174035E+04</pdfrwt>
<pdfrwt beam="2">  1       -1 0.96495891E-01 0.15174035E+04</pdfrwt>
<totfact> 0.22535121E+01</totfact>
</mgrwt>
</event>
<event>
 8    1  0.2354930E-010  0.1650795E+04  0.7818608E-02  0.8789936E-01
         -1   -1    0    0    0  501 -0.00000000000E+00  0.00000000000E+00  0.34929262902E+03  0.34929262905E+03  0.50400000000E-02 0. -1.
          1   -1    0    0  501    0  0.00000000000E+00 -0.00000000000E+00 -0.19504590349E+04  0.19504590349E+04  0.50400000000E-02 0.  1.
     200001    2    1    2    0    0  0.19670044133E+03  0.35577219912E+03 -0.57798385454E+03  0.99508026677E+03  0.70061007694E+03 0.  0.
    5000001    2    3    3    0    0  0.16301156088E+02  0.75150209369E+02 -0.61776712351E+02  0.20276567211E+03  0.17715607227E+03 0.  0.
        -11    1    4    4    0    0 -0.10189166460E+02 -0.24710429227E+02  0.44263739585E+02  0.51707862730E+02  0.51100000000E-03 0. -1.
     200002    1    4    4    0    0  0.26490322549E+02  0.99860638596E+02 -0.10604045194E+03  0.15105780939E+03  0.30000000000E+02 0. -1.
     200000    1    3    3    0    0  0.18039928524E+03  0.28062198976E+03 -0.51620714219E+03  0.79231459465E+03  0.50000000000E+03 0.  1.
    -200001    1    1    2    0    0 -0.19670044133E+03 -0.35577219912E+03 -0.10231825514E+04  0.13046713972E+04  0.70000000000E+03 0. -1.
<mgrwt>
<rscale>  0 0.16507949E+04</rscale>
<asrwt>0</asrwt>
<pdfrwt beam="1">  1        1 0.27863700E+00 0.16507949E+04</pdfrwt>
<pdfrwt beam="2">  1       -1 0.49898948E-01 0.16507949E+04</pdfrwt>
<totfact> 0.15449950E+01</totfact>
</mgrwt>
</event>
<event>
 8    1  0.2354930E-010  0.1842198E+04  0.7818608E-02  0.8684176E-01
         -1   -1    0    0    0  501 -0.00000000000E+00  0.00000000000E+00  0.26341127678E+03  0.26341127683E+03  0.50400000000E-02 0. -1.
          1   -1    0    0  501    0  0.00000000000E+00 -0.00000000000E+00 -0.32209062084E+04  0.32209062084E+04  0.50400000000E-02 0.  1.
     200001    2    1    2    0    0 -0.38857539538E+03 -0.25044095053E+03 -0.21981821466E+04  0.23528284605E+04  0.70006107394E+03 0.  0.
    5000001    2    3    3    0    0 -0.65290803173E+02 -0.13909635358E+03 -0.25763321045E+03  0.31993871423E+03  0.11124398941E+03 0.  0.
        -11    1    4    4    0    0 -0.75913242211E+02 -0.92148825778E+02 -0.22444650417E+03  0.25422521447E+03  0.51100000000E-03 0. -1.
     200002    1    4    4    0    0  0.10622439039E+02 -0.46947527801E+02 -0.33186706276E+02  0.65713499764E+02  0.30000000000E+02 0. -1.
     200000    1    3    3    0    0 -0.32328459220E+03 -0.11134459696E+03 -0.19405489362E+04  0.20328897463E+04  0.50000000000E+03 0.  1.
    -200001    1    1    2    0    0  0.38857539538E+03  0.25044095053E+03 -0.75931278497E+03  0.11314890247E+04  0.70000000000E+03 0. -1.
<mgrwt>
<rscale>  0 0.18421976E+04</rscale>
<asrwt>0</asrwt>
<pdfrwt beam="1">  1        1 0.46012943E+00 0.18421976E+04</pdfrwt>
<pdfrwt beam="2">  1       -1 0.37630184E-01 0.18421976E+04</pdfrwt>
<totfact> 0.39054779E+00</totfact>
</mgrwt>
</event>
<event>
 8    1  0.2354930E-010  0.1737730E+04  0.7818608E-02  0.8740133E-01
         -1   -1    0    0    0  501 -0.00000000000E+00  0.00000000000E+00  0.48234587562E+03  0.48234587564E+03  0.50400000000E-02 0. -1.
          1   -1    0    0  501    0  0.00000000000E+00 -0.00000000000E+00 -0.15651149507E+04  0.15651149508E+04  0.50400000000E-02 0.  1.
     200001    2    1    2    0    0  0.20174248548E+03  0.20823143716E+03 -0.10422691479E+04  0.12887114567E+04  0.70027985843E+03 0.  0.
    5000001    2    3    3    0    0 -0.24342265322E+02  0.94856510849E+02 -0.35872123918E+03  0.40485290922E+03  0.16010823567E+03 0.  0.
        -11    1    4    4    0    0 -0.77453013712E+02  0.34196949590E+01 -0.15850883216E+03  0.17645314823E+03  0.51100000000E-03 0. -1.
     200002    1    4    4    0    0  0.53110748390E+02  0.91436815890E+02 -0.20021240702E+03  0.22839976099E+03  0.30000000000E+02 0. -1.
     200000    1    3    3    0    0  0.22608475080E+03  0.11337492631E+03 -0.68354790875E+03  0.88385854751E+03  0.50000000000E+03 0.  1.
    -200001    1    1    2    0    0 -0.20174248548E+03 -0.20823143716E+03 -0.40499927200E+02  0.75874936967E+03  0.70000000000E+03 0. -1.
<mgrwt>
<rscale>  0 0.17377304E+04</rscale>
<asrwt>0</asrwt>
<pdfrwt beam="1">  1        1 0.22358785E+00 0.17377304E+04</pdfrwt>
<pdfrwt beam="2">  1       -1 0.68906555E-01 0.17377304E+04</pdfrwt>
<totfact> 0.14293506E+01</totfact>
</mgrwt>
</event>
<event>
 8    1  0.2354930E-010  0.2728254E+04  0.7818608E-02  0.8325895E-01
          1   -1    0    0  501    0  0.00000000000E+00  0.00000000000E+00  0.27528091319E+04  0.27528091319E+04  0.50400000000E-02 0. -1.
         -1   -1    0    0    0  501 -0.00000000000E+00 -0.00000000000E+00 -0.67597959270E+03  0.67597959271E+03  0.50400000000E-02 0.  1.
     200001    2    1    2    0    0 -0.23974231235E+03  0.90721932522E+03  0.19183591381E+04  0.22474182712E+04  0.70018841908E+03 0.  0.
    5000001    2    3    3    0    0 -0.76652341773E+02  0.38097594891E+03  0.64417392810E+03  0.77192568252E+03  0.17289000706E+03 0.  0.
        -11    1    4    4    0    0 -0.74456684610E+02  0.80968992214E+02  0.94628899872E+02  0.14510135862E+03  0.51100000000E-03 0. -1.
     200002    1    4    4    0    0 -0.21956571633E+01  0.30000695670E+03  0.54954502823E+03  0.62682432390E+03  0.30000000000E+02 0. -1.
     200000    1    3    3    0    0 -0.16308997058E+03  0.52624337631E+03  0.12741852100E+04  0.14754925886E+04  0.50000000000E+03 0. -1.
    -200001    1    1    2    0    0  0.23974231235E+03 -0.90721932522E+03  0.15847040110E+03  0.11813704535E+04  0.70000000000E+03 0.  1.
<mgrwt>
<rscale>  0 0.27282542E+04</rscale>
<asrwt>0</asrwt>
<pdfrwt beam="1">  1        1 0.39325846E+00 0.27282542E+04</pdfrwt>
<pdfrwt beam="2">  1       -1 0.96568511E-01 0.27282542E+04</pdfrwt>
<totfact> 0.11191520E+00</totfact>
</mgrwt>
</event>
<event>
 8    1  0.2354930E-010  0.1600818E+04  0.7818608E-02  0.8820046E-01
         -1   -1    0    0    0  501 -0.00000000000E+00  0.00000000000E+00  0.41546762083E+03  0.41546762086E+03  0.50400000000E-02 0.  1.
          1   -1    0    0  501    0  0.00000000000E+00 -0.00000000000E+00 -0.15420077543E+04  0.15420077543E+04  0.50400000000E-02 0. -1.
     200001    2    1    2    0    0  0.15545050329E+03  0.10636478049E+03 -0.97841347383E+03  0.12175971198E+04  0.69983676300E+03 0.  0.
    5000001    2    3    3    0    0  0.56281584833E+02  0.67079724486E+02 -0.23962509465E+03  0.31916178031E+03  0.19177265133E+03 0.  0.
        -11    1    4    4    0    0 -0.67386664906E+02  0.35122459848E+01 -0.62379511137E+02  0.91893970906E+02  0.51100000000E-03 0. -1.
     200002    1    4    4    0    0  0.12366824974E+03  0.63567478501E+02 -0.17724558351E+03  0.22726780940E+03  0.30000000000E+02 0. -1.
     200000    1    3    3    0    0  0.99168918457E+02  0.39285056007E+02 -0.73878837918E+03  0.89843533948E+03  0.50000000000E+03 0. -1.
    -200001    1    1    2    0    0 -0.15545050329E+03 -0.10636478049E+03 -0.14812665965E+03  0.73987825539E+03  0.70000000000E+03 0.  1.
<mgrwt>
<rscale>  0 0.16008177E+04</rscale>
<asrwt>0</asrwt>
<pdfrwt beam="1">  1        1 0.22028682E+00 0.16008177E+04</pdfrwt>
<pdfrwt beam="2">  1       -1 0.59352518E-01 0.16008177E+04</pdfrwt>
<totfact> 0.20195237E+01</totfact>
</mgrwt>
</event>
<event>
 8    1  0.2354930E-010  0.2022852E+04  0.7818608E-02  0.8596010E-01
          1   -1    0    0  501    0  0.00000000000E+00  0.00000000000E+00  0.15147976999E+04  0.15147976999E+04  0.50400000000E-02 0. -1.
         -1   -1    0    0    0  501 -0.00000000000E+00 -0.00000000000E+00 -0.67532626235E+03  0.67532626237E+03  0.50400000000E-02 0.  1.
     200001    2    1    2    0    0  0.29703912274E+03 -0.54986400708E+02  0.11382298796E+04  0.13712757764E+04  0.70254839786E+03 0.  0.
    5000001    2    3    3    0    0  0.11475221255E+03 -0.82879158445E+02  0.42156501841E+03  0.47818280986E+03  0.17579735410E+03 0.  0.
        -11    1    4    4    0    0  0.10068232698E+03 -0.86608097886E+02  0.42442240123E+03  0.44471594108E+03  0.51100000000E-03 0. -1.
     200002    1    4    4    0    0  0.14069885573E+02  0.37289394408E+01 -0.28573828210E+01  0.33466868780E+02  0.30000000000E+02 0. -1.
     200000    1    3    3    0    0  0.18228691018E+03  0.27892757736E+02  0.71666486123E+03  0.89309296654E+03  0.50000000000E+03 0. -1.
    -200001    1    1    2    0    0 -0.29703912274E+03  0.54986400708E+02 -0.29875844214E+03  0.81884818584E+03  0.70000000000E+03 0.  1.
<mgrwt>
<rscale>  0 0.20228521E+04</rscale>
<asrwt>0</asrwt>
<pdfrwt beam="1">  1        1 0.21639967E+00 0.20228521E+04</pdfrwt>
<pdfrwt beam="2">  1       -1 0.96475180E-01 0.20228521E+04</pdfrwt>
<totfact> 0.73099905E+00</totfact>
</mgrwt>
</event>
<event>
 8    1  0.2354930E-010  0.1682376E+04  0.7818608E-02  0.8771480E-01
         -1   -1    0    0    0  501 -0.00000000000E+00  0.00000000000E+00  0.33792778981E+03  0.33792778985E+03  0.50400000000E-02 0. -1.
          1   -1    0    0  501    0  0.00000000000E+00 -0.00000000000E+00 -0.20939299065E+04  0.20939299065E+04  0.50400000000E-02 0.  1.
     200001    2    1    2    0    0 -0.25724083121E+03 -0.38101153572E+03 -0.77315423584E+03  0.11406053614E+04  0.70133478633E+03 0.  0.
    5000001    2    3    3    0    0 -0.15249436660E+03 -0.24156257790E+03 -0.39205074785E+03  0.48818088132E+03  0.54861399057E+02 0.  0.
        -11    1    4    4    0    0 -0.21764045314E+02 -0.11794121726E+02 -0.30212750261E+02  0.39058741074E+02  0.51100000000E-03 0. -1.
     200002    1    4    4    0    0 -0.13073032128E+03 -0.22976845617E+03 -0.36183799759E+03  0.44912214024E+03  0.30000000000E+02 0. -1.
     200000    1    3    3    0    0 -0.10474646461E+03 -0.13944895782E+03 -0.38110348799E+03  0.65242448010E+03  0.50000000000E+03 0. -1.
    -200001    1    1    2    0    0  0.25724083121E+03  0.38101153572E+03 -0.98284788088E+03  0.12912523350E+04  0.70000000000E+03 0.  1.
<mgrwt>
<rscale>  0 0.16823758E+04</rscale>
<asrwt>0</asrwt>
<pdfrwt beam="1">  1        1 0.29913284E+00 0.16823758E+04</pdfrwt>
<pdfrwt beam="2">  1       -1 0.48275400E-01 0.16823758E+04</pdfrwt>
<totfact> 0.13325525E+01</totfact>
</mgrwt>
</event>
<event>
 8    1  0.2354930E-010  0.2073896E+04  0.7818608E-02  0.8572830E-01
         -1   -1    0    0    0  501 -0.00000000000E+00  0.00000000000E+00  0.33489574361E+03  0.33489574364E+03  0.50400000000E-02 0. -1.
          1   -1    0    0  501    0  0.00000000000E+00 -0.00000000000E+00 -0.32107340092E+04  0.32107340092E+04  0.50400000000E-02 0.  1.
     200001    2    1    2    0    0  0.63031883484E+03 -0.40794011799E+03 -0.16921817370E+04  0.19788624596E+04  0.69907126223E+03 0.  0.
    5000001    2    3    3    0    0  0.54923199752E+02 -0.10247473708E+02 -0.43764700125E+03  0.45797555411E+03  0.12282158550E+03 0.  0.
        -11    1    4    4    0    0  0.40282081371E+02  0.14488816740E+02 -0.41388323014E+02  0.59544648561E+02  0.51100000000E-03 0. -1.
     200002    1    4    4    0    0  0.14641118381E+02 -0.24736290448E+02 -0.39625867824E+03  0.39843090554E+03  0.30000000000E+02 0. -1.
     200000    1    3    3    0    0  0.57539563509E+03 -0.39769264428E+03 -0.12545347357E+04  0.15208869055E+04  0.50000000000E+03 0. -1.
    -200001    1    1    2    0    0 -0.63031883484E+03  0.40794011799E+03 -0.11836565286E+04  0.15667672932E+04  0.70000000000E+03 0. -1.
<mgrwt>
<rscale>  0 0.20738960E+04</rscale>
<asrwt>0</asrwt>
<pdfrwt beam="1">  1        1 0.45867627E+00 0.20738960E+04</pdfrwt>
<pdfrwt beam="2">  1       -1 0.47842251E-01 0.20738960E+04</pdfrwt>
<totfact> 0.24927572E+00</totfact>
</mgrwt>
</event>
<event>
 8    1  0.2354930E-010  0.1604196E+04  0.7818608E-02  0.8817975E-01
          1   -1    0    0  501    0  0.00000000000E+00  0.00000000000E+00  0.17216524943E+04  0.17216524943E+04  0.50400000000E-02 0.  1.
         -1   -1    0    0    0  501 -0.00000000000E+00 -0.00000000000E+00 -0.37368803579E+03  0.37368803583E+03  0.50400000000E-02 0. -1.
     200001    2    1    2    0    0  0.32696845482E+03  0.21261402557E+03  0.71823203309E+03  0.10761859678E+04  0.70014704853E+03 0.  0.
    5000001    2    3    3    0    0  0.13847078664E+03  0.41772401883E+02  0.26265329825E+03  0.35350331618E+03  0.18723981188E+03 0.  0.
        -11    1    4    4    0    0 -0.23778791510E+02 -0.38643958041E+02  0.93348783999E+02  0.10379201267E+03  0.51100000000E-03 0. -1.
     200002    1    4    4    0    0  0.16224957815E+03  0.80416359924E+02  0.16930451426E+03  0.24971130351E+03  0.30000000000E+02 0. -1.
     200000    1    3    3    0    0  0.18849766818E+03  0.17084162368E+03  0.45557873484E+03  0.72268265160E+03  0.50000000000E+03 0. -1.
    -200001    1    1    2    0    0 -0.32696845482E+03 -0.21261402557E+03  0.62973242538E+03  0.10191545623E+04  0.70000000000E+03 0.  1.
<mgrwt>
<rscale>  0 0.16041957E+04</rscale>
<asrwt>0</asrwt>
<pdfrwt beam="1">  1        1 0.24595036E+00 0.16041957E+04</pdfrwt>
<pdfrwt beam="2">  1       -1 0.53384005E-01 0.16041957E+04</pdfrwt>
<totfact> 0.19027404E+01</totfact>
</mgrwt>
</event>
<event>
 8    1  0.2354930E-010  0.1516714E+04  0.7818608E-02  0.8873414E-01
         -1   -1    0    0    0  501 -0.00000000000E+00  0.00000000000E+00  0.20048582992E+03  0.20048582998E+03  0.50400000000E-02 0. -1.
          1   -1    0    0  501    0  0.00000000000E+00 -0.00000000000E+00 -0.28685589550E+04  0.28685589550E+04  0.50400000000E-02 0.  1.
     200001    2    1    2    0    0  0.11667527005E+03  0.20984539313E+03 -0.99576991028E+03  0.12403167434E+04  0.69941382757E+03 0.  0.
    5000001    2    3    3    0    0 -0.10563559374E+03  0.73690839548E+02 -0.26032537024E+03  0.31358115327E+03  0.11821430878E+03 0.  0.
        -11    1    4    4    0    0 -0.66710765849E+02  0.62596453304E+02 -0.24405745284E+03  0.26063898890E+03  0.51100000000E-03 0. -1.
     200002    1    4    4    0    0 -0.38924827888E+02  0.11094386244E+02 -0.16267917399E+02  0.52942164375E+02  0.30000000000E+02 0. -1.
     200000    1    3    3    0    0  0.22231086378E+03  0.13615455358E+03 -0.73544454004E+03  0.92673559017E+03  0.50000000000E+03 0. -1.
    -200001    1    1    2    0    0 -0.11667527005E+03 -0.20984539313E+03 -0.16723032148E+04  0.18287280415E+04  0.70000000000E+03 0.  1.
<mgrwt>
<rscale>  0 0.15167141E+04</rscale>
<asrwt>0</asrwt>
<pdfrwt beam="1">  1        1 0.40979411E+00 0.15167141E+04</pdfrwt>
<pdfrwt beam="2">  1       -1 0.28640834E-01 0.15167141E+04</pdfrwt>
<totfact> 0.11182408E+01</totfact>
</mgrwt>
</event>
<event>
 8    1  0.2354930E-010  0.2487779E+04  0.7818608E-02  0.8407352E-01
         -1   -1    0    0    0  501 -0.00000000000E+00  0.00000000000E+00  0.11981348241E+04  0.11981348241E+04  0.50400000000E-02 0. -1.
          1   -1    0    0  501    0  0.00000000000E+00 -0.00000000000E+00 -0.12913910482E+04  0.12913910482E+04  0.50400000000E-02 0.  1.
     200001    2    1    2    0    0  0.19272881409E+03  0.69151279502E+03 -0.78300360688E+03  0.12725271897E+04  0.70064003510E+03 0.  0.
    5000001    2    3    3    0    0  0.39436026429E+02  0.15925951405E+03 -0.28481445287E+03  0.37531781226E+03  0.18117779843E+03 0.  0.
        -11    1    4    4    0    0  0.71041521493E+02  0.15428642444E+01 -0.42079893721E+02  0.82583265024E+02  0.51100000000E-03 0. -1.
     200002    1    4    4    0    0 -0.31605495064E+02  0.15771664981E+03 -0.24273455915E+03  0.29273454724E+03  0.30000000000E+02 0. -1.
     200000    1    3    3    0    0  0.15329278766E+03  0.53225328097E+03 -0.49818915401E+03  0.89720937747E+03  0.50000000000E+03 0.  1.
    -200001    1    1    2    0    0 -0.19272881409E+03 -0.69151279502E+03  0.68974738271E+03  0.12169986826E+04  0.70000000000E+03 0. -1.
<mgrwt>
<rscale>  0 0.24877786E+04</rscale>
<asrwt>0</asrwt>
<pdfrwt beam="1">  1        1 0.18448443E+00 0.24877786E+04</pdfrwt>
<pdfrwt beam="2">  1       -1 0.17116212E+00 0.24877786E+04</pdfrwt>
<totfact> 0.23107690E+00</totfact>
</mgrwt>
</event>
<event>
 8    1  0.2354930E-010  0.1573547E+04  0.7818608E-02  0.8836966E-01
         -1   -1    0    0    0  501 -0.00000000000E+00  0.00000000000E+00  0.33622970156E+03  0.33622970160E+03  0.50400000000E-02 0.  1.
          1   -1    0    0  501    0  0.00000000000E+00 -0.00000000000E+00 -0.18410413919E+04  0.18410413919E+04  0.50400000000E-02 0. -1.
     200001    2    1    2    0    0  0.16942300228E+03  0.75414489857E+02 -0.11778002698E+04  0.13827095993E+04  0.70020058647E+03 0.  0.
    5000001    2    3    3    0    0  0.35462735335E+02  0.53764681319E+02 -0.50943105420E+03  0.53705513334E+03  0.15735301302E+03 0.  0.
        -11    1    4    4    0    0  0.11179226891E+02 -0.24154141960E+01 -0.43862089532E+03  0.43876998433E+03  0.51100000000E-03 0. -1.
     200002    1    4    4    0    0  0.24283508445E+02  0.56180095516E+02 -0.70810158884E+02  0.98285149008E+02  0.30000000000E+02 0. -1.
     200000    1    3    3    0    0  0.13396026694E+03  0.21649808537E+02 -0.66836921562E+03  0.84565446591E+03  0.50000000000E+03 0. -1.
    -200001    1    1    2    0    0 -0.16942300228E+03 -0.75414489857E+02 -0.32701142049E+03  0.79456149423E+03  0.70000000000E+03 0.  1.
<mgrwt>
<rscale>  0 0.15735473E+04</rscale>
<asrwt>0</asrwt>
<pdfrwt beam="1">  1        1 0.26300591E+00 0.15735473E+04</pdfrwt>
<pdfrwt beam="2">  1       -1 0.48032815E-01 0.15735473E+04</pdfrwt>
<totfact> 0.19596054E+01</totfact>
</mgrwt>
</event>
<event>
 8    1  0.2354930E-010  0.1707432E+04  0.7818608E-02  0.8757137E-01
         -1   -1    0    0    0  501 -0.00000000000E+00  0.00000000000E+00  0.76690364269E+03  0.76690364271E+03  0.50400000000E-02 0.  1.
          1   -1    0    0  501    0  0.00000000000E+00 -0.00000000000E+00 -0.95035518117E+03  0.95035518118E+03  0.50400000000E-02 0. -1.
     200001    2    1    2    0    0  0.42139363007E+03 -0.24762215622E+03 -0.71296466742E+02  0.85617341359E+03  0.69932853813E+03 0.  0.
    5000001    2    3    3    0    0  0.22516680264E+03 -0.76180747483E+02 -0.57367480764E+02  0.29217772115E+03  0.15991622053E+03 0.  0.
        -11    1    4    4    0    0  0.11131914778E+03  0.34721659579E+02 -0.58436986048E+02  0.13043169724E+03  0.51100000000E-03 0. -1.
     200002    1    4    4    0    0  0.11384765486E+03 -0.11090240706E+03  0.10695052837E+01  0.16174602391E+03  0.30000000000E+02 0. -1.
     200000    1    3    3    0    0  0.19622682743E+03 -0.17144140874E+03 -0.13928985978E+02  0.56399569243E+03  0.50000000000E+03 0.  1.
    -200001    1    1    2    0    0 -0.42139363007E+03  0.24762215622E+03 -0.11215507174E+03  0.86108541030E+03  0.70000000000E+03 0.  1.
<mgrwt>
<rscale>  0 0.17074318E+04</rscale>
<asrwt>0</asrwt>
<pdfrwt beam="1">  1        1 0.13576503E+00 0.17074318E+04</pdfrwt>
<pdfrwt beam="2">  1       -1 0.10955766E+00 0.17074318E+04</pdfrwt>
<totfact> 0.13836195E+01</totfact>
</mgrwt>
</event>
<event>
 8    1  0.2354930E-010  0.1620001E+04  0.7818608E-02  0.8808354E-01
          1   -1    0    0  501    0  0.00000000000E+00  0.00000000000E+00  0.54268458512E+03  0.54268458514E+03  0.50400000000E-02 0.  1.
         -1   -1    0    0    0  501 -0.00000000000E+00 -0.00000000000E+00 -0.12089907452E+04  0.12089907452E+04  0.50400000000E-02 0. -1.
     200001    2    1    2    0    0 -0.16550581619E+03 -0.37147150361E+03 -0.37297139123E+03  0.89061288206E+03  0.69907109355E+03 0.  0.
    5000001    2    3    3    0    0 -0.99674738708E+02 -0.48194049702E+02 -0.82158852395E+02  0.22471951544E+03  0.17745721634E+03 0.  0.
        -11    1    4    4    0    0  0.93951448064E+01 -0.74558313392E+02 -0.78265640073E+02  0.10850217167E+03  0.51100000000E-03 0. -1.
     200002    1    4    4    0    0 -0.10906988351E+03  0.26364263691E+02 -0.38932123219E+01  0.11621734377E+03  0.30000000000E+02 0. -1.
     200000    1    3    3    0    0 -0.65831077482E+02 -0.32327745390E+03 -0.29081253884E+03  0.66589336662E+03  0.50000000000E+03 0. -1.
    -200001    1    1    2    0    0  0.16550581619E+03  0.37147150361E+03 -0.29333476880E+03  0.86106244824E+03  0.70000000000E+03 0.  1.
<mgrwt>
<rscale>  0 0.16200008E+04</rscale>
<asrwt>0</asrwt>
<pdfrwt beam="1">  1        1 0.77526370E-01 0.16200008E+04</pdfrwt>
<pdfrwt beam="2">  1       -1 0.17271296E+00 0.16200008E+04</pdfrwt>
<totfact> 0.98989462E+00</totfact>
</mgrwt>
</event>
<event>
 8    1  0.2354930E-010  0.1558644E+04  0.7818608E-02  0.8846365E-01
         -1   -1    0    0    0  501 -0.00000000000E+00  0.00000000000E+00  0.15339116028E+03  0.15339116036E+03  0.50400000000E-02 0. -1.
          1   -1    0    0  501    0  0.00000000000E+00 -0.00000000000E+00 -0.39594403405E+04  0.39594403405E+04  0.50400000000E-02 0.  1.
     200001    2    1    2    0    0 -0.16562770386E+03  0.76524712000E+02 -0.11390003464E+04  0.13494209180E+04  0.70023314464E+03 0.  0.
    5000001    2    3    3    0    0 -0.66140996759E+02 -0.29013393259E+02 -0.36904347373E+03  0.41997512484E+03  0.18700163512E+03 0.  0.
        -11    1    4    4    0    0 -0.54386439595E+02  0.89363313890E+01 -0.36597033133E+03  0.37009731996E+03  0.51100000000E-03 0. -1.
     200002    1    4    4    0    0 -0.11754557164E+02 -0.37949724648E+02 -0.30731424024E+01  0.49877804875E+02  0.30000000000E+02 0. -1.
     200000    1    3    3    0    0 -0.99486707105E+02  0.10553810526E+03 -0.76995687270E+03  0.92944579313E+03  0.50000000000E+03 0. -1.
    -200001    1    1    2    0    0  0.16562770386E+03 -0.76524712000E+02 -0.26670488338E+04  0.27634105829E+04  0.70000000000E+03 0.  1.
<mgrwt>
<rscale>  0 0.15586445E+04</rscale>
<asrwt>0</asrwt>
<pdfrwt beam="1">  1        1 0.56563427E+00 0.15586445E+04</pdfrwt>
<pdfrwt beam="2">  1       -1 0.21913025E-01 0.15586445E+04</pdfrwt>
<totfact> 0.30877701E+00</totfact>
</mgrwt>
</event>
<event>
 8    1  0.2354930E-010  0.1545549E+04  0.7818608E-02  0.8854716E-01
         -1   -1    0    0    0  501 -0.00000000000E+00  0.00000000000E+00  0.45604778028E+03  0.45604778031E+03  0.50400000000E-02 0. -1.
          1   -1    0    0  501    0  0.00000000000E+00 -0.00000000000E+00 -0.13094691288E+04  0.13094691288E+04  0.50400000000E-02 0.  1.
     200001    2    1    2    0    0 -0.26609945114E+02 -0.30149977045E+03 -0.28098911278E+03  0.81195051643E+03  0.69906978111E+03 0.  0.
    5000001    2    3    3    0    0  0.69800478436E+02 -0.12915631779E+03  0.74078816307E+01  0.20189309140E+03  0.13839249412E+03 0.  0.
        -11    1    4    4    0    0  0.54123775906E+02 -0.91822554954E+02 -0.56396703747E+02  0.12058753215E+03  0.51100000000E-03 0. -1.
     200002    1    4    4    0    0  0.15676702530E+02 -0.37333762838E+02  0.63804585377E+02  0.81305559251E+02  0.30000000000E+02 0. -1.
     200000    1    3    3    0    0 -0.96410423550E+02 -0.17234345266E+03 -0.28839699441E+03  0.61005742502E+03  0.50000000000E+03 0. -1.
    -200001    1    1    2    0    0  0.26609945114E+02  0.30149977045E+03 -0.57243223576E+03  0.95356639271E+03  0.70000000000E+03 0. -1.
<mgrwt>
<rscale>  0 0.15455491E+04</rscale>
<asrwt>0</asrwt>
<pdfrwt beam="1">  1        1 0.18706702E+00 0.15455491E+04</pdfrwt>
<pdfrwt beam="2">  1       -1 0.65149684E-01 0.15455491E+04</pdfrwt>
<totfact> 0.24005495E+01</totfact>
</mgrwt>
</event>
<event>
 8    1  0.2354930E-010  0.2200181E+04  0.7818608E-02  0.8518353E-01
          1   -1    0    0  501    0  0.00000000000E+00  0.00000000000E+00  0.17601071323E+04  0.17601071323E+04  0.50400000000E-02 0.  1.
         -1   -1    0    0    0  501 -0.00000000000E+00 -0.00000000000E+00 -0.68757137796E+03  0.68757137798E+03  0.50400000000E-02 0. -1.
     200001    2    1    2    0    0 -0.11468192729E+03  0.58959621385E+03 -0.13056512254E+03  0.93168795630E+03  0.70015680876E+03 0.  0.
    5000001    2    3    3    0    0  0.24368791134E+02 -0.40603489935E+01  0.65904185175E+02  0.11906048582E+03  0.96029751871E+02 0.  0.
        -11    1    4    4    0    0 -0.25687247830E+02  0.11230007636E+02 -0.21495242069E+01  0.28117045135E+02  0.51100000000E-03 0. -1.
     200002    1    4    4    0    0  0.50056038963E+02 -0.15290356630E+02  0.68053709382E+02  0.90943440683E+02  0.30000000000E+02 0. -1.
     200000    1    3    3    0    0 -0.13905071843E+03  0.59365656284E+03 -0.19646930772E+03  0.81262747048E+03  0.50000000000E+03 0. -1.
    -200001    1    1    2    0    0  0.11468192729E+03 -0.58959621385E+03  0.12031008768E+04  0.15159905540E+04  0.70000000000E+03 0.  1.
<mgrwt>
<rscale>  0 0.22001812E+04</rscale>
<asrwt>0</asrwt>
<pdfrwt beam="1">  1        1 0.25144387E+00 0.22001812E+04</pdfrwt>
<pdfrwt beam="2">  1       -1 0.98224485E-01 0.22001812E+04</pdfrwt>
<totfact> 0.48071788E+00</totfact>
</mgrwt>
</event>
<event>
 8    1  0.2354930E-010  0.1971609E+04  0.7818608E-02  0.8620011E-01
          1   -1    0    0  501    0  0.00000000000E+00  0.00000000000E+00  0.40107103909E+04  0.40107103909E+04  0.50400000000E-02 0.  1.
         -1   -1    0    0    0  501 -0.00000000000E+00 -0.00000000000E+00 -0.24230373686E+03  0.24230373691E+03  0.50400000000E-02 0. -1.
     200001    2    1    2    0    0  0.58533105597E+03 -0.63743898935E+02  0.26780940192E+04  0.28298284859E+04  0.69933250607E+03 0.  0.
    5000001    2    3    3    0    0  0.14074230748E+03  0.72710095433E+01  0.62498354588E+03  0.66928112740E+03  0.19357564462E+03 0.  0.
        -11    1    4    4    0    0  0.76770851009E+02 -0.25441260769E+02  0.64586569015E+02  0.10350094788E+03  0.51100000000E-03 0. -1.
     200002    1    4    4    0    0  0.63971456471E+02  0.32712270312E+02  0.56039697686E+03  0.56578017953E+03  0.30000000000E+02 0. -1.
     200000    1    3    3    0    0  0.44458874849E+03 -0.71014908478E+02  0.20531104733E+04  0.21605473585E+04  0.50000000000E+03 0.  1.
    -200001    1    1    2    0    0 -0.58533105597E+03  0.63743898935E+02  0.10903126349E+04  0.14231856420E+04  0.70000000000E+03 0.  1.
<mgrwt>
<rscale>  0 0.19716086E+04</rscale>
<asrwt>0</asrwt>
<pdfrwt beam="1">  1        1 0.57295857E+00 0.19716086E+04</pdfrwt>
<pdfrwt beam="2">  1       -1 0.34614823E-01 0.19716086E+04</pdfrwt>
<totfact> 0.12236386E+00</totfact>
</mgrwt>
</event>
<event>
 8    1  0.2354930E-010  0.2287611E+04  0.7818608E-02  0.8482822E-01
          1   -1    0    0  501    0  0.00000000000E+00  0.00000000000E+00  0.17928783790E+04  0.17928783790E+04  0.50400000000E-02 0.  1.
         -1   -1    0    0    0  501 -0.00000000000E+00 -0.00000000000E+00 -0.72971511957E+03  0.72971511959E+03  0.50400000000E-02 0. -1.
     200001    2    1    2    0    0 -0.62047132328E+03 -0.65616146737E+03  0.59001763099E+03  0.12859046453E+04  0.69992672298E+03 0.  0.
    5000001    2    3    3    0    0 -0.23303826022E+03 -0.33583918431E+03  0.23281457872E+03  0.49198729192E+03  0.14406276029E+03 0.  0.
        -11    1    4    4    0    0 -0.20424091584E+03 -0.30504433593E+03  0.15488313532E+03  0.39844094191E+03  0.51100000000E-03 0. -1.
     200002    1    4    4    0    0 -0.28797344383E+02 -0.30794848386E+02  0.77931443397E+02  0.93546350012E+02  0.30000000000E+02 0. -1.
     200000    1    3    3    0    0 -0.38743306306E+03 -0.32032228306E+03  0.35720305227E+03  0.79391735334E+03  0.50000000000E+03 0.  1.
    -200001    1    1    2    0    0  0.62047132328E+03  0.65616146737E+03  0.47314562846E+03  0.12366888534E+04  0.70000000000E+03 0.  1.
<mgrwt>
<rscale>  0 0.22876105E+04</rscale>
<asrwt>0</asrwt>
<pdfrwt beam="1">  1        1 0.25612547E+00 0.22876105E+04</pdfrwt>
<pdfrwt beam="2">  1       -1 0.10424502E+00 0.22876105E+04</pdfrwt>
<totfact> 0.39666499E+00</totfact>
</mgrwt>
</event>
<event>
 8    1  0.2354930E-010  0.1819967E+04  0.7818608E-02  0.8695753E-01
         -1   -1    0    0    0  501 -0.00000000000E+00  0.00000000000E+00  0.42060295005E+03  0.42060295008E+03  0.50400000000E-02 0. -1.
          1   -1    0    0  501    0  0.00000000000E+00 -0.00000000000E+00 -0.19687690194E+04  0.19687690194E+04  0.50400000000E-02 0.  1.
     200001    2    1    2    0    0 -0.56261342519E+03  0.12093142131E+03 -0.66463511439E+03  0.11237554307E+04  0.69994868230E+03 0.  0.
    5000001    2    3    3    0    0 -0.13906646438E+03  0.87148678046E+02 -0.16751883069E+03  0.30055563642E+03  0.18798073931E+03 0.  0.
        -11    1    4    4    0    0 -0.14095157908E+03 -0.14106748989E+02 -0.11572579751E+03  0.18291749020E+03  0.51100000000E-03 0. -1.
     200002    1    4    4    0    0  0.18851146994E+01  0.10125542704E+03 -0.51793033180E+02  0.11763814623E+03  0.30000000000E+02 0. -1.
     200000    1    3    3    0    0 -0.42354696081E+03  0.33782743268E+02 -0.49711628371E+03  0.82319979427E+03  0.50000000000E+03 0. -1.
    -200001    1    1    2    0    0  0.56261342519E+03 -0.12093142131E+03 -0.88353095491E+03  0.12656165387E+04  0.70000000000E+03 0.  1.
<mgrwt>
<rscale>  0 0.18199671E+04</rscale>
<asrwt>0</asrwt>
<pdfrwt beam="1">  1        1 0.28125271E+00 0.18199671E+04</pdfrwt>
<pdfrwt beam="2">  1       -1 0.60086137E-01 0.18199671E+04</pdfrwt>
<totfact> 0.10344669E+01</totfact>
</mgrwt>
</event>
<event>
 8    1  0.2354930E-010  0.1494682E+04  0.7818608E-02  0.8887997E-01
         -1   -1    0    0    0  501 -0.00000000000E+00  0.00000000000E+00  0.45743815199E+03  0.45743815202E+03  0.50400000000E-02 0. -1.
          1   -1    0    0  501    0  0.00000000000E+00 -0.00000000000E+00 -0.12209703025E+04  0.12209703026E+04  0.50400000000E-02 0.  1.
     200001    2    1    2    0    0  0.14342356365E+03 -0.17842126064E+03 -0.52262216806E+03  0.90352647355E+03  0.70058667772E+03 0.  0.
    5000001    2    3    3    0    0  0.10871769540E+03 -0.33515116824E+02 -0.89616744761E+02  0.22551763555E+03  0.17287059510E+03 0.  0.
        -11    1    4    4    0    0  0.16551004566E+02 -0.89263757916E+02 -0.17480499378E+02  0.92452810061E+02  0.51100000000E-03 0. -1.
     200002    1    4    4    0    0  0.92166690838E+02  0.55748641092E+02 -0.72136245382E+02  0.13306482549E+03  0.30000000000E+02 0. -1.
     200000    1    3    3    0    0  0.34705868248E+02 -0.14490614381E+03 -0.43300542330E+03  0.67800883800E+03  0.50000000000E+03 0. -1.
    -200001    1    1    2    0    0 -0.14342356365E+03  0.17842126064E+03 -0.24090998249E+03  0.77488198103E+03  0.70000000000E+03 0. -1.
<mgrwt>
<rscale>  0 0.14946818E+04</rscale>
<asrwt>0</asrwt>
<pdfrwt beam="1">  1        1 0.17442433E+00 0.14946818E+04</pdfrwt>
<pdfrwt beam="2">  1       -1 0.65348308E-01 0.14946818E+04</pdfrwt>
<totfact> 0.27540513E+01</totfact>
</mgrwt>
</event>
<event>
 8    1  0.2354930E-010  0.2087424E+04  0.7818608E-02  0.8566803E-01
         -1   -1    0    0    0  501 -0.00000000000E+00  0.00000000000E+00  0.71950054322E+03  0.71950054323E+03  0.50400000000E-02 0. -1.
          1   -1    0    0  501    0  0.00000000000E+00 -0.00000000000E+00 -0.15140156769E+04  0.15140156769E+04  0.50400000000E-02 0.  1.
     200001    2    1    2    0    0 -0.18831933265E+03 -0.28712286690E+03 -0.11395675570E+04  0.13808938615E+04  0.70024990388E+03 0.  0.
    5000001    2    3    3    0    0 -0.44216445030E+02 -0.12519685128E+03 -0.19475608685E+03  0.29018107117E+03  0.16925062812E+03 0.  0.
        -11    1    4    4    0    0 -0.19760578506E+02 -0.39055475637E+02 -0.19069780566E+03  0.19565649420E+03  0.51100000000E-03 0. -1.
     200002    1    4    4    0    0 -0.24455866525E+02 -0.86141375638E+02 -0.40582811862E+01  0.94524576965E+02  0.30000000000E+02 0. -1.
     200000    1    3    3    0    0 -0.14410288762E+03 -0.16192601563E+03 -0.94481147015E+03  0.10907127903E+04  0.50000000000E+03 0.  1.
    -200001    1    1    2    0    0  0.18831933265E+03  0.28712286690E+03  0.34505242329E+03  0.85262235871E+03  0.70000000000E+03 0. -1.
<mgrwt>
<rscale>  0 0.20874243E+04</rscale>
<asrwt>0</asrwt>
<pdfrwt beam="1">  1        1 0.21628795E+00 0.20874243E+04</pdfrwt>
<pdfrwt beam="2">  1       -1 0.10278579E+00 0.20874243E+04</pdfrwt>
<totfact> 0.62973752E+00</totfact>
</mgrwt>
</event>
<event>
 8    1  0.2354930E-010  0.2059853E+04  0.7818608E-02  0.8579138E-01
         -1   -1    0    0    0  501 -0.00000000000E+00  0.00000000000E+00  0.75056749748E+03  0.75056749749E+03  0.50400000000E-02 0. -1.
          1   -1    0    0  501    0  0.00000000000E+00 -0.00000000000E+00 -0.14132618505E+04  0.14132618506E+04  0.50400000000E-02 0.  1.
     200001    2    1    2    0    0  0.50243398000E+03  0.25995591371E+03 -0.85616539048E+03  0.12432599462E+04  0.70189681335E+03 0.  0.
    5000001    2    3    3    0    0  0.17001945368E+03  0.63952340104E+02 -0.32623366763E+03  0.41879378614E+03  0.18963995617E+03 0.  0.
        -11    1    4    4    0    0  0.98148118823E+02 -0.27363352002E+02 -0.26530234918E+03  0.28419560648E+03  0.51100000000E-03 0. -1.
     200002    1    4    4    0    0  0.71871334862E+02  0.91315692106E+02 -0.60931318455E+02  0.13459817966E+03  0.30000000000E+02 0. -1.
     200000    1    3    3    0    0  0.33241452631E+03  0.19600357361E+03 -0.52993172285E+03  0.82446616004E+03  0.50000000000E+03 0.  1.
    -200001    1    1    2    0    0 -0.50243398000E+03 -0.25995591371E+03  0.19347103741E+03  0.92056940186E+03  0.70000000000E+03 0. -1.
<mgrwt>
<rscale>  0 0.20598528E+04</rscale>
<asrwt>0</asrwt>
<pdfrwt beam="1">  1        1 0.20189455E+00 0.20598528E+04</pdfrwt>
<pdfrwt beam="2">  1       -1 0.10722393E+00 0.20598528E+04</pdfrwt>
<totfact> 0.66621632E+00</totfact>
</mgrwt>
</event>
<event>
 8    1  0.2354930E-010  0.1991914E+04  0.7818608E-02  0.8610410E-01
          1   -1    0    0  501    0  0.00000000000E+00  0.00000000000E+00  0.94551128741E+03  0.94551128742E+03  0.50400000000E-02 0.  1.
         -1   -1    0    0    0  501 -0.00000000000E+00 -0.00000000000E+00 -0.10490943960E+04  0.10490943960E+04  0.50400000000E-02 0. -1.
     200001    2    1    2    0    0 -0.83934179955E+02  0.52260964279E+03 -0.52377819967E+03  0.10216053238E+04  0.69940549751E+03 0.  0.
    5000001    2    3    3    0    0  0.27221172278E+02  0.21701737728E+03 -0.44004086000E+02  0.25614771873E+03  0.12584816234E+03 0.  0.
        -11    1    4    4    0    0 -0.41751088112E+02  0.39351467495E+02  0.34150629698E+01  0.57474811943E+02  0.51100000000E-03 0. -1.
     200002    1    4    4    0    0  0.68972260390E+02  0.17766590978E+03 -0.47419148969E+02  0.19867290679E+03  0.30000000000E+02 0. -1.
     200000    1    3    3    0    0 -0.11115535223E+03  0.30559226552E+03 -0.47977411367E+03  0.76545760511E+03  0.50000000000E+03 0. -1.
    -200001    1    1    2    0    0  0.83934179955E+02 -0.52260964279E+03  0.42019509104E+03  0.97300035963E+03  0.70000000000E+03 0.  1.
<mgrwt>
<rscale>  0 0.19919142E+04</rscale>
<asrwt>0</asrwt>
<pdfrwt beam="1">  1        1 0.13507304E+00 0.19919142E+04</pdfrwt>
<pdfrwt beam="2">  1       -1 0.14987063E+00 0.19919142E+04</pdfrwt>
<totfact> 0.61886394E+00</totfact>
</mgrwt>
</event>
<event>
 8    1  0.2354930E-010  0.1724693E+04  0.7818608E-02  0.8747405E-01
          1   -1    0    0  501    0  0.00000000000E+00  0.00000000000E+00  0.42058105919E+03  0.42058105922E+03  0.50400000000E-02 0. -1.
         -1   -1    0    0    0  501 -0.00000000000E+00 -0.00000000000E+00 -0.17681280500E+04  0.17681280500E+04  0.50400000000E-02 0.  1.
     200001    2    1    2    0    0  0.68361456753E+02 -0.26755108045E+03 -0.12082014340E+04  0.14234156664E+04  0.70007469942E+03 0.  0.
    5000001    2    3    3    0    0 -0.84135540756E+02 -0.61832750534E+02 -0.94633375861E+02  0.17617503779E+03  0.10573594401E+03 0.  0.
        -11    1    4    4    0    0 -0.52854782883E+01  0.22639024563E+02 -0.36778623768E+02  0.43510100901E+02  0.51100000000E-03 0. -1.
     200002    1    4    4    0    0 -0.78850062467E+02 -0.84471775097E+02 -0.57854752093E+02  0.13266493689E+03  0.30000000000E+02 0. -1.
     200000    1    3    3    0    0  0.15249699751E+03 -0.20571832992E+03 -0.11135680581E+04  0.12472406286E+04  0.50000000000E+03 0.  1.
    -200001    1    1    2    0    0 -0.68361456753E+02  0.26755108045E+03 -0.13934555679E+03  0.76529344282E+03  0.70000000000E+03 0. -1.
<mgrwt>
<rscale>  0 0.17246926E+04</rscale>
<asrwt>0</asrwt>
<pdfrwt beam="1">  1        1 0.60083009E-01 0.17246926E+04</pdfrwt>
<pdfrwt beam="2">  1       -1 0.25258972E+00 0.17246926E+04</pdfrwt>
<totfact> 0.39560093E+00</totfact>
</mgrwt>
</event>
<event>
 8    1  0.2354930E-010  0.3172774E+04  0.7818608E-02  0.8196045E-01
         -1   -1    0    0    0  501 -0.00000000000E+00  0.00000000000E+00  0.18106972264E+04  0.18106972264E+04  0.50400000000E-02 0.  1.
          1   -1    0    0  501    0  0.00000000000E+00 -0.00000000000E+00 -0.13898646328E+04  0.13898646328E+04  0.50400000000E-02 0. -1.
     200001    2    1    2    0    0 -0.57086936740E+03  0.52578385100E+03 -0.99390691666E+03  0.14416336702E+04  0.69865312375E+03 0.  0.
    5000001    2    3    3    0    0 -0.30761830583E+02  0.78676800216E+02 -0.18654806814E+03  0.26118918756E+03  0.16212119189E+03 0.  0.
        -11    1    4    4    0    0  0.23226093493E+02 -0.76213971459E+01  0.18265362108E+02  0.30514923670E+02  0.51100000000E-03 0. -1.
     200002    1    4    4    0    0 -0.53987924076E+02  0.86298197362E+02 -0.20481343024E+03  0.23067426389E+03  0.30000000000E+02 0. -1.
     200000    1    3    3    0    0 -0.54010753682E+03  0.44710705078E+03 -0.80735884853E+03  0.11804444826E+04  0.50000000000E+03 0. -1.
    -200001    1    1    2    0    0  0.57086936740E+03 -0.52578385100E+03  0.14147395102E+04  0.17589281891E+04  0.70000000000E+03 0.  1.
<mgrwt>
<rscale>  0 0.31727742E+04</rscale>
<asrwt>0</asrwt>
<pdfrwt beam="1">  1        1 0.19855209E+00 0.31727742E+04</pdfrwt>
<pdfrwt beam="2">  1       -1 0.25867103E+00 0.31727742E+04</pdfrwt>
<totfact> 0.47546521E-01</totfact>
</mgrwt>
</event>
<event>
 8    1  0.2354930E-010  0.1713785E+04  0.7818608E-02  0.8753541E-01
         -1   -1    0    0    0  501 -0.00000000000E+00  0.00000000000E+00  0.55876897448E+03  0.55876897450E+03  0.50400000000E-02 0. -1.
          1   -1    0    0  501    0  0.00000000000E+00 -0.00000000000E+00 -0.13140758332E+04  0.13140758332E+04  0.50400000000E-02 0.  1.
     200001    2    1    2    0    0 -0.14971427412E+03  0.43963887034E+03 -0.56105712209E+03  0.10106211358E+04  0.70062349787E+03 0.  0.
    5000001    2    3    3    0    0 -0.15427951831E+02  0.21764263563E+03 -0.10598073332E+03  0.28645978352E+03  0.15238422884E+03 0.  0.
        -11    1    4    4    0    0  0.35255555762E+02  0.98896807641E+02  0.16144133584E+02  0.10622695432E+03  0.51100000000E-03 0. -1.
     200002    1    4    4    0    0 -0.50683507593E+02  0.11874582798E+03 -0.12212486691E+03  0.18023282920E+03  0.30000000000E+02 0. -1.
     200000    1    3    3    0    0 -0.13428632229E+03  0.22199623471E+03 -0.45507638877E+03  0.72416135232E+03  0.50000000000E+03 0.  1.
    -200001    1    1    2    0    0  0.14971427412E+03 -0.43963887034E+03 -0.19424973665E+03  0.86222367190E+03  0.70000000000E+03 0.  1.
<mgrwt>
<rscale>  0 0.17137851E+04</rscale>
<asrwt>0</asrwt>
<pdfrwt beam="1">  1        1 0.18772512E+00 0.17137851E+04</pdfrwt>
<pdfrwt beam="2">  1       -1 0.79824140E-01 0.17137851E+04</pdfrwt>
<totfact> 0.15436350E+01</totfact>
</mgrwt>
</event>
<event>
 8    1  0.2354930E-010  0.1665058E+04  0.7818608E-02  0.8781548E-01
         -1   -1    0    0    0  501 -0.00000000000E+00  0.00000000000E+00  0.68714120503E+03  0.68714120505E+03  0.50400000000E-02 0. -1.
          1   -1    0    0  501    0  0.00000000000E+00 -0.00000000000E+00 -0.10086780394E+04  0.10086780394E+04  0.50400000000E-02 0.  1.
     200001    2    1    2    0    0  0.99732629288E+02 -0.15211214940E+03  0.25889207469E+03  0.76846687248E+03  0.70030816390E+03 0.  0.
    5000001    2    3    3    0    0 -0.48603324331E+02 -0.99689429582E+02  0.11242779524E+03  0.22422108072E+03  0.15916915025E+03 0.  0.
        -11    1    4    4    0    0 -0.65935030131E+02  0.16990126780E+02  0.18728915355E+02  0.70617737694E+02  0.51100000000E-03 0. -1.
     200002    1    4    4    0    0  0.17331705801E+02 -0.11667955636E+03  0.93698879881E+02  0.15360334303E+03  0.30000000000E+02 0. -1.
     200000    1    3    3    0    0  0.14833595362E+03 -0.52422719815E+02  0.14646427946E+03  0.54424579176E+03  0.50000000000E+03 0. -1.
    -200001    1    1    2    0    0 -0.99732629288E+02  0.15211214940E+03 -0.58042890905E+03  0.92735237197E+03  0.70000000000E+03 0.  1.
<mgrwt>
<rscale>  0 0.16650576E+04</rscale>
<asrwt>0</asrwt>
<pdfrwt beam="1">  1        1 0.14409686E+00 0.16650576E+04</pdfrwt>
<pdfrwt beam="2">  1       -1 0.98163029E-01 0.16650576E+04</pdfrwt>
<totfact> 0.16178851E+01</totfact>
</mgrwt>
</event>
<event>
 8    1  0.2354930E-010  0.2074914E+04  0.7818608E-02  0.8572375E-01
         -1   -1    0    0    0  501 -0.00000000000E+00  0.00000000000E+00  0.41825449647E+03  0.41825449650E+03  0.50400000000E-02 0.  1.
          1   -1    0    0  501    0  0.00000000000E+00 -0.00000000000E+00 -0.25733553739E+04  0.25733553739E+04  0.50400000000E-02 0. -1.
     200001    2    1    2    0    0 -0.23697901464E+03  0.52441701973E+03 -0.34959376855E+03  0.97145438526E+03  0.70023964160E+03 0.  0.
    5000001    2    3    3    0    0 -0.17917641338E+02  0.19210256348E+03 -0.13102830012E+03  0.29603477709E+03  0.18232865120E+03 0.  0.
        -11    1    4    4    0    0  0.69828662699E+02  0.27043427765E+02 -0.24452596194E+02  0.78773844520E+02  0.51100000000E-03 0. -1.
     200002    1    4    4    0    0 -0.87746304037E+02  0.16505913571E+03 -0.10657570393E+03  0.21726093257E+03  0.30000000000E+02 0. -1.
     200000    1    3    3    0    0 -0.21906137330E+03  0.33231445625E+03 -0.21856546842E+03  0.67541960817E+03  0.50000000000E+03 0.  1.
    -200001    1    1    2    0    0  0.23697901464E+03 -0.52441701973E+03 -0.18055071089E+04  0.20201554851E+04  0.70000000000E+03 0. -1.
<mgrwt>
<rscale>  0 0.20749144E+04</rscale>
<asrwt>0</asrwt>
<pdfrwt beam="1">  1        1 0.36762219E+00 0.20749144E+04</pdfrwt>
<pdfrwt beam="2">  1       -1 0.59750644E-01 0.20749144E+04</pdfrwt>
<totfact> 0.42440249E+00</totfact>
</mgrwt>
</event>
<event>
 8    1  0.2354930E-010  0.1483205E+04  0.7818608E-02  0.8895699E-01
         -1   -1    0    0    0  501 -0.00000000000E+00  0.00000000000E+00  0.38837459124E+03  0.38837459127E+03  0.50400000000E-02 0. -1.
          1   -1    0    0  501    0  0.00000000000E+00 -0.00000000000E+00 -0.14160922172E+04  0.14160922172E+04  0.50400000000E-02 0.  1.
     200001    2    1    2    0    0 -0.14816185337E+03 -0.17720385399E+03 -0.56269836727E+03  0.93291873086E+03  0.70735759358E+03 0.  0.
    5000001    2    3    3    0    0 -0.94669258909E+00 -0.67047937130E+02 -0.18087207472E+02  0.17107363836E+03  0.15634167892E+03 0.  0.
        -11    1    4    4    0    0  0.45511617523E+02 -0.34082022663E+01  0.46281708497E+02  0.64999382412E+02  0.51100000000E-03 0. -1.
     200002    1    4    4    0    0 -0.46458310112E+02 -0.63639734863E+02 -0.64368915969E+02  0.10607425595E+03  0.30000000000E+02 0. -1.
     200000    1    3    3    0    0 -0.14721516078E+03 -0.11015591687E+03 -0.54461115980E+03  0.76184509250E+03  0.50000000000E+03 0.  1.
    -200001    1    1    2    0    0  0.14816185337E+03  0.17720385399E+03 -0.46501925870E+03  0.87154807763E+03  0.70000000000E+03 0. -1.
<mgrwt>
<rscale>  0 0.14832050E+04</rscale>
<asrwt>0</asrwt>
<pdfrwt beam="1">  1        1 0.20229889E+00 0.14832050E+04</pdfrwt>
<pdfrwt beam="2">  1       -1 0.55482085E-01 0.14832050E+04</pdfrwt>
<totfact> 0.28134615E+01</totfact>
</mgrwt>
</event>
<event>
 8    1  0.2354930E-010  0.1940482E+04  0.7818608E-02  0.8634964E-01
          1   -1    0    0  501    0  0.00000000000E+00  0.00000000000E+00  0.31119630731E+03  0.31119630735E+03  0.50400000000E-02 0.  1.
         -1   -1    0    0    0  501 -0.00000000000E+00 -0.00000000000E+00 -0.30249947271E+04  0.30249947271E+04  0.50400000000E-02 0. -1.
     200001    2    1    2    0    0 -0.92330200360E+02 -0.88980597767E+02 -0.22272045338E+03  0.74545526108E+03  0.69975476650E+03 0.  0.
    5000001    2    3    3    0    0 -0.11694108740E+03 -0.32301195822E+01 -0.12731682649E+03  0.22867610874E+03  0.14965806629E+03 0.  0.
        -11    1    4    4    0    0 -0.11116495369E+03 -0.21423391230E+02 -0.19155096635E+02  0.11481953818E+03  0.51100000000E-03 0. -1.
     200002    1    4    4    0    0 -0.57761337106E+01  0.18193271648E+02 -0.10816172986E+03  0.11385657056E+03  0.30000000000E+02 0. -1.
     200000    1    3    3    0    0  0.24610887045E+02 -0.85750478185E+02 -0.95403626894E+02  0.51677915234E+03  0.50000000000E+03 0.  1.
    -200001    1    1    2    0    0  0.92330200360E+02  0.88980597767E+02 -0.24910779664E+04  0.25907357734E+04  0.70000000000E+03 0. -1.
<mgrwt>
<rscale>  0 0.19404816E+04</rscale>
<asrwt>0</asrwt>
<pdfrwt beam="1">  1        1 0.44456617E-01 0.19404816E+04</pdfrwt>
<pdfrwt beam="2">  1       -1 0.43214209E+00 0.19404816E+04</pdfrwt>
<totfact> 0.37066836E-01</totfact>
</mgrwt>
</event>
<event>
 8    1  0.2354930E-010  0.1487543E+04  0.7818608E-02  0.8892779E-01
          1   -1    0    0  501    0  0.00000000000E+00  0.00000000000E+00  0.13988574542E+04  0.13988574542E+04  0.50400000000E-02 0.  1.
         -1   -1    0    0    0  501 -0.00000000000E+00 -0.00000000000E+00 -0.39546273758E+03  0.39546273761E+03  0.50400000000E-02 0. -1.
     200001    2    1    2    0    0  0.15335790278E+03 -0.15739561598E+02  0.74619770954E+03  0.10327975851E+04  0.69720402313E+03 0.  0.
    5000001    2    3    3    0    0  0.88194809039E+02  0.87358784743E+02  0.19110737246E+03  0.27582943507E+03  0.15540259917E+03 0.  0.
        -11    1    4    4    0    0  0.17573216290E+02  0.36536093562E+02  0.17836776010E+03  0.18291736360E+03  0.51100000000E-03 0. -1.
     200002    1    4    4    0    0  0.70621592748E+02  0.50822691181E+02  0.12739612363E+02  0.92912071467E+02  0.30000000000E+02 0. -1.
     200000    1    3    3    0    0  0.65163093738E+02 -0.10309834634E+03  0.55509033708E+03  0.75696815001E+03  0.50000000000E+03 0.  1.
    -200001    1    1    2    0    0 -0.15335790278E+03  0.15739561598E+02  0.25719700709E+03  0.76152260675E+03  0.70000000000E+03 0. -1.
<mgrwt>
<rscale>  0 0.14875429E+04</rscale>
<asrwt>0</asrwt>
<pdfrwt beam="1">  1        1 0.19983678E+00 0.14875429E+04</pdfrwt>
<pdfrwt beam="2">  1       -1 0.56494677E-01 0.14875429E+04</pdfrwt>
<totfact> 0.27875834E+01</totfact>
</mgrwt>
</event>
<event>
 8    1  0.2354930E-010  0.1555225E+04  0.7818608E-02  0.8848537E-01
         -1   -1    0    0    0  501 -0.00000000000E+00  0.00000000000E+00  0.25213215906E+03  0.25213215911E+03  0.50400000000E-02 0. -1.
          1   -1    0    0  501    0  0.00000000000E+00 -0.00000000000E+00 -0.23982715731E+04  0.23982715731E+04  0.50400000000E-02 0.  1.
     200001    2    1    2    0    0  0.55388474169E+02 -0.92695705856E+02 -0.16197694883E+04  0.17679493846E+04  0.70023671301E+03 0.  0.
    5000001    2    3    3    0    0  0.71399762509E+02 -0.54513867770E+02 -0.47389127623E+03  0.51704927225E+03  0.18627216750E+03 0.  0.
        -11    1    4    4    0    0  0.47799627975E+02 -0.19822105342E+02 -0.46098359447E+03  0.46387885774E+03  0.51100000000E-03 0. -1.
     200002    1    4    4    0    0  0.23600134534E+02 -0.34691762428E+02 -0.12907681760E+02  0.53170414507E+02  0.30000000000E+02 0. -1.
     200000    1    3    3    0    0 -0.16011288341E+02 -0.38181838086E+02 -0.11458782121E+04  0.12509001123E+04  0.50000000000E+03 0.  1.
    -200001    1    1    2    0    0 -0.55388474169E+02  0.92695705856E+02 -0.52636992578E+03  0.88245434767E+03  0.70000000000E+03 0. -1.
<mgrwt>
<rscale>  0 0.15552252E+04</rscale>
<asrwt>0</asrwt>
<pdfrwt beam="1">  1        1 0.34261021E+00 0.15552252E+04</pdfrwt>
<pdfrwt beam="2">  1       -1 0.36018881E-01 0.15552252E+04</pdfrwt>
<totfact> 0.14857911E+01</totfact>
</mgrwt>
</event>
<event>
 8    1  0.2354930E-010  0.1455361E+04  0.7818608E-02  0.8914692E-01
          1   -1    0    0  501    0  0.00000000000E+00  0.00000000000E+00  0.77191365097E+03  0.77191365099E+03  0.50400000000E-02 0.  1.
         -1   -1    0    0    0  501 -0.00000000000E+00 -0.00000000000E+00 -0.68598207120E+03  0.68598207122E+03  0.50400000000E-02 0. -1.
     200001    2    1    2    0    0 -0.13606403962E+03  0.92411539658E+02 -0.70148243752E+02  0.72208716908E+03  0.69959687543E+03 0.  0.
    5000001    2    3    3    0    0 -0.92238869553E+01  0.11784309836E+03  0.70206366668E+01  0.19988967329E+03  0.16104197039E+03 0.  0.
        -11    1    4    4    0    0 -0.65532405938E+01  0.15316546667E+03  0.70967422586E+01  0.15346976541E+03  0.51100000000E-03 0. -1.
     200002    1    4    4    0    0 -0.26706463615E+01 -0.35322368314E+02 -0.76105591817E-01  0.46419907877E+02  0.30000000000E+02 0. -1.
     200000    1    3    3    0    0 -0.12684015266E+03 -0.25431558703E+02 -0.77168880419E+02  0.52219749579E+03  0.50000000000E+03 0. -1.
    -200001    1    1    2    0    0  0.13606403962E+03 -0.92411539658E+02  0.15607982352E+03  0.73580855312E+03  0.70000000000E+03 0. -1.
<mgrwt>
<rscale>  0 0.14553610E+04</rscale>
<asrwt>0</asrwt>
<pdfrwt beam="1">  1        1 0.11027338E+00 0.14553610E+04</pdfrwt>
<pdfrwt beam="2">  1       -1 0.97997439E-01 0.14553610E+04</pdfrwt>
<totfact> 0.25531966E+01</totfact>
</mgrwt>
</event>
<event>
 8    1  0.2354930E-010  0.1658438E+04  0.7818608E-02  0.8785430E-01
          1   -1    0    0  501    0  0.00000000000E+00  0.00000000000E+00  0.47748258627E+03  0.47748258629E+03  0.50400000000E-02 0. -1.
         -1   -1    0    0    0  501 -0.00000000000E+00 -0.00000000000E+00 -0.14400617653E+04  0.14400617653E+04  0.50400000000E-02 0.  1.
     200001    2    1    2    0    0 -0.31478589223E+03  0.15861301696E+03 -0.16837056766E+03  0.80174169633E+03  0.70013773823E+03 0.  0.
    5000001    2    3    3    0    0 -0.12842235160E+03  0.73746998490E+02 -0.51347713912E+02  0.24890541074E+03  0.19335561951E+03 0.  0.
        -11    1    4    4    0    0 -0.88873058538E+02  0.24885404850E+02  0.65291310818E+02  0.11305157751E+03  0.51100000000E-03 0. -1.
     200002    1    4    4    0    0 -0.39549293064E+02  0.48861593640E+02 -0.11663902473E+03  0.13585383324E+03  0.30000000000E+02 0. -1.
     200000    1    3    3    0    0 -0.18636354063E+03  0.84866018474E+02 -0.11702285375E+03  0.55283628559E+03  0.50000000000E+03 0. -1.
    -200001    1    1    2    0    0  0.31478589223E+03 -0.15861301696E+03 -0.79420861136E+03  0.11158026552E+04  0.70000000000E+03 0.  1.
<mgrwt>
<rscale>  0 0.16584383E+04</rscale>
<asrwt>0</asrwt>
<pdfrwt beam="1">  1        1 0.68211799E-01 0.16584383E+04</pdfrwt>
<pdfrwt beam="2">  1       -1 0.20572311E+00 0.16584383E+04</pdfrwt>
<totfact> 0.68759390E+00</totfact>
</mgrwt>
</event>
<event>
 8    1  0.2354930E-010  0.2106521E+04  0.7818608E-02  0.8558376E-01
         -1   -1    0    0    0  501 -0.00000000000E+00  0.00000000000E+00  0.57307246377E+03  0.57307246379E+03  0.50400000000E-02 0. -1.
          1   -1    0    0  501    0  0.00000000000E+00 -0.00000000000E+00 -0.19358068406E+04  0.19358068406E+04  0.50400000000E-02 0.  1.
     200001    2    1    2    0    0 -0.40263977808E+03  0.86087458328E+01 -0.14879361839E+04  0.16916471502E+04  0.69679487079E+03 0.  0.
    5000001    2    3    3    0    0 -0.18539373686E+03  0.14073726187E+02 -0.35323700705E+03  0.43277148897E+03  0.16717018598E+03 0.  0.
        -11    1    4    4    0    0 -0.74953494850E+02 -0.67690270662E+02 -0.20440975383E+03  0.22799856708E+03  0.51100000000E-03 0. -1.
     200002    1    4    4    0    0 -0.11044024201E+03  0.81763996849E+02 -0.14882725323E+03  0.20477292189E+03  0.30000000000E+02 0. -1.
     200000    1    3    3    0    0 -0.21724604122E+03 -0.54649803542E+01 -0.11346991769E+04  0.12588756612E+04  0.50000000000E+03 0.  1.
    -200001    1    1    2    0    0  0.40263977808E+03 -0.86087458328E+01  0.12520180707E+03  0.81723215422E+03  0.70000000000E+03 0. -1.
<mgrwt>
<rscale>  0 0.21065209E+04</rscale>
<asrwt>0</asrwt>
<pdfrwt beam="1">  1        1 0.27654383E+00 0.21065209E+04</pdfrwt>
<pdfrwt beam="2">  1       -1 0.81867496E-01 0.21065209E+04</pdfrwt>
<totfact> 0.56048206E+00</totfact>
</mgrwt>
</event>
<event>
 8    1  0.2354930E-010  0.1694619E+04  0.7818608E-02  0.8764439E-01
          1   -1    0    0  501    0  0.00000000000E+00  0.00000000000E+00  0.30979347206E+04  0.30979347206E+04  0.50400000000E-02 0.  1.
         -1   -1    0    0    0  501 -0.00000000000E+00 -0.00000000000E+00 -0.23174589459E+03  0.23174589465E+03  0.50400000000E-02 0. -1.
     200001    2    1    2    0    0 -0.34945066688E+03 -0.72649754385E+02  0.20560939561E+04  0.22011207127E+04  0.70001162854E+03 0.  0.
    5000001    2    3    3    0    0 -0.56633776278E+02 -0.74283781823E+02  0.31900555642E+03  0.36994062602E+03  0.16237628182E+03 0.  0.
        -11    1    4    4    0    0  0.27021549069E+02 -0.92707975248E+02  0.16432323347E+03  0.19059658404E+03  0.51100000000E-03 0. -1.
     200002    1    4    4    0    0 -0.83655325347E+02  0.18424193425E+02  0.15468232295E+03  0.17934404199E+03  0.30000000000E+02 0. -1.
     200000    1    3    3    0    0 -0.29281689061E+03  0.16340274379E+01  0.17370883997E+04  0.18311800867E+04  0.50000000000E+03 0.  1.
    -200001    1    1    2    0    0  0.34945066688E+03  0.72649754385E+02  0.81009486984E+03  0.11285599025E+04  0.70000000000E+03 0. -1.
<mgrwt>
<rscale>  0 0.16946193E+04</rscale>
<asrwt>0</asrwt>
<pdfrwt beam="1">  1        1 0.44256206E+00 0.16946193E+04</pdfrwt>
<pdfrwt beam="2">  1       -1 0.33106559E-01 0.16946193E+04</pdfrwt>
<totfact> 0.60231634E+00</totfact>
</mgrwt>
</event>
<event>
 8    1  0.2354930E-010  0.1508419E+04  0.7818608E-02  0.8878873E-01
          1   -1    0    0  501    0  0.00000000000E+00  0.00000000000E+00  0.70480807939E+03  0.70480807940E+03  0.50400000000E-02 0.  1.
         -1   -1    0    0    0  501 -0.00000000000E+00 -0.00000000000E+00 -0.80707405234E+03  0.80707405235E+03  0.50400000000E-02 0. -1.
     200001    2    1    2    0    0 -0.18439635302E+03  0.20336142912E+03 -0.10539264123E+03  0.75997278754E+03  0.70078038152E+03 0.  0.
    5000001    2    3    3    0    0 -0.15244388563E+03  0.57149483278E+02 -0.58790477788E+01  0.22865193480E+03  0.16044295677E+03 0.  0.
        -11    1    4    4    0    0 -0.50716246729E+02 -0.44217511967E+02  0.35692253812E+02  0.76166022800E+02  0.51100000000E-03 0. -1.
     200002    1    4    4    0    0 -0.10172763891E+03  0.10136699524E+03 -0.41571301591E+02  0.15248591200E+03  0.30000000000E+02 0. -1.
     200000    1    3    3    0    0 -0.31952467383E+02  0.14621194584E+03 -0.99513593455E+02  0.53132085274E+03  0.50000000000E+03 0. -1.
    -200001    1    1    2    0    0  0.18439635302E+03 -0.20336142912E+03  0.31266682834E+01  0.75190934421E+03  0.70000000000E+03 0.  1.
<mgrwt>
<rscale>  0 0.15084195E+04</rscale>
<asrwt>0</asrwt>
<pdfrwt beam="1">  1        1 0.10068687E+00 0.15084195E+04</pdfrwt>
<pdfrwt beam="2">  1       -1 0.11529629E+00 0.15084195E+04</pdfrwt>
<totfact> 0.19940154E+01</totfact>
</mgrwt>
</event>
<event>
 8    1  0.2354930E-010  0.2041307E+04  0.7818608E-02  0.8587548E-01
          1   -1    0    0  501    0  0.00000000000E+00  0.00000000000E+00  0.18376811241E+04  0.18376811242E+04  0.50400000000E-02 0.  1.
         -1   -1    0    0    0  501 -0.00000000000E+00 -0.00000000000E+00 -0.56687407036E+03  0.56687407039E+03  0.50400000000E-02 0. -1.
     200001    2    1    2    0    0 -0.44167141149E+03  0.51150188766E+03  0.27273601532E+03  0.10106923553E+04  0.70029014429E+03 0.  0.
    5000001    2    3    3    0    0 -0.95859125127E+02  0.10588434721E+03  0.18254592844E+03  0.27431882352E+03  0.14672196188E+03 0.  0.
        -11    1    4    4    0    0 -0.55096176517E+02 -0.27871193868E+02  0.53996742674E+02  0.82024632483E+02  0.51100000000E-03 0. -1.
     200002    1    4    4    0    0 -0.40762948610E+02  0.13375554108E+03  0.12854918576E+03  0.19229419104E+03  0.30000000000E+02 0. -1.
     200000    1    3    3    0    0 -0.34581228636E+03  0.40561754045E+03  0.90190086889E+02  0.73637353177E+03  0.50000000000E+03 0. -1.
    -200001    1    1    2    0    0  0.44167141149E+03 -0.51150188766E+03  0.99807103846E+03  0.13938628392E+04  0.70000000000E+03 0.  1.
<mgrwt>
<rscale>  0 0.20413072E+04</rscale>
<asrwt>0</asrwt>
<pdfrwt beam="1">  1        1 0.26252588E+00 0.20413072E+04</pdfrwt>
<pdfrwt beam="2">  1       -1 0.80982009E-01 0.20413072E+04</pdfrwt>
<totfact> 0.66548044E+00</totfact>
</mgrwt>
</event>
<event>
 8    1  0.2354930E-010  0.1614956E+04  0.7818608E-02  0.8811412E-01
         -1   -1    0    0    0  501 -0.00000000000E+00  0.00000000000E+00  0.37865719255E+03  0.37865719258E+03  0.50400000000E-02 0. -1.
          1   -1    0    0  501    0  0.00000000000E+00 -0.00000000000E+00 -0.17219289204E+04  0.17219289204E+04  0.50400000000E-02 0.  1.
     200001    2    1    2    0    0 -0.26590043085E+03  0.22237801444E+03 -0.41395009574E+03  0.88658705354E+03  0.70322606700E+03 0.  0.
    5000001    2    3    3    0    0 -0.90447461788E+02  0.67679019638E+02 -0.95753005549E+02  0.24943329537E+03  0.20071656066E+03 0.  0.
        -11    1    4    4    0    0 -0.76843311572E+01 -0.50537027804E+02  0.26826075268E+02  0.57729355090E+02  0.51100000000E-03 0. -1.
     200002    1    4    4    0    0 -0.82763130630E+02  0.11821604744E+03 -0.12257908082E+03  0.19170394028E+03  0.30000000000E+02 0. -1.
     200000    1    3    3    0    0 -0.17545296906E+03  0.15469899480E+03 -0.31819709019E+03  0.63715375817E+03  0.50000000000E+03 0.  1.
    -200001    1    1    2    0    0  0.26590043085E+03 -0.22237801444E+03 -0.92932163210E+03  0.12139990594E+04  0.70000000000E+03 0.  1.
<mgrwt>
<rscale>  0 0.16149561E+04</rscale>
<asrwt>0</asrwt>
<pdfrwt beam="1">  1        1 0.24598984E+00 0.16149561E+04</pdfrwt>
<pdfrwt beam="2">  1       -1 0.54093885E-01 0.16149561E+04</pdfrwt>
<totfact> 0.18524458E+01</totfact>
</mgrwt>
</event>
<event>
 8    1  0.2354930E-010  0.2046401E+04  0.7818608E-02  0.8585229E-01
         -1   -1    0    0    0  501 -0.00000000000E+00  0.00000000000E+00  0.33784392432E+03  0.33784392436E+03  0.50400000000E-02 0. -1.
          1   -1    0    0  501    0  0.00000000000E+00 -0.00000000000E+00 -0.30988839582E+04  0.30988839582E+04  0.50400000000E-02 0.  1.
     200001    2    1    2    0    0 -0.30058453351E+03  0.58249846957E+03 -0.19770598910E+04  0.21980671569E+04  0.70219504759E+03 0.  0.
    5000001    2    3    3    0    0 -0.75982349487E+02  0.11670926934E+03 -0.27355565858E+03  0.34892346591E+03  0.16589308526E+03 0.  0.
        -11    1    4    4    0    0 -0.53006298892E+02  0.13258609231E+03 -0.27282191200E+03  0.30792943228E+03  0.51100000000E-03 0. -1.
     200002    1    4    4    0    0 -0.22976050596E+02 -0.15876822976E+02 -0.73374658003E+00  0.40994033625E+02  0.30000000000E+02 0. -1.
     200000    1    3    3    0    0 -0.22460218403E+03  0.46578920023E+03 -0.17035042324E+04  0.18491436910E+04  0.50000000000E+03 0.  1.
    -200001    1    1    2    0    0  0.30058453351E+03 -0.58249846957E+03 -0.78398014286E+03  0.12386607256E+04  0.70000000000E+03 0. -1.
<mgrwt>
<rscale>  0 0.20464009E+04</rscale>
<asrwt>0</asrwt>
<pdfrwt beam="1">  1        1 0.44269769E+00 0.20464009E+04</pdfrwt>
<pdfrwt beam="2">  1       -1 0.48263420E-01 0.20464009E+04</pdfrwt>
<totfact> 0.29214874E+00</totfact>
</mgrwt>
</event>
<event>
 8    1  0.2354930E-010  0.1728524E+04  0.7818608E-02  0.8745261E-01
         -1   -1    0    0    0  501 -0.00000000000E+00  0.00000000000E+00  0.46672425612E+03  0.46672425614E+03  0.50400000000E-02 0. -1.
          1   -1    0    0  501    0  0.00000000000E+00 -0.00000000000E+00 -0.16004067086E+04  0.16004067086E+04  0.50400000000E-02 0.  1.
     200001    2    1    2    0    0 -0.35828690730E+03  0.16501300437E+02 -0.13830521535E+03  0.79850271144E+03  0.69988316648E+03 0.  0.
    5000001    2    3    3    0    0 -0.64163094292E+02 -0.47142616121E+02  0.44612041643E+02  0.18693252872E+03  0.16313861317E+03 0.  0.
        -11    1    4    4    0    0  0.29087970238E+02 -0.64238986908E+02  0.51400164371E+02  0.87262445239E+02  0.51100000000E-03 0. -1.
     200002    1    4    4    0    0 -0.93251064530E+02  0.17096370786E+02 -0.67881227274E+01  0.99670083477E+02  0.30000000000E+02 0. -1.
     200000    1    3    3    0    0 -0.29412381301E+03  0.63643916558E+02 -0.18291725699E+03  0.61157018273E+03  0.50000000000E+03 0.  1.
    -200001    1    1    2    0    0  0.35828690730E+03 -0.16501300437E+02 -0.99537723710E+03  0.12686282533E+04  0.70000000000E+03 0. -1.
<mgrwt>
<rscale>  0 0.17285238E+04</rscale>
<asrwt>0</asrwt>
<pdfrwt beam="1">  1        1 0.22862953E+00 0.17285238E+04</pdfrwt>
<pdfrwt beam="2">  1       -1 0.66674894E-01 0.17285238E+04</pdfrwt>
<totfact> 0.14514128E+01</totfact>
</mgrwt>
</event>
<event>
 8    1  0.2354930E-010  0.2187445E+04  0.7818608E-02  0.8523672E-01
         -1   -1    0    0    0  501 -0.00000000000E+00  0.00000000000E+00  0.11839072067E+04  0.11839072068E+04  0.50400000000E-02 0.  1.
          1   -1    0    0  501    0  0.00000000000E+00 -0.00000000000E+00 -0.10104073969E+04  0.10104073969E+04  0.50400000000E-02 0. -1.
     200001    2    1    2    0    0  0.41963622949E+03  0.66864239311E+03  0.37668315644E+03  0.11198562809E+04  0.69929298196E+03 0.  0.
    5000001    2    3    3    0    0  0.46561481648E+02  0.21868317917E+03  0.12843607163E+03  0.31160218919E+03  0.17495655286E+03 0.  0.
        -11    1    4    4    0    0 -0.19236075811E+02 -0.13929465020E+02 -0.15784187220E+02  0.28516612260E+02  0.51100000000E-03 0. -1.
     200002    1    4    4    0    0  0.65797557459E+02  0.23261264419E+03  0.14422025885E+03  0.28308557693E+03  0.30000000000E+02 0. -1.
     200000    1    3    3    0    0  0.37307474784E+03  0.44995921394E+03  0.24824708481E+03  0.80825409173E+03  0.50000000000E+03 0.  1.
    -200001    1    1    2    0    0 -0.41963622949E+03 -0.66864239311E+03 -0.20318334659E+03  0.10744583227E+04  0.70000000000E+03 0. -1.
<mgrwt>
<rscale>  0 0.21874447E+04</rscale>
<asrwt>0</asrwt>
<pdfrwt beam="1">  1        1 0.14434391E+00 0.21874447E+04</pdfrwt>
<pdfrwt beam="2">  1       -1 0.16912960E+00 0.21874447E+04</pdfrwt>
<totfact> 0.38813522E+00</totfact>
</mgrwt>
</event>
<event>
 8    1  0.2354930E-010  0.1923181E+04  0.7818608E-02  0.8643403E-01
          1   -1    0    0  501    0  0.00000000000E+00  0.00000000000E+00  0.90635522269E+03  0.90635522270E+03  0.50400000000E-02 0.  1.
         -1   -1    0    0    0  501 -0.00000000000E+00 -0.00000000000E+00 -0.10201923117E+04  0.10201923117E+04  0.50400000000E-02 0. -1.
     200001    2    1    2    0    0  0.22833529009E+03  0.12459856194E+02 -0.67598619232E+03  0.10001006298E+04  0.70067944517E+03 0.  0.
    5000001    2    3    3    0    0 -0.55403800045E+02  0.30701440997E+02 -0.86009989974E+02  0.17613913437E+03  0.14005397796E+03 0.  0.
        -11    1    4    4    0    0 -0.75415450981E+02 -0.28985334373E+02 -0.28251891407E+02  0.85590941248E+02  0.51100000000E-03 0. -1.
     200002    1    4    4    0    0  0.20011650936E+02  0.59686775371E+02 -0.57758098566E+02  0.90548193120E+02  0.30000000000E+02 0. -1.
     200000    1    3    3    0    0  0.28373909013E+03 -0.18241584803E+02 -0.58997620234E+03  0.82396149547E+03  0.50000000000E+03 0.  1.
    -200001    1    1    2    0    0 -0.22833529009E+03 -0.12459856194E+02  0.56214910329E+03  0.92644690460E+03  0.70000000000E+03 0.  1.
<mgrwt>
<rscale>  0 0.19231814E+04</rscale>
<asrwt>0</asrwt>
<pdfrwt beam="1">  1        1 0.12947932E+00 0.19231814E+04</pdfrwt>
<pdfrwt beam="2">  1       -1 0.14574176E+00 0.19231814E+04</pdfrwt>
<totfact> 0.71967332E+00</totfact>
</mgrwt>
</event>
<event>
 8    1  0.2354930E-010  0.2346088E+04  0.7818608E-02  0.8459968E-01
         -1   -1    0    0    0  501 -0.00000000000E+00  0.00000000000E+00  0.15989590487E+04  0.15989590487E+04  0.50400000000E-02 0. -1.
          1   -1    0    0  501    0  0.00000000000E+00 -0.00000000000E+00 -0.86057991419E+03  0.86057991421E+03  0.50400000000E-02 0.  1.
     200001    2    1    2    0    0 -0.29512889596E+03 -0.71790433264E+03  0.92751452625E+03  0.13973431747E+04  0.69985502466E+03 0.  0.
    5000001    2    3    3    0    0 -0.65160578650E+02 -0.22520682216E+03  0.45372959899E+03  0.51978495952E+03  0.96653201652E+02 0.  0.
        -11    1    4    4    0    0  0.21688512438E+02 -0.58723743373E+02  0.13127030701E+03  0.14543301933E+03  0.51100000000E-03 0. -1.
     200002    1    4    4    0    0 -0.86849091089E+02 -0.16648307878E+03  0.32245929198E+03  0.37435194020E+03  0.30000000000E+02 0. -1.
     200000    1    3    3    0    0 -0.22996831731E+03 -0.49269751049E+03  0.47378492726E+03  0.87755821522E+03  0.50000000000E+03 0.  1.
    -200001    1    1    2    0    0  0.29512889596E+03  0.71790433264E+03 -0.18913539171E+03  0.10621957882E+04  0.70000000000E+03 0. -1.
<mgrwt>
<rscale>  0 0.23460878E+04</rscale>
<asrwt>0</asrwt>
<pdfrwt beam="1">  1        1 0.12293999E+00 0.23460878E+04</pdfrwt>
<pdfrwt beam="2">  1       -1 0.22842272E+00 0.23460878E+04</pdfrwt>
<totfact> 0.19387564E+00</totfact>
</mgrwt>
</event>
<event>
 8    1  0.2354930E-010  0.1841606E+04  0.7818608E-02  0.8684481E-01
          1   -1    0    0  501    0  0.00000000000E+00  0.00000000000E+00  0.11982166219E+04  0.11982166219E+04  0.50400000000E-02 0.  1.
         -1   -1    0    0    0  501 -0.00000000000E+00 -0.00000000000E+00 -0.70761695070E+03  0.70761695072E+03  0.50400000000E-02 0. -1.
     200001    2    1    2    0    0 -0.16443517505E+03  0.54141119828E+02  0.83825497148E+03  0.11053122453E+04  0.69933795467E+03 0.  0.
    5000001    2    3    3    0    0 -0.60213612064E+02  0.54615339156E+02  0.68901752548E+02  0.18185854615E+03  0.14736541301E+03 0.  0.
        -11    1    4    4    0    0  0.30283825039E+02 -0.63119716634E+01  0.61050858402E+02  0.68440911428E+02  0.51100000000E-03 0. -1.
     200002    1    4    4    0    0 -0.90497437103E+02  0.60927310820E+02  0.78508941465E+01  0.11341763472E+03  0.30000000000E+02 0. -1.
     200000    1    3    3    0    0 -0.10422156299E+03 -0.47421932788E+00  0.76935321893E+03  0.92345369920E+03  0.50000000000E+03 0.  1.
    -200001    1    1    2    0    0  0.16443517505E+03 -0.54141119828E+02 -0.34765530027E+03  0.80052132730E+03  0.70000000000E+03 0. -1.
<mgrwt>
<rscale>  0 0.18416062E+04</rscale>
<asrwt>0</asrwt>
<pdfrwt beam="1">  1        1 0.17117380E+00 0.18416062E+04</pdfrwt>
<pdfrwt beam="2">  1       -1 0.10108814E+00 0.18416062E+04</pdfrwt>
<totfact> 0.10886970E+01</totfact>
</mgrwt>
</event>
<event>
 8    1  0.2354930E-010  0.1577706E+04  0.7818608E-02  0.8834362E-01
          1   -1    0    0  501    0  0.00000000000E+00  0.00000000000E+00  0.17115686433E+04  0.17115686433E+04  0.50400000000E-02 0.  1.
         -1   -1    0    0    0  501 -0.00000000000E+00 -0.00000000000E+00 -0.36357832661E+03  0.36357832665E+03  0.50400000000E-02 0. -1.
     200001    2    1    2    0    0 -0.23835672760E+03 -0.50368098922E+02  0.31870064615E+03  0.80676686097E+03  0.69996556423E+03 0.  0.
    5000001    2    3    3    0    0 -0.20412109988E+01  0.16923734731E+02  0.16665318693E+03  0.22927950689E+03  0.15654145849E+03 0.  0.
        -11    1    4    4    0    0 -0.48862443695E+02  0.64490362972E+02  0.11092627936E+03  0.13729961680E+03  0.51100000000E-03 0. -1.
     200002    1    4    4    0    0  0.46821232697E+02 -0.47566628241E+02  0.55726907565E+02  0.91979890086E+02  0.30000000000E+02 0. -1.
     200000    1    3    3    0    0 -0.23631551660E+03 -0.67291833653E+02  0.15204745922E+03  0.57748735408E+03  0.50000000000E+03 0. -1.
    -200001    1    1    2    0    0  0.23835672760E+03  0.50368098922E+02  0.10292896705E+04  0.12683801090E+04  0.70000000000E+03 0.  1.
<mgrwt>
<rscale>  0 0.15777063E+04</rscale>
<asrwt>0</asrwt>
<pdfrwt beam="1">  1        1 0.24450981E+00 0.15777063E+04</pdfrwt>
<pdfrwt beam="2">  1       -1 0.51939761E-01 0.15777063E+04</pdfrwt>
<totfact> 0.20400892E+01</totfact>
</mgrwt>
</event>
<event>
 8    1  0.2354930E-010  0.1578400E+04  0.7818608E-02  0.8833929E-01
          1   -1    0    0  501    0  0.00000000000E+00  0.00000000000E+00  0.37558986078E+04  0.37558986078E+04  0.50400000000E-02 0.  1.
         -1   -1    0    0    0  501 -0.00000000000E+00 -0.00000000000E+00 -0.16582883977E+03  0.16582883985E+03  0.50400000000E-02 0. -1.
     200001    2    1    2    0    0 -0.58138178768E+01 -0.97946767788E+01  0.27031857925E+04  0.27918190787E+04  0.69778979873E+03 0.  0.
    5000001    2    3    3    0    0 -0.58746567834E+02 -0.33432370566E+02  0.93265896011E+03  0.95113282601E+03  0.17387361565E+03 0.  0.
        -11    1    4    4    0    0  0.52873287956E+02 -0.46050460570E+02  0.33160710044E+03  0.33893878291E+03  0.51100000000E-03 0. -1.
     200002    1    4    4    0    0 -0.11161985579E+03  0.12618090004E+02  0.60105185967E+03  0.61219404310E+03  0.30000000000E+02 0. -1.
     200000    1    3    3    0    0  0.52932749957E+02  0.23637693787E+02  0.17705268324E+04  0.18406862527E+04  0.50000000000E+03 0.  1.
    -200001    1    1    2    0    0  0.58138178768E+01  0.97946767788E+01  0.88688397549E+03  0.11299083689E+04  0.70000000000E+03 0. -1.
<mgrwt>
<rscale>  0 0.15783996E+04</rscale>
<asrwt>0</asrwt>
<pdfrwt beam="1">  1        1 0.53655694E+00 0.15783996E+04</pdfrwt>
<pdfrwt beam="2">  1       -1 0.23689835E-01 0.15783996E+04</pdfrwt>
<totfact> 0.38165063E+00</totfact>
</mgrwt>
</event>
<event>
 8    1  0.2354930E-010  0.1772294E+04  0.7818608E-02  0.8721173E-01
          1   -1    0    0  501    0  0.00000000000E+00  0.00000000000E+00  0.18414538234E+04  0.18414538234E+04  0.50400000000E-02 0.  1.
         -1   -1    0    0    0  501 -0.00000000000E+00 -0.00000000000E+00 -0.42643297121E+03  0.42643297124E+03  0.50400000000E-02 0. -1.
     200001    2    1    2    0    0 -0.38971403751E+03 -0.29274749603E+02  0.11905055456E+04  0.14353357963E+04  0.70010810020E+03 0.  0.
    5000001    2    3    3    0    0 -0.13873768233E+03  0.38268684941E+01  0.39405738196E+03  0.46147003277E+03  0.19598617665E+03 0.  0.
        -11    1    4    4    0    0 -0.11847463628E+03  0.88517778902E+02  0.25091256869E+03  0.29125376178E+03  0.51100000000E-03 0. -1.
     200002    1    4    4    0    0 -0.20263046049E+02 -0.84690910407E+02  0.14314481328E+03  0.17021627099E+03  0.30000000000E+02 0. -1.
     200000    1    3    3    0    0 -0.25097635518E+03 -0.33101618097E+02  0.79644816365E+03  0.97386576353E+03  0.50000000000E+03 0.  1.
    -200001    1    1    2    0    0  0.38971403751E+03  0.29274749603E+02  0.22451530659E+03  0.83255099837E+03  0.70000000000E+03 0. -1.
<mgrwt>
<rscale>  0 0.17722941E+04</rscale>
<asrwt>0</asrwt>
<pdfrwt beam="1">  1        1 0.26306484E+00 0.17722941E+04</pdfrwt>
<pdfrwt beam="2">  1       -1 0.60918995E-01 0.17722941E+04</pdfrwt>
<totfact> 0.12162928E+01</totfact>
</mgrwt>
</event>
<event>
 8    1  0.2354930E-010  0.2511506E+04  0.7818608E-02  0.8398898E-01
          1   -1    0    0  501    0  0.00000000000E+00  0.00000000000E+00  0.98587027076E+03  0.98587027077E+03  0.50400000000E-02 0.  1.
         -1   -1    0    0    0  501 -0.00000000000E+00 -0.00000000000E+00 -0.15995157701E+04  0.15995157701E+04  0.50400000000E-02 0. -1.
     200001    2    1    2    0    0 -0.64579111806E+03  0.26599553956E+03 -0.11035473141E+04  0.14818446581E+04  0.70017649277E+03 0.  0.
    5000001    2    3    3    0    0 -0.97838029538E+02  0.86060867874E+01 -0.14745391872E+03  0.24466379083E+03  0.16873460714E+03 0.  0.
        -11    1    4    4    0    0 -0.68188981553E+02  0.76160289388E+01 -0.17918516426E+03  0.19187252068E+03  0.51100000000E-03 0. -1.
     200002    1    4    4    0    0 -0.29649047985E+02  0.99005784867E+00  0.31731245538E+02  0.52791270153E+02  0.30000000000E+02 0. -1.
     200000    1    3    3    0    0 -0.54795308852E+03  0.25738945278E+03 -0.95609339540E+03  0.12371808673E+04  0.50000000000E+03 0. -1.
    -200001    1    1    2    0    0  0.64579111806E+03 -0.26599553956E+03  0.48990181482E+03  0.11035413827E+04  0.70000000000E+03 0.  1.
<mgrwt>
<rscale>  0 0.25115056E+04</rscale>
<asrwt>0</asrwt>
<pdfrwt beam="1">  1        1 0.14083861E+00 0.25115056E+04</pdfrwt>
<pdfrwt beam="2">  1       -1 0.22850225E+00 0.25115056E+04</pdfrwt>
<totfact> 0.15242713E+00</totfact>
</mgrwt>
</event>
<event>
 8    1  0.2354930E-010  0.1935915E+04  0.7818608E-02  0.8637183E-01
         -1   -1    0    0    0  501 -0.00000000000E+00  0.00000000000E+00  0.33958740546E+03  0.33958740550E+03  0.50400000000E-02 0. -1.
          1   -1    0    0  501    0  0.00000000000E+00 -0.00000000000E+00 -0.27590581146E+04  0.27590581146E+04  0.50400000000E-02 0.  1.
     200001    2    1    2    0    0  0.14102496014E+03  0.75153176211E+02 -0.22484286774E+04  0.23605456516E+04  0.70086248048E+03 0.  0.
    5000001    2    3    3    0    0  0.23604062447E+02  0.13559171600E+01 -0.80000693094E+03  0.82198812640E+03  0.18733499437E+03 0.  0.
        -11    1    4    4    0    0 -0.42999836630E+02  0.39309184976E+02 -0.89909282118E+02  0.10713485420E+03  0.51100000000E-03 0. -1.
     200002    1    4    4    0    0  0.66603899077E+02 -0.37953267816E+02 -0.71009764882E+03  0.71485327220E+03  0.30000000000E+02 0. -1.
     200000    1    3    3    0    0  0.11742089769E+03  0.73797259051E+02 -0.14484217465E+04  0.15385575252E+04  0.50000000000E+03 0.  1.
    -200001    1    1    2    0    0 -0.14102496014E+03 -0.75153176211E+02 -0.17104203172E+03  0.73809986851E+03  0.70000000000E+03 0. -1.
<mgrwt>
<rscale>  0 0.19359147E+04</rscale>
<asrwt>0</asrwt>
<pdfrwt beam="1">  1        1 0.39415115E+00 0.19359147E+04</pdfrwt>
<pdfrwt beam="2">  1       -1 0.48512488E-01 0.19359147E+04</pdfrwt>
<totfact> 0.48821026E+00</totfact>
</mgrwt>
</event>
<event>
 8    1  0.2578530E-010  0.1768830E+04  0.7818608E-02  0.8723053E-01
          1   -1    0    0  501    0  0.00000000000E+00  0.00000000000E+00  0.89343330322E+03  0.89343330324E+03  0.50400000000E-02 0.  1.
         -1   -1    0    0    0  501 -0.00000000000E+00 -0.00000000000E+00 -0.87548734008E+03  0.87548734010E+03  0.50400000000E-02 0. -1.
     200001    2    1    2    0    0 -0.52539305273E+02  0.42449227752E+03 -0.31721368926E+03  0.88275696496E+03  0.70404634951E+03 0.  0.
    5000001    2    3    3    0    0 -0.84684050474E+02  0.77292422194E+02 -0.67122142519E+01  0.19865741799E+03  0.16209321074E+03 0.  0.
        -11    1    4    4    0    0 -0.94190038954E+02  0.40012548939E+02 -0.66078976228E+02  0.12181624937E+03  0.51100000000E-03 0. -1.
     200002    1    4    4    0    0  0.95059884798E+01  0.37279873255E+02  0.59366761976E+02  0.76841168616E+02  0.30000000000E+02 0. -1.
     200000    1    3    3    0    0  0.32144745201E+02  0.34719985533E+03 -0.31050147501E+03  0.68409954697E+03  0.50000000000E+03 0. -1.
    -200001    1    1    2    0    0  0.52539305273E+02 -0.42449227752E+03  0.33515965240E+03  0.88616367838E+03  0.70000000000E+03 0.  1.
<mgrwt>
<rscale>  0 0.17688296E+04</rscale>
<asrwt>0</asrwt>
<pdfrwt beam="1">  1        1 0.12763333E+00 0.17688296E+04</pdfrwt>
<pdfrwt beam="2">  1       -1 0.12506962E+00 0.17688296E+04</pdfrwt>
<totfact> 0.11063823E+01</totfact>
</mgrwt>
</event>
<event>
 8    1  0.2354930E-010  0.1421741E+04  0.7818608E-02  0.8938230E-01
         -1   -1    0    0    0  501 -0.00000000000E+00  0.00000000000E+00  0.42454076576E+03  0.42454076579E+03  0.50400000000E-02 0. -1.
          1   -1    0    0  501    0  0.00000000000E+00 -0.00000000000E+00 -0.11903136115E+04  0.11903136115E+04  0.50400000000E-02 0.  1.
     200001    2    1    2    0    0 -0.79671077414E+02  0.92598917849E+02 -0.40899206082E+03  0.81973516068E+03  0.69983511464E+03 0.  0.
    5000001    2    3    3    0    0 -0.10896522384E+03  0.13933537269E+03 -0.93123898743E+02  0.22575272067E+03  0.10490216531E+03 0.  0.
        -11    1    4    4    0    0 -0.14160591846E+02  0.92565585688E+02 -0.59038863006E+02  0.11070003325E+03  0.51100000000E-03 0. -1.
     200002    1    4    4    0    0 -0.94804631992E+02  0.46769787001E+02 -0.34085035737E+02  0.11505268743E+03  0.30000000000E+02 0. -1.
     200000    1    3    3    0    0  0.29294146424E+02 -0.46736454840E+02 -0.31586816207E+03  0.59398244001E+03  0.50000000000E+03 0.  1.
    -200001    1    1    2    0    0  0.79671077414E+02 -0.92598917849E+02 -0.35678078496E+03  0.79511921664E+03  0.70000000000E+03 0. -1.
<mgrwt>
<rscale>  0 0.14217407E+04</rscale>
<asrwt>0</asrwt>
<pdfrwt beam="1">  1        1 0.17004480E+00 0.14217407E+04</pdfrwt>
<pdfrwt beam="2">  1       -1 0.60648681E-01 0.14217407E+04</pdfrwt>
<totfact> 0.33778640E+01</totfact>
</mgrwt>
</event>
<event>
 8    1  0.2354930E-010  0.1605641E+04  0.7818608E-02  0.8817090E-01
          1   -1    0    0  501    0  0.00000000000E+00  0.00000000000E+00  0.24707919712E+04  0.24707919712E+04  0.50400000000E-02 0.  1.
         -1   -1    0    0    0  501 -0.00000000000E+00 -0.00000000000E+00 -0.26085594014E+03  0.26085594019E+03  0.50400000000E-02 0. -1.
     200001    2    1    2    0    0  0.38557154427E+02 -0.25193730358E+03  0.59593457172E+03  0.95402034359E+03  0.70004124387E+03 0.  0.
    5000001    2    3    3    0    0  0.28386953996E+02 -0.97419392178E+02  0.25198874701E+03  0.32769938094E+03  0.18328174628E+03 0.  0.
        -11    1    4    4    0    0  0.65475749742E+02 -0.13402883739E+03  0.17305829113E+03  0.22847313888E+03  0.51100000000E-03 0. -1.
     200002    1    4    4    0    0 -0.37088795746E+02  0.36609445217E+02  0.78930455874E+02  0.99226242061E+02  0.30000000000E+02 0. -1.
     200000    1    3    3    0    0  0.10170200430E+02 -0.15451791140E+03  0.34394582471E+03  0.62632096265E+03  0.50000000000E+03 0. -1.
    -200001    1    1    2    0    0 -0.38557154427E+02  0.25193730358E+03  0.16140014593E+04  0.17776275678E+04  0.70000000000E+03 0.  1.
<mgrwt>
<rscale>  0 0.16056410E+04</rscale>
<asrwt>0</asrwt>
<pdfrwt beam="1">  1        1 0.35297030E+00 0.16056410E+04</pdfrwt>
<pdfrwt beam="2">  1       -1 0.37265132E-01 0.16056410E+04</pdfrwt>
<totfact> 0.12517147E+01</totfact>
</mgrwt>
</event>
<event>
 8    1  0.2354930E-010  0.1860925E+04  0.7818608E-02  0.8674555E-01
         -1   -1    0    0    0  501 -0.00000000000E+00  0.00000000000E+00  0.29599581787E+03  0.29599581792E+03  0.50400000000E-02 0.  1.
          1   -1    0    0  501    0  0.00000000000E+00 -0.00000000000E+00 -0.29249078784E+04  0.29249078784E+04  0.50400000000E-02 0. -1.
     200001    2    1    2    0    0  0.24072705569E+03 -0.25121179719E+03 -0.21864541410E+04  0.23226688201E+04  0.70224771589E+03 0.  0.
    5000001    2    3    3    0    0  0.13461545308E+03 -0.61171667809E+02 -0.74260695477E+03  0.77927333599E+03  0.18422418343E+03 0.  0.
        -11    1    4    4    0    0  0.43666159686E+02 -0.54766873826E+02 -0.61813928709E+03  0.62209510705E+03  0.51100000000E-03 0. -1.
     200002    1    4    4    0    0  0.90949293396E+02 -0.64047939825E+01 -0.12446766768E+03  0.15717822894E+03  0.30000000000E+02 0. -1.
     200000    1    3    3    0    0  0.10611160261E+03 -0.19004012938E+03 -0.14438471863E+04  0.15433954841E+04  0.50000000000E+03 0. -1.
    -200001    1    1    2    0    0 -0.24072705569E+03  0.25121179719E+03 -0.44245791948E+03  0.89823487624E+03  0.70000000000E+03 0.  1.
<mgrwt>
<rscale>  0 0.18609250E+04</rscale>
<asrwt>0</asrwt>
<pdfrwt beam="1">  1        1 0.41784396E+00 0.18609250E+04</pdfrwt>
<pdfrwt beam="2">  1       -1 0.42285119E-01 0.18609250E+04</pdfrwt>
<totfact> 0.49552793E+00</totfact>
</mgrwt>
</event>
<event>
 8    1  0.2884765E-010  0.2066727E+04  0.7818608E-02  0.8576044E-01
          1   -1    0    0  501    0  0.00000000000E+00  0.00000000000E+00  0.17198616513E+04  0.17198616513E+04  0.50400000000E-02 0.  1.
         -1   -1    0    0    0  501 -0.00000000000E+00 -0.00000000000E+00 -0.62088714531E+03  0.62088714533E+03  0.50400000000E-02 0. -1.
     200001    2    1    2    0    0 -0.28865011003E+02 -0.52206601069E+03 -0.71113398421E+02  0.88044341336E+03  0.70479598488E+03 0.  0.
    5000001    2    3    3    0    0  0.28468684700E+02 -0.23005283362E+03  0.43708880620E+02  0.28736415726E+03  0.16411252349E+03 0.  0.
        -11    1    4    4    0    0  0.39358444587E+02 -0.95135369516E+02 -0.55425646769E+02  0.11692659241E+03  0.51100000000E-03 0. -1.
     200002    1    4    4    0    0 -0.10889759887E+02 -0.13491746410E+03  0.99134527389E+02  0.17043756484E+03  0.30000000000E+02 0. -1.
     200000    1    3    3    0    0 -0.57333695702E+02 -0.29201317708E+03 -0.11482227904E+03  0.59307925610E+03  0.50000000000E+03 0. -1.
    -200001    1    1    2    0    0  0.28865011003E+02  0.52206601069E+03  0.11700879044E+04  0.14603053833E+04  0.70000000000E+03 0.  1.
<mgrwt>
<rscale>  0 0.20667269E+04</rscale>
<asrwt>0</asrwt>
<pdfrwt beam="1">  1        1 0.24569452E+00 0.20667269E+04</pdfrwt>
<pdfrwt beam="2">  1       -1 0.88698163E-01 0.20667269E+04</pdfrwt>
<totfact> 0.64780654E+00</totfact>
</mgrwt>
</event>
<event>
 8    1  0.2354930E-010  0.1947332E+04  0.7818608E-02  0.8631648E-01
          1   -1    0    0  501    0  0.00000000000E+00  0.00000000000E+00  0.77161990705E+03  0.77161990707E+03  0.50400000000E-02 0.  1.
         -1   -1    0    0    0  501 -0.00000000000E+00 -0.00000000000E+00 -0.12286169336E+04  0.12286169336E+04  0.50400000000E-02 0. -1.
     200001    2    1    2    0    0 -0.58377933418E+03  0.34184543591E+03 -0.20371397500E+03  0.99434971120E+03  0.69969661389E+03 0.  0.
    5000001    2    3    3    0    0 -0.15908812340E+03  0.10354704510E+03  0.12582692577E+02  0.26364252225E+03  0.18253228162E+03 0.  0.
        -11    1    4    4    0    0  0.33311711529E+02  0.35875057239E+01  0.28770656418E+02  0.44162099058E+02  0.51100000000E-03 0. -1.
     200002    1    4    4    0    0 -0.19239983493E+03  0.99959539371E+02 -0.16187963841E+02  0.21948042319E+03  0.30000000000E+02 0. -1.
     200000    1    3    3    0    0 -0.42469121078E+03  0.23829839081E+03 -0.21629666758E+03  0.73070718895E+03  0.50000000000E+03 0.  1.
    -200001    1    1    2    0    0  0.58377933418E+03 -0.34184543591E+03 -0.25328305157E+03  0.10058871295E+04  0.70000000000E+03 0. -1.
<mgrwt>
<rscale>  0 0.19473318E+04</rscale>
<asrwt>0</asrwt>
<pdfrwt beam="1">  1        1 0.11023142E+00 0.19473318E+04</pdfrwt>
<pdfrwt beam="2">  1       -1 0.17551670E+00 0.19473318E+04</pdfrwt>
<totfact> 0.55165174E+00</totfact>
</mgrwt>
</event>
<event>
 8    1  0.2354930E-010  0.1447539E+04  0.7818608E-02  0.8920108E-01
          1   -1    0    0  501    0  0.00000000000E+00  0.00000000000E+00  0.19907058058E+04  0.19907058058E+04  0.50400000000E-02 0.  1.
         -1   -1    0    0    0  501 -0.00000000000E+00 -0.00000000000E+00 -0.26314418123E+03  0.26314418128E+03  0.50400000000E-02 0. -1.
     200001    2    1    2    0    0 -0.71123501251E+02  0.14952808771E+03  0.98734933758E+03  0.12217010486E+04  0.70019821209E+03 0.  0.
    5000001    2    3    3    0    0  0.70427045346E+02  0.37298480185E+02  0.10897960303E+03  0.19497546079E+03  0.14066887037E+03 0.  0.
        -11    1    4    4    0    0  0.79508568521E+02 -0.22637806488E+02  0.23443356099E+02  0.85928305559E+02  0.51100000000E-03 0. -1.
     200002    1    4    4    0    0 -0.90815231754E+01  0.59936286673E+02  0.85536246934E+02  0.10904715523E+03  0.30000000000E+02 0. -1.
     200000    1    3    3    0    0 -0.14155054660E+03  0.11222960753E+03  0.87836973455E+03  0.10267255878E+04  0.50000000000E+03 0.  1.
    -200001    1    1    2    0    0  0.71123501251E+02 -0.14952808771E+03  0.74021228696E+03  0.10321489385E+04  0.70000000000E+03 0. -1.
<mgrwt>
<rscale>  0 0.14475395E+04</rscale>
<asrwt>0</asrwt>
<pdfrwt beam="1">  1        1 0.28438655E+00 0.14475395E+04</pdfrwt>
<pdfrwt beam="2">  1       -1 0.37592025E-01 0.14475395E+04</pdfrwt>
<totfact> 0.25059973E+01</totfact>
</mgrwt>
</event>
<event>
 8    1  0.2354930E-010  0.1798582E+04  0.7818608E-02  0.8707054E-01
         -1   -1    0    0    0  501 -0.00000000000E+00  0.00000000000E+00  0.23937650030E+04  0.23937650030E+04  0.50400000000E-02 0. -1.
          1   -1    0    0  501    0  0.00000000000E+00 -0.00000000000E+00 -0.33784609552E+03  0.33784609556E+03  0.50400000000E-02 0.  1.
     200001    2    1    2    0    0 -0.52356175139E+02  0.20785455669E+03  0.23706348714E+03  0.77095311566E+03  0.70158743133E+03 0.  0.
    5000001    2    3    3    0    0  0.27634556990E+02 -0.95184435969E+01 -0.36911986731E+02  0.15555722782E+03  0.14826087432E+03 0.  0.
        -11    1    4    4    0    0  0.32994174372E+01 -0.27872742839E+02  0.50763933861E+02  0.58006490413E+02  0.51100000000E-03 0. -1.
     200002    1    4    4    0    0  0.24335139553E+02  0.18354299242E+02 -0.87675920592E+02  0.97550737411E+02  0.30000000000E+02 0. -1.
     200000    1    3    3    0    0 -0.79990732129E+02  0.21737300029E+03  0.27397547387E+03  0.61539588783E+03  0.50000000000E+03 0.  1.
    -200001    1    1    2    0    0  0.52356175139E+02 -0.20785455669E+03  0.18188554204E+04  0.19606579829E+04  0.70000000000E+03 0. -1.
<mgrwt>
<rscale>  0 0.17985818E+04</rscale>
<asrwt>0</asrwt>
<pdfrwt beam="1">  1        1 0.48263727E-01 0.17985818E+04</pdfrwt>
<pdfrwt beam="2">  1       -1 0.34196643E+00 0.17985818E+04</pdfrwt>
<totfact> 0.13771228E+00</totfact>
</mgrwt>
</event>
<event>
 8    1  0.2354930E-010  0.2204103E+04  0.7818608E-02  0.8516722E-01
         -1   -1    0    0    0  501 -0.00000000000E+00  0.00000000000E+00  0.10881013498E+04  0.10881013498E+04  0.50400000000E-02 0. -1.
          1   -1    0    0  501    0  0.00000000000E+00 -0.00000000000E+00 -0.11161805200E+04  0.11161805200E+04  0.50400000000E-02 0.  1.
     200001    2    1    2    0    0  0.15597043585E+02 -0.85114549302E+03  0.70712605468E+01  0.11015908565E+04  0.69911407820E+03 0.  0.
    5000001    2    3    3    0    0  0.11759488968E+03 -0.16546234371E+03  0.22029715611E+02  0.24672905642E+03  0.13850477843E+03 0.  0.
        -11    1    4    4    0    0  0.70673772550E+02 -0.84880022894E+02 -0.53796313496E+02  0.12285537741E+03  0.51100000000E-03 0. -1.
     200002    1    4    4    0    0  0.46921117132E+02 -0.80582320812E+02  0.75826029108E+02  0.12387367901E+03  0.30000000000E+02 0. -1.
     200000    1    3    3    0    0 -0.10199784610E+03 -0.68568314932E+03 -0.14958455064E+02  0.85486180008E+03  0.50000000000E+03 0. -1.
    -200001    1    1    2    0    0 -0.15597043585E+02  0.85114549302E+03 -0.35150430792E+02  0.11026910133E+04  0.70000000000E+03 0.  1.
<mgrwt>
<rscale>  0 0.22041030E+04</rscale>
<asrwt>0</asrwt>
<pdfrwt beam="1">  1        1 0.15945436E+00 0.22041030E+04</pdfrwt>
<pdfrwt beam="2">  1       -1 0.15544305E+00 0.22041030E+04</pdfrwt>
<totfact> 0.41128596E+00</totfact>
</mgrwt>
</event>
<event>
 8    1  0.2354930E-010  0.1965248E+04  0.7818608E-02  0.8623043E-01
         -1   -1    0    0    0  501 -0.00000000000E+00  0.00000000000E+00  0.18340343452E+04  0.18340343452E+04  0.50400000000E-02 0. -1.
          1   -1    0    0  501    0  0.00000000000E+00 -0.00000000000E+00 -0.52646232833E+03  0.52646232835E+03  0.50400000000E-02 0.  1.
     200001    2    1    2    0    0 -0.44674688751E+02 -0.42361897623E+03  0.22129393151E+01  0.81925977217E+03  0.69980912566E+03 0.  0.
    5000001    2    3    3    0    0 -0.87243650717E+02 -0.82835750650E+02 -0.27164589472E+02  0.21196382903E+03  0.17238774237E+03 0.  0.
        -11    1    4    4    0    0  0.16557972123E+02 -0.17211315786E+02  0.55839207621E+02  0.60732305571E+02  0.51100000000E-03 0. -1.
     200002    1    4    4    0    0 -0.10380162284E+03 -0.65624434864E+02 -0.83003797094E+02  0.15123152346E+03  0.30000000000E+02 0. -1.
     200000    1    3    3    0    0  0.42568961966E+02 -0.34078322558E+03  0.29377528788E+02  0.60729594314E+03  0.50000000000E+03 0.  1.
    -200001    1    1    2    0    0  0.44674688751E+02  0.42361897623E+03  0.13053590775E+04  0.15412369014E+04  0.70000000000E+03 0. -1.
<mgrwt>
<rscale>  0 0.19652481E+04</rscale>
<asrwt>0</asrwt>
<pdfrwt beam="1">  1        1 0.75208905E-01 0.19652481E+04</pdfrwt>
<pdfrwt beam="2">  1       -1 0.26200490E+00 0.19652481E+04</pdfrwt>
<totfact> 0.24866623E+00</totfact>
</mgrwt>
</event>
<event>
 8    1  0.2354930E-010  0.2667773E+04  0.7818608E-02  0.8345538E-01
          1   -1    0    0  501    0  0.00000000000E+00  0.00000000000E+00  0.23074205919E+04  0.23074205919E+04  0.50400000000E-02 0.  1.
         -1   -1    0    0    0  501 -0.00000000000E+00 -0.00000000000E+00 -0.77110042371E+03  0.77110042373E+03  0.50400000000E-02 0. -1.
     200001    2    1    2    0    0 -0.11343900067E+04 -0.41444976952E+02  0.76758779700E+03  0.15392004409E+04  0.70099115366E+03 0.  0.
    5000001    2    3    3    0    0 -0.49431288437E+03 -0.97884959047E+02  0.31084790551E+03  0.60566119548E+03  0.12756320196E+03 0.  0.
        -11    1    4    4    0    0 -0.23914073005E+03  0.14045744877E+02  0.14248929921E+03  0.27872705665E+03  0.51100000000E-03 0. -1.
     200002    1    4    4    0    0 -0.25517215432E+03 -0.11193070392E+03  0.16835860629E+03  0.32693413883E+03  0.30000000000E+02 0. -1.
     200000    1    3    3    0    0 -0.64007712236E+03  0.56439982095E+02  0.45673989150E+03  0.93353924537E+03  0.50000000000E+03 0.  1.
    -200001    1    1    2    0    0  0.11343900067E+04  0.41444976952E+02  0.76873237123E+03  0.15393205748E+04  0.70000000000E+03 0. -1.
<mgrwt>
<rscale>  0 0.26677729E+04</rscale>
<asrwt>0</asrwt>
<pdfrwt beam="1">  1        1 0.32963150E+00 0.26677729E+04</pdfrwt>
<pdfrwt beam="2">  1       -1 0.11015721E+00 0.26677729E+04</pdfrwt>
<totfact> 0.15970783E+00</totfact>
</mgrwt>
</event>
<event>
 8    1  0.2354930E-010  0.1735324E+04  0.7818608E-02  0.8741470E-01
          1   -1    0    0  501    0  0.00000000000E+00  0.00000000000E+00  0.11142681754E+04  0.11142681754E+04  0.50400000000E-02 0.  1.
         -1   -1    0    0    0  501 -0.00000000000E+00 -0.00000000000E+00 -0.67563412620E+03  0.67563412622E+03  0.50400000000E-02 0. -1.
     200001    2    1    2    0    0 -0.23243155468E+03  0.23170054926E+03 -0.18691425643E+03  0.79540732689E+03  0.70001878851E+03 0.  0.
    5000001    2    3    3    0    0 -0.72304464002E+02  0.11047607916E+03  0.10674705040E+02  0.22149317389E+03  0.17751725879E+03 0.  0.
        -11    1    4    4    0    0  0.11050250686E+02 -0.18001369793E+02 -0.49824970868E+02  0.54117326957E+02  0.51100000000E-03 0. -1.
     200002    1    4    4    0    0 -0.83354714688E+02  0.12847744896E+03  0.60499675908E+02  0.16737584693E+03  0.30000000000E+02 0. -1.
     200000    1    3    3    0    0 -0.16012709067E+03  0.12122447010E+03 -0.19758896147E+03  0.57391415300E+03  0.50000000000E+03 0. -1.
    -200001    1    1    2    0    0  0.23243155468E+03 -0.23170054926E+03  0.62554830564E+03  0.99449497476E+03  0.70000000000E+03 0.  1.
<mgrwt>
<rscale>  0 0.17353243E+04</rscale>
<asrwt>0</asrwt>
<pdfrwt beam="1">  1        1 0.15918117E+00 0.17353243E+04</pdfrwt>
<pdfrwt beam="2">  1       -1 0.96519162E-01 0.17353243E+04</pdfrwt>
<totfact> 0.13990124E+01</totfact>
</mgrwt>
</event>
<event>
 8    1  0.2354930E-010  0.1682394E+04  0.7818608E-02  0.8771470E-01
         -1   -1    0    0    0  501 -0.00000000000E+00  0.00000000000E+00  0.49647802863E+03  0.49647802865E+03  0.50400000000E-02 0. -1.
          1   -1    0    0  501    0  0.00000000000E+00 -0.00000000000E+00 -0.14252650727E+04  0.14252650727E+04  0.50400000000E-02 0.  1.
     200001    2    1    2    0    0 -0.28236987785E+03 -0.22218069661E+02 -0.40685219044E+02  0.75600246033E+03  0.69975570197E+03 0.  0.
    5000001    2    3    3    0    0 -0.12570351911E+03 -0.13562696584E+02  0.64377585851E+02  0.22153313809E+03  0.17013857957E+03 0.  0.
        -11    1    4    4    0    0 -0.38765300856E+02  0.41369896997E+02  0.94545511943E+02  0.11024096678E+03  0.51100000000E-03 0. -1.
     200002    1    4    4    0    0 -0.86938218253E+02 -0.54932593581E+02 -0.30167926091E+02  0.11129217131E+03  0.30000000000E+02 0. -1.
     200000    1    3    3    0    0 -0.15666635874E+03 -0.86553730762E+01 -0.10506280490E+03  0.53446932224E+03  0.50000000000E+03 0. -1.
    -200001    1    1    2    0    0  0.28236987785E+03  0.22218069661E+02 -0.88810182505E+03  0.11657406411E+04  0.70000000000E+03 0.  1.
<mgrwt>
<rscale>  0 0.16823945E+04</rscale>
<asrwt>0</asrwt>
<pdfrwt beam="1">  1        1 0.20360929E+00 0.16823945E+04</pdfrwt>
<pdfrwt beam="2">  1       -1 0.70925433E-01 0.16823945E+04</pdfrwt>
<totfact> 0.16704946E+01</totfact>
</mgrwt>
</event>
<event>
 8    1  0.2354930E-010  0.1412968E+04  0.7818608E-02  0.8944485E-01
         -1   -1    0    0    0  501 -0.00000000000E+00  0.00000000000E+00  0.30104537666E+03  0.30104537670E+03  0.50400000000E-02 0. -1.
          1   -1    0    0  501    0  0.00000000000E+00 -0.00000000000E+00 -0.16579543347E+04  0.16579543347E+04  0.50400000000E-02 0.  1.
     200001    2    1    2    0    0 -0.45087671123E+02 -0.85109407175E+02 -0.66951342294E+03  0.97320605606E+03  0.69971801090E+03 0.  0.
    5000001    2    3    3    0    0 -0.37417516572E+02 -0.14775749343E+02 -0.17247736888E+03  0.26465084034E+03  0.19665510723E+03 0.  0.
        -11    1    4    4    0    0 -0.20466214802E+02  0.86963196393E+02 -0.52535763336E+02  0.10364106283E+03  0.51100000000E-03 0. -1.
     200002    1    4    4    0    0 -0.16951301770E+02 -0.10173894574E+03 -0.11994160555E+03  0.16100977751E+03  0.30000000000E+02 0. -1.
     200000    1    3    3    0    0 -0.76701545510E+01 -0.70333657832E+02 -0.49703605406E+03  0.70855521572E+03  0.50000000000E+03 0. -1.
    -200001    1    1    2    0    0  0.45087671123E+02  0.85109407175E+02 -0.68739553513E+03  0.98579365538E+03  0.70000000000E+03 0. -1.
<mgrwt>
<rscale>  0 0.14129678E+04</rscale>
<asrwt>0</asrwt>
<pdfrwt beam="1">  1        1 0.23685061E+00 0.14129678E+04</pdfrwt>
<pdfrwt beam="2">  1       -1 0.43006483E-01 0.14129678E+04</pdfrwt>
<totfact> 0.31918799E+01</totfact>
</mgrwt>
</event>
<event>
 8    1  0.2354930E-010  0.1432185E+04  0.7818608E-02  0.8930845E-01
          1   -1    0    0  501    0  0.00000000000E+00  0.00000000000E+00  0.12119834927E+04  0.12119834928E+04  0.50400000000E-02 0.  1.
         -1   -1    0    0    0  501 -0.00000000000E+00 -0.00000000000E+00 -0.42309855067E+03  0.42309855070E+03  0.50400000000E-02 0. -1.
     200001    2    1    2    0    0 -0.12093457664E+02 -0.10440678446E+02  0.22472470144E+03  0.73589794851E+03  0.70056358719E+03 0.  0.
    5000001    2    3    3    0    0  0.36414638105E+02 -0.18200384217E+02  0.59100433524E+02  0.20689450191E+03  0.19404946231E+03 0.  0.
        -11    1    4    4    0    0  0.36041210238E+02 -0.64095291837E+02  0.10984451008E+03  0.13218544423E+03  0.51100000000E-03 0. -1.
     200002    1    4    4    0    0  0.37342786765E+00  0.45894907619E+02 -0.50744076558E+02  0.74709057681E+02  0.30000000000E+02 0. -1.
     200000    1    3    3    0    0 -0.48508095769E+02  0.77597057712E+01  0.16562426792E+03  0.52900344660E+03  0.50000000000E+03 0. -1.
    -200001    1    1    2    0    0  0.12093457664E+02  0.10440678446E+02  0.56416024063E+03  0.89918409494E+03  0.70000000000E+03 0.  1.
<mgrwt>
<rscale>  0 0.14321850E+04</rscale>
<asrwt>0</asrwt>
<pdfrwt beam="1">  1        1 0.17314050E+00 0.14321850E+04</pdfrwt>
<pdfrwt beam="2">  1       -1 0.60442651E-01 0.14321850E+04</pdfrwt>
<totfact> 0.32819367E+01</totfact>
</mgrwt>
</event>
<event>
 8    1  0.2354930E-010  0.1413976E+04  0.7818608E-02  0.8943764E-01
         -1   -1    0    0    0  501 -0.00000000000E+00  0.00000000000E+00  0.83600858428E+03  0.83600858430E+03  0.50400000000E-02 0. -1.
          1   -1    0    0  501    0  0.00000000000E+00 -0.00000000000E+00 -0.59787884233E+03  0.59787884235E+03  0.50400000000E-02 0.  1.
     200001    2    1    2    0    0 -0.53168733529E+02 -0.75166493198E+02  0.15906503561E+03  0.72344520964E+03  0.69971020421E+03 0.  0.
    5000001    2    3    3    0    0 -0.33985949993E+02 -0.24918422771E+02  0.66253162626E+02  0.21206776437E+03  0.19699564090E+03 0.  0.
        -11    1    4    4    0    0 -0.10651810299E+03 -0.44253855033E+02  0.14914565368E+02  0.11630543499E+03  0.51100000000E-03 0. -1.
     200002    1    4    4    0    0  0.72532152992E+02  0.19335432262E+02  0.51338597258E+02  0.95762329372E+02  0.30000000000E+02 0. -1.
     200000    1    3    3    0    0 -0.19182783536E+02 -0.50248070427E+02  0.92811872989E+02  0.51137744527E+03  0.50000000000E+03 0. -1.
    -200001    1    1    2    0    0  0.53168733529E+02  0.75166493198E+02  0.79064706340E+02  0.71044221701E+03  0.70000000000E+03 0.  1.
<mgrwt>
<rscale>  0 0.14139757E+04</rscale>
<asrwt>0</asrwt>
<pdfrwt beam="1">  1        1 0.85411262E-01 0.14139757E+04</pdfrwt>
<pdfrwt beam="2">  1       -1 0.11942980E+00 0.14139757E+04</pdfrwt>
<totfact> 0.23411777E+01</totfact>
</mgrwt>
</event>
<event>
 8    1  0.2354930E-010  0.1742804E+04  0.7818608E-02  0.8737321E-01
         -1   -1    0    0    0  501 -0.00000000000E+00  0.00000000000E+00  0.78381697591E+03  0.78381697593E+03  0.50400000000E-02 0. -1.
          1   -1    0    0  501    0  0.00000000000E+00 -0.00000000000E+00 -0.96877376724E+03  0.96877376725E+03  0.50400000000E-02 0.  1.
     200001    2    1    2    0    0  0.36490142639E+03 -0.28405084993E+03 -0.32991217253E+03  0.90120951313E+03  0.69964177166E+03 0.  0.
    5000001    2    3    3    0    0  0.85589227790E+02 -0.56146444874E+02 -0.12174224075E+03  0.25060176446E+03  0.19365467199E+03 0.  0.
        -11    1    4    4    0    0 -0.19462657544E+02 -0.28153125742E+02  0.40491274047E+02  0.53018268568E+02  0.51100000000E-03 0. -1.
     200002    1    4    4    0    0  0.10505188533E+03 -0.27993319132E+02 -0.16223351479E+03  0.19758349590E+03  0.30000000000E+02 0. -1.
     200000    1    3    3    0    0  0.27931219860E+03 -0.22790440505E+03 -0.20816993178E+03  0.65060774867E+03  0.50000000000E+03 0.  1.
    -200001    1    1    2    0    0 -0.36490142639E+03  0.28405084993E+03  0.14495538120E+03  0.85138123004E+03  0.70000000000E+03 0.  1.
<mgrwt>
<rscale>  0 0.17428039E+04</rscale>
<asrwt>0</asrwt>
<pdfrwt beam="1">  1        1 0.13839625E+00 0.17428039E+04</pdfrwt>
<pdfrwt beam="2">  1       -1 0.11197385E+00 0.17428039E+04</pdfrwt>
<totfact> 0.12681705E+01</totfact>
</mgrwt>
</event>
<event>
 8    1  0.2354930E-010  0.1407603E+04  0.7818608E-02  0.8948333E-01
         -1   -1    0    0    0  501 -0.00000000000E+00  0.00000000000E+00  0.17067842711E+03  0.17067842718E+03  0.50400000000E-02 0.  1.
          1   -1    0    0  501    0  0.00000000000E+00 -0.00000000000E+00 -0.29021632286E+04  0.29021632286E+04  0.50400000000E-02 0. -1.
     200001    2    1    2    0    0  0.29688663719E+01  0.39960238894E+02 -0.14990174724E+04  0.16548919556E+04  0.70000597669E+03 0.  0.
    5000001    2    3    3    0    0  0.13907944304E+02  0.36136702337E+02 -0.46823679802E+03  0.50918558769E+03  0.19627779173E+03 0.  0.
        -11    1    4    4    0    0  0.29389655733E+02  0.11231833042E+03 -0.29233226432E+03  0.31454302086E+03  0.51100000000E-03 0. -1.
     200002    1    4    4    0    0 -0.15481711429E+02 -0.76181628082E+02 -0.17590453370E+03  0.19464256683E+03  0.30000000000E+02 0. -1.
     200000    1    3    3    0    0 -0.10939077932E+02  0.38235365572E+01 -0.10307806744E+04  0.11457063680E+04  0.50000000000E+03 0. -1.
    -200001    1    1    2    0    0 -0.29688663719E+01 -0.39960238894E+02 -0.12324673290E+04  0.14179497001E+04  0.70000000000E+03 0.  1.
<mgrwt>
<rscale>  0 0.14076031E+04</rscale>
<asrwt>0</asrwt>
<pdfrwt beam="1">  1        1 0.41459472E+00 0.14076031E+04</pdfrwt>
<pdfrwt beam="2">  1       -1 0.24382634E-01 0.14076031E+04</pdfrwt>
<totfact> 0.14182202E+01</totfact>
</mgrwt>
</event>
<event>
 8    1  0.2354930E-010  0.1892519E+04  0.7818608E-02  0.8658589E-01
          1   -1    0    0  501    0  0.00000000000E+00  0.00000000000E+00  0.15852516699E+04  0.15852516699E+04  0.50400000000E-02 0.  1.
         -1   -1    0    0    0  501 -0.00000000000E+00 -0.00000000000E+00 -0.56483601890E+03  0.56483601892E+03  0.50400000000E-02 0. -1.
     200001    2    1    2    0    0  0.56346532486E+02  0.59649595581E+03  0.26325487296E+03  0.95749605677E+03  0.69893720289E+03 0.  0.
    5000001    2    3    3    0    0  0.12696890906E+02  0.14420962454E+03  0.33765271827E+02  0.24396000745E+03  0.19343930522E+03 0.  0.
        -11    1    4    4    0    0  0.16331974694E+02  0.41256322264E+02  0.10579837090E+03  0.11472625161E+03  0.51100000000E-03 0. -1.
     200002    1    4    4    0    0 -0.36350837880E+01  0.10295330228E+03 -0.72033099074E+02  0.12923375583E+03  0.30000000000E+02 0. -1.
     200000    1    3    3    0    0  0.43649641580E+02  0.45228633127E+03  0.22948960113E+03  0.71353604933E+03  0.50000000000E+03 0.  1.
    -200001    1    1    2    0    0 -0.56346532486E+02 -0.59649595581E+03  0.75716077803E+03  0.11925916320E+04  0.70000000000E+03 0.  1.
<mgrwt>
<rscale>  0 0.18925192E+04</rscale>
<asrwt>0</asrwt>
<pdfrwt beam="1">  1        1 0.22646452E+00 0.18925192E+04</pdfrwt>
<pdfrwt beam="2">  1       -1 0.80690860E-01 0.18925192E+04</pdfrwt>
<totfact> 0.98454313E+00</totfact>
</mgrwt>
</event>
<event>
 8    1  0.2354930E-010  0.1457438E+04  0.7818608E-02  0.8913260E-01
          1   -1    0    0  501    0  0.00000000000E+00  0.00000000000E+00  0.25954810898E+04  0.25954810898E+04  0.50400000000E-02 0. -1.
         -1   -1    0    0    0  501 -0.00000000000E+00 -0.00000000000E+00 -0.20459840397E+03  0.20459840403E+03  0.50400000000E-02 0.  1.
     200001    2    1    2    0    0 -0.14035966843E+03 -0.10287246869E+03  0.13952675068E+04  0.15706352429E+04  0.69988575459E+03 0.  0.
    5000001    2    3    3    0    0  0.80741098964E+02 -0.36348808315E+02  0.32660142148E+03  0.36840475395E+03  0.14564756535E+03 0.  0.
        -11    1    4    4    0    0  0.20496099062E+02  0.39492661777E+02  0.26850529258E+02  0.51968368578E+02  0.51100000000E-03 0. -1.
     200002    1    4    4    0    0  0.60244999901E+02 -0.75841470092E+02  0.29975089222E+03  0.31643638537E+03  0.30000000000E+02 0. -1.
     200000    1    3    3    0    0 -0.22110076739E+03 -0.66523660378E+02  0.10686660853E+04  0.12022304890E+04  0.50000000000E+03 0. -1.
    -200001    1    1    2    0    0  0.14035966843E+03  0.10287246869E+03  0.99561517901E+03  0.12294442509E+04  0.70000000000E+03 0.  1.
<mgrwt>
<rscale>  0 0.14574379E+04</rscale>
<asrwt>0</asrwt>
<pdfrwt beam="1">  1        1 0.37078300E+00 0.14574379E+04</pdfrwt>
<pdfrwt beam="2">  1       -1 0.29228344E-01 0.14574379E+04</pdfrwt>
<totfact> 0.16266187E+01</totfact>
</mgrwt>
</event>
<event>
 8    1  0.2354930E-010  0.1471056E+04  0.7818608E-02  0.8903932E-01
         -1   -1    0    0    0  501 -0.00000000000E+00  0.00000000000E+00  0.44502796144E+03  0.44502796147E+03  0.50400000000E-02 0. -1.
          1   -1    0    0  501    0  0.00000000000E+00 -0.00000000000E+00 -0.12156569663E+04  0.12156569663E+04  0.50400000000E-02 0.  1.
     200001    2    1    2    0    0 -0.10448096920E+03  0.17133547390E+03 -0.24620002439E+03  0.76330102268E+03  0.69407627943E+03 0.  0.
    5000001    2    3    3    0    0 -0.38890768329E+02  0.11180777680E+03 -0.56718844471E+02  0.22131510154E+03  0.17818494896E+03 0.  0.
        -11    1    4    4    0    0  0.82182046510E+01  0.56682642264E+02  0.58526747260E+02  0.81889199329E+02  0.51100000000E-03 0. -1.
     200002    1    4    4    0    0 -0.47108972980E+02  0.55125134534E+02 -0.11524559173E+03  0.13942590221E+03  0.30000000000E+02 0. -1.
     200000    1    3    3    0    0 -0.65590200868E+02  0.59527697105E+02 -0.18948117992E+03  0.54198592114E+03  0.50000000000E+03 0. -1.
    -200001    1    1    2    0    0  0.10448096920E+03 -0.17133547390E+03 -0.52442898044E+03  0.89738390506E+03  0.70000000000E+03 0.  1.
<mgrwt>
<rscale>  0 0.14710559E+04</rscale>
<asrwt>0</asrwt>
<pdfrwt beam="1">  1        1 0.17366528E+00 0.14710559E+04</pdfrwt>
<pdfrwt beam="2">  1       -1 0.63575424E-01 0.14710559E+04</pdfrwt>
<totfact> 0.29410580E+01</totfact>
</mgrwt>
</event>
<event>
 8    1  0.2354930E-010  0.2225736E+04  0.7818608E-02  0.8507792E-01
         -1   -1    0    0    0  501 -0.00000000000E+00  0.00000000000E+00  0.13672607565E+04  0.13672607565E+04  0.50400000000E-02 0. -1.
          1   -1    0    0  501    0  0.00000000000E+00 -0.00000000000E+00 -0.90580740448E+03  0.90580740450E+03  0.50400000000E-02 0.  1.
     200001    2    1    2    0    0  0.27671637330E+03  0.60224762177E+02 -0.60345569809E+03  0.96760645792E+03  0.70135904116E+03 0.  0.
    5000001    2    3    3    0    0  0.88604059657E+02 -0.30926543938E+02 -0.11248815371E+03  0.23634458089E+03  0.18546710135E+03 0.  0.
        -11    1    4    4    0    0  0.62813151979E+02  0.70995895500E+02 -0.30139854081E+02  0.99470196761E+02  0.51100000000E-03 0. -1.
     200002    1    4    4    0    0  0.25790907679E+02 -0.10192243944E+03 -0.82348299625E+02  0.13687438413E+03  0.30000000000E+02 0. -1.
     200000    1    3    3    0    0  0.18811231364E+03  0.91151306116E+02 -0.49096754439E+03  0.73126187703E+03  0.50000000000E+03 0.  1.
    -200001    1    1    2    0    0 -0.27671637330E+03 -0.60224762177E+02  0.10649090501E+04  0.13054617031E+04  0.70000000000E+03 0. -1.
<mgrwt>
<rscale>  0 0.22257358E+04</rscale>
<asrwt>0</asrwt>
<pdfrwt beam="1">  1        1 0.12940106E+00 0.22257358E+04</pdfrwt>
<pdfrwt beam="2">  1       -1 0.19532296E+00 0.22257358E+04</pdfrwt>
<totfact> 0.30221142E+00</totfact>
</mgrwt>
</event>
<event>
 8    1  0.2354930E-010  0.1786910E+04  0.7818608E-02  0.8713291E-01
         -1   -1    0    0    0  501 -0.00000000000E+00  0.00000000000E+00  0.14245651043E+04  0.14245651043E+04  0.50400000000E-02 0. -1.
          1   -1    0    0  501    0  0.00000000000E+00 -0.00000000000E+00 -0.56035504571E+03  0.56035504573E+03  0.50400000000E-02 0.  1.
     200001    2    1    2    0    0 -0.14119493696E+03  0.16242557755E+03  0.10004439052E+04  0.12400189892E+04  0.70031493474E+03 0.  0.
    5000001    2    3    3    0    0 -0.37637014359E+02  0.71038737930E+02  0.19993249245E+03  0.28613518097E+03  0.18824795647E+03 0.  0.
        -11    1    4    4    0    0  0.54193054469E+02 -0.14706757231E+02  0.10926149449E+02  0.57206263669E+02  0.51100000000E-03 0. -1.
     200002    1    4    4    0    0 -0.91830068829E+02  0.85745495161E+02  0.18900634300E+03  0.22892891730E+03  0.30000000000E+02 0. -1.
     200000    1    3    3    0    0 -0.10355792260E+03  0.91386839623E+02  0.80051141272E+03  0.95388380828E+03  0.50000000000E+03 0. -1.
    -200001    1    1    2    0    0  0.14119493696E+03 -0.16242557755E+03 -0.13623384654E+03  0.74490116083E+03  0.70000000000E+03 0.  1.
<mgrwt>
<rscale>  0 0.17869105E+04</rscale>
<asrwt>0</asrwt>
<pdfrwt beam="1">  1        1 0.80050722E-01 0.17869105E+04</pdfrwt>
<pdfrwt beam="2">  1       -1 0.20350930E+00 0.17869105E+04</pdfrwt>
<totfact> 0.56573152E+00</totfact>
</mgrwt>
</event>
<event>
 8    1  0.2354930E-010  0.1737433E+04  0.7818608E-02  0.8740298E-01
          1   -1    0    0  501    0  0.00000000000E+00  0.00000000000E+00  0.19747180355E+04  0.19747180355E+04  0.50400000000E-02 0.  1.
         -1   -1    0    0    0  501 -0.00000000000E+00 -0.00000000000E+00 -0.38216524480E+03  0.38216524483E+03  0.50400000000E-02 0. -1.
     200001    2    1    2    0    0 -0.16063514471E+02 -0.15166947508E+02  0.99549397797E+02  0.70777830975E+03  0.70039416071E+03 0.  0.
    5000001    2    3    3    0    0 -0.28604593884E+02  0.25235985485E+02  0.34059807624E+02  0.20173625409E+03  0.19514704191E+03 0.  0.
        -11    1    4    4    0    0 -0.31924924184E+02 -0.56698229087E+02 -0.48821118078E+02  0.81347351133E+02  0.51100000000E-03 0. -1.
     200002    1    4    4    0    0  0.33203302996E+01  0.81934214572E+02  0.82880925702E+02  0.12038890296E+03  0.30000000000E+02 0. -1.
     200000    1    3    3    0    0  0.12541079413E+02 -0.40402932994E+02  0.65489590173E+02  0.50604205565E+03  0.50000000000E+03 0. -1.
    -200001    1    1    2    0    0  0.16063514471E+02  0.15166947508E+02  0.14930033929E+04  0.16491049705E+04  0.70000000000E+03 0.  1.
<mgrwt>
<rscale>  0 0.17374333E+04</rscale>
<asrwt>0</asrwt>
<pdfrwt beam="1">  1        1 0.28210258E+00 0.17374333E+04</pdfrwt>
<pdfrwt beam="2">  1       -1 0.54595035E-01 0.17374333E+04</pdfrwt>
<totfact> 0.12459584E+01</totfact>
</mgrwt>
</event>
<event>
 8    1  0.2354930E-010  0.1534688E+04  0.7818608E-02  0.8861708E-01
          1   -1    0    0  501    0  0.00000000000E+00  0.00000000000E+00  0.10946536479E+04  0.10946536479E+04  0.50400000000E-02 0.  1.
         -1   -1    0    0    0  501 -0.00000000000E+00 -0.00000000000E+00 -0.53790249570E+03  0.53790249572E+03  0.50400000000E-02 0. -1.
     200001    2    1    2    0    0  0.25763813184E+02  0.30984071948E+03  0.32694318943E+03  0.83288324473E+03  0.70009828219E+03 0.  0.
    5000001    2    3    3    0    0  0.45808323582E+02  0.77242674014E+02  0.17301883746E+02  0.20012628401E+03  0.17800657621E+03 0.  0.
        -11    1    4    4    0    0  0.84900840349E+02  0.14739108679E+02  0.64459811218E+02  0.10761255168E+03  0.51100000000E-03 0. -1.
     200002    1    4    4    0    0 -0.39092516767E+02  0.62503565335E+02 -0.47157927472E+02  0.92513732333E+02  0.30000000000E+02 0. -1.
     200000    1    3    3    0    0 -0.20044510397E+02  0.23259804546E+03  0.30964130568E+03  0.63275696072E+03  0.50000000000E+03 0.  1.
    -200001    1    1    2    0    0 -0.25763813184E+02 -0.30984071948E+03  0.22980796280E+03  0.79967289893E+03  0.70000000000E+03 0. -1.
<mgrwt>
<rscale>  0 0.15346881E+04</rscale>
<asrwt>0</asrwt>
<pdfrwt beam="1">  1        1 0.15637909E+00 0.15346881E+04</pdfrwt>
<pdfrwt beam="2">  1       -1 0.76843215E-01 0.15346881E+04</pdfrwt>
<totfact> 0.24141122E+01</totfact>
</mgrwt>
</event>
<event>
 8    1  0.2354930E-010  0.1923893E+04  0.7818608E-02  0.8643054E-01
         -1   -1    0    0    0  501 -0.00000000000E+00  0.00000000000E+00  0.42432967450E+03  0.42432967453E+03  0.50400000000E-02 0. -1.
          1   -1    0    0  501    0  0.00000000000E+00 -0.00000000000E+00 -0.21807133338E+04  0.21807133338E+04  0.50400000000E-02 0.  1.
     200001    2    1    2    0    0 -0.28195238888E+03  0.24205425018E+03 -0.16169277716E+04  0.18003471936E+04  0.69907595394E+03 0.  0.
    5000001    2    3    3    0    0 -0.27552940078E+02  0.95242559459E+02 -0.17391289823E+03  0.24517367377E+03  0.14154195314E+03 0.  0.
        -11    1    4    4    0    0  0.28869450515E+02 -0.22234554926E+02 -0.21102122291E+02  0.42108433493E+02  0.51100000000E-03 0. -1.
     200002    1    4    4    0    0 -0.56422390593E+02  0.11747711439E+03 -0.15281077594E+03  0.20306524027E+03  0.30000000000E+02 0. -1.
     200000    1    3    3    0    0 -0.25439944880E+03  0.14681169072E+03 -0.14430148733E+04  0.15551735198E+04  0.50000000000E+03 0.  1.
    -200001    1    1    2    0    0  0.28195238888E+03 -0.24205425018E+03 -0.13945588773E+03  0.80469581473E+03  0.70000000000E+03 0. -1.
<mgrwt>
<rscale>  0 0.19238933E+04</rscale>
<asrwt>0</asrwt>
<pdfrwt beam="1">  1        1 0.31153047E+00 0.19238933E+04</pdfrwt>
<pdfrwt beam="2">  1       -1 0.60618526E-01 0.19238933E+04</pdfrwt>
<totfact> 0.74097357E+00</totfact>
</mgrwt>
</event>
<event>
 8    1  0.2354930E-010  0.1413534E+04  0.7818608E-02  0.8944080E-01
         -1   -1    0    0    0  501 -0.00000000000E+00  0.00000000000E+00  0.39158733889E+03  0.39158733893E+03  0.50400000000E-02 0. -1.
          1   -1    0    0  501    0  0.00000000000E+00 -0.00000000000E+00 -0.12756276334E+04  0.12756276334E+04  0.50400000000E-02 0.  1.
     200001    2    1    2    0    0  0.83245964639E+02 -0.27263045623E+02 -0.42786863693E+03  0.82711632010E+03  0.70240776778E+03 0.  0.
    5000001    2    3    3    0    0 -0.26860440106E+02 -0.18105623442E+02 -0.11638641354E+03  0.22775961977E+03  0.19307861171E+03 0.  0.
        -11    1    4    4    0    0 -0.62495451213E+02 -0.35558691763E+02  0.26368667348E+02  0.76585955633E+02  0.51100000000E-03 0. -1.
     200002    1    4    4    0    0  0.35635011106E+02  0.17453068321E+02 -0.14275508089E+03  0.15117366414E+03  0.30000000000E+02 0. -1.
     200000    1    3    3    0    0  0.11010640475E+03 -0.91574221808E+01 -0.31148222339E+03  0.59935670033E+03  0.50000000000E+03 0.  1.
    -200001    1    1    2    0    0 -0.83245964639E+02  0.27263045623E+02 -0.45617165755E+03  0.84009865221E+03  0.70000000000E+03 0.  1.
<mgrwt>
<rscale>  0 0.14135341E+04</rscale>
<asrwt>0</asrwt>
<pdfrwt beam="1">  1        1 0.18223252E+00 0.14135341E+04</pdfrwt>
<pdfrwt beam="2">  1       -1 0.55941049E-01 0.14135341E+04</pdfrwt>
<totfact> 0.34593616E+01</totfact>
</mgrwt>
</event>
<event>
 8    1  0.2354930E-010  0.1586998E+04  0.7818608E-02  0.8828576E-01
         -1   -1    0    0    0  501 -0.00000000000E+00  0.00000000000E+00  0.69220064063E+03  0.69220064065E+03  0.50400000000E-02 0. -1.
          1   -1    0    0  501    0  0.00000000000E+00 -0.00000000000E+00 -0.90962149034E+03  0.90962149036E+03  0.50400000000E-02 0.  1.
     200001    2    1    2    0    0 -0.31155511570E+03 -0.76710699373E+01 -0.31723312553E+03  0.82910748391E+03  0.69975490603E+03 0.  0.
    5000001    2    3    3    0    0  0.10472560328E+02  0.29337130428E+02 -0.57994278067E+02  0.17927965206E+03  0.16675585630E+03 0.  0.
        -11    1    4    4    0    0  0.68171649704E+02 -0.42670846560E+01 -0.77717492454E+02  0.10346782335E+03  0.51100000000E-03 0. -1.
     200002    1    4    4    0    0 -0.57699089376E+02  0.33604215084E+02  0.19723214387E+02  0.75811828708E+02  0.30000000000E+02 0. -1.
     200000    1    3    3    0    0 -0.32202767603E+03 -0.37008200366E+02 -0.25923884746E+03  0.64982783186E+03  0.50000000000E+03 0. -1.
    -200001    1    1    2    0    0  0.31155511570E+03  0.76710699373E+01  0.99812275820E+02  0.77271464710E+03  0.70000000000E+03 0.  1.
<mgrwt>
<rscale>  0 0.15869979E+04</rscale>
<asrwt>0</asrwt>
<pdfrwt beam="1">  1        1 0.12994593E+00 0.15869979E+04</pdfrwt>
<pdfrwt beam="2">  1       -1 0.98885806E-01 0.15869979E+04</pdfrwt>
<totfact> 0.19070617E+01</totfact>
</mgrwt>
</event>
<event>
 8    1  0.2354930E-010  0.1884823E+04  0.7818608E-02  0.8662448E-01
          1   -1    0    0  501    0  0.00000000000E+00  0.00000000000E+00  0.13926004591E+04  0.13926004591E+04  0.50400000000E-02 0.  1.
         -1   -1    0    0    0  501 -0.00000000000E+00 -0.00000000000E+00 -0.63775630834E+03  0.63775630836E+03  0.50400000000E-02 0. -1.
     200001    2    1    2    0    0  0.39530266499E+03  0.27675020482E+02  0.89916828848E+03  0.12131300178E+04  0.71144270700E+03 0.  0.
    5000001    2    3    3    0    0  0.12486897076E+03  0.12041367598E+03  0.28701534047E+03  0.37261465627E+03  0.16239508360E+03 0.  0.
        -11    1    4    4    0    0  0.51459173840E+02  0.14551408667E+03  0.18142901857E+03  0.23819925434E+03  0.51100000000E-03 0. -1.
     200002    1    4    4    0    0  0.73409796919E+02 -0.25100410688E+02  0.10558632190E+03  0.13441540192E+03  0.30000000000E+02 0. -1.
     200000    1    3    3    0    0  0.27043369423E+03 -0.92738655503E+02  0.61215294801E+03  0.84051536153E+03  0.50000000000E+03 0.  1.
    -200001    1    1    2    0    0 -0.39530266499E+03 -0.27675020482E+02 -0.14432413770E+03  0.81722674970E+03  0.70000000000E+03 0. -1.
<mgrwt>
<rscale>  0 0.18848233E+04</rscale>
<asrwt>0</asrwt>
<pdfrwt beam="1">  1        1 0.19894292E+00 0.18848233E+04</pdfrwt>
<pdfrwt beam="2">  1       -1 0.91108045E-01 0.18848233E+04</pdfrwt>
<totfact> 0.10115925E+01</totfact>
</mgrwt>
</event>
<event>
 8    1  0.2354930E-010  0.1865656E+04  0.7818608E-02  0.8672143E-01
         -1   -1    0    0    0  501 -0.00000000000E+00  0.00000000000E+00  0.77199108361E+03  0.77199108363E+03  0.50400000000E-02 0. -1.
          1   -1    0    0  501    0  0.00000000000E+00 -0.00000000000E+00 -0.11271733401E+04  0.11271733401E+04  0.50400000000E-02 0.  1.
     200001    2    1    2    0    0  0.44430784296E+03 -0.15976526031E+03  0.22617968456E+03  0.87402243150E+03  0.69987396247E+03 0.  0.
    5000001    2    3    3    0    0  0.92610321567E+02 -0.83150392405E+02 -0.74916561550E+02  0.18829658689E+03  0.11980172796E+03 0.  0.
        -11    1    4    4    0    0 -0.15096416621E+02 -0.14582882233E+02 -0.50766372227E+02  0.54934386302E+02  0.51100000000E-03 0. -1.
     200002    1    4    4    0    0  0.10770673819E+03 -0.68567510172E+02 -0.24150189323E+02  0.13336220059E+03  0.30000000000E+02 0. -1.
     200000    1    3    3    0    0  0.35169752139E+03 -0.76614867906E+02  0.30109624611E+03  0.68572584461E+03  0.50000000000E+03 0. -1.
    -200001    1    1    2    0    0 -0.44430784296E+03  0.15976526031E+03 -0.58136194101E+03  0.10251419922E+04  0.70000000000E+03 0. -1.
<mgrwt>
<rscale>  0 0.18656557E+04</rscale>
<asrwt>0</asrwt>
<pdfrwt beam="1">  1        1 0.16102476E+00 0.18656557E+04</pdfrwt>
<pdfrwt beam="2">  1       -1 0.11028444E+00 0.18656557E+04</pdfrwt>
<totfact> 0.99501541E+00</totfact>
</mgrwt>
</event>
<event>
 8    1  0.2354930E-010  0.1802842E+04  0.7818608E-02  0.8704790E-01
          1   -1    0    0  501    0  0.00000000000E+00  0.00000000000E+00  0.18168713586E+04  0.18168713586E+04  0.50400000000E-02 0.  1.
         -1   -1    0    0    0  501 -0.00000000000E+00 -0.00000000000E+00 -0.44723027050E+03  0.44723027053E+03  0.50400000000E-02 0. -1.
     200001    2    1    2    0    0  0.28971191198E+03  0.48759499225E+03  0.64623743156E+03  0.11086819137E+04  0.69990777927E+03 0.  0.
    5000001    2    3    3    0    0  0.34358677553E+02  0.67181710789E+02  0.22186401829E+03  0.28889816453E+03  0.16895148970E+03 0.  0.
        -11    1    4    4    0    0  0.84097292874E+02  0.83647058772E+02  0.10993619781E+03  0.16172554746E+03  0.51100000000E-03 0. -1.
     200002    1    4    4    0    0 -0.49738615321E+02 -0.16465347983E+02  0.11192782048E+03  0.12717261708E+03  0.30000000000E+02 0. -1.
     200000    1    3    3    0    0  0.25535323442E+03  0.42041328146E+03  0.42437341328E+03  0.81978374920E+03  0.50000000000E+03 0. -1.
    -200001    1    1    2    0    0 -0.28971191198E+03 -0.48759499225E+03  0.72340365650E+03  0.11554197154E+04  0.70000000000E+03 0. -1.
<mgrwt>
<rscale>  0 0.18028421E+04</rscale>
<asrwt>0</asrwt>
<pdfrwt beam="1">  1        1 0.25955305E+00 0.18028421E+04</pdfrwt>
<pdfrwt beam="2">  1       -1 0.63890039E-01 0.18028421E+04</pdfrwt>
<totfact> 0.11433887E+01</totfact>
</mgrwt>
</event>
<event>
 8    1  0.2354930E-010  0.1970040E+04  0.7818608E-02  0.8620758E-01
         -1   -1    0    0    0  501 -0.00000000000E+00  0.00000000000E+00  0.44984779654E+03  0.44984779657E+03  0.50400000000E-02 0. -1.
          1   -1    0    0  501    0  0.00000000000E+00 -0.00000000000E+00 -0.21568720225E+04  0.21568720225E+04  0.50400000000E-02 0.  1.
     200001    2    1    2    0    0  0.29729597947E+03 -0.32419934838E+03 -0.14805017760E+03  0.84209798980E+03  0.70265215607E+03 0.  0.
    5000001    2    3    3    0    0  0.95637526636E+02 -0.14541165257E+02 -0.15063196917E+03  0.22035770027E+03  0.12848947017E+03 0.  0.
        -11    1    4    4    0    0  0.42762764178E+02  0.83684858022E+01  0.12028306354E+02  0.45203602829E+02  0.51100000000E-03 0. -1.
     200002    1    4    4    0    0  0.52874762459E+02 -0.22909651059E+02 -0.16266027552E+03  0.17515409744E+03  0.30000000000E+02 0. -1.
     200000    1    3    3    0    0  0.20165845283E+03 -0.30965818313E+03  0.25817915647E+01  0.62174028953E+03  0.50000000000E+03 0. -1.
    -200001    1    1    2    0    0 -0.29729597947E+03  0.32419934838E+03 -0.15589740484E+04  0.17646218293E+04  0.70000000000E+03 0. -1.
<mgrwt>
<rscale>  0 0.19700397E+04</rscale>
<asrwt>0</asrwt>
<pdfrwt beam="1">  1        1 0.30812457E+00 0.19700397E+04</pdfrwt>
<pdfrwt beam="2">  1       -1 0.64263972E-01 0.19700397E+04</pdfrwt>
<totfact> 0.67991446E+00</totfact>
</mgrwt>
</event>
<event>
 8    1  0.2354930E-010  0.1516646E+04  0.7818608E-02  0.8873458E-01
          1   -1    0    0  501    0  0.00000000000E+00  0.00000000000E+00  0.37853973290E+03  0.37853973294E+03  0.50400000000E-02 0.  1.
         -1   -1    0    0    0  501 -0.00000000000E+00 -0.00000000000E+00 -0.15191379258E+04  0.15191379258E+04  0.50400000000E-02 0. -1.
     200001    2    1    2    0    0 -0.12657858603E+03 -0.14694100851E+03 -0.29755742544E+03  0.78487420169E+03  0.69990948888E+03 0.  0.
    5000001    2    3    3    0    0 -0.33806982122E+02 -0.10157262039E+03 -0.10100857455E+03  0.23779439772E+03  0.18677134202E+03 0.  0.
        -11    1    4    4    0    0 -0.45837722932E+01 -0.71205366475E+02 -0.15027642617E+03  0.16635570158E+03  0.51100000000E-03 0. -1.
     200002    1    4    4    0    0 -0.29223209829E+02 -0.30367253915E+02  0.49267851620E+02  0.71438696141E+02  0.30000000000E+02 0. -1.
     200000    1    3    3    0    0 -0.92771603907E+02 -0.45368388119E+02 -0.19654885089E+03  0.54707980398E+03  0.50000000000E+03 0.  1.
    -200001    1    1    2    0    0  0.12657858603E+03  0.14694100851E+03 -0.84304076742E+03  0.11128034570E+04  0.70000000000E+03 0. -1.
<mgrwt>
<rscale>  0 0.15166464E+04</rscale>
<asrwt>0</asrwt>
<pdfrwt beam="1">  1        1 0.54077105E-01 0.15166464E+04</pdfrwt>
<pdfrwt beam="2">  1       -1 0.21701970E+00 0.15166464E+04</pdfrwt>
<totfact> 0.79437108E+00</totfact>
</mgrwt>
</event>
<event>
 8    1  0.2354930E-010  0.2032950E+04  0.7818608E-02  0.8591368E-01
          1   -1    0    0  501    0  0.00000000000E+00  0.00000000000E+00  0.27750944651E+04  0.27750944652E+04  0.50400000000E-02 0. -1.
         -1   -1    0    0    0  501 -0.00000000000E+00 -0.00000000000E+00 -0.37231947445E+03  0.37231947448E+03  0.50400000000E-02 0.  1.
     200001    2    1    2    0    0 -0.15056792740E+03  0.11454741263E+03  0.23042320852E+04  0.24156335663E+04  0.70000586711E+03 0.  0.
    5000001    2    3    3    0    0  0.48262721980E+01  0.71673682136E+02  0.30995727855E+03  0.35332478287E+03  0.15363748909E+03 0.  0.
        -11    1    4    4    0    0 -0.60594340017E+02 -0.74865735097E+01  0.13640675822E+03  0.14944740384E+03  0.51100000000E-03 0. -1.
     200002    1    4    4    0    0  0.65420612215E+02  0.79160255646E+02  0.17355052033E+03  0.20387737904E+03  0.30000000000E+02 0. -1.
     200000    1    3    3    0    0 -0.15539419960E+03  0.42873730493E+02  0.19942748066E+04  0.20623087835E+04  0.50000000000E+03 0. -1.
    -200001    1    1    2    0    0  0.15056792740E+03 -0.11454741263E+03  0.98542905527E+02  0.73178037329E+03  0.70000000000E+03 0.  1.
<mgrwt>
<rscale>  0 0.20329503E+04</rscale>
<asrwt>0</asrwt>
<pdfrwt beam="1">  1        1 0.39644208E+00 0.20329503E+04</pdfrwt>
<pdfrwt beam="2">  1       -1 0.53188494E-01 0.20329503E+04</pdfrwt>
<totfact> 0.39647392E+00</totfact>
</mgrwt>
</event>
<event>
 8    1  0.2354930E-010  0.1989752E+04  0.7818608E-02  0.8611427E-01
          1   -1    0    0  501    0  0.00000000000E+00  0.00000000000E+00  0.10785155444E+04  0.10785155444E+04  0.50400000000E-02 0.  1.
         -1   -1    0    0    0  501 -0.00000000000E+00 -0.00000000000E+00 -0.91772248727E+03  0.91772248728E+03  0.50400000000E-02 0. -1.
     200001    2    1    2    0    0  0.21421347440E+03 -0.77095644250E+02  0.75143995462E+03  0.10524716896E+04  0.70085911633E+03 0.  0.
    5000001    2    3    3    0    0  0.11377738811E+03 -0.19462165999E+02  0.18844352619E+03  0.29064887310E+03  0.18879018757E+03 0.  0.
        -11    1    4    4    0    0  0.79509433929E+01 -0.14009045431E+02 -0.36663112537E+02  0.40045657391E+02  0.51100000000E-03 0. -1.
     200002    1    4    4    0    0  0.10582644472E+03 -0.54531205682E+01  0.22510663872E+03  0.25060321571E+03  0.30000000000E+02 0. -1.
     200000    1    3    3    0    0  0.10043608628E+03 -0.57633478251E+02  0.56299642843E+03  0.76182281645E+03  0.50000000000E+03 0.  1.
    -200001    1    1    2    0    0 -0.21421347440E+03  0.77095644250E+02 -0.59064689751E+03  0.94376634212E+03  0.70000000000E+03 0. -1.
<mgrwt>
<rscale>  0 0.19897517E+04</rscale>
<asrwt>0</asrwt>
<pdfrwt beam="1">  1        1 0.15407365E+00 0.19897517E+04</pdfrwt>
<pdfrwt beam="2">  1       -1 0.13110321E+00 0.19897517E+04</pdfrwt>
<totfact> 0.69877362E+00</totfact>
</mgrwt>
</event>
<event>
 8    1  0.2354930E-010  0.1666105E+04  0.7818608E-02  0.8780935E-01
         -1   -1    0    0    0  501 -0.00000000000E+00  0.00000000000E+00  0.76807201503E+03  0.76807201504E+03  0.50400000000E-02 0. -1.
          1   -1    0    0  501    0  0.00000000000E+00 -0.00000000000E+00 -0.90353099153E+03  0.90353099154E+03  0.50400000000E-02 0.  1.
     200001    2    1    2    0    0 -0.16241130451E+03  0.28592421342E+03  0.24272498230E+03  0.81070046021E+03  0.70013550939E+03 0.  0.
    5000001    2    3    3    0    0  0.36920206972E+02  0.10859371557E+03  0.79678012768E+02  0.22098572306E+03  0.17126122543E+03 0.  0.
        -11    1    4    4    0    0  0.99224097631E+02  0.68579918501E+02  0.72596578779E+02  0.14077957957E+03  0.51100000000E-03 0. -1.
     200002    1    4    4    0    0 -0.62303890659E+02  0.40013797068E+02  0.70814339887E+01  0.80206143495E+02  0.30000000000E+02 0. -1.
     200000    1    3    3    0    0 -0.19933151148E+03  0.17733049785E+03  0.16304696953E+03  0.58971473715E+03  0.50000000000E+03 0. -1.
    -200001    1    1    2    0    0  0.16241130451E+03 -0.28592421342E+03 -0.37818395880E+03  0.86090254637E+03  0.70000000000E+03 0.  1.
<mgrwt>
<rscale>  0 0.16661055E+04</rscale>
<asrwt>0</asrwt>
<pdfrwt beam="1">  1        1 0.12907586E+00 0.16661055E+04</pdfrwt>
<pdfrwt beam="2">  1       -1 0.10972457E+00 0.16661055E+04</pdfrwt>
<totfact> 0.15045437E+01</totfact>
</mgrwt>
</event>
<event>
 8    1  0.2354930E-010  0.1601861E+04  0.7818608E-02  0.8819406E-01
          1   -1    0    0  501    0  0.00000000000E+00  0.00000000000E+00  0.27689429857E+04  0.27689429857E+04  0.50400000000E-02 0.  1.
         -1   -1    0    0    0  501 -0.00000000000E+00 -0.00000000000E+00 -0.23167298384E+03  0.23167298390E+03  0.50400000000E-02 0. -1.
     200001    2    1    2    0    0  0.13494186595E+03  0.33008492316E+03  0.15611913092E+04  0.17476614700E+04  0.69988352340E+03 0.  0.
    5000001    2    3    3    0    0 -0.10435349082E+02  0.18435095363E+03  0.43800844555E+03  0.50110113469E+03  0.15860888436E+03 0.  0.
        -11    1    4    4    0    0 -0.56780355589E+02  0.16292138818E+02  0.62417378749E+02  0.85938185565E+02  0.51100000000E-03 0. -1.
     200002    1    4    4    0    0  0.46345006507E+02  0.16805881481E+03  0.37559106680E+03  0.41516294912E+03  0.30000000000E+02 0. -1.
     200000    1    3    3    0    0  0.14537721503E+03  0.14573396954E+03  0.11231828636E+04  0.12465603353E+04  0.50000000000E+03 0.  1.
    -200001    1    1    2    0    0 -0.13494186595E+03 -0.33008492316E+03  0.97607869272E+03  0.12529544996E+04  0.70000000000E+03 0. -1.
<mgrwt>
<rscale>  0 0.16018605E+04</rscale>
<asrwt>0</asrwt>
<pdfrwt beam="1">  1        1 0.39556328E+00 0.16018605E+04</pdfrwt>
<pdfrwt beam="2">  1       -1 0.33096141E-01 0.16018605E+04</pdfrwt>
<totfact> 0.99829825E+00</totfact>
</mgrwt>
</event>
<event>
 8    1  0.2354930E-010  0.2167124E+04  0.7818608E-02  0.8532238E-01
         -1   -1    0    0    0  501 -0.00000000000E+00  0.00000000000E+00  0.12589430041E+04  0.12589430041E+04  0.50400000000E-02 0.  1.
          1   -1    0    0  501    0  0.00000000000E+00 -0.00000000000E+00 -0.93261311910E+03  0.93261311912E+03  0.50400000000E-02 0. -1.
     200001    2    1    2    0    0 -0.59728229827E+03  0.55336212085E+03  0.32482865104E+03  0.11177972889E+04  0.69354260573E+03 0.  0.
    5000001    2    3    3    0    0 -0.59802662096E+02  0.17318164791E+03  0.70334583003E+02  0.25281822445E+03  0.15937960811E+03 0.  0.
        -11    1    4    4    0    0 -0.33253950867E+02  0.18531511235E+03  0.87454043030E+02  0.20759510051E+03  0.51100000000E-03 0. -1.
     200002    1    4    4    0    0 -0.26548711229E+02 -0.12133464437E+02 -0.17119460027E+02  0.45223123939E+02  0.30000000000E+02 0. -1.
     200000    1    3    3    0    0 -0.53747963618E+03  0.38018047294E+03  0.25449406804E+03  0.86497906447E+03  0.50000000000E+03 0.  1.
    -200001    1    1    2    0    0  0.59728229827E+03 -0.55336212085E+03  0.15012339891E+01  0.10737588343E+04  0.70000000000E+03 0. -1.
<mgrwt>
<rscale>  0 0.21671241E+04</rscale>
<asrwt>0</asrwt>
<pdfrwt beam="1">  1        1 0.13323045E+00 0.21671241E+04</pdfrwt>
<pdfrwt beam="2">  1       -1 0.17984900E+00 0.21671241E+04</pdfrwt>
<totfact> 0.37229067E+00</totfact>
</mgrwt>
</event>
<event>
 8    1  0.2354930E-010  0.2613202E+04  0.7818608E-02  0.8363731E-01
         -1   -1    0    0    0  501 -0.00000000000E+00  0.00000000000E+00  0.99141413883E+03  0.99141413884E+03  0.50400000000E-02 0. -1.
          1   -1    0    0  501    0  0.00000000000E+00 -0.00000000000E+00 -0.17219910888E+04  0.17219910889E+04  0.50400000000E-02 0.  1.
     200001    2    1    2    0    0 -0.82456745714E+03  0.56075660001E+03  0.12434089126E+03  0.12250356596E+04  0.70063703462E+03 0.  0.
    5000001    2    3    3    0    0 -0.96630218713E+02  0.10333375453E+03  0.81669026819E+02  0.22957136058E+03  0.16130069951E+03 0.  0.
        -11    1    4    4    0    0 -0.13739389230E+03  0.74576994529E+02  0.60602476253E+02  0.16766475445E+03  0.51100000000E-03 0. -1.
     200002    1    4    4    0    0  0.40763673590E+02  0.28756759998E+02  0.21066550566E+02  0.61906606133E+02  0.30000000000E+02 0. -1.
     200000    1    3    3    0    0 -0.72793723843E+03  0.45742284548E+03  0.42671864445E+02  0.99546429905E+03  0.50000000000E+03 0. -1.
    -200001    1    1    2    0    0  0.82456745714E+03 -0.56075660001E+03 -0.85491784128E+03  0.14883695681E+04  0.70000000000E+03 0.  1.
<mgrwt>
<rscale>  0 0.26132021E+04</rscale>
<asrwt>0</asrwt>
<pdfrwt beam="1">  1        1 0.24599873E+00 0.26132021E+04</pdfrwt>
<pdfrwt beam="2">  1       -1 0.14163059E+00 0.26132021E+04</pdfrwt>
<totfact> 0.20123483E+00</totfact>
</mgrwt>
</event>
<event>
 8    1  0.2354930E-010  0.1434112E+04  0.7818608E-02  0.8929490E-01
         -1   -1    0    0    0  501 -0.00000000000E+00  0.00000000000E+00  0.61721755058E+03  0.61721755060E+03  0.50400000000E-02 0. -1.
          1   -1    0    0  501    0  0.00000000000E+00 -0.00000000000E+00 -0.83304388055E+03  0.83304388057E+03  0.50400000000E-02 0.  1.
     200001    2    1    2    0    0 -0.13343047989E+03 -0.73266702551E+02 -0.95619426084E+02  0.72388590680E+03  0.70121040262E+03 0.  0.
    5000001    2    3    3    0    0 -0.88793048775E+02 -0.11251142771E+02 -0.97642125859E+02  0.21807712749E+03  0.17324218616E+03 0.  0.
        -11    1    4    4    0    0 -0.46358209439E+02 -0.86370878376E+02 -0.24455152504E+02  0.10103002869E+03  0.51100000000E-03 0. -1.
     200002    1    4    4    0    0 -0.42434839336E+02  0.75119735605E+02 -0.73186973355E+02  0.11704709879E+03  0.30000000000E+02 0. -1.
     200000    1    3    3    0    0 -0.44637431115E+02 -0.62015559781E+02  0.20226997753E+01  0.50580877931E+03  0.50000000000E+03 0. -1.
    -200001    1    1    2    0    0  0.13343047989E+03  0.73266702551E+02 -0.12020690389E+03  0.72637552437E+03  0.70000000000E+03 0. -1.
<mgrwt>
<rscale>  0 0.14341120E+04</rscale>
<asrwt>0</asrwt>
<pdfrwt beam="1">  1        1 0.11900627E+00 0.14341120E+04</pdfrwt>
<pdfrwt beam="2">  1       -1 0.88173936E-01 0.14341120E+04</pdfrwt>
<totfact> 0.28747653E+01</totfact>
</mgrwt>
</event>
<event>
 8    1  0.2354930E-010  0.1440164E+04  0.7818608E-02  0.8925248E-01
         -1   -1    0    0    0  501 -0.00000000000E+00  0.00000000000E+00  0.23258078790E+03  0.23258078795E+03  0.50400000000E-02 0. -1.
          1   -1    0    0  501    0  0.00000000000E+00 -0.00000000000E+00 -0.22294093863E+04  0.22294093863E+04  0.50400000000E-02 0.  1.
     200001    2    1    2    0    0 -0.91592275719E+02  0.40888918317E+01 -0.75733101180E+03  0.10355399889E+04  0.70027633348E+03 0.  0.
    5000001    2    3    3    0    0 -0.92998498346E+02  0.62317994130E+02 -0.26499323668E+03  0.33141706598E+03  0.16457096661E+03 0.  0.
        -11    1    4    4    0    0  0.15633209304E+02  0.44619019074E+02 -0.18783709383E+03  0.19369570959E+03  0.51100000000E-03 0. -1.
     200002    1    4    4    0    0 -0.10863170765E+03  0.17698975056E+02 -0.77156142844E+02  0.13772135638E+03  0.30000000000E+02 0. -1.
     200000    1    3    3    0    0  0.14062226269E+01 -0.58229102299E+02 -0.49233777512E+03  0.70412292295E+03  0.50000000000E+03 0. -1.
    -200001    1    1    2    0    0  0.91592275719E+02 -0.40888918317E+01 -0.12394975866E+04  0.14264501853E+04  0.70000000000E+03 0.  1.
<mgrwt>
<rscale>  0 0.14401636E+04</rscale>
<asrwt>0</asrwt>
<pdfrwt beam="1">  1        1 0.31848704E+00 0.14401636E+04</pdfrwt>
<pdfrwt beam="2">  1       -1 0.33225828E-01 0.14401636E+04</pdfrwt>
<totfact> 0.22149987E+01</totfact>
</mgrwt>
</event>
<event>
 8    1  0.2354930E-010  0.1443051E+04  0.7818608E-02  0.8923232E-01
          1   -1    0    0  501    0  0.00000000000E+00  0.00000000000E+00  0.65719204488E+03  0.65719204490E+03  0.50400000000E-02 0.  1.
         -1   -1    0    0    0  501 -0.00000000000E+00 -0.00000000000E+00 -0.79215693045E+03  0.79215693047E+03  0.50400000000E-02 0. -1.
     200001    2    1    2    0    0  0.80620929442E+02 -0.48269252878E+02  0.80518135361E+02  0.71092999718E+03  0.70007759265E+03 0.  0.
    5000001    2    3    3    0    0 -0.58278224739E+02  0.79071198806E+01  0.79090391443E+02  0.18896180051E+03  0.16122158047E+03 0.  0.
        -11    1    4    4    0    0 -0.18317078907E+01 -0.55346531333E+02  0.82044424863E+02  0.98984247918E+02  0.51100000000E-03 0. -1.
     200002    1    4    4    0    0 -0.56446516848E+02  0.63253651214E+02 -0.29540334196E+01  0.89977552588E+02  0.30000000000E+02 0. -1.
     200000    1    3    3    0    0  0.13889915418E+03 -0.56176372759E+02  0.14277439171E+01  0.52196819668E+03  0.50000000000E+03 0.  1.
    -200001    1    1    2    0    0 -0.80620929442E+02  0.48269252878E+02 -0.21548302093E+03  0.73841897819E+03  0.70000000000E+03 0. -1.
<mgrwt>
<rscale>  0 0.14430513E+04</rscale>
<asrwt>0</asrwt>
<pdfrwt beam="1">  1        1 0.93884578E-01 0.14430513E+04</pdfrwt>
<pdfrwt beam="2">  1       -1 0.11316528E+00 0.14430513E+04</pdfrwt>
<totfact> 0.23228258E+01</totfact>
</mgrwt>
</event>
<event>
 8    1  0.2354930E-010  0.2221702E+04  0.7818608E-02  0.8509449E-01
         -1   -1    0    0    0  501 -0.00000000000E+00  0.00000000000E+00  0.62878512358E+03  0.62878512360E+03  0.50400000000E-02 0. -1.
          1   -1    0    0  501    0  0.00000000000E+00 -0.00000000000E+00 -0.19624978618E+04  0.19624978619E+04  0.50400000000E-02 0.  1.
     200001    2    1    2    0    0 -0.36429397205E+03 -0.35506074677E+03 -0.14794172644E+04  0.17137819650E+04  0.69971061834E+03 0.  0.
    5000001    2    3    3    0    0  0.39038578949E+02 -0.10360899539E+03 -0.33188148446E+03  0.37484824887E+03  0.13456245904E+03 0.  0.
        -11    1    4    4    0    0 -0.11412838503E+02 -0.62200448584E+02 -0.27786858085E+03  0.28497385303E+03  0.51100000000E-03 0. -1.
     200002    1    4    4    0    0  0.50451417452E+02 -0.41408546811E+02 -0.54012903613E+02  0.89874395846E+02  0.30000000000E+02 0. -1.
     200000    1    3    3    0    0 -0.40333255100E+03 -0.25145175138E+03 -0.11475357799E+04  0.13389337161E+04  0.50000000000E+03 0.  1.
    -200001    1    1    2    0    0  0.36429397205E+03  0.35506074677E+03  0.14570452612E+03  0.87750102046E+03  0.70000000000E+03 0. -1.
<mgrwt>
<rscale>  0 0.22217016E+04</rscale>
<asrwt>0</asrwt>
<pdfrwt beam="1">  1        1 0.28035683E+00 0.22217016E+04</pdfrwt>
<pdfrwt beam="2">  1       -1 0.89826447E-01 0.22217016E+04</pdfrwt>
<totfact> 0.43631938E+00</totfact>
</mgrwt>
</event>
<event>
 8    1  0.2354930E-010  0.1926936E+04  0.7818608E-02  0.8641563E-01
         -1   -1    0    0    0  501 -0.00000000000E+00  0.00000000000E+00  0.17933472452E+04  0.17933472452E+04  0.50400000000E-02 0.  1.
          1   -1    0    0  501    0  0.00000000000E+00 -0.00000000000E+00 -0.51761907865E+03  0.51761907867E+03  0.50400000000E-02 0. -1.
     200001    2    1    2    0    0 -0.28901042265E+03  0.44657261108E+03  0.11096578819E+04  0.14162409689E+04  0.70103048847E+03 0.  0.
    5000001    2    3    3    0    0 -0.52641503374E+02  0.12234788541E+03  0.44764841794E+03  0.49469418815E+03  0.16307391198E+03 0.  0.
        -11    1    4    4    0    0 -0.11141157828E+02  0.93522712086E+02  0.83604027542E+02  0.12593751028E+03  0.51100000000E-03 0. -1.
     200002    1    4    4    0    0 -0.41500345546E+02  0.28825173321E+02  0.36404439039E+03  0.36875667787E+03  0.30000000000E+02 0. -1.
     200000    1    3    3    0    0 -0.23636891928E+03  0.32422472567E+03  0.66200946397E+03  0.92154678076E+03  0.50000000000E+03 0.  1.
    -200001    1    1    2    0    0  0.28901042265E+03 -0.44657261108E+03  0.16607028463E+03  0.89472535496E+03  0.70000000000E+03 0. -1.
<mgrwt>
<rscale>  0 0.19269362E+04</rscale>
<asrwt>0</asrwt>
<pdfrwt beam="1">  1        1 0.73945582E-01 0.19269362E+04</pdfrwt>
<pdfrwt beam="2">  1       -1 0.25619247E+00 0.19269362E+04</pdfrwt>
<totfact> 0.27854259E+00</totfact>
</mgrwt>
</event>
<event>
 8    1  0.2354930E-010  0.1671984E+04  0.7818608E-02  0.8777506E-01
         -1   -1    0    0    0  501 -0.00000000000E+00  0.00000000000E+00  0.13386334694E+03  0.13386334704E+03  0.50400000000E-02 0. -1.
          1   -1    0    0  501    0  0.00000000000E+00 -0.00000000000E+00 -0.52208688434E+04  0.52208688434E+04  0.50400000000E-02 0.  1.
     200001    2    1    2    0    0  0.35856979285E+03  0.24401911395E+03 -0.30047727907E+04  0.31155781839E+04  0.70003590740E+03 0.  0.
    5000001    2    3    3    0    0  0.42106466464E+02  0.77206564646E+02 -0.97132478006E+03  0.99122268735E+03  0.17696547520E+03 0.  0.
        -11    1    4    4    0    0  0.76644138615E+02  0.11071693892E+03 -0.78478451472E+03  0.79625328827E+03  0.51100000000E-03 0. -1.
     200002    1    4    4    0    0 -0.34537672151E+02 -0.33510374270E+02 -0.18654026535E+03  0.19496939908E+03  0.30000000000E+02 0. -1.
     200000    1    3    3    0    0  0.31646332638E+03  0.16681254931E+03 -0.20334480106E+04  0.21243554965E+04  0.50000000000E+03 0.  1.
    -200001    1    1    2    0    0 -0.35856979285E+03 -0.24401911395E+03 -0.20822327058E+04  0.22391540066E+04  0.70000000000E+03 0.  1.
<mgrwt>
<rscale>  0 0.16719844E+04</rscale>
<asrwt>0</asrwt>
<pdfrwt beam="1">  1        1 0.74583828E+00 0.16719844E+04</pdfrwt>
<pdfrwt beam="2">  1       -1 0.19123339E-01 0.16719844E+04</pdfrwt>
<totfact> 0.28928379E-01</totfact>
</mgrwt>
</event>
<event>
 8    1  0.2354930E-010  0.1677216E+04  0.7818608E-02  0.8774466E-01
          1   -1    0    0  501    0  0.00000000000E+00  0.00000000000E+00  0.28716279439E+04  0.28716279439E+04  0.50400000000E-02 0.  1.
         -1   -1    0    0    0  501 -0.00000000000E+00 -0.00000000000E+00 -0.24490072390E+03  0.24490072395E+03  0.50400000000E-02 0. -1.
     200001    2    1    2    0    0  0.12500417007E+03  0.28307613386E+03  0.67137647077E+03  0.10167299412E+04  0.69802239767E+03 0.  0.
    5000001    2    3    3    0    0  0.33972453660E+02  0.10691767426E+03  0.31756492950E+03  0.37291227829E+03  0.16009549080E+03 0.  0.
        -11    1    4    4    0    0  0.85819667458E+01  0.11032087293E+03  0.31443688227E+03  0.33333901375E+03  0.51100000000E-03 0. -1.
     200002    1    4    4    0    0  0.25390486914E+02 -0.34031986751E+01  0.31280472343E+01  0.39573264541E+02  0.30000000000E+02 0. -1.
     200000    1    3    3    0    0  0.91031716406E+02  0.17615845960E+03  0.35381154127E+03  0.64381766286E+03  0.50000000000E+03 0. -1.
    -200001    1    1    2    0    0 -0.12500417007E+03 -0.28307613386E+03  0.19553507492E+04  0.20997987267E+04  0.70000000000E+03 0. -1.
<mgrwt>
<rscale>  0 0.16772165E+04</rscale>
<asrwt>0</asrwt>
<pdfrwt beam="1">  1        1 0.41023256E+00 0.16772165E+04</pdfrwt>
<pdfrwt beam="2">  1       -1 0.34985818E-01 0.16772165E+04</pdfrwt>
<totfact> 0.77035918E+00</totfact>
</mgrwt>
</event>
<event>
 8    1  0.2354930E-010  0.1466001E+04  0.7818608E-02  0.8907382E-01
         -1   -1    0    0    0  501 -0.00000000000E+00  0.00000000000E+00  0.36200348135E+03  0.36200348138E+03  0.50400000000E-02 0.  1.
          1   -1    0    0  501    0  0.00000000000E+00 -0.00000000000E+00 -0.14842113445E+04  0.14842113445E+04  0.50400000000E-02 0. -1.
     200001    2    1    2    0    0  0.17254140524E+03 -0.22997336460E+02 -0.40618001481E+03  0.82985106540E+03  0.70240385271E+03 0.  0.
    5000001    2    3    3    0    0  0.89037455566E+02 -0.53993242951E+02 -0.11696157563E+03  0.24540178497E+03  0.18894202051E+03 0.  0.
        -11    1    4    4    0    0  0.94044449083E+02 -0.10624541779E+03 -0.39781129331E+02  0.14736005380E+03  0.51100000000E-03 0. -1.
     200002    1    4    4    0    0 -0.50069935163E+01  0.52252174842E+02 -0.77180446297E+02  0.98041731168E+02  0.30000000000E+02 0. -1.
     200000    1    3    3    0    0  0.83503949678E+02  0.30995906491E+02 -0.28921843918E+03  0.58444928043E+03  0.50000000000E+03 0.  1.
    -200001    1    1    2    0    0 -0.17254140524E+03  0.22997336460E+02 -0.71602784830E+03  0.10163637604E+04  0.70000000000E+03 0. -1.
<mgrwt>
<rscale>  0 0.14660009E+04</rscale>
<asrwt>0</asrwt>
<pdfrwt beam="1">  1        1 0.21203019E+00 0.14660009E+04</pdfrwt>
<pdfrwt beam="2">  1       -1 0.51714784E-01 0.14660009E+04</pdfrwt>
<totfact> 0.29100881E+01</totfact>
</mgrwt>
</event>
<event>
 8    1  0.2354930E-010  0.1740018E+04  0.7818608E-02  0.8738864E-01
          1   -1    0    0  501    0  0.00000000000E+00  0.00000000000E+00  0.25730256385E+04  0.25730256385E+04  0.50400000000E-02 0.  1.
         -1   -1    0    0    0  501 -0.00000000000E+00 -0.00000000000E+00 -0.29417339798E+03  0.29417339802E+03  0.50400000000E-02 0. -1.
     200001    2    1    2    0    0  0.23495831991E+02  0.23242705059E+03  0.18993032946E+04  0.20373606244E+04  0.69922165359E+03 0.  0.
    5000001    2    3    3    0    0 -0.56324049518E+02  0.18960509001E+02  0.16827347953E+03  0.22120991516E+03  0.13071328623E+03 0.  0.
        -11    1    4    4    0    0  0.77798677453E+01 -0.26916544652E+02 -0.50348380595E+01  0.28467109314E+02  0.51100000000E-03 0. -1.
     200002    1    4    4    0    0 -0.64103917264E+02  0.45877053653E+02  0.17330831759E+03  0.19274280585E+03  0.30000000000E+02 0. -1.
     200000    1    3    3    0    0  0.79819881509E+02  0.21346654159E+03  0.17310298151E+04  0.18161507092E+04  0.50000000000E+03 0.  1.
    -200001    1    1    2    0    0 -0.23495831991E+02 -0.23242705059E+03  0.37954894592E+03  0.82983841217E+03  0.70000000000E+03 0. -1.
<mgrwt>
<rscale>  0 0.17400180E+04</rscale>
<asrwt>0</asrwt>
<pdfrwt beam="1">  1        1 0.36757511E+00 0.17400180E+04</pdfrwt>
<pdfrwt beam="2">  1       -1 0.42024769E-01 0.17400180E+04</pdfrwt>
<totfact> 0.85515778E+00</totfact>
</mgrwt>
</event>
<event>
 8    1  0.2354930E-010  0.1754034E+04  0.7818608E-02  0.8731133E-01
         -1   -1    0    0    0  501 -0.00000000000E+00  0.00000000000E+00  0.26824105632E+03  0.26824105637E+03  0.50400000000E-02 0. -1.
          1   -1    0    0  501    0  0.00000000000E+00 -0.00000000000E+00 -0.28674166830E+04  0.28674166830E+04  0.50400000000E-02 0.  1.
     200001    2    1    2    0    0 -0.32504194008E+03 -0.52309288251E+02 -0.20380084274E+04  0.21799919243E+04  0.70035556378E+03 0.  0.
    5000001    2    3    3    0    0 -0.21819794683E+03 -0.20269033427E+02 -0.55246099783E+03  0.60859338093E+03  0.13096400832E+03 0.  0.
        -11    1    4    4    0    0 -0.54514485012E+02 -0.49737870468E+02 -0.26551124638E+03  0.27557559179E+03  0.51100000000E-03 0. -1.
     200002    1    4    4    0    0 -0.16368346181E+03  0.29468837040E+02 -0.28694975144E+03  0.33301778914E+03  0.30000000000E+02 0. -1.
     200000    1    3    3    0    0 -0.10684399325E+03 -0.32040254824E+02 -0.14855474295E+04  0.15713985434E+04  0.50000000000E+03 0.  1.
    -200001    1    1    2    0    0  0.32504194008E+03  0.52309288251E+02 -0.56116719931E+03  0.95566581504E+03  0.70000000000E+03 0. -1.
<mgrwt>
<rscale>  0 0.17540341E+04</rscale>
<asrwt>0</asrwt>
<pdfrwt beam="1">  1        1 0.40963094E+00 0.17540341E+04</pdfrwt>
<pdfrwt beam="2">  1       -1 0.38320153E-01 0.17540341E+04</pdfrwt>
<totfact> 0.65332503E+00</totfact>
</mgrwt>
</event>
<event>
 8    1  0.2354930E-010  0.1817215E+04  0.7818608E-02  0.8697198E-01
         -1   -1    0    0    0  501 -0.00000000000E+00  0.00000000000E+00  0.98704251477E+03  0.98704251479E+03  0.50400000000E-02 0. -1.
          1   -1    0    0  501    0  0.00000000000E+00 -0.00000000000E+00 -0.83640515874E+03  0.83640515875E+03  0.50400000000E-02 0.  1.
     200001    2    1    2    0    0 -0.34570117122E+03 -0.25254718805E+03  0.46673980224E+03  0.94412399111E+03  0.70016761252E+03 0.  0.
    5000001    2    3    3    0    0 -0.89386333355E+02 -0.22159547131E+02  0.87301019510E+02  0.22805866516E+03  0.18949491979E+03 0.  0.
        -11    1    4    4    0    0  0.19742250686E+02  0.58593753241E+02  0.60422426078E+02  0.86451454322E+02  0.51100000000E-03 0. -1.
     200002    1    4    4    0    0 -0.10912858404E+03 -0.80753300372E+02  0.26878593433E+02  0.14160721084E+03  0.30000000000E+02 0. -1.
     200000    1    3    3    0    0 -0.25631483787E+03 -0.23038764092E+03  0.37943878273E+03  0.71606532596E+03  0.50000000000E+03 0. -1.
    -200001    1    1    2    0    0  0.34570117122E+03  0.25254718805E+03 -0.31610244620E+03  0.87932368242E+03  0.70000000000E+03 0.  1.
<mgrwt>
<rscale>  0 0.18172148E+04</rscale>
<asrwt>0</asrwt>
<pdfrwt beam="1">  1        1 0.11948645E+00 0.18172148E+04</pdfrwt>
<pdfrwt beam="2">  1       -1 0.14100607E+00 0.18172148E+04</pdfrwt>
<totfact> 0.90207961E+00</totfact>
</mgrwt>
</event>
<event>
 8    1  0.2354930E-010  0.1582619E+04  0.7818608E-02  0.8831298E-01
          1   -1    0    0  501    0  0.00000000000E+00  0.00000000000E+00  0.29007373809E+04  0.29007373810E+04  0.50400000000E-02 0.  1.
         -1   -1    0    0    0  501 -0.00000000000E+00 -0.00000000000E+00 -0.21586603976E+03  0.21586603982E+03  0.50400000000E-02 0. -1.
     200001    2    1    2    0    0 -0.16195064367E+03  0.24267402897E+03  0.17881384045E+04  0.19421892455E+04  0.69967236363E+03 0.  0.
    5000001    2    3    3    0    0 -0.93057874992E+02  0.28848977879E+02  0.41242324190E+03  0.46129101314E+03  0.18222084601E+03 0.  0.
        -11    1    4    4    0    0 -0.12783792672E+03 -0.30293826251E+02  0.24922794961E+03  0.28173537635E+03  0.51100000000E-03 0. -1.
     200002    1    4    4    0    0  0.34780051729E+02  0.59142804130E+02  0.16319529229E+03  0.17955563679E+03  0.30000000000E+02 0. -1.
     200000    1    3    3    0    0 -0.68892768675E+02  0.21382505109E+03  0.13757151626E+04  0.14808982324E+04  0.50000000000E+03 0.  1.
    -200001    1    1    2    0    0  0.16195064367E+03 -0.24267402897E+03  0.89673293671E+03  0.11744141753E+04  0.70000000000E+03 0. -1.
<mgrwt>
<rscale>  0 0.15826190E+04</rscale>
<asrwt>0</asrwt>
<pdfrwt beam="1">  1        1 0.41439103E+00 0.15826190E+04</pdfrwt>
<pdfrwt beam="2">  1       -1 0.30838007E-01 0.15826190E+04</pdfrwt>
<totfact> 0.93053292E+00</totfact>
</mgrwt>
</event>
<event>
 8    1  0.2354930E-010  0.1585132E+04  0.7818608E-02  0.8829734E-01
         -1   -1    0    0    0  501 -0.00000000000E+00  0.00000000000E+00  0.10127078148E+04  0.10127078148E+04  0.50400000000E-02 0.  1.
          1   -1    0    0  501    0  0.00000000000E+00 -0.00000000000E+00 -0.62027867682E+03  0.62027867684E+03  0.50400000000E-02 0. -1.
     200001    2    1    2    0    0 -0.18800146907E+03 -0.32021100392E+03  0.21949435270E+03  0.82194636970E+03  0.69967022546E+03 0.  0.
    5000001    2    3    3    0    0 -0.40384670734E+01 -0.42801154371E+02  0.51637999680E+02  0.19826827486E+03  0.18653572788E+03 0.  0.
        -11    1    4    4    0    0  0.28995063503E+02  0.13026001141E+02 -0.58730258611E+02  0.66780488842E+02  0.51100000000E-03 0. -1.
     200002    1    4    4    0    0 -0.33033530576E+02 -0.55827155511E+02  0.11036825829E+03  0.13148778602E+03  0.30000000000E+02 0. -1.
     200000    1    3    3    0    0 -0.18396300199E+03 -0.27740984955E+03  0.16785635303E+03  0.62367809484E+03  0.50000000000E+03 0.  1.
    -200001    1    1    2    0    0  0.18800146907E+03  0.32021100392E+03  0.17293478524E+03  0.81104012191E+03  0.70000000000E+03 0. -1.
<mgrwt>
<rscale>  0 0.15851323E+04</rscale>
<asrwt>0</asrwt>
<pdfrwt beam="1">  1        1 0.88611240E-01 0.15851323E+04</pdfrwt>
<pdfrwt beam="2">  1       -1 0.14467254E+00 0.15851323E+04</pdfrwt>
<totfact> 0.13453313E+01</totfact>
</mgrwt>
</event>
<event>
 8    1  0.2354930E-010  0.3125060E+04  0.7818608E-02  0.8208894E-01
         -1   -1    0    0    0  501 -0.00000000000E+00  0.00000000000E+00  0.12756126598E+04  0.12756126598E+04  0.50400000000E-02 0. -1.
          1   -1    0    0  501    0  0.00000000000E+00 -0.00000000000E+00 -0.19139825705E+04  0.19139825705E+04  0.50400000000E-02 0.  1.
     200001    2    1    2    0    0  0.38423435788E+03 -0.13220021497E+04 -0.77446632145E+02  0.15464395317E+04  0.70010821944E+03 0.  0.
    5000001    2    3    3    0    0  0.13358548061E+03 -0.38820298192E+03 -0.41230386175E+00  0.45522917936E+03  0.19668960303E+03 0.  0.
        -11    1    4    4    0    0  0.43096439477E+02  0.11193266728E+02 -0.26779822248E+01  0.44606769718E+02  0.51100000000E-03 0. -1.
     200002    1    4    4    0    0  0.90489041134E+02 -0.39939624865E+03  0.22656783631E+01  0.41062240964E+03  0.30000000000E+02 0. -1.
     200000    1    3    3    0    0  0.25064887727E+03 -0.93379916776E+03 -0.77034328284E+02  0.10912103524E+04  0.50000000000E+03 0. -1.
    -200001    1    1    2    0    0 -0.38423435788E+03  0.13220021497E+04 -0.56092327855E+03  0.16431556986E+04  0.70000000000E+03 0.  1.
<mgrwt>
<rscale>  0 0.31250603E+04</rscale>
<asrwt>0</asrwt>
<pdfrwt beam="1">  1        1 0.27342608E+00 0.31250603E+04</pdfrwt>
<pdfrwt beam="2">  1       -1 0.18223038E+00 0.31250603E+04</pdfrwt>
<totfact> 0.71893040E-01</totfact>
</mgrwt>
</event>
<event>
 8    1  0.2354930E-010  0.1632224E+04  0.7818608E-02  0.8800993E-01
         -1   -1    0    0    0  501 -0.00000000000E+00  0.00000000000E+00  0.46402089069E+03  0.46402089072E+03  0.50400000000E-02 0.  1.
          1   -1    0    0  501    0  0.00000000000E+00 -0.00000000000E+00 -0.14353632754E+04  0.14353632754E+04  0.50400000000E-02 0. -1.
     200001    2    1    2    0    0  0.24885669529E+03 -0.32128928423E+03 -0.60684216390E+03  0.10116810232E+04  0.70006044161E+03 0.  0.
    5000001    2    3    3    0    0  0.26646717859E+02 -0.29516397902E+02 -0.14431132103E+03  0.23808974104E+03  0.18514778447E+03 0.  0.
        -11    1    4    4    0    0 -0.31567004299E-01 -0.92587147083E+02 -0.13362344735E+03  0.16256569898E+03  0.51100000000E-03 0. -1.
     200002    1    4    4    0    0  0.26678284863E+02  0.63070749181E+02 -0.10687873677E+02  0.75524042061E+02  0.30000000000E+02 0. -1.
     200000    1    3    3    0    0  0.22220997744E+03 -0.29177288633E+03 -0.46253084287E+03  0.77359128219E+03  0.50000000000E+03 0. -1.
    -200001    1    1    2    0    0 -0.24885669529E+03  0.32128928423E+03 -0.36450022081E+03  0.88770314291E+03  0.70000000000E+03 0. -1.
<mgrwt>
<rscale>  0 0.16322237E+04</rscale>
<asrwt>0</asrwt>
<pdfrwt beam="1">  1        1 0.20505189E+00 0.16322237E+04</pdfrwt>
<pdfrwt beam="2">  1       -1 0.66288699E-01 0.16322237E+04</pdfrwt>
<totfact> 0.18965180E+01</totfact>
</mgrwt>
</event>
<event>
 8    1  0.2354930E-010  0.1484652E+04  0.7818608E-02  0.8894724E-01
          1   -1    0    0  501    0  0.00000000000E+00  0.00000000000E+00  0.42304860138E+03  0.42304860141E+03  0.50400000000E-02 0.  1.
         -1   -1    0    0    0  501 -0.00000000000E+00 -0.00000000000E+00 -0.13025643273E+04  0.13025643273E+04  0.50400000000E-02 0. -1.
     200001    2    1    2    0    0 -0.16875985047E+03 -0.32786224852E+02 -0.23392283000E+03  0.75796370976E+03  0.70016731661E+03 0.  0.
    5000001    2    3    3    0    0 -0.14687325838E+03 -0.11855406708E+02  0.10678119207E+01  0.20466657092E+03  0.14203858748E+03 0.  0.
        -11    1    4    4    0    0 -0.49551456216E+02  0.58555850097E+02  0.20352579102E+02  0.79362219412E+02  0.51100000000E-03 0. -1.
     200002    1    4    4    0    0 -0.97321802169E+02 -0.70411256805E+02 -0.19284767181E+02  0.12530435151E+03  0.30000000000E+02 0. -1.
     200000    1    3    3    0    0 -0.21886592084E+02 -0.20930818143E+02 -0.23499064192E+03  0.55329713884E+03  0.50000000000E+03 0.  1.
    -200001    1    1    2    0    0  0.16875985047E+03  0.32786224852E+02 -0.64559289593E+03  0.96764921896E+03  0.70000000000E+03 0. -1.
<mgrwt>
<rscale>  0 0.14846522E+04</rscale>
<asrwt>0</asrwt>
<pdfrwt beam="1">  1        1 0.60435515E-01 0.14846522E+04</pdfrwt>
<pdfrwt beam="2">  1       -1 0.18608062E+00 0.14846522E+04</pdfrwt>
<totfact> 0.11230986E+01</totfact>
</mgrwt>
</event>
<event>
 8    1  0.2354930E-010  0.2001949E+04  0.7818608E-02  0.8605710E-01
          1   -1    0    0  501    0  0.00000000000E+00  0.00000000000E+00  0.28615849645E+04  0.28615849645E+04  0.50400000000E-02 0.  1.
         -1   -1    0    0    0  501 -0.00000000000E+00 -0.00000000000E+00 -0.35013799259E+03  0.35013799263E+03  0.50400000000E-02 0. -1.
     200001    2    1    2    0    0 -0.13938229068E+03 -0.67788008245E+03  0.15501111539E+04  0.18358176609E+04  0.69887986489E+03 0.  0.
    5000001    2    3    3    0    0  0.20424214642E+02 -0.26927372556E+03  0.47587028424E+03  0.57229452299E+03  0.16775877265E+03 0.  0.
        -11    1    4    4    0    0 -0.71083889687E+01 -0.13216686408E+03  0.37391394033E+03  0.39664876646E+03  0.51100000000E-03 0. -1.
     200002    1    4    4    0    0  0.27532603610E+02 -0.13710686147E+03  0.10195634391E+03  0.17564575653E+03  0.30000000000E+02 0. -1.
     200000    1    3    3    0    0 -0.15980650532E+03 -0.40860635689E+03  0.10742408697E+04  0.12635231379E+04  0.50000000000E+03 0.  1.
    -200001    1    1    2    0    0  0.13938229068E+03  0.67788008245E+03  0.96133581798E+03  0.13759052962E+04  0.70000000000E+03 0. -1.
<mgrwt>
<rscale>  0 0.20019487E+04</rscale>
<asrwt>0</asrwt>
<pdfrwt beam="1">  1        1 0.40879785E+00 0.20019487E+04</pdfrwt>
<pdfrwt beam="2">  1       -1 0.50019713E-01 0.20019487E+04</pdfrwt>
<totfact> 0.39290609E+00</totfact>
</mgrwt>
</event>
<event>
 8    1  0.2354930E-010  0.1630041E+04  0.7818608E-02  0.8802302E-01
          1   -1    0    0  501    0  0.00000000000E+00  0.00000000000E+00  0.81548858950E+03  0.81548858951E+03  0.50400000000E-02 0.  1.
         -1   -1    0    0    0  501 -0.00000000000E+00 -0.00000000000E+00 -0.81455247732E+03  0.81455247734E+03  0.50400000000E-02 0. -1.
     200001    2    1    2    0    0 -0.31047529448E+03  0.17106989494E+03  0.22206969528E+03  0.81483564549E+03  0.69927273804E+03 0.  0.
    5000001    2    3    3    0    0 -0.86781975341E+02  0.71912672664E+02  0.12271828102E+03  0.24937869817E+03  0.18554626073E+03 0.  0.
        -11    1    4    4    0    0 -0.11220594863E+03  0.30045451728E+02  0.25483611652E+01  0.11618691072E+03  0.51100000000E-03 0. -1.
     200002    1    4    4    0    0  0.25423973289E+02  0.41867220936E+02  0.12016991986E+03  0.13319178745E+03  0.30000000000E+02 0. -1.
     200000    1    3    3    0    0 -0.22369331914E+03  0.99157222278E+02  0.99351414255E+02  0.56545694732E+03  0.50000000000E+03 0.  1.
    -200001    1    1    2    0    0  0.31047529448E+03 -0.17106989494E+03 -0.22113358310E+03  0.81520542136E+03  0.70000000000E+03 0. -1.
<mgrwt>
<rscale>  0 0.16300408E+04</rscale>
<asrwt>0</asrwt>
<pdfrwt beam="1">  1        1 0.11649837E+00 0.16300408E+04</pdfrwt>
<pdfrwt beam="2">  1       -1 0.11636464E+00 0.16300408E+04</pdfrwt>
<totfact> 0.15460136E+01</totfact>
</mgrwt>
</event>
<event>
 8    1  0.2354930E-010  0.1473584E+04  0.7818608E-02  0.8902212E-01
         -1   -1    0    0    0  501 -0.00000000000E+00  0.00000000000E+00  0.26341400467E+04  0.26341400467E+04  0.50400000000E-02 0. -1.
          1   -1    0    0  501    0  0.00000000000E+00 -0.00000000000E+00 -0.20608715034E+03  0.20608715040E+03  0.50400000000E-02 0.  1.
     200001    2    1    2    0    0 -0.16204652650E+03 -0.11803913268E+03  0.14046381866E+04  0.15842136694E+04  0.70465041083E+03 0.  0.
    5000001    2    3    3    0    0 -0.16297234178E+03 -0.53760122894E+02  0.43520959014E+03  0.49154516896E+03  0.15086129649E+03 0.  0.
        -11    1    4    4    0    0 -0.17852471718E+02 -0.36646021565E+02  0.11516743074E+02  0.42358907142E+02  0.51100000000E-03 0. -1.
     200002    1    4    4    0    0 -0.14511987006E+03 -0.17114101329E+02  0.42369284707E+03  0.44918626182E+03  0.30000000000E+02 0. -1.
     200000    1    3    3    0    0  0.92581528083E+00 -0.64279009783E+02  0.96942859645E+03  0.10926685004E+04  0.50000000000E+03 0. -1.
    -200001    1    1    2    0    0  0.16204652650E+03  0.11803913268E+03  0.10234147097E+04  0.12560135277E+04  0.70000000000E+03 0.  1.
<mgrwt>
<rscale>  0 0.14735840E+04</rscale>
<asrwt>0</asrwt>
<pdfrwt beam="1">  1        1 0.29441020E-01 0.14735840E+04</pdfrwt>
<pdfrwt beam="2">  1       -1 0.37630575E+00 0.14735840E+04</pdfrwt>
<totfact> 0.15963708E+00</totfact>
</mgrwt>
</event>
<event>
 8    1  0.2354930E-010  0.1619631E+04  0.7818608E-02  0.8808578E-01
         -1   -1    0    0    0  501 -0.00000000000E+00  0.00000000000E+00  0.80628645337E+03  0.80628645339E+03  0.50400000000E-02 0. -1.
          1   -1    0    0  501    0  0.00000000000E+00 -0.00000000000E+00 -0.81335965588E+03  0.81335965589E+03  0.50400000000E-02 0.  1.
     200001    2    1    2    0    0 -0.35929321244E+03 -0.33295997479E+01  0.19268099800E+03  0.80785522527E+03  0.69742483414E+03 0.  0.
    5000001    2    3    3    0    0 -0.19244220455E+03  0.32159642654E+02  0.14773798094E+03  0.27764902016E+03  0.13112674279E+03 0.  0.
        -11    1    4    4    0    0  0.37677132661E+00  0.39469414773E+02  0.19450279645E+02  0.44003295759E+02  0.51100000000E-03 0. -1.
     200002    1    4    4    0    0 -0.19281897587E+03 -0.73097721193E+01  0.12828770130E+03  0.23364572440E+03  0.30000000000E+02 0. -1.
     200000    1    3    3    0    0 -0.16685100789E+03 -0.35489242402E+02  0.44943017054E+02  0.53020620512E+03  0.50000000000E+03 0.  1.
    -200001    1    1    2    0    0  0.35929321244E+03  0.33295997479E+01 -0.19975420050E+03  0.81179088401E+03  0.70000000000E+03 0. -1.
<mgrwt>
<rscale>  0 0.16196307E+04</rscale>
<asrwt>0</asrwt>
<pdfrwt beam="1">  1        1 0.11619424E+00 0.16196307E+04</pdfrwt>
<pdfrwt beam="2">  1       -1 0.11518378E+00 0.16196307E+04</pdfrwt>
<totfact> 0.15922865E+01</totfact>
</mgrwt>
</event>
<event>
 8    1  0.2354930E-010  0.1444414E+04  0.7818608E-02  0.8922283E-01
         -1   -1    0    0    0  501 -0.00000000000E+00  0.00000000000E+00  0.40509456965E+03  0.40509456968E+03  0.50400000000E-02 0. -1.
          1   -1    0    0  501    0  0.00000000000E+00 -0.00000000000E+00 -0.12875579853E+04  0.12875579853E+04  0.50400000000E-02 0.  1.
     200001    2    1    2    0    0  0.16293502529E+03 -0.12454329640E+02 -0.35422255114E+03  0.80060920194E+03  0.69914129166E+03 0.  0.
    5000001    2    3    3    0    0  0.93508937793E+02 -0.43421961223E+02 -0.13736331712E+03  0.25033026975E+03  0.18211857374E+03 0.  0.
        -11    1    4    4    0    0  0.14185056683E+03 -0.86056260644E+01 -0.85609615519E+02  0.16590553451E+03  0.51100000000E-03 0. -1.
     200002    1    4    4    0    0 -0.48341629039E+02 -0.34816335158E+02 -0.51753701600E+02  0.84424735246E+02  0.30000000000E+02 0. -1.
     200000    1    3    3    0    0  0.69426087499E+02  0.30967631583E+02 -0.21685923402E+03  0.55027893219E+03  0.50000000000E+03 0. -1.
    -200001    1    1    2    0    0 -0.16293502529E+03  0.12454329640E+02 -0.52824086455E+03  0.89204335308E+03  0.70000000000E+03 0. -1.
<mgrwt>
<rscale>  0 0.14444137E+04</rscale>
<asrwt>0</asrwt>
<pdfrwt beam="1">  1        1 0.18393685E+00 0.14444137E+04</pdfrwt>
<pdfrwt beam="2">  1       -1 0.57870654E-01 0.14444137E+04</pdfrwt>
<totfact> 0.31698678E+01</totfact>
</mgrwt>
</event>
<event>
 8    1  0.2354930E-010  0.1851089E+04  0.7818608E-02  0.8679593E-01
          1   -1    0    0  501    0  0.00000000000E+00  0.00000000000E+00  0.15051671734E+04  0.15051671734E+04  0.50400000000E-02 0.  1.
         -1   -1    0    0    0  501 -0.00000000000E+00 -0.00000000000E+00 -0.56912802701E+03  0.56912802703E+03  0.50400000000E-02 0. -1.
     200001    2    1    2    0    0  0.45412600772E+03  0.13833225130E+03  0.88895921678E+03  0.12271926314E+04  0.70027639032E+03 0.  0.
    5000001    2    3    3    0    0  0.16383885498E+03  0.11324444454E+03  0.17250818425E+03  0.30621591558E+03  0.15601807169E+03 0.  0.
        -11    1    4    4    0    0  0.14788215205E+03  0.85895656489E+02  0.53071420501E+02  0.17906359310E+03  0.51100000000E-03 0. -1.
     200002    1    4    4    0    0  0.15956702937E+02  0.27348788051E+02  0.11943676375E+03  0.12715232248E+03  0.30000000000E+02 0. -1.
     200000    1    3    3    0    0  0.29028715274E+03  0.25087806755E+02  0.71645103253E+03  0.92097671583E+03  0.50000000000E+03 0.  1.
    -200001    1    1    2    0    0 -0.45412600772E+03 -0.13833225130E+03  0.47079929573E+02  0.84710256900E+03  0.70000000000E+03 0. -1.
<mgrwt>
<rscale>  0 0.18510892E+04</rscale>
<asrwt>0</asrwt>
<pdfrwt beam="1">  1        1 0.21502388E+00 0.18510892E+04</pdfrwt>
<pdfrwt beam="2">  1       -1 0.81304005E-01 0.18510892E+04</pdfrwt>
<totfact> 0.10957844E+01</totfact>
</mgrwt>
</event>
<event>
 8    1  0.2354930E-010  0.2079071E+04  0.7818608E-02  0.8570519E-01
         -1   -1    0    0    0  501 -0.00000000000E+00  0.00000000000E+00  0.15608269708E+04  0.15608269708E+04  0.50400000000E-02 0.  1.
          1   -1    0    0  501    0  0.00000000000E+00 -0.00000000000E+00 -0.69234744185E+03  0.69234744187E+03  0.50400000000E-02 0. -1.
     200001    2    1    2    0    0  0.66105342250E+03 -0.71009744950E+02  0.16739548869E+02  0.96573703365E+03  0.70023838397E+03 0.  0.
    5000001    2    3    3    0    0  0.12406869186E+03 -0.54707199607E+02  0.35874190924E+02  0.23158139044E+03  0.18427442805E+03 0.  0.
        -11    1    4    4    0    0  0.16625029667E+03 -0.51655610167E+02  0.12017270767E+02  0.17450466470E+03  0.51100000000E-03 0. -1.
     200002    1    4    4    0    0 -0.42181604807E+02 -0.30515894399E+01  0.23856920157E+02  0.57076725743E+02  0.30000000000E+02 0. -1.
     200000    1    3    3    0    0  0.53698473064E+03 -0.16302545343E+02 -0.19134642055E+02  0.73415564321E+03  0.50000000000E+03 0. -1.
    -200001    1    1    2    0    0 -0.66105342250E+03  0.71009744950E+02  0.85173998011E+03  0.12874373791E+04  0.70000000000E+03 0.  1.
<mgrwt>
<rscale>  0 0.20790715E+04</rscale>
<asrwt>0</asrwt>
<pdfrwt beam="1">  1        1 0.98906777E-01 0.20790715E+04</pdfrwt>
<pdfrwt beam="2">  1       -1 0.22297528E+00 0.20790715E+04</pdfrwt>
<totfact> 0.30112579E+00</totfact>
</mgrwt>
</event>
<event>
 8    1  0.2354930E-010  0.1674022E+04  0.7818608E-02  0.8776321E-01
          1   -1    0    0  501    0  0.00000000000E+00  0.00000000000E+00  0.21139332559E+03  0.21139332565E+03  0.50400000000E-02 0.  1.
         -1   -1    0    0    0  501 -0.00000000000E+00 -0.00000000000E+00 -0.33141423948E+04  0.33141423948E+04  0.50400000000E-02 0. -1.
     200001    2    1    2    0    0  0.27396181107E+02  0.45108554103E+03 -0.17276586468E+04  0.19177103612E+04  0.69898491651E+03 0.  0.
    5000001    2    3    3    0    0  0.11383953811E+02  0.23377559766E+03 -0.74924280080E+03  0.79754181557E+03  0.14116496933E+03 0.  0.
        -11    1    4    4    0    0  0.35248586228E+01  0.49923696335E+02 -0.38610883591E+03  0.38933896960E+03  0.51100000000E-03 0. -1.
     200002    1    4    4    0    0  0.78590951885E+01  0.18385190132E+03 -0.36313396490E+03  0.40820284597E+03  0.30000000000E+02 0. -1.
     200000    1    3    3    0    0  0.16012227295E+02  0.21730994338E+03 -0.97841584601E+03  0.11201685456E+04  0.50000000000E+03 0. -1.
    -200001    1    1    2    0    0 -0.27396181107E+02 -0.45108554103E+03 -0.13750904224E+04  0.16078253593E+04  0.70000000000E+03 0. -1.
<mgrwt>
<rscale>  0 0.16740222E+04</rscale>
<asrwt>0</asrwt>
<pdfrwt beam="1">  1        1 0.30199048E-01 0.16740222E+04</pdfrwt>
<pdfrwt beam="2">  1       -1 0.47344888E+00 0.16740222E+04</pdfrwt>
<totfact> 0.32626339E-01</totfact>
</mgrwt>
</event>
<event>
 8    1  0.2354930E-010  0.1699564E+04  0.7818608E-02  0.8761613E-01
         -1   -1    0    0    0  501 -0.00000000000E+00  0.00000000000E+00  0.34678797529E+03  0.34678797532E+03  0.50400000000E-02 0. -1.
          1   -1    0    0  501    0  0.00000000000E+00 -0.00000000000E+00 -0.20823378270E+04  0.20823378270E+04  0.50400000000E-02 0.  1.
     200001    2    1    2    0    0  0.50433783944E+01 -0.32698827508E+03 -0.13738958978E+04  0.15760488128E+04  0.69956640477E+03 0.  0.
    5000001    2    3    3    0    0  0.28265862234E+02 -0.10131749343E+03 -0.29634816604E+03  0.36667885302E+03  0.18859202605E+03 0.  0.
        -11    1    4    4    0    0  0.36518997840E+01 -0.99726857404E+02 -0.40172814576E+02  0.10757619389E+03  0.51100000000E-03 0. -1.
     200002    1    4    4    0    0  0.24613962450E+02 -0.15906360249E+01 -0.25617535147E+03  0.25910265913E+03  0.30000000000E+02 0. -1.
     200000    1    3    3    0    0 -0.23222483840E+02 -0.22567078165E+03 -0.10775477317E+04  0.12093699598E+04  0.50000000000E+03 0.  1.
    -200001    1    1    2    0    0 -0.50433783944E+01  0.32698827508E+03 -0.36165395397E+03  0.85307698957E+03  0.70000000000E+03 0. -1.
<mgrwt>
<rscale>  0 0.16995643E+04</rscale>
<asrwt>0</asrwt>
<pdfrwt beam="1">  1        1 0.29747683E+00 0.16995643E+04</pdfrwt>
<pdfrwt beam="2">  1       -1 0.49541140E-01 0.16995643E+04</pdfrwt>
<totfact> 0.12883886E+01</totfact>
</mgrwt>
</event>
<event>
 8    1  0.2354930E-010  0.1811576E+04  0.7818608E-02  0.8700168E-01
         -1   -1    0    0    0  501 -0.00000000000E+00  0.00000000000E+00  0.58239289002E+03  0.58239289005E+03  0.50400000000E-02 0. -1.
          1   -1    0    0  501    0  0.00000000000E+00 -0.00000000000E+00 -0.14087595998E+04  0.14087595998E+04  0.50400000000E-02 0.  1.
     200001    2    1    2    0    0 -0.52361925581E+03 -0.85134231245E+02 -0.64671959624E+03  0.10946604108E+04  0.70612337194E+03 0.  0.
    5000001    2    3    3    0    0 -0.20248077952E+03 -0.44761737538E+01 -0.21095552834E+03  0.35336022458E+03  0.19834997145E+03 0.  0.
        -11    1    4    4    0    0 -0.37299021814E+02 -0.35449347921E+02 -0.17025104295E+03  0.17785750173E+03  0.51100000000E-03 0. -1.
     200002    1    4    4    0    0 -0.16518175770E+03  0.30973174167E+02 -0.40704485384E+02  0.17550272285E+03  0.30000000000E+02 0. -1.
     200000    1    3    3    0    0 -0.32113847629E+03 -0.80658057491E+02 -0.43576406790E+03  0.74130018621E+03  0.50000000000E+03 0.  1.
    -200001    1    1    2    0    0  0.52361925581E+03  0.85134231245E+02 -0.17964711350E+03  0.89649207903E+03  0.70000000000E+03 0.  1.
<mgrwt>
<rscale>  0 0.18115756E+04</rscale>
<asrwt>0</asrwt>
<pdfrwt beam="1">  1        1 0.20125137E+00 0.18115756E+04</pdfrwt>
<pdfrwt beam="2">  1       -1 0.83198985E-01 0.18115756E+04</pdfrwt>
<totfact> 0.12108944E+01</totfact>
</mgrwt>
</event>
<event>
 8    1  0.2354930E-010  0.1802702E+04  0.7818608E-02  0.8704864E-01
         -1   -1    0    0    0  501 -0.00000000000E+00  0.00000000000E+00  0.71389687217E+03  0.71389687219E+03  0.50400000000E-02 0.  1.
          1   -1    0    0  501    0  0.00000000000E+00 -0.00000000000E+00 -0.11380267149E+04  0.11380267149E+04  0.50400000000E-02 0. -1.
     200001    2    1    2    0    0  0.54615473710E+03  0.13836036286E+03 -0.12575751536E+03  0.90511070558E+03  0.69712398454E+03 0.  0.
    5000001    2    3    3    0    0  0.34783484845E+02 -0.61258303944E+02 -0.13684041506E+03  0.16249977081E+03  0.52138332351E+02 0.  0.
        -11    1    4    4    0    0  0.20424582207E+02 -0.32518160187E+02 -0.92072991453E+02  0.99759861947E+02  0.51100000000E-03 0. -1.
     200002    1    4    4    0    0  0.14358902638E+02 -0.28740143757E+02 -0.44767423608E+02  0.62739908867E+02  0.30000000000E+02 0. -1.
     200000    1    3    3    0    0  0.51137125225E+03  0.19961866681E+03  0.11082899705E+02  0.74261093477E+03  0.50000000000E+03 0.  1.
    -200001    1    1    2    0    0 -0.54615473710E+03 -0.13836036286E+03 -0.29837232738E+03  0.94681288152E+03  0.70000000000E+03 0.  1.
<mgrwt>
<rscale>  0 0.18027021E+04</rscale>
<asrwt>0</asrwt>
<pdfrwt beam="1">  1        1 0.16257524E+00 0.18027021E+04</pdfrwt>
<pdfrwt beam="2">  1       -1 0.10198527E+00 0.18027021E+04</pdfrwt>
<totfact> 0.11798551E+01</totfact>
</mgrwt>
</event>
<event>
 8    1  0.2354930E-010  0.2057054E+04  0.7818608E-02  0.8580401E-01
          1   -1    0    0  501    0  0.00000000000E+00  0.00000000000E+00  0.21125502767E+04  0.21125502767E+04  0.50400000000E-02 0.  1.
         -1   -1    0    0    0  501 -0.00000000000E+00 -0.00000000000E+00 -0.50075382706E+03  0.50075382709E+03  0.50400000000E-02 0. -1.
     200001    2    1    2    0    0 -0.42647658540E+03  0.57835744350E+03  0.10950772952E+04  0.14848634563E+04  0.69946092890E+03 0.  0.
    5000001    2    3    3    0    0 -0.13904103487E+03  0.22617834150E+03  0.46490128799E+03  0.56086609935E+03  0.16717811544E+03 0.  0.
        -11    1    4    4    0    0 -0.24887458961E+02 -0.13128194622E+02  0.41698194421E+01  0.28445078696E+02  0.51100000000E-03 0. -1.
     200002    1    4    4    0    0 -0.11415357591E+03  0.23930653612E+03  0.46073146855E+03  0.53242102066E+03  0.30000000000E+02 0. -1.
     200000    1    3    3    0    0 -0.28743555052E+03  0.35217910200E+03  0.63017600719E+03  0.92399735694E+03  0.50000000000E+03 0. -1.
    -200001    1    1    2    0    0  0.42647658540E+03 -0.57835744350E+03  0.51671915444E+03  0.11284406475E+04  0.70000000000E+03 0. -1.
<mgrwt>
<rscale>  0 0.20570539E+04</rscale>
<asrwt>0</asrwt>
<pdfrwt beam="1">  1        1 0.30179290E+00 0.20570539E+04</pdfrwt>
<pdfrwt beam="2">  1       -1 0.71536261E-01 0.20570539E+04</pdfrwt>
<totfact> 0.57843717E+00</totfact>
</mgrwt>
</event>
<event>
 8    1  0.2354930E-010  0.2605621E+04  0.7818608E-02  0.8366295E-01
         -1   -1    0    0    0  501 -0.00000000000E+00  0.00000000000E+00  0.44478205763E+04  0.44478205763E+04  0.50400000000E-02 0. -1.
          1   -1    0    0  501    0  0.00000000000E+00 -0.00000000000E+00 -0.38160590233E+03  0.38160590236E+03  0.50400000000E-02 0.  1.
     200001    2    1    2    0    0  0.71984775138E+03 -0.24845768044E+03  0.56322022178E+03  0.11769092458E+04  0.69856019821E+03 0.  0.
    5000001    2    3    3    0    0  0.22065322480E+03 -0.89885604503E+02  0.21106130362E+03  0.37170356881E+03  0.19196197975E+03 0.  0.
        -11    1    4    4    0    0  0.21429537285E+03 -0.26939687599E+02  0.94548601050E+02  0.23577042128E+03  0.51100000000E-03 0. -1.
     200002    1    4    4    0    0  0.63578519501E+01 -0.62945916904E+02  0.11651270257E+03  0.13593314753E+03  0.30000000000E+02 0. -1.
     200000    1    3    3    0    0  0.49919452658E+03 -0.15857207594E+03  0.35215891815E+03  0.80520567700E+03  0.50000000000E+03 0.  1.
    -200001    1    1    2    0    0 -0.71984775138E+03  0.24845768044E+03  0.35029944522E+04  0.36525172328E+04  0.70000000000E+03 0. -1.
<mgrwt>
<rscale>  0 0.26056205E+04</rscale>
<asrwt>0</asrwt>
<pdfrwt beam="1">  1        1 0.54515131E-01 0.26056205E+04</pdfrwt>
<pdfrwt beam="2">  1       -1 0.63540292E+00 0.26056205E+04</pdfrwt>
<totfact> 0.20062326E-02</totfact>
</mgrwt>
</event>
<event>
 8    1  0.2354930E-010  0.1927470E+04  0.7818608E-02  0.8641302E-01
         -1   -1    0    0    0  501 -0.00000000000E+00  0.00000000000E+00  0.12715029318E+04  0.12715029319E+04  0.50400000000E-02 0. -1.
          1   -1    0    0  501    0  0.00000000000E+00 -0.00000000000E+00 -0.73046238913E+03  0.73046238914E+03  0.50400000000E-02 0.  1.
     200001    2    1    2    0    0  0.53745663743E+03 -0.89289457752E+02 -0.10986111252E+03  0.90173570443E+03  0.71008842563E+03 0.  0.
    5000001    2    3    3    0    0  0.12655688790E+03  0.58889678533E+02 -0.89538865631E+02  0.23750031369E+03  0.17001338310E+03 0.  0.
        -11    1    4    4    0    0  0.73217870485E+02  0.37366648523E+02  0.40904398814E+02  0.91816626070E+02  0.51100000000E-03 0. -1.
     200002    1    4    4    0    0  0.53339017420E+02  0.21523030009E+02 -0.13044326445E+03  0.14568368762E+03  0.30000000000E+02 0. -1.
     200000    1    3    3    0    0  0.41089974952E+03 -0.14817913628E+03 -0.20322246886E+02  0.66423539074E+03  0.50000000000E+03 0.  1.
    -200001    1    1    2    0    0 -0.53745663743E+03  0.89289457752E+02  0.65090165523E+03  0.11002296166E+04  0.70000000000E+03 0. -1.
<mgrwt>
<rscale>  0 0.19274699E+04</rscale>
<asrwt>0</asrwt>
<pdfrwt beam="1">  1        1 0.10435177E+00 0.19274699E+04</pdfrwt>
<pdfrwt beam="2">  1       -1 0.18164328E+00 0.19274699E+04</pdfrwt>
<totfact> 0.54242798E+00</totfact>
</mgrwt>
</event>
<event>
 8    1  0.2354930E-010  0.2353326E+04  0.7818608E-02  0.8457187E-01
          1   -1    0    0  501    0  0.00000000000E+00  0.00000000000E+00  0.59365508563E+03  0.59365508565E+03  0.50400000000E-02 0.  1.
         -1   -1    0    0    0  501 -0.00000000000E+00 -0.00000000000E+00 -0.23322230148E+04  0.23322230148E+04  0.50400000000E-02 0. -1.
     200001    2    1    2    0    0 -0.64955310381E+03  0.36164454510E+03 -0.15961944987E+04  0.18948707264E+04  0.69999441451E+03 0.  0.
    5000001    2    3    3    0    0 -0.29673033243E+03  0.16140989516E+03 -0.52726018666E+03  0.64699317369E+03  0.16277228858E+03 0.  0.
        -11    1    4    4    0    0 -0.29458919264E+03  0.10885475218E+03 -0.43136849057E+03  0.53358309958E+03  0.51100000000E-03 0. -1.
     200002    1    4    4    0    0 -0.21411397864E+01  0.52555142972E+02 -0.95891696091E+02  0.11341007412E+03  0.30000000000E+02 0.  1.
     200000    1    3    3    0    0 -0.35282277137E+03  0.20023464994E+03 -0.10689343120E+04  0.12478775527E+04  0.50000000000E+03 0. -1.
    -200001    1    1    2    0    0  0.64955310381E+03 -0.36164454510E+03 -0.14237343045E+03  0.10310073741E+04  0.70000000000E+03 0.  1.
<mgrwt>
<rscale>  0 0.23533262E+04</rscale>
<asrwt>0</asrwt>
<pdfrwt beam="1">  1        1 0.84807870E-01 0.23533262E+04</pdfrwt>
<pdfrwt beam="2">  1       -1 0.33317471E+00 0.23533262E+04</pdfrwt>
<totfact> 0.70179000E-01</totfact>
</mgrwt>
</event>
<event>
 8    1  0.2354930E-010  0.1626074E+04  0.7818608E-02  0.8804688E-01
          1   -1    0    0  501    0  0.00000000000E+00  0.00000000000E+00  0.16977390990E+04  0.16977390990E+04  0.50400000000E-02 0.  1.
         -1   -1    0    0    0  501 -0.00000000000E+00 -0.00000000000E+00 -0.38935853480E+03  0.38935853483E+03  0.50400000000E-02 0. -1.
     200001    2    1    2    0    0 -0.79209234889E+02 -0.82875003571E+02  0.14311419108E+03  0.72291726107E+03  0.69927485695E+03 0.  0.
    5000001    2    3    3    0    0 -0.11689321909E+03 -0.78123042326E+02 -0.84681777168E+01  0.19906625331E+03  0.14067135018E+03 0.  0.
        -11    1    4    4    0    0 -0.12438844534E+03 -0.76569504890E+02 -0.43410425918E+02  0.15238057452E+03  0.51100000000E-03 0. -1.
     200002    1    4    4    0    0  0.74952262425E+01 -0.15535374355E+01  0.34942248201E+02  0.46685678793E+02  0.30000000000E+02 0. -1.
     200000    1    3    3    0    0  0.37683984206E+02 -0.47519612453E+01  0.15158236880E+03  0.52385100776E+03  0.50000000000E+03 0. -1.
    -200001    1    1    2    0    0  0.79209234889E+02  0.82875003571E+02  0.11652663731E+04  0.13641803727E+04  0.70000000000E+03 0.  1.
<mgrwt>
<rscale>  0 0.16260741E+04</rscale>
<asrwt>0</asrwt>
<pdfrwt beam="1">  1        1 0.24253416E+00 0.16260741E+04</pdfrwt>
<pdfrwt beam="2">  1       -1 0.55622647E-01 0.16260741E+04</pdfrwt>
<totfact> 0.18168685E+01</totfact>
</mgrwt>
</event>
<event>
 8    1  0.2354930E-010  0.2008264E+04  0.7818608E-02  0.8602767E-01
         -1   -1    0    0    0  501 -0.00000000000E+00  0.00000000000E+00  0.93754111036E+03  0.93754111037E+03  0.50400000000E-02 0. -1.
          1   -1    0    0  501    0  0.00000000000E+00 -0.00000000000E+00 -0.10754525049E+04  0.10754525049E+04  0.50400000000E-02 0.  1.
     200001    2    1    2    0    0  0.67374024979E+03 -0.25293983573E+03 -0.45076485428E+02  0.10047660591E+04  0.69972741783E+03 0.  0.
    5000001    2    3    3    0    0  0.29656709522E+03 -0.16380846855E+03  0.36847385838E+02  0.36686676466E+03  0.13582428662E+03 0.  0.
        -11    1    4    4    0    0  0.22275142856E+02 -0.55724608997E+02 -0.23489877821E+02  0.64445235645E+02  0.51100000000E-03 0. -1.
     200002    1    4    4    0    0  0.27429195236E+03 -0.10808385955E+03  0.60337263659E+02  0.30242152902E+03  0.30000000000E+02 0. -1.
     200000    1    3    3    0    0  0.37717315457E+03 -0.89131367183E+02 -0.81923871267E+02  0.63789929442E+03  0.50000000000E+03 0. -1.
    -200001    1    1    2    0    0 -0.67374024979E+03  0.25293983573E+03 -0.92834909089E+02  0.10082275562E+04  0.70000000000E+03 0. -1.
<mgrwt>
<rscale>  0 0.20082639E+04</rscale>
<asrwt>0</asrwt>
<pdfrwt beam="1">  1        1 0.15363607E+00 0.20082639E+04</pdfrwt>
<pdfrwt beam="2">  1       -1 0.13393444E+00 0.20082639E+04</pdfrwt>
<totfact> 0.66412942E+00</totfact>
</mgrwt>
</event>
<event>
 8    1  0.2354930E-010  0.1455406E+04  0.7818608E-02  0.8914661E-01
         -1   -1    0    0    0  501 -0.00000000000E+00  0.00000000000E+00  0.50250693937E+03  0.50250693940E+03  0.50400000000E-02 0. -1.
          1   -1    0    0  501    0  0.00000000000E+00 -0.00000000000E+00 -0.10538199050E+04  0.10538199050E+04  0.50400000000E-02 0.  1.
     200001    2    1    2    0    0 -0.23155665564E+01  0.16113080179E+02 -0.49478131407E+03  0.85385917905E+03  0.69570249079E+03 0.  0.
    5000001    2    3    3    0    0 -0.14793844916E+02 -0.96284269755E+02 -0.14291449368E+03  0.23208821559E+03  0.15476068255E+03 0.  0.
        -11    1    4    4    0    0  0.27221007408E+02  0.42374398605E+01  0.19840153863E+02  0.33949533818E+02  0.51100000000E-03 0. -1.
     200002    1    4    4    0    0 -0.42014852324E+02 -0.10052170962E+03 -0.16275464754E+03  0.19813868178E+03  0.30000000000E+02 0. -1.
     200000    1    3    3    0    0  0.12478278360E+02  0.11239734993E+03 -0.35186682039E+03  0.62177096345E+03  0.50000000000E+03 0. -1.
    -200001    1    1    2    0    0  0.23155665564E+01 -0.16113080179E+02 -0.56531651520E+02  0.70246766532E+03  0.70000000000E+03 0. -1.
<mgrwt>
<rscale>  0 0.14554062E+04</rscale>
<asrwt>0</asrwt>
<pdfrwt beam="1">  1        1 0.15054570E+00 0.14554062E+04</pdfrwt>
<pdfrwt beam="2">  1       -1 0.71786705E-01 0.14554062E+04</pdfrwt>
<totfact> 0.29982644E+01</totfact>
</mgrwt>
</event>
<event>
 8    1  0.2354930E-010  0.1759518E+04  0.7818608E-02  0.8728128E-01
         -1   -1    0    0    0  501 -0.00000000000E+00  0.00000000000E+00  0.36402642712E+03  0.36402642715E+03  0.50400000000E-02 0. -1.
          1   -1    0    0  501    0  0.00000000000E+00 -0.00000000000E+00 -0.21261534016E+04  0.21261534016E+04  0.50400000000E-02 0.  1.
     200001    2    1    2    0    0 -0.40908046099E+03  0.31370380736E+03 -0.69206858315E+03  0.11114913711E+04  0.70049785295E+03 0.  0.
    5000001    2    3    3    0    0 -0.39077907711E+02  0.76388442012E+02 -0.26090901329E+03  0.31832112033E+03  0.16091160769E+03 0.  0.
        -11    1    4    4    0    0 -0.84374128425E+02  0.24143201897E+02 -0.20934659575E+03  0.22699754381E+03  0.51100000000E-03 0. -1.
     200002    1    4    4    0    0  0.45296220714E+02  0.52245240115E+02 -0.51562417545E+02  0.91323576522E+02  0.30000000000E+02 0. -1.
     200000    1    3    3    0    0 -0.37000255328E+03  0.23731536535E+03 -0.43115956986E+03  0.79317025080E+03  0.50000000000E+03 0.  1.
    -200001    1    1    2    0    0  0.40908046099E+03 -0.31370380736E+03 -0.10700583913E+04  0.13786884576E+04  0.70000000000E+03 0. -1.
<mgrwt>
<rscale>  0 0.17595181E+04</rscale>
<asrwt>0</asrwt>
<pdfrwt beam="1">  1        1 0.30373619E+00 0.17595181E+04</pdfrwt>
<pdfrwt beam="2">  1       -1 0.52003776E-01 0.17595181E+04</pdfrwt>
<totfact> 0.10965893E+01</totfact>
</mgrwt>
</event>
<event>
 8    1  0.2354930E-010  0.1761559E+04  0.7818608E-02  0.8727014E-01
         -1   -1    0    0    0  501 -0.00000000000E+00  0.00000000000E+00  0.13259468194E+04  0.13259468194E+04  0.50400000000E-02 0.  1.
          1   -1    0    0  501    0  0.00000000000E+00 -0.00000000000E+00 -0.58507039486E+03  0.58507039488E+03  0.50400000000E-02 0. -1.
     200001    2    1    2    0    0 -0.12729214940E+03 -0.13342188413E+03 -0.17408037311E+03  0.74433361021E+03  0.69980272686E+03 0.  0.
    5000001    2    3    3    0    0  0.91038327409E+02  0.64897141048E+02 -0.95962379804E+02  0.15858532491E+03  0.58659278609E+02 0.  0.
        -11    1    4    4    0    0  0.50195903450E+02  0.16903739774E+02 -0.60122331946E+02  0.80125276538E+02  0.51100000000E-03 0. -1.
     200002    1    4    4    0    0  0.40842423960E+02  0.47993401274E+02 -0.35840047858E+02  0.78460048376E+02  0.30000000000E+02 0.  1.
     200000    1    3    3    0    0 -0.21833047681E+03 -0.19831902518E+03 -0.78117993302E+02  0.58574828530E+03  0.50000000000E+03 0. -1.
    -200001    1    1    2    0    0  0.12729214940E+03  0.13342188413E+03  0.91495679764E+03  0.11666836041E+04  0.70000000000E+03 0. -1.
<mgrwt>
<rscale>  0 0.17615587E+04</rscale>
<asrwt>0</asrwt>
<pdfrwt beam="1">  1        1 0.83581487E-01 0.17615587E+04</pdfrwt>
<pdfrwt beam="2">  1       -1 0.18942097E+00 0.17615587E+04</pdfrwt>
<totfact> 0.66859689E+00</totfact>
</mgrwt>
</event>
<event>
 8    1  0.2354930E-010  0.2083511E+04  0.7818608E-02  0.8568542E-01
         -1   -1    0    0    0  501 -0.00000000000E+00  0.00000000000E+00  0.27988378662E+03  0.27988378667E+03  0.50400000000E-02 0. -1.
          1   -1    0    0  501    0  0.00000000000E+00 -0.00000000000E+00 -0.38775169162E+04  0.38775169162E+04  0.50400000000E-02 0.  1.
     200001    2    1    2    0    0 -0.74167963950E+03  0.16846581091E+03 -0.20586420313E+04  0.23034959001E+04  0.69972632629E+03 0.  0.
    5000001    2    3    3    0    0 -0.21139882473E+03  0.10423638262E+03 -0.66508719740E+03  0.72954601620E+03  0.18531519919E+03 0.  0.
        -11    1    4    4    0    0 -0.17863085792E+03  0.44665833736E+02 -0.60960483455E+03  0.63680615136E+03  0.51100000000E-03 0. -1.
     200002    1    4    4    0    0 -0.32767966815E+02  0.59570548887E+02 -0.55482362854E+02  0.92739864847E+02  0.30000000000E+02 0. -1.
     200000    1    3    3    0    0 -0.53028081477E+03  0.64229428288E+02 -0.13935548339E+04  0.15739498839E+04  0.50000000000E+03 0.  1.
    -200001    1    1    2    0    0  0.74167963950E+03 -0.16846581091E+03 -0.15389910982E+04  0.18539048027E+04  0.70000000000E+03 0.  1.
<mgrwt>
<rscale>  0 0.20835106E+04</rscale>
<asrwt>0</asrwt>
<pdfrwt beam="1">  1        1 0.55393095E+00 0.20835106E+04</pdfrwt>
<pdfrwt beam="2">  1       -1 0.39983401E-01 0.20835106E+04</pdfrwt>
<totfact> 0.11750410E+00</totfact>
</mgrwt>
</event>
<event>
 8    1  0.2354930E-010  0.1449504E+04  0.7818608E-02  0.8918745E-01
         -1   -1    0    0    0  501 -0.00000000000E+00  0.00000000000E+00  0.77704460696E+03  0.77704460697E+03  0.50400000000E-02 0. -1.
          1   -1    0    0  501    0  0.00000000000E+00 -0.00000000000E+00 -0.67597829419E+03  0.67597829421E+03  0.50400000000E-02 0.  1.
     200001    2    1    2    0    0 -0.18495996553E+03  0.16562303313E+02  0.48917458164E+02  0.72693475104E+03  0.70111105812E+03 0.  0.
    5000001    2    3    3    0    0 -0.12993783969E+03  0.61822493365E+02 -0.53441903283E+02  0.21161605546E+03  0.14566899133E+03 0.  0.
        -11    1    4    4    0    0 -0.72935829142E+02 -0.34191165775E+02  0.75324224631E+01  0.80903698173E+02  0.51100000000E-03 0. -1.
     200002    1    4    4    0    0 -0.57002010545E+02  0.96013659140E+02 -0.60974325746E+02  0.13071235729E+03  0.30000000000E+02 0. -1.
     200000    1    3    3    0    0 -0.55022125847E+02 -0.45260190052E+02  0.10235936145E+03  0.51531869558E+03  0.50000000000E+03 0.  1.
    -200001    1    1    2    0    0  0.18495996553E+03 -0.16562303313E+02  0.52148854604E+02  0.72608815014E+03  0.70000000000E+03 0. -1.
<mgrwt>
<rscale>  0 0.14495038E+04</rscale>
<asrwt>0</asrwt>
<pdfrwt beam="1">  1        1 0.96568328E-01 0.14495038E+04</pdfrwt>
<pdfrwt beam="2">  1       -1 0.11100637E+00 0.14495038E+04</pdfrwt>
<totfact> 0.23326645E+01</totfact>
</mgrwt>
</event>
<event>
 8    1  0.2354930E-010  0.1508985E+04  0.7818608E-02  0.8878500E-01
          1   -1    0    0  501    0  0.00000000000E+00  0.00000000000E+00  0.12295951505E+04  0.12295951505E+04  0.50400000000E-02 0. -1.
         -1   -1    0    0    0  501 -0.00000000000E+00 -0.00000000000E+00 -0.46296444240E+03  0.46296444243E+03  0.50400000000E-02 0.  1.
     200001    2    1    2    0    0 -0.26189972551E+03  0.20750082082E+02  0.28146506871E+03  0.80126405845E+03  0.70269443880E+03 0.  0.
    5000001    2    3    3    0    0 -0.14644327975E+03 -0.38459972385E+02  0.81300192595E+02  0.24727669483E+03  0.17779549721E+03 0.  0.
        -11    1    4    4    0    0 -0.10882892577E+03 -0.77373544698E+02  0.11552008775E+03  0.17656526039E+03  0.51100000000E-03 0. -1.
     200002    1    4    4    0    0 -0.37614353983E+02  0.38913572314E+02 -0.34219895155E+02  0.70711434437E+02  0.30000000000E+02 0. -1.
     200000    1    3    3    0    0 -0.11545644576E+03  0.59210054467E+02  0.20016487612E+03  0.55398736362E+03  0.50000000000E+03 0.  1.
    -200001    1    1    2    0    0  0.26189972551E+03 -0.20750082082E+02  0.48516563935E+03  0.89129553446E+03  0.70000000000E+03 0.  1.
<mgrwt>
<rscale>  0 0.15089849E+04</rscale>
<asrwt>0</asrwt>
<pdfrwt beam="1">  1        1 0.17565645E+00 0.15089849E+04</pdfrwt>
<pdfrwt beam="2">  1       -1 0.66137778E-01 0.15089849E+04</pdfrwt>
<totfact> 0.26482987E+01</totfact>
</mgrwt>
</event>
<event>
 8    1  0.2354930E-010  0.1619890E+04  0.7818608E-02  0.8808421E-01
          1   -1    0    0  501    0  0.00000000000E+00  0.00000000000E+00  0.64033928910E+03  0.64033928912E+03  0.50400000000E-02 0.  1.
         -1   -1    0    0    0  501 -0.00000000000E+00 -0.00000000000E+00 -0.10244735461E+04  0.10244735461E+04  0.50400000000E-02 0. -1.
     200001    2    1    2    0    0 -0.25342807945E+03  0.22744597747E+03  0.37976853668E+02  0.77929871685E+03  0.69993341437E+03 0.  0.
    5000001    2    3    3    0    0  0.73278668223E+01  0.10472939544E+03  0.23328384670E+02  0.20200537663E+03  0.17099711914E+03 0.  0.
        -11    1    4    4    0    0  0.42543128206E+02  0.51584502342E+02  0.85152851655E+02  0.10826766269E+03  0.51100000000E-03 0. -1.
     200002    1    4    4    0    0 -0.35215261383E+02  0.53144893099E+02 -0.61824466984E+02  0.93737713940E+02  0.30000000000E+02 0. -1.
     200000    1    3    3    0    0 -0.26075594627E+03  0.12271658202E+03  0.14648468998E+02  0.57729334022E+03  0.50000000000E+03 0.  1.
    -200001    1    1    2    0    0  0.25342807945E+03 -0.22744597747E+03 -0.42211111068E+03  0.88551411839E+03  0.70000000000E+03 0.  1.
<mgrwt>
<rscale>  0 0.16198897E+04</rscale>
<asrwt>0</asrwt>
<pdfrwt beam="1">  1        1 0.91477041E-01 0.16198897E+04</pdfrwt>
<pdfrwt beam="2">  1       -1 0.14635336E+00 0.16198897E+04</pdfrwt>
<totfact> 0.12428104E+01</totfact>
</mgrwt>
</event>
<event>
 8    1  0.2354930E-010  0.1633733E+04  0.7818608E-02  0.8800088E-01
         -1   -1    0    0    0  501 -0.00000000000E+00  0.00000000000E+00  0.12343975639E+04  0.12343975640E+04  0.50400000000E-02 0. -1.
          1   -1    0    0  501    0  0.00000000000E+00 -0.00000000000E+00 -0.54056416551E+03  0.54056416553E+03  0.50400000000E-02 0.  1.
     200001    2    1    2    0    0  0.18372259804E+03 -0.21292298322E+01  0.75827111390E+03  0.10483870631E+04  0.70027267923E+03 0.  0.
    5000001    2    3    3    0    0  0.64381548311E+02  0.25455250201E+02  0.33508256006E+03  0.38198497594E+03  0.16982121852E+03 0.  0.
        -11    1    4    4    0    0  0.70957837078E+02  0.43359713004E+02  0.55101510852E+02  0.99755981540E+02  0.51100000000E-03 0. -1.
     200002    1    4    4    0    0 -0.65762887670E+01 -0.17904462803E+02  0.27998104921E+03  0.28222899440E+03  0.30000000000E+02 0. -1.
     200000    1    3    3    0    0  0.11934104973E+03 -0.27584480033E+02  0.42318855384E+03  0.66640208718E+03  0.50000000000E+03 0. -1.
    -200001    1    1    2    0    0 -0.18372259804E+03  0.21292298322E+01 -0.64437715464E+02  0.72657466638E+03  0.70000000000E+03 0.  1.
<mgrwt>
<rscale>  0 0.16337333E+04</rscale>
<asrwt>0</asrwt>
<pdfrwt beam="1">  1        1 0.77223453E-01 0.16337333E+04</pdfrwt>
<pdfrwt beam="2">  1       -1 0.17634251E+00 0.16337333E+04</pdfrwt>
<totfact> 0.93544266E+00</totfact>
</mgrwt>
</event>
<event>
 8    1  0.2354930E-010  0.1418254E+04  0.7818608E-02  0.8940710E-01
          1   -1    0    0  501    0  0.00000000000E+00  0.00000000000E+00  0.38360245621E+03  0.38360245625E+03  0.50400000000E-02 0.  1.
         -1   -1    0    0    0  501 -0.00000000000E+00 -0.00000000000E+00 -0.13108912961E+04  0.13108912962E+04  0.50400000000E-02 0. -1.
     200001    2    1    2    0    0 -0.29489345216E+02 -0.46926237290E+02 -0.34593677715E+03  0.78287874917E+03  0.70011084043E+03 0.  0.
    5000001    2    3    3    0    0 -0.36087657400E+02 -0.44902520337E+02 -0.13401672971E+03  0.23977862980E+03  0.19030173966E+03 0.  0.
        -11    1    4    4    0    0 -0.68507932280E+01 -0.10957494879E+03 -0.36936818630E+02  0.11583579473E+03  0.51100000000E-03 0. -1.
     200002    1    4    4    0    0 -0.29236864172E+02  0.64672428454E+02 -0.97079911078E+02  0.12394283506E+03  0.30000000000E+02 0. -1.
     200000    1    3    3    0    0  0.65983121831E+01 -0.20237169529E+01 -0.21192004745E+03  0.54310011937E+03  0.50000000000E+03 0.  1.
    -200001    1    1    2    0    0  0.29489345216E+02  0.46926237290E+02 -0.58135206278E+03  0.91161500324E+03  0.70000000000E+03 0. -1.
<mgrwt>
<rscale>  0 0.14182540E+04</rscale>
<asrwt>0</asrwt>
<pdfrwt beam="1">  1        1 0.54800352E-01 0.14182540E+04</pdfrwt>
<pdfrwt beam="2">  1       -1 0.18727018E+00 0.14182540E+04</pdfrwt>
<totfact> 0.12604164E+01</totfact>
</mgrwt>
</event>
