<event>
 4    1  0.6207184E-004  0.1643649E+03  0.7818608E-02  0.1183855E+00
          2   -1    0    0  501    0  0.00000000000E+00  0.00000000000E+00  0.24117565163E+02  0.24117565298E+02  0.25500000000E-02 0.  1.
         -2   -1    0    0    0  501 -0.00000000000E+00 -0.00000000000E+00 -0.28004309733E+03  0.28004309734E+03  0.25500000000E-02 0. -1.
    5000001    1    1    2    0    0 -0.89547818766E+00 -0.25970828310E+02 -0.10532341524E+03  0.13303122792E+03  0.77000000000E+02 0.  0.
   -5000001    1    1    2    0    0  0.89547818766E+00  0.25970828310E+02 -0.15060211693E+03  0.17112943472E+03  0.77000000000E+02 0.  0.
<mgrwt>
<rscale>  0 0.16436493E+03</rscale>
<asrwt>0</asrwt>
<pdfrwt beam="1">  1        2 0.37103948E-02 0.16436493E+03</pdfrwt>
<pdfrwt beam="2">  1       -2 0.43083551E-01 0.16436493E+03</pdfrwt>
<totfact> 0.11522297E+04</totfact>
</mgrwt>
</event>
<event>
 4    1  0.6207184E-004  0.2089169E+03  0.7818608E-02  0.1142427E+00
          2   -1    0    0  501    0  0.00000000000E+00  0.00000000000E+00  0.21352443625E+04  0.21352443625E+04  0.25500000000E-02 0.  1.
         -2   -1    0    0    0  501 -0.00000000000E+00 -0.00000000000E+00 -0.51102198762E+01  0.51102205124E+01  0.25500000000E-02 0. -1.
    5000001    1    1    2    0    0  0.35813358310E+02  0.20289542393E+02  0.16525541120E+04  0.16548590137E+04  0.77000000000E+02 0.  0.
   -5000001    1    1    2    0    0 -0.35813358310E+02 -0.20289542393E+02  0.47758003058E+03  0.48549556927E+03  0.77000000000E+02 0.  0.
<mgrwt>
<rscale>  0 0.20891691E+03</rscale>
<asrwt>0</asrwt>
<pdfrwt beam="1">  1        2 0.32849990E+00 0.20891691E+03</pdfrwt>
<pdfrwt beam="2">  1       -2 0.78618589E-03 0.20891691E+03</pdfrwt>
<totfact> 0.18889314E+04</totfact>
</mgrwt>
</event>
<event>
 4    1  0.6207184E-004  0.2901976E+03  0.7818608E-02  0.1090246E+00
          2   -1    0    0  501    0  0.00000000000E+00  0.00000000000E+00  0.38115364128E+03  0.38115364128E+03  0.25500000000E-02 0.  1.
         -2   -1    0    0    0  501 -0.00000000000E+00 -0.00000000000E+00 -0.55236683303E+02  0.55236683362E+02  0.25500000000E-02 0. -1.
    5000001    1    1    2    0    0 -0.48765776897E+00  0.83162885524E+02  0.29919999654E+03  0.31994677881E+03  0.77000000000E+02 0.  0.
   -5000001    1    1    2    0    0  0.48765776897E+00 -0.83162885524E+02  0.26716961427E+02  0.11644354584E+03  0.77000000000E+02 0.  0.
<mgrwt>
<rscale>  0 0.29019761E+03</rscale>
<asrwt>0</asrwt>
<pdfrwt beam="1">  1        2 0.58639021E-01 0.29019761E+03</pdfrwt>
<pdfrwt beam="2">  1       -2 0.84979514E-02 0.29019761E+03</pdfrwt>
<totfact> 0.72081529E+03</totfact>
</mgrwt>
</event>
<event>
 4    1  0.6207184E-004  0.3280957E+03  0.7818608E-02  0.1071983E+00
          2   -1    0    0  501    0  0.00000000000E+00  0.00000000000E+00  0.16435084283E+04  0.16435084283E+04  0.25500000000E-02 0.  1.
         -2   -1    0    0    0  501 -0.00000000000E+00 -0.00000000000E+00 -0.16374536898E+02  0.16374537097E+02  0.25500000000E-02 0. -1.
    5000001    1    1    2    0    0 -0.13108925305E+03  0.61602313928E+02  0.80416698019E+03  0.82072697615E+03  0.77000000000E+02 0.  0.
   -5000001    1    1    2    0    0  0.13108925305E+03 -0.61602313928E+02  0.82296691122E+03  0.83915598926E+03  0.77000000000E+02 0.  0.
<mgrwt>
<rscale>  0 0.32809565E+03</rscale>
<asrwt>0</asrwt>
<pdfrwt beam="1">  1        2 0.25284750E+00 0.32809565E+03</pdfrwt>
<pdfrwt beam="2">  1       -2 0.25191591E-02 0.32809565E+03</pdfrwt>
<totfact> 0.62991432E+03</totfact>
</mgrwt>
</event>
<event>
 4    1  0.6207184E-004  0.2474402E+03  0.7818608E-02  0.1114933E+00
          2   -1    0    0  501    0  0.00000000000E+00  0.00000000000E+00  0.26190079545E+04  0.26190079545E+04  0.25500000000E-02 0.  1.
         -2   -1    0    0    0  501 -0.00000000000E+00 -0.00000000000E+00 -0.58444526198E+01  0.58444531761E+01  0.25500000000E-02 0. -1.
    5000001    1    1    2    0    0  0.96093512656E+02 -0.28970230383E+01  0.14299785396E+04  0.14352734860E+04  0.77000000000E+02 0.  0.
   -5000001    1    1    2    0    0 -0.96093512656E+02  0.28970230383E+01  0.11831849623E+04  0.11895789217E+04  0.77000000000E+02 0.  0.
<mgrwt>
<rscale>  0 0.24744024E+03</rscale>
<asrwt>0</asrwt>
<pdfrwt beam="1">  1        2 0.40292364E+00 0.24744024E+03</pdfrwt>
<pdfrwt beam="2">  1       -2 0.89914808E-03 0.24744024E+03</pdfrwt>
<totfact> 0.85744593E+03</totfact>
</mgrwt>
</event>
<event>
 4    1  0.6207184E-004  0.2349614E+03  0.7818608E-02  0.1123196E+00
          2   -1    0    0  501    0  0.00000000000E+00  0.00000000000E+00  0.21650848523E+04  0.21650848523E+04  0.25500000000E-02 0.  1.
         -2   -1    0    0    0  501 -0.00000000000E+00 -0.00000000000E+00 -0.63746746313E+01  0.63746751414E+01  0.25500000000E-02 0. -1.
    5000001    1    1    2    0    0  0.86177614036E+02  0.19079640962E+02  0.99561719736E+03  0.10024835248E+04  0.77000000000E+02 0.  0.
   -5000001    1    1    2    0    0 -0.86177614036E+02 -0.19079640962E+02  0.11630929803E+04  0.11689760026E+04  0.77000000000E+02 0.  0.
<mgrwt>
<rscale>  0 0.23496138E+03</rscale>
<asrwt>0</asrwt>
<pdfrwt beam="1">  1        2 0.33309013E+00 0.23496138E+03</pdfrwt>
<pdfrwt beam="2">  1       -2 0.98071877E-03 0.23496138E+03</pdfrwt>
<totfact> 0.13283546E+04</totfact>
</mgrwt>
</event>
<event>
 4    1  0.6207184E-004  0.3046269E+03  0.7818608E-02  0.1082950E+00
         -2   -1    0    0    0  501 -0.00000000000E+00  0.00000000000E+00  0.68885697334E+01  0.68885702054E+01  0.25500000000E-02 0. -1.
          2   -1    0    0  501    0  0.00000000000E+00 -0.00000000000E+00 -0.33678079223E+04  0.33678079223E+04  0.25500000000E-02 0.  1.
    5000001    1    1    2    0    0 -0.11757884592E+03  0.39056373981E+02 -0.21659037638E+04  0.21708105167E+04  0.77000000000E+02 0.  0.
   -5000001    1    1    2    0    0  0.11757884592E+03 -0.39056373981E+02 -0.11950155887E+04  0.12038859758E+04  0.77000000000E+02 0.  0.
<mgrwt>
<rscale>  0 0.30462686E+03</rscale>
<asrwt>0</asrwt>
<pdfrwt beam="1">  1        2 0.51812298E+00 0.30462686E+03</pdfrwt>
<pdfrwt beam="2">  1       -2 0.10597827E-02 0.30462686E+03</pdfrwt>
<totfact> 0.24139703E+03</totfact>
</mgrwt>
</event>
<event>
 4    1  0.6207184E-004  0.1809761E+03  0.7818608E-02  0.1166862E+00
         -2   -1    0    0    0  501 -0.00000000000E+00  0.00000000000E+00  0.98830859960E+02  0.98830859993E+02  0.25500000000E-02 0. -1.
          2   -1    0    0  501    0  0.00000000000E+00 -0.00000000000E+00 -0.82849543427E+02  0.82849543466E+02  0.25500000000E-02 0.  1.
    5000001    1    1    2    0    0  0.26982736031E+02  0.16747156395E+01 -0.31253907515E+02  0.87388096736E+02  0.77000000000E+02 0.  0.
   -5000001    1    1    2    0    0 -0.26982736031E+02 -0.16747156395E+01  0.47235224048E+02  0.94292306723E+02  0.77000000000E+02 0.  0.
<mgrwt>
<rscale>  0 0.18097615E+03</rscale>
<asrwt>0</asrwt>
<pdfrwt beam="1">  1        2 0.12746084E-01 0.18097615E+03</pdfrwt>
<pdfrwt beam="2">  1       -2 0.15204748E-01 0.18097615E+03</pdfrwt>
<totfact> 0.15175989E+04</totfact>
</mgrwt>
</event>
<event>
 4    1  0.6207184E-004  0.2607919E+03  0.7818608E-02  0.1106668E+00
          2   -1    0    0  501    0  0.00000000000E+00  0.00000000000E+00  0.13464384029E+04  0.13464384029E+04  0.25500000000E-02 0.  1.
         -2   -1    0    0    0  501 -0.00000000000E+00 -0.00000000000E+00 -0.12628209043E+02  0.12628209300E+02  0.25500000000E-02 0. -1.
    5000001    1    1    2    0    0  0.52729696711E+02 -0.82293418095E+02  0.87017799941E+03  0.87902865610E+03  0.77000000000E+02 0.  0.
   -5000001    1    1    2    0    0 -0.52729696711E+02  0.82293418095E+02  0.46363219445E+03  0.48003795611E+03  0.77000000000E+02 0.  0.
<mgrwt>
<rscale>  0 0.26079192E+03</rscale>
<asrwt>0</asrwt>
<pdfrwt beam="1">  1        2 0.20714426E+00 0.26079192E+03</pdfrwt>
<pdfrwt beam="2">  1       -2 0.19428024E-02 0.26079192E+03</pdfrwt>
<totfact> 0.13310085E+04</totfact>
</mgrwt>
</event>
<event>
 4    1  0.6207184E-004  0.3168570E+03  0.7818608E-02  0.1077105E+00
         -2   -1    0    0    0  501 -0.00000000000E+00  0.00000000000E+00  0.40172831903E+02  0.40172831984E+02  0.25500000000E-02 0. -1.
          2   -1    0    0  501    0  0.00000000000E+00 -0.00000000000E+00 -0.62479008732E+03  0.62479008733E+03  0.25500000000E-02 0.  1.
    5000001    1    1    2    0    0 -0.11448418924E+03 -0.57583972189E+01 -0.12933341717E+03  0.18919810126E+03  0.77000000000E+02 0.  0.
   -5000001    1    1    2    0    0  0.11448418924E+03  0.57583972189E+01 -0.45528383825E+03  0.47576481805E+03  0.77000000000E+02 0.  0.
<mgrwt>
<rscale>  0 0.31685698E+03</rscale>
<asrwt>0</asrwt>
<pdfrwt beam="1">  1        2 0.96121545E-01 0.31685698E+03</pdfrwt>
<pdfrwt beam="2">  1       -2 0.61804361E-02 0.31685698E+03</pdfrwt>
<totfact> 0.68102057E+03</totfact>
</mgrwt>
</event>
<event>
 4    1  0.6207184E-004  0.1820273E+03  0.7818608E-02  0.1165855E+00
          2   -1    0    0  501    0  0.00000000000E+00  0.00000000000E+00  0.49761194477E+03  0.49761194478E+03  0.25500000000E-02 0.  1.
         -2   -1    0    0    0  501 -0.00000000000E+00 -0.00000000000E+00 -0.16646465274E+02  0.16646465469E+02  0.25500000000E-02 0. -1.
    5000001    1    1    2    0    0  0.36192099096E+02 -0.31231170725E+02  0.26398877865E+03  0.27911347032E+03  0.77000000000E+02 0.  0.
   -5000001    1    1    2    0    0 -0.36192099096E+02  0.31231170725E+02  0.21697670085E+03  0.23514493993E+03  0.77000000000E+02 0.  0.
<mgrwt>
<rscale>  0 0.18202725E+03</rscale>
<asrwt>0</asrwt>
<pdfrwt beam="1">  1        2 0.76555693E-01 0.18202725E+03</pdfrwt>
<pdfrwt beam="2">  1       -2 0.25609944E-02 0.18202725E+03</pdfrwt>
<totfact> 0.32203043E+04</totfact>
</mgrwt>
</event>
<event>
 4    1  0.6207184E-004  0.2111065E+03  0.7818608E-02  0.1140693E+00
         -2   -1    0    0    0  501 -0.00000000000E+00  0.00000000000E+00  0.54991153305E+01  0.54991159217E+01  0.25500000000E-02 0. -1.
          2   -1    0    0  501    0  0.00000000000E+00 -0.00000000000E+00 -0.20260511771E+04  0.20260511771E+04  0.25500000000E-02 0.  1.
    5000001    1    1    2    0    0  0.28070326909E+02 -0.61420405834E+02 -0.76453569203E+03  0.77136517545E+03  0.77000000000E+02 0.  0.
   -5000001    1    1    2    0    0 -0.28070326909E+02  0.61420405834E+02 -0.12560163698E+04  0.12601851176E+04  0.77000000000E+02 0.  0.
<mgrwt>
<rscale>  0 0.21110651E+03</rscale>
<asrwt>0</asrwt>
<pdfrwt beam="1">  1        2 0.31169959E+00 0.21110651E+03</pdfrwt>
<pdfrwt beam="2">  1       -2 0.84601940E-03 0.21110651E+03</pdfrwt>
<totfact> 0.19391459E+04</totfact>
</mgrwt>
</event>
<event>
 4    1  0.6207184E-004  0.1748683E+03  0.7818608E-02  0.1172864E+00
         -2   -1    0    0    0  501 -0.00000000000E+00  0.00000000000E+00  0.37585662193E+02  0.37585662279E+02  0.25500000000E-02 0. -1.
          2   -1    0    0  501    0  0.00000000000E+00 -0.00000000000E+00 -0.20339493125E+03  0.20339493127E+03  0.25500000000E-02 0.  1.
    5000001    1    1    2    0    0  0.83534137015E+01  0.33605836113E+02 -0.11422657917E+03  0.14204169504E+03  0.77000000000E+02 0.  0.
   -5000001    1    1    2    0    0 -0.83534137015E+01 -0.33605836113E+02 -0.51582689888E+02  0.98938898505E+02  0.77000000000E+02 0.  0.
<mgrwt>
<rscale>  0 0.17486833E+03</rscale>
<asrwt>0</asrwt>
<pdfrwt beam="1">  1        2 0.31291527E-01 0.17486833E+03</pdfrwt>
<pdfrwt beam="2">  1       -2 0.57824097E-02 0.17486833E+03</pdfrwt>
<totfact> 0.24926422E+04</totfact>
</mgrwt>
</event>
<event>
 4    1  0.6207184E-004  0.2639578E+03  0.7818608E-02  0.1104788E+00
         -2   -1    0    0    0  501 -0.00000000000E+00  0.00000000000E+00  0.64387761028E+02  0.64387761078E+02  0.25500000000E-02 0. -1.
          2   -1    0    0  501    0  0.00000000000E+00 -0.00000000000E+00 -0.27052400561E+03  0.27052400562E+03  0.25500000000E-02 0.  1.
    5000001    1    1    2    0    0  0.65518659032E+01  0.10456093025E+03 -0.13182054908E+03  0.18515283482E+03  0.77000000000E+02 0.  0.
   -5000001    1    1    2    0    0 -0.65518659032E+01 -0.10456093025E+03 -0.74315695496E+02  0.14975893188E+03  0.77000000000E+02 0.  0.
<mgrwt>
<rscale>  0 0.26395784E+03</rscale>
<asrwt>0</asrwt>
<pdfrwt beam="1">  1        2 0.41619077E-01 0.26395784E+03</pdfrwt>
<pdfrwt beam="2">  1       -2 0.99058095E-02 0.26395784E+03</pdfrwt>
<totfact> 0.81597287E+03</totfact>
</mgrwt>
</event>
<event>
 4    1  0.6207184E-004  0.2770927E+03  0.7818608E-02  0.1097288E+00
         -2   -1    0    0    0  501 -0.00000000000E+00  0.00000000000E+00  0.24526837177E+02  0.24526837309E+02  0.25500000000E-02 0. -1.
          2   -1    0    0  501    0  0.00000000000E+00 -0.00000000000E+00 -0.78261581976E+03  0.78261581976E+03  0.25500000000E-02 0.  1.
    5000001    1    1    2    0    0 -0.74240937195E+02 -0.86696300620E+02 -0.33409464521E+03  0.36135328593E+03  0.77000000000E+02 0.  0.
   -5000001    1    1    2    0    0  0.74240937195E+02  0.86696300620E+02 -0.42399433737E+03  0.44578937114E+03  0.77000000000E+02 0.  0.
<mgrwt>
<rscale>  0 0.27709270E+03</rscale>
<asrwt>0</asrwt>
<pdfrwt beam="1">  1        2 0.12040241E+00 0.27709270E+03</pdfrwt>
<pdfrwt beam="2">  1       -2 0.37733602E-02 0.27709270E+03</pdfrwt>
<totfact> 0.10916996E+04</totfact>
</mgrwt>
</event>
<event>
 4    1  0.6207184E-004  0.3525096E+03  0.7818608E-02  0.1061590E+00
         -2   -1    0    0    0  501 -0.00000000000E+00  0.00000000000E+00  0.13498740141E+02  0.13498740382E+02  0.25500000000E-02 0. -1.
          2   -1    0    0  501    0  0.00000000000E+00 -0.00000000000E+00 -0.23013818529E+04  0.23013818529E+04  0.25500000000E-02 0.  1.
    5000001    1    1    2    0    0 -0.10308668703E+03  0.28837213115E+02 -0.37591932216E+03  0.39837518331E+03  0.77000000000E+02 0.  0.
   -5000001    1    1    2    0    0  0.10308668703E+03 -0.28837213115E+02 -0.19119637906E+04  0.19165054100E+04  0.77000000000E+02 0.  0.
<mgrwt>
<rscale>  0 0.35250961E+03</rscale>
<asrwt>0</asrwt>
<pdfrwt beam="1">  1        2 0.35405843E+00 0.35250961E+03</pdfrwt>
<pdfrwt beam="2">  1       -2 0.20767311E-02 0.35250961E+03</pdfrwt>
<totfact> 0.37461523E+03</totfact>
</mgrwt>
</event>
<event>
 4    1  0.6207184E-004  0.3167231E+03  0.7818608E-02  0.1077167E+00
          2   -1    0    0  501    0  0.00000000000E+00  0.00000000000E+00  0.46076905037E+03  0.46076905038E+03  0.25500000000E-02 0.  1.
         -2   -1    0    0    0  501 -0.00000000000E+00 -0.00000000000E+00 -0.54427209354E+02  0.54427209414E+02  0.25500000000E-02 0. -1.
    5000001    1    1    2    0    0  0.26643017291E+02  0.12139013330E+03  0.30216884574E+03  0.33567905232E+03  0.77000000000E+02 0.  0.
   -5000001    1    1    2    0    0 -0.26643017291E+02 -0.12139013330E+03  0.10417299528E+03  0.17951720747E+03  0.77000000000E+02 0.  0.
<mgrwt>
<rscale>  0 0.31672306E+03</rscale>
<asrwt>0</asrwt>
<pdfrwt beam="1">  1        2 0.70887545E-01 0.31672306E+03</pdfrwt>
<pdfrwt beam="2">  1       -2 0.83734169E-02 0.31672306E+03</pdfrwt>
<totfact> 0.60078591E+03</totfact>
</mgrwt>
</event>
<event>
 4    1  0.6207184E-004  0.1859595E+03  0.7818608E-02  0.1162157E+00
         -2   -1    0    0    0  501 -0.00000000000E+00  0.00000000000E+00  0.14241866755E+03  0.14241866757E+03  0.25500000000E-02 0. -1.
          2   -1    0    0  501    0  0.00000000000E+00 -0.00000000000E+00 -0.60702980742E+02  0.60702980796E+02  0.25500000000E-02 0.  1.
    5000001    1    1    2    0    0 -0.50694905813E+02  0.54663118288E+01  0.52641596769E+02  0.10630141933E+03  0.77000000000E+02 0.  0.
   -5000001    1    1    2    0    0  0.50694905813E+02 -0.54663118288E+01  0.29074090040E+02  0.96820229044E+02  0.77000000000E+02 0.  0.
<mgrwt>
<rscale>  0 0.18595954E+03</rscale>
<asrwt>0</asrwt>
<pdfrwt beam="1">  1        2 0.93389201E-02 0.18595954E+03</pdfrwt>
<pdfrwt beam="2">  1       -2 0.21910564E-01 0.18595954E+03</pdfrwt>
<totfact> 0.12033923E+04</totfact>
</mgrwt>
</event>
<event>
 4    1  0.6207184E-004  0.2082191E+03  0.7818608E-02  0.1142984E+00
         -2   -1    0    0    0  501 -0.00000000000E+00  0.00000000000E+00  0.57267475897E+01  0.57267481574E+01  0.25500000000E-02 0. -1.
          2   -1    0    0  501    0  0.00000000000E+00 -0.00000000000E+00 -0.18926616646E+04  0.18926616646E+04  0.25500000000E-02 0.  1.
    5000001    1    1    2    0    0  0.44575925479E+02 -0.53912222039E+02 -0.90670854189E+03  0.91265706635E+03  0.77000000000E+02 0.  0.
   -5000001    1    1    2    0    0 -0.44575925479E+02  0.53912222039E+02 -0.98022637512E+03  0.98573134641E+03  0.77000000000E+02 0.  0.
<mgrwt>
<rscale>  0 0.20821908E+03</rscale>
<asrwt>0</asrwt>
<pdfrwt beam="1">  1        2 0.29117822E+00 0.20821908E+03</pdfrwt>
<pdfrwt beam="2">  1       -2 0.88103964E-03 0.20821908E+03</pdfrwt>
<totfact> 0.21450020E+04</totfact>
</mgrwt>
</event>
<event>
 4    1  0.6207184E-004  0.1959849E+03  0.7818608E-02  0.1153171E+00
         -2   -1    0    0    0  501 -0.00000000000E+00  0.00000000000E+00  0.25788949399E+02  0.25788949526E+02  0.25500000000E-02 0. -1.
          2   -1    0    0  501    0  0.00000000000E+00 -0.00000000000E+00 -0.37235034897E+03  0.37235034898E+03  0.25500000000E-02 0.  1.
    5000001    1    1    2    0    0  0.28242968707E+02 -0.41071142481E+02 -0.24333051265E+03  0.26004469310E+03  0.77000000000E+02 0.  0.
   -5000001    1    1    2    0    0 -0.28242968707E+02  0.41071142481E+02 -0.10323088693E+03  0.13809460540E+03  0.77000000000E+02 0.  0.
<mgrwt>
<rscale>  0 0.19598494E+03</rscale>
<asrwt>0</asrwt>
<pdfrwt beam="1">  1        2 0.57284665E-01 0.19598494E+03</pdfrwt>
<pdfrwt beam="2">  1       -2 0.39675310E-02 0.19598494E+03</pdfrwt>
<totfact> 0.23208277E+04</totfact>
</mgrwt>
</event>
<event>
 4    1  0.6207184E-004  0.2001040E+03  0.7818608E-02  0.1149651E+00
         -2   -1    0    0    0  501 -0.00000000000E+00  0.00000000000E+00  0.90568770659E+02  0.90568770695E+02  0.25500000000E-02 0. -1.
          2   -1    0    0  501    0  0.00000000000E+00 -0.00000000000E+00 -0.11052818921E+03  0.11052818924E+03  0.25500000000E-02 0.  1.
    5000001    1    1    2    0    0  0.17767284196E+02 -0.27785050447E+02 -0.64966086037E+02  0.10600602696E+03  0.77000000000E+02 0.  0.
   -5000001    1    1    2    0    0 -0.17767284196E+02  0.27785050447E+02  0.45006667487E+02  0.95090932976E+02  0.77000000000E+02 0.  0.
<mgrwt>
<rscale>  0 0.20010400E+03</rscale>
<asrwt>0</asrwt>
<pdfrwt beam="1">  1        2 0.17004337E-01 0.20010400E+03</pdfrwt>
<pdfrwt beam="2">  1       -2 0.13933657E-01 0.20010400E+03</pdfrwt>
<totfact> 0.12550018E+04</totfact>
</mgrwt>
</event>
<event>
 4    1  0.6207184E-004  0.2277859E+03  0.7818608E-02  0.1128208E+00
          2   -1    0    0  501    0  0.00000000000E+00  0.00000000000E+00  0.50735488110E+03  0.50735488111E+03  0.25500000000E-02 0.  1.
         -2   -1    0    0    0  501 -0.00000000000E+00 -0.00000000000E+00 -0.25567115606E+02  0.25567115733E+02  0.25500000000E-02 0. -1.
    5000001    1    1    2    0    0  0.52384511551E+02 -0.54685160348E+02  0.32550749876E+03  0.34295587990E+03  0.77000000000E+02 0.  0.
   -5000001    1    1    2    0    0 -0.52384511551E+02  0.54685160348E+02  0.15628026674E+03  0.18996611694E+03  0.77000000000E+02 0.  0.
<mgrwt>
<rscale>  0 0.22778587E+03</rscale>
<asrwt>0</asrwt>
<pdfrwt beam="1">  1        2 0.78054593E-01 0.22778587E+03</pdfrwt>
<pdfrwt beam="2">  1       -2 0.39334026E-02 0.22778587E+03</pdfrwt>
<totfact> 0.16943031E+04</totfact>
</mgrwt>
</event>
<event>
 4    1  0.6207184E-004  0.2880367E+03  0.7818608E-02  0.1091379E+00
          2   -1    0    0  501    0  0.00000000000E+00  0.00000000000E+00  0.24577232006E+03  0.24577232007E+03  0.25500000000E-02 0.  1.
         -2   -1    0    0    0  501 -0.00000000000E+00 -0.00000000000E+00 -0.84392289512E+02  0.84392289550E+02  0.25500000000E-02 0. -1.
    5000001    1    1    2    0    0 -0.69094204642E+02  0.79769929097E+02  0.15017861768E+03  0.19904740117E+03  0.77000000000E+02 0.  0.
   -5000001    1    1    2    0    0  0.69094204642E+02 -0.79769929097E+02  0.11201412869E+02  0.13111720846E+03  0.77000000000E+02 0.  0.
<mgrwt>
<rscale>  0 0.28803673E+03</rscale>
<asrwt>0</asrwt>
<pdfrwt beam="1">  1        2 0.37811127E-01 0.28803673E+03</pdfrwt>
<pdfrwt beam="2">  1       -2 0.12983429E-01 0.28803673E+03</pdfrwt>
<totfact> 0.58777316E+03</totfact>
</mgrwt>
</event>
<event>
 4    1  0.6207184E-004  0.2773435E+03  0.7818608E-02  0.1097149E+00
         -2   -1    0    0    0  501 -0.00000000000E+00  0.00000000000E+00  0.15438510745E+02  0.15438510955E+02  0.25500000000E-02 0. -1.
          2   -1    0    0  501    0  0.00000000000E+00 -0.00000000000E+00 -0.12455771582E+04  0.12455771582E+04  0.25500000000E-02 0.  1.
    5000001    1    1    2    0    0 -0.96370865081E+02  0.58434932376E+02 -0.72633707086E+03  0.73905109801E+03  0.77000000000E+02 0.  0.
   -5000001    1    1    2    0    0  0.96370865081E+02 -0.58434932376E+02 -0.50380157659E+03  0.52196457115E+03  0.77000000000E+02 0.  0.
<mgrwt>
<rscale>  0 0.27734352E+03</rscale>
<asrwt>0</asrwt>
<pdfrwt beam="1">  1        2 0.19162718E+00 0.27734352E+03</pdfrwt>
<pdfrwt beam="2">  1       -2 0.23751565E-02 0.27734352E+03</pdfrwt>
<totfact> 0.11278135E+04</totfact>
</mgrwt>
</event>
<event>
 4    1  0.6207184E-004  0.2237557E+03  0.7818608E-02  0.1131114E+00
         -2   -1    0    0    0  501 -0.00000000000E+00  0.00000000000E+00  0.29375288733E+03  0.29375288735E+03  0.25500000000E-02 0. -1.
          2   -1    0    0  501    0  0.00000000000E+00 -0.00000000000E+00 -0.42609473609E+02  0.42609473686E+02  0.25500000000E-02 0.  1.
    5000001    1    1    2    0    0 -0.50300284858E+02  0.62313689789E+02  0.14543184990E+03  0.18300966520E+03  0.77000000000E+02 0.  0.
   -5000001    1    1    2    0    0  0.50300284858E+02 -0.62313689789E+02  0.10571156383E+03  0.15335269583E+03  0.77000000000E+02 0.  0.
<mgrwt>
<rscale>  0 0.22375572E+03</rscale>
<asrwt>0</asrwt>
<pdfrwt beam="1">  1        2 0.65553035E-02 0.22375572E+03</pdfrwt>
<pdfrwt beam="2">  1       -2 0.45192753E-01 0.22375572E+03</pdfrwt>
<totfact> 0.50780783E+03</totfact>
</mgrwt>
</event>
<event>
 4    1  0.6207184E-004  0.2120966E+03  0.7818608E-02  0.1139916E+00
          2   -1    0    0  501    0  0.00000000000E+00  0.00000000000E+00  0.97283890841E+03  0.97283890841E+03  0.25500000000E-02 0.  1.
         -2   -1    0    0    0  501 -0.00000000000E+00 -0.00000000000E+00 -0.11560234713E+02  0.11560234994E+02  0.25500000000E-02 0. -1.
    5000001    1    1    2    0    0 -0.44984241331E+02 -0.44788543632E+01  0.21508676092E+03  0.23288399865E+03  0.77000000000E+02 0.  0.
   -5000001    1    1    2    0    0  0.44984241331E+02  0.44788543632E+01  0.74619191278E+03  0.75151514476E+03  0.77000000000E+02 0.  0.
<mgrwt>
<rscale>  0 0.21209664E+03</rscale>
<asrwt>0</asrwt>
<pdfrwt beam="1">  1        2 0.14966752E+00 0.21209664E+03</pdfrwt>
<pdfrwt beam="2">  1       -2 0.17784977E-02 0.21209664E+03</pdfrwt>
<totfact> 0.24621163E+04</totfact>
</mgrwt>
</event>
<event>
 4    1  0.6207184E-004  0.2584066E+03  0.7818608E-02  0.1108104E+00
          2   -1    0    0  501    0  0.00000000000E+00  0.00000000000E+00  0.26612369475E+04  0.26612369475E+04  0.25500000000E-02 0.  1.
         -2   -1    0    0    0  501 -0.00000000000E+00 -0.00000000000E+00 -0.62728300854E+01  0.62728306037E+01  0.25500000000E-02 0. -1.
    5000001    1    1    2    0    0 -0.43922800027E+02  0.81823659399E+02  0.18050399625E+04  0.18090667731E+04  0.77000000000E+02 0.  0.
   -5000001    1    1    2    0    0  0.43922800027E+02 -0.81823659399E+02  0.84992415500E+03  0.85844300501E+03  0.77000000000E+02 0.  0.
<mgrwt>
<rscale>  0 0.25840656E+03</rscale>
<asrwt>0</asrwt>
<pdfrwt beam="1">  1        2 0.40942108E+00 0.25840656E+03</pdfrwt>
<pdfrwt beam="2">  1       -2 0.96505079E-03 0.25840656E+03</pdfrwt>
<totfact> 0.73314483E+03</totfact>
</mgrwt>
</event>
<event>
 4    1  0.6207184E-004  0.3999035E+03  0.7818608E-02  0.1043813E+00
          2   -1    0    0  501    0  0.00000000000E+00  0.00000000000E+00  0.72081147326E+03  0.72081147327E+03  0.25500000000E-02 0.  1.
         -2   -1    0    0    0  501 -0.00000000000E+00 -0.00000000000E+00 -0.55466239930E+02  0.55466239989E+02  0.25500000000E-02 0. -1.
    5000001    1    1    2    0    0  0.11570962374E+03  0.13571319404E+03  0.24069931530E+03  0.30930882375E+03  0.77000000000E+02 0.  0.
   -5000001    1    1    2    0    0 -0.11570962374E+03 -0.13571319404E+03  0.42464591804E+03  0.46696888951E+03  0.77000000000E+02 0.  0.
<mgrwt>
<rscale>  0 0.39990350E+03</rscale>
<asrwt>0</asrwt>
<pdfrwt beam="1">  1        2 0.11089407E+00 0.39990350E+03</pdfrwt>
<pdfrwt beam="2">  1       -2 0.85332679E-02 0.39990350E+03</pdfrwt>
<totfact> 0.34737534E+03</totfact>
</mgrwt>
</event>
<event>
 4    1  0.6207184E-004  0.4094725E+03  0.7818608E-02  0.1040548E+00
          2   -1    0    0  501    0  0.00000000000E+00  0.00000000000E+00  0.16086008451E+04  0.16086008451E+04  0.25500000000E-02 0.  1.
         -2   -1    0    0    0  501 -0.00000000000E+00 -0.00000000000E+00 -0.26058007437E+02  0.26058007562E+02  0.25500000000E-02 0. -1.
    5000001    1    1    2    0    0 -0.11979817180E+03 -0.14689145939E+03  0.82199512081E+03  0.84707359860E+03  0.77000000000E+02 0.  0.
   -5000001    1    1    2    0    0  0.11979817180E+03  0.14689145939E+03  0.76054771685E+03  0.78758525406E+03  0.77000000000E+02 0.  0.
<mgrwt>
<rscale>  0 0.40947250E+03</rscale>
<asrwt>0</asrwt>
<pdfrwt beam="1">  1        2 0.24747703E+00 0.40947250E+03</pdfrwt>
<pdfrwt beam="2">  1       -2 0.40089245E-02 0.40947250E+03</pdfrwt>
<totfact> 0.32682796E+03</totfact>
</mgrwt>
</event>
<event>
 4    1  0.6207184E-004  0.2287209E+03  0.7818608E-02  0.1127543E+00
         -2   -1    0    0    0  501 -0.00000000000E+00  0.00000000000E+00  0.60696473616E+01  0.60696478972E+01  0.25500000000E-02 0. -1.
          2   -1    0    0  501    0  0.00000000000E+00 -0.00000000000E+00 -0.21547069592E+04  0.21547069592E+04  0.25500000000E-02 0.  1.
    5000001    1    1    2    0    0 -0.28161227711E+02  0.54277094375E+02 -0.52262573952E+03  0.53179481131E+03  0.77000000000E+02 0.  0.
   -5000001    1    1    2    0    0  0.28161227711E+02 -0.54277094375E+02 -0.16260115723E+04  0.16289817957E+04  0.77000000000E+02 0.  0.
<mgrwt>
<rscale>  0 0.22872090E+03</rscale>
<asrwt>0</asrwt>
<pdfrwt beam="1">  1        2 0.33149277E+00 0.22872090E+03</pdfrwt>
<pdfrwt beam="2">  1       -2 0.93379367E-03 0.22872090E+03</pdfrwt>
<totfact> 0.14432172E+04</totfact>
</mgrwt>
</event>
<event>
 4    1  0.6207184E-004  0.2609308E+03  0.7818608E-02  0.1106585E+00
         -2   -1    0    0    0  501 -0.00000000000E+00  0.00000000000E+00  0.35378349677E+03  0.35378349678E+03  0.25500000000E-02 0. -1.
          2   -1    0    0  501    0  0.00000000000E+00 -0.00000000000E+00 -0.48111981207E+02  0.48111981274E+02  0.25500000000E-02 0.  1.
    5000001    1    1    2    0    0 -0.86328536445E+02  0.60022190036E+02  0.14347376576E+03  0.19382724515E+03  0.77000000000E+02 0.  0.
   -5000001    1    1    2    0    0  0.86328536445E+02 -0.60022190036E+02  0.16219774980E+03  0.20806823290E+03  0.77000000000E+02 0.  0.
<mgrwt>
<rscale>  0 0.26093083E+03</rscale>
<asrwt>0</asrwt>
<pdfrwt beam="1">  1        2 0.74018429E-02 0.26093083E+03</pdfrwt>
<pdfrwt beam="2">  1       -2 0.54428233E-01 0.26093083E+03</pdfrwt>
<totfact> 0.30208182E+03</totfact>
</mgrwt>
</event>
<event>
 4    1  0.6207184E-004  0.3969960E+03  0.7818608E-02  0.1044825E+00
          2   -1    0    0  501    0  0.00000000000E+00  0.00000000000E+00  0.16162910853E+04  0.16162910853E+04  0.25500000000E-02 0.  1.
         -2   -1    0    0    0  501 -0.00000000000E+00 -0.00000000000E+00 -0.24377692424E+02  0.24377692557E+02  0.25500000000E-02 0. -1.
    5000001    1    1    2    0    0 -0.16696858184E+03 -0.45636256637E+02  0.55106894870E+03  0.58272391530E+03  0.77000000000E+02 0.  0.
   -5000001    1    1    2    0    0  0.16696858184E+03  0.45636256637E+02  0.10408444442E+04  0.10579448625E+04  0.77000000000E+02 0.  0.
<mgrwt>
<rscale>  0 0.39699595E+03</rscale>
<asrwt>0</asrwt>
<pdfrwt beam="1">  1        2 0.24866018E+00 0.39699595E+03</pdfrwt>
<pdfrwt beam="2">  1       -2 0.37504140E-02 0.39699595E+03</pdfrwt>
<totfact> 0.35830272E+03</totfact>
</mgrwt>
</event>
<event>
 4    1  0.6207184E-004  0.3153430E+03  0.7818608E-02  0.1077813E+00
          2   -1    0    0  501    0  0.00000000000E+00  0.00000000000E+00  0.28286195370E+04  0.28286195370E+04  0.25500000000E-02 0.  1.
         -2   -1    0    0    0  501 -0.00000000000E+00 -0.00000000000E+00 -0.87888451585E+01  0.87888455284E+01  0.25500000000E-02 0. -1.
    5000001    1    1    2    0    0 -0.11663876986E+03  0.70763114403E+02  0.15706922323E+04  0.15784850679E+04  0.77000000000E+02 0.  0.
   -5000001    1    1    2    0    0  0.11663876986E+03 -0.70763114403E+02  0.12491384595E+04  0.12589233145E+04  0.77000000000E+02 0.  0.
<mgrwt>
<rscale>  0 0.31534299E+03</rscale>
<asrwt>0</asrwt>
<pdfrwt beam="1">  1        2 0.43517286E+00 0.31534299E+03</pdfrwt>
<pdfrwt beam="2">  1       -2 0.13521281E-02 0.31534299E+03</pdfrwt>
<totfact> 0.35926800E+03</totfact>
</mgrwt>
</event>
<event>
 4    1  0.6207184E-004  0.4295907E+03  0.7818608E-02  0.1033989E+00
         -2   -1    0    0    0  501 -0.00000000000E+00  0.00000000000E+00  0.42341430960E+02  0.42341431037E+02  0.25500000000E-02 0. -1.
          2   -1    0    0  501    0  0.00000000000E+00 -0.00000000000E+00 -0.10896427634E+04  0.10896427634E+04  0.25500000000E-02 0.  1.
    5000001    1    1    2    0    0  0.87383114455E+02 -0.14605370676E+03 -0.24428108395E+03  0.30752193731E+03  0.77000000000E+02 0.  0.
   -5000001    1    1    2    0    0 -0.87383114455E+02  0.14605370676E+03 -0.80302024851E+03  0.82446225715E+03  0.77000000000E+02 0.  0.
<mgrwt>
<rscale>  0 0.42959066E+03</rscale>
<asrwt>0</asrwt>
<pdfrwt beam="1">  1        2 0.16763733E+00 0.42959066E+03</pdfrwt>
<pdfrwt beam="2">  1       -2 0.65140671E-02 0.42959066E+03</pdfrwt>
<totfact> 0.30281278E+03</totfact>
</mgrwt>
</event>
<event>
 4    1  0.6207184E-004  0.2910059E+03  0.7818608E-02  0.1089825E+00
         -2   -1    0    0    0  501 -0.00000000000E+00  0.00000000000E+00  0.58985070797E+02  0.58985070853E+02  0.25500000000E-02 0. -1.
          2   -1    0    0  501    0  0.00000000000E+00 -0.00000000000E+00 -0.35892314706E+03  0.35892314707E+03  0.25500000000E-02 0.  1.
    5000001    1    1    2    0    0  0.46013394266E+02 -0.99346427880E+02 -0.68034796619E+02  0.15014885526E+03  0.77000000000E+02 0.  0.
   -5000001    1    1    2    0    0 -0.46013394266E+02  0.99346427880E+02 -0.23190327964E+03  0.26775936266E+03  0.77000000000E+02 0.  0.
<mgrwt>
<rscale>  0 0.29100589E+03</rscale>
<asrwt>0</asrwt>
<pdfrwt beam="1">  1        2 0.55218944E-01 0.29100589E+03</pdfrwt>
<pdfrwt beam="2">  1       -2 0.90746266E-02 0.29100589E+03</pdfrwt>
<totfact> 0.69380809E+03</totfact>
</mgrwt>
</event>
<event>
 4    1  0.6207184E-004  0.2900474E+03  0.7818608E-02  0.1090324E+00
          2   -1    0    0  501    0  0.00000000000E+00  0.00000000000E+00  0.54070958130E+03  0.54070958130E+03  0.25500000000E-02 0.  1.
         -2   -1    0    0    0  501 -0.00000000000E+00 -0.00000000000E+00 -0.38896795865E+02  0.38896795948E+02  0.25500000000E-02 0. -1.
    5000001    1    1    2    0    0 -0.33161392475E+02  0.10487055739E+03  0.36045638556E+03  0.38464960373E+03  0.77000000000E+02 0.  0.
   -5000001    1    1    2    0    0  0.33161392475E+02 -0.10487055739E+03  0.14135639988E+03  0.19495677353E+03  0.77000000000E+02 0.  0.
<mgrwt>
<rscale>  0 0.29004738E+03</rscale>
<asrwt>0</asrwt>
<pdfrwt beam="1">  1        2 0.83186082E-01 0.29004738E+03</pdfrwt>
<pdfrwt beam="2">  1       -2 0.59841230E-02 0.29004738E+03</pdfrwt>
<totfact> 0.84385286E+03</totfact>
</mgrwt>
</event>
<event>
 4    1  0.6207184E-004  0.3458768E+03  0.7818608E-02  0.1064320E+00
         -2   -1    0    0    0  501 -0.00000000000E+00  0.00000000000E+00  0.21904221599E+03  0.21904221600E+03  0.25500000000E-02 0. -1.
          2   -1    0    0  501    0  0.00000000000E+00 -0.00000000000E+00 -0.13653849680E+03  0.13653849682E+03  0.25500000000E-02 0.  1.
    5000001    1    1    2    0    0  0.70002487343E+02 -0.13013761704E+03 -0.63344406034E+01  0.16674913115E+03  0.77000000000E+02 0.  0.
   -5000001    1    1    2    0    0 -0.70002487343E+02  0.13013761704E+03  0.88838159792E+02  0.18883158167E+03  0.77000000000E+02 0.  0.
<mgrwt>
<rscale>  0 0.34587683E+03</rscale>
<asrwt>0</asrwt>
<pdfrwt beam="1">  1        2 0.21005923E-01 0.34587683E+03</pdfrwt>
<pdfrwt beam="2">  1       -2 0.33698802E-01 0.34587683E+03</pdfrwt>
<totfact> 0.21732445E+03</totfact>
</mgrwt>
</event>
<event>
 4    1  0.6207184E-004  0.3634326E+03  0.7818608E-02  0.1057233E+00
         -2   -1    0    0    0  501 -0.00000000000E+00  0.00000000000E+00  0.15804700142E+03  0.15804700144E+03  0.25500000000E-02 0. -1.
          2   -1    0    0  501    0  0.00000000000E+00 -0.00000000000E+00 -0.20893031813E+03  0.20893031815E+03  0.25500000000E-02 0.  1.
    5000001    1    1    2    0    0  0.10928983379E+03 -0.12302286317E+03 -0.29070828145E+02  0.18399186309E+03  0.77000000000E+02 0.  0.
   -5000001    1    1    2    0    0 -0.10928983379E+03  0.12302286317E+03 -0.21812488572E+02  0.18298545650E+03  0.77000000000E+02 0.  0.
<mgrwt>
<rscale>  0 0.36343258E+03</rscale>
<asrwt>0</asrwt>
<pdfrwt beam="1">  1        2 0.32143126E-01 0.36343258E+03</pdfrwt>
<pdfrwt beam="2">  1       -2 0.24314923E-01 0.36343258E+03</pdfrwt>
<totfact> 0.24384830E+03</totfact>
</mgrwt>
</event>
<event>
 4    1  0.6207184E-004  0.2668774E+03  0.7818608E-02  0.1103080E+00
         -2   -1    0    0    0  501 -0.00000000000E+00  0.00000000000E+00  0.77229132590E+02  0.77229132632E+02  0.25500000000E-02 0. -1.
          2   -1    0    0  501    0  0.00000000000E+00 -0.00000000000E+00 -0.23055917768E+03  0.23055917769E+03  0.25500000000E-02 0.  1.
    5000001    1    1    2    0    0  0.23978208463E+02 -0.74583045055E+02  0.10706481426E+02  0.11036853644E+03  0.77000000000E+02 0.  0.
   -5000001    1    1    2    0    0 -0.23978208463E+02  0.74583045055E+02 -0.16403652651E+03  0.19741977389E+03  0.77000000000E+02 0.  0.
<mgrwt>
<rscale>  0 0.26687739E+03</rscale>
<asrwt>0</asrwt>
<pdfrwt beam="1">  1        2 0.35470642E-01 0.26687739E+03</pdfrwt>
<pdfrwt beam="2">  1       -2 0.11881405E-01 0.26687739E+03</pdfrwt>
<totfact> 0.72528718E+03</totfact>
</mgrwt>
</event>
<event>
 4    1  0.6207184E-004  0.3589571E+03  0.7818608E-02  0.1058998E+00
          2   -1    0    0  501    0  0.00000000000E+00  0.00000000000E+00  0.66381204793E+03  0.66381204793E+03  0.25500000000E-02 0.  1.
         -2   -1    0    0    0  501 -0.00000000000E+00 -0.00000000000E+00 -0.48526602039E+02  0.48526602106E+02  0.25500000000E-02 0. -1.
    5000001    1    1    2    0    0 -0.12192535600E+01  0.15992064948E+03  0.36042517326E+03  0.40176038410E+03  0.77000000000E+02 0.  0.
   -5000001    1    1    2    0    0  0.12192535600E+01 -0.15992064948E+03  0.25486027262E+03  0.31057826594E+03  0.77000000000E+02 0.  0.
<mgrwt>
<rscale>  0 0.35895706E+03</rscale>
<asrwt>0</asrwt>
<pdfrwt beam="1">  1        2 0.10212493E+00 0.35895706E+03</pdfrwt>
<pdfrwt beam="2">  1       -2 0.74656313E-02 0.35895706E+03</pdfrwt>
<totfact> 0.47361424E+03</totfact>
</mgrwt>
</event>
<event>
 4    1  0.6207184E-004  0.2347831E+03  0.7818608E-02  0.1123318E+00
          2   -1    0    0  501    0  0.00000000000E+00  0.00000000000E+00  0.14562617332E+02  0.14562617556E+02  0.25500000000E-02 0.  1.
         -2   -1    0    0    0  501 -0.00000000000E+00 -0.00000000000E+00 -0.94631148599E+03  0.94631148599E+03  0.25500000000E-02 0. -1.
    5000001    1    1    2    0    0  0.63346778157E+02 -0.61090287768E+02 -0.50819571776E+03  0.52147552686E+03  0.77000000000E+02 0.  0.
   -5000001    1    1    2    0    0 -0.63346778157E+02  0.61090287768E+02 -0.42355315090E+03  0.43939857669E+03  0.77000000000E+02 0.  0.
<mgrwt>
<rscale>  0 0.23478307E+03</rscale>
<asrwt>0</asrwt>
<pdfrwt beam="1">  1        2 0.22404034E-02 0.23478307E+03</pdfrwt>
<pdfrwt beam="2">  1       -2 0.14558633E+00 0.23478307E+03</pdfrwt>
<totfact> 0.15919098E+03</totfact>
</mgrwt>
</event>
<event>
 4    1  0.6207184E-004  0.2096631E+03  0.7818608E-02  0.1141833E+00
         -2   -1    0    0    0  501 -0.00000000000E+00  0.00000000000E+00  0.83117521671E+01  0.83117525583E+01  0.25500000000E-02 0. -1.
          2   -1    0    0  501    0  0.00000000000E+00 -0.00000000000E+00 -0.13221825837E+04  0.13221825837E+04  0.25500000000E-02 0.  1.
    5000001    1    1    2    0    0  0.67930962725E+02 -0.39172322673E+01 -0.52523858122E+03  0.53519578437E+03  0.77000000000E+02 0.  0.
   -5000001    1    1    2    0    0 -0.67930962725E+02  0.39172322673E+01 -0.78863225027E+03  0.79529855185E+03  0.77000000000E+02 0.  0.
<mgrwt>
<rscale>  0 0.20966310E+03</rscale>
<asrwt>0</asrwt>
<pdfrwt beam="1">  1        2 0.20341254E+00 0.20966310E+03</pdfrwt>
<pdfrwt beam="2">  1       -2 0.12787322E-02 0.20966310E+03</pdfrwt>
<totfact> 0.25032342E+04</totfact>
</mgrwt>
</event>
<event>
 4    1  0.6207184E-004  0.2716376E+03  0.7818608E-02  0.1100346E+00
         -2   -1    0    0    0  501 -0.00000000000E+00  0.00000000000E+00  0.15961181765E+02  0.15961181969E+02  0.25500000000E-02 0. -1.
          2   -1    0    0  501    0  0.00000000000E+00 -0.00000000000E+00 -0.11557259683E+04  0.11557259683E+04  0.25500000000E-02 0.  1.
    5000001    1    1    2    0    0 -0.60492716229E+02  0.86214724887E+02 -0.40703124272E+03  0.42742926906E+03  0.77000000000E+02 0.  0.
   -5000001    1    1    2    0    0  0.60492716229E+02 -0.86214724887E+02 -0.73273354379E+03  0.74425788118E+03  0.77000000000E+02 0.  0.
<mgrwt>
<rscale>  0 0.27163764E+03</rscale>
<asrwt>0</asrwt>
<pdfrwt beam="1">  1        2 0.17780393E+00 0.27163764E+03</pdfrwt>
<pdfrwt beam="2">  1       -2 0.24555673E-02 0.27163764E+03</pdfrwt>
<totfact> 0.12068961E+04</totfact>
</mgrwt>
</event>
<event>
 4    1  0.6207184E-004  0.2290287E+03  0.7818608E-02  0.1127325E+00
         -2   -1    0    0    0  501 -0.00000000000E+00  0.00000000000E+00  0.15991502846E+03  0.15991502848E+03  0.25500000000E-02 0. -1.
          2   -1    0    0  501    0  0.00000000000E+00 -0.00000000000E+00 -0.82003116054E+02  0.82003116094E+02  0.25500000000E-02 0.  1.
    5000001    1    1    2    0    0  0.77706190274E+02  0.33011255380E+01  0.33641948762E+01  0.10949642571E+03  0.77000000000E+02 0.  0.
   -5000001    1    1    2    0    0 -0.77706190274E+02 -0.33011255380E+01  0.74547717525E+02  0.13242171886E+03  0.77000000000E+02 0.  0.
<mgrwt>
<rscale>  0 0.22902865E+03</rscale>
<asrwt>0</asrwt>
<pdfrwt beam="1">  1        2 0.12615864E-01 0.22902865E+03</pdfrwt>
<pdfrwt beam="2">  1       -2 0.24602312E-01 0.22902865E+03</pdfrwt>
<totfact> 0.68949504E+03</totfact>
</mgrwt>
</event>
<event>
 4    1  0.6207184E-004  0.3011656E+03  0.7818608E-02  0.1084659E+00
         -2   -1    0    0    0  501 -0.00000000000E+00  0.00000000000E+00  0.31281482027E+02  0.31281482131E+02  0.25500000000E-02 0.  1.
          2   -1    0    0  501    0  0.00000000000E+00 -0.00000000000E+00 -0.72487552412E+03  0.72487552412E+03  0.25500000000E-02 0. -1.
    5000001    1    1    2    0    0 -0.11521592179E+03  0.52414769977E+02 -0.41436253187E+03  0.44005377462E+03  0.77000000000E+02 0.  0.
   -5000001    1    1    2    0    0  0.11521592179E+03 -0.52414769977E+02 -0.27923151022E+03  0.31610323163E+03  0.77000000000E+02 0.  0.
<mgrwt>
<rscale>  0 0.30116561E+03</rscale>
<asrwt>0</asrwt>
<pdfrwt beam="1">  1        2 0.11151930E+00 0.30116561E+03</pdfrwt>
<pdfrwt beam="2">  1       -2 0.48125362E-02 0.30116561E+03</pdfrwt>
<totfact> 0.83396355E+03</totfact>
</mgrwt>
</event>
<event>
 4    1  0.6207184E-004  0.4368659E+03  0.7818608E-02  0.1031713E+00
         -2   -1    0    0    0  501 -0.00000000000E+00  0.00000000000E+00  0.30413365920E+02  0.30413366027E+02  0.25500000000E-02 0. -1.
          2   -1    0    0  501    0  0.00000000000E+00 -0.00000000000E+00 -0.15688154150E+04  0.15688154150E+04  0.25500000000E-02 0.  1.
    5000001    1    1    2    0    0  0.15594062095E+02  0.17796696324E+03 -0.11328555054E+04  0.11494372583E+04  0.77000000000E+02 0.  0.
   -5000001    1    1    2    0    0 -0.15594062095E+02 -0.17796696324E+03 -0.40554654368E+03  0.44979152267E+03  0.77000000000E+02 0.  0.
<mgrwt>
<rscale>  0 0.43686592E+03</rscale>
<asrwt>0</asrwt>
<pdfrwt beam="1">  1        2 0.24135615E+00 0.43686592E+03</pdfrwt>
<pdfrwt beam="2">  1       -2 0.46789806E-02 0.43686592E+03</pdfrwt>
<totfact> 0.27099790E+03</totfact>
</mgrwt>
</event>
<event>
 4    1  0.6207184E-004  0.1727124E+03  0.7818608E-02  0.1175048E+00
         -2   -1    0    0    0  501 -0.00000000000E+00  0.00000000000E+00  0.95738797777E+01  0.95738801173E+01  0.25500000000E-02 0. -1.
          2   -1    0    0  501    0  0.00000000000E+00 -0.00000000000E+00 -0.77893085077E+03  0.77893085077E+03  0.25500000000E-02 0.  1.
    5000001    1    1    2    0    0 -0.25793528211E+02  0.27539654689E+02 -0.33797447535E+03  0.34868249836E+03  0.77000000000E+02 0.  0.
   -5000001    1    1    2    0    0  0.25793528211E+02 -0.27539654689E+02 -0.43138249564E+03  0.43982223253E+03  0.77000000000E+02 0.  0.
<mgrwt>
<rscale>  0 0.17271237E+03</rscale>
<asrwt>0</asrwt>
<pdfrwt beam="1">  1        2 0.11983547E+00 0.17271237E+03</pdfrwt>
<pdfrwt beam="2">  1       -2 0.14729052E-02 0.17271237E+03</pdfrwt>
<totfact> 0.42645156E+04</totfact>
</mgrwt>
</event>
<event>
 4    1  0.6207184E-004  0.1956885E+03  0.7818608E-02  0.1153428E+00
         -2   -1    0    0    0  501 -0.00000000000E+00  0.00000000000E+00  0.14594450407E+02  0.14594450630E+02  0.25500000000E-02 0. -1.
          2   -1    0    0  501    0  0.00000000000E+00 -0.00000000000E+00 -0.65596855802E+03  0.65596855802E+03  0.25500000000E-02 0.  1.
    5000001    1    1    2    0    0  0.39016120371E+02  0.15429019609E+02 -0.17194411087E+03  0.19301318494E+03  0.77000000000E+02 0.  0.
   -5000001    1    1    2    0    0 -0.39016120371E+02 -0.15429019609E+02 -0.46942999674E+03  0.47754982372E+03  0.77000000000E+02 0.  0.
<mgrwt>
<rscale>  0 0.19568853E+03</rscale>
<asrwt>0</asrwt>
<pdfrwt beam="1">  1        2 0.10091822E+00 0.19568853E+03</pdfrwt>
<pdfrwt beam="2">  1       -2 0.22453006E-02 0.19568853E+03</pdfrwt>
<totfact> 0.28685867E+04</totfact>
</mgrwt>
</event>
<event>
 4    1  0.6207184E-004  0.4438023E+03  0.7818608E-02  0.1029587E+00
         -2   -1    0    0    0  501 -0.00000000000E+00  0.00000000000E+00  0.24630115392E+02  0.24630115524E+02  0.25500000000E-02 0. -1.
          2   -1    0    0  501    0  0.00000000000E+00 -0.00000000000E+00 -0.19991833072E+04  0.19991833072E+04  0.25500000000E-02 0.  1.
    5000001    1    1    2    0    0 -0.12071708364E+03 -0.15171490236E+03 -0.13321981438E+04  0.13484327644E+04  0.77000000000E+02 0.  0.
   -5000001    1    1    2    0    0  0.12071708364E+03  0.15171490236E+03 -0.64235504805E+03  0.67538065832E+03  0.77000000000E+02 0.  0.
<mgrwt>
<rscale>  0 0.44380228E+03</rscale>
<asrwt>0</asrwt>
<pdfrwt beam="1">  1        2 0.30756653E+00 0.44380228E+03</pdfrwt>
<pdfrwt beam="2">  1       -2 0.37892501E-02 0.44380228E+03</pdfrwt>
<totfact> 0.21977968E+03</totfact>
</mgrwt>
</event>
<event>
 4    1  0.6207184E-004  0.2165225E+03  0.7818608E-02  0.1136502E+00
         -2   -1    0    0    0  501 -0.00000000000E+00  0.00000000000E+00  0.86510103999E+01  0.86510107758E+01  0.25500000000E-02 0. -1.
          2   -1    0    0  501    0  0.00000000000E+00 -0.00000000000E+00 -0.13548131475E+04  0.13548131475E+04  0.25500000000E-02 0.  1.
    5000001    1    1    2    0    0  0.29352077955E+02 -0.58180706903E+02 -0.92059506030E+03  0.92610517987E+03  0.77000000000E+02 0.  0.
   -5000001    1    1    2    0    0 -0.29352077955E+02  0.58180706903E+02 -0.42556707677E+03  0.43735897837E+03  0.77000000000E+02 0.  0.
<mgrwt>
<rscale>  0 0.21652254E+03</rscale>
<asrwt>0</asrwt>
<pdfrwt beam="1">  1        2 0.20843262E+00 0.21652254E+03</pdfrwt>
<pdfrwt beam="2">  1       -2 0.13309258E-02 0.21652254E+03</pdfrwt>
<totfact> 0.22712003E+04</totfact>
</mgrwt>
</event>
<event>
 4    1  0.6207184E-004  0.2022888E+03  0.7818608E-02  0.1147822E+00
          2   -1    0    0  501    0  0.00000000000E+00  0.00000000000E+00  0.20340026399E+04  0.20340026399E+04  0.25500000000E-02 0.  1.
         -2   -1    0    0    0  501 -0.00000000000E+00 -0.00000000000E+00 -0.50295826680E+01  0.50295833145E+01  0.25500000000E-02 0. -1.
    5000001    1    1    2    0    0 -0.58958211838E+02 -0.28724439209E+02  0.10159449396E+04  0.10209673278E+04  0.77000000000E+02 0.  0.
   -5000001    1    1    2    0    0  0.58958211838E+02  0.28724439209E+02  0.10130281177E+04  0.10180648954E+04  0.77000000000E+02 0.  0.
<mgrwt>
<rscale>  0 0.20228875E+03</rscale>
<asrwt>0</asrwt>
<pdfrwt beam="1">  1        2 0.31292375E+00 0.20228875E+03</pdfrwt>
<pdfrwt beam="2">  1       -2 0.77378135E-03 0.20228875E+03</pdfrwt>
<totfact> 0.21804785E+04</totfact>
</mgrwt>
</event>
<event>
 4    1  0.6207184E-004  0.3199277E+03  0.7818608E-02  0.1075683E+00
          2   -1    0    0  501    0  0.00000000000E+00  0.00000000000E+00  0.79920750240E+03  0.79920750240E+03  0.25500000000E-02 0.  1.
         -2   -1    0    0    0  501 -0.00000000000E+00 -0.00000000000E+00 -0.32017267549E+02  0.32017267650E+02  0.25500000000E-02 0. -1.
    5000001    1    1    2    0    0 -0.26570611511E+02 -0.10651035588E+03  0.61023169209E+03  0.62478970169E+03  0.77000000000E+02 0.  0.
   -5000001    1    1    2    0    0  0.26570611511E+02  0.10651035588E+03  0.15695854276E+03  0.20643506836E+03  0.77000000000E+02 0.  0.
<mgrwt>
<rscale>  0 0.31992774E+03</rscale>
<asrwt>0</asrwt>
<pdfrwt beam="1">  1        2 0.12295499E+00 0.31992774E+03</pdfrwt>
<pdfrwt beam="2">  1       -2 0.49257340E-02 0.31992774E+03</pdfrwt>
<totfact> 0.71322441E+03</totfact>
</mgrwt>
</event>
<event>
 4    1  0.6207184E-004  0.1668735E+03  0.7818608E-02  0.1181148E+00
         -2   -1    0    0    0  501 -0.00000000000E+00  0.00000000000E+00  0.91693037661E+01  0.91693041206E+01  0.25500000000E-02 0. -1.
          2   -1    0    0  501    0  0.00000000000E+00 -0.00000000000E+00 -0.75923908655E+03  0.75923908656E+03  0.25500000000E-02 0.  1.
    5000001    1    1    2    0    0  0.20431100897E+02 -0.23896056701E+02 -0.40566331776E+03  0.41410165272E+03  0.77000000000E+02 0.  0.
   -5000001    1    1    2    0    0 -0.20431100897E+02  0.23896056701E+02 -0.34440646503E+03  0.35430673796E+03  0.77000000000E+02 0.  0.
<mgrwt>
<rscale>  0 0.16687353E+03</rscale>
<asrwt>0</asrwt>
<pdfrwt beam="1">  1        2 0.11680596E+00 0.16687353E+03</pdfrwt>
<pdfrwt beam="2">  1       -2 0.14106628E-02 0.16687353E+03</pdfrwt>
<totfact> 0.46710496E+04</totfact>
</mgrwt>
</event>
<event>
 4    1  0.6207184E-004  0.9022196E+03  0.7818608E-02  0.9422811E-01
         -2   -1    0    0    0  501 -0.00000000000E+00  0.00000000000E+00  0.43381010143E+03  0.43381010144E+03  0.25500000000E-02 0. -1.
          2   -1    0    0  501    0  0.00000000000E+00 -0.00000000000E+00 -0.46909935568E+03  0.46909935569E+03  0.25500000000E-02 0.  1.
    5000001    1    1    2    0    0 -0.29582554032E+03 -0.28136560020E+03 -0.19353933628E+03  0.45832938589E+03  0.77000000000E+02 0.  0.
   -5000001    1    1    2    0    0  0.29582554032E+03  0.28136560020E+03  0.15825008203E+03  0.44458007124E+03  0.77000000000E+02 0.  0.
<mgrwt>
<rscale>  0 0.90221957E+03</rscale>
<asrwt>0</asrwt>
<pdfrwt beam="1">  1        2 0.72169132E-01 0.90221957E+03</pdfrwt>
<pdfrwt beam="2">  1       -2 0.66740016E-01 0.90221957E+03</pdfrwt>
<totfact> 0.13726587E+02</totfact>
</mgrwt>
</event>
<event>
 4    1  0.6207184E-004  0.1814313E+03  0.7818608E-02  0.1166425E+00
         -2   -1    0    0    0  501 -0.00000000000E+00  0.00000000000E+00  0.63060477269E+03  0.63060477270E+03  0.25500000000E-02 0. -1.
          2   -1    0    0  501    0  0.00000000000E+00 -0.00000000000E+00 -0.13049903898E+02  0.13049904147E+02  0.25500000000E-02 0.  1.
    5000001    1    1    2    0    0  0.27769697096E+02 -0.34388472923E+02  0.24272933495E+03  0.25845744948E+03  0.77000000000E+02 0.  0.
   -5000001    1    1    2    0    0 -0.27769697096E+02  0.34388472923E+02  0.37482553384E+03  0.38519722736E+03  0.77000000000E+02 0.  0.
<mgrwt>
<rscale>  0 0.18143133E+03</rscale>
<asrwt>0</asrwt>
<pdfrwt beam="1">  1        2 0.20076775E-02 0.18143133E+03</pdfrwt>
<pdfrwt beam="2">  1       -2 0.97016122E-01 0.18143133E+03</pdfrwt>
<totfact> 0.48609423E+03</totfact>
</mgrwt>
</event>
<event>
 4    1  0.6207184E-004  0.1827895E+03  0.7818608E-02  0.1165130E+00
          2   -1    0    0  501    0  0.00000000000E+00  0.00000000000E+00  0.24987354664E+02  0.24987354794E+02  0.25500000000E-02 0.  1.
         -2   -1    0    0    0  501 -0.00000000000E+00 -0.00000000000E+00 -0.33428902891E+03  0.33428902892E+03  0.25500000000E-02 0. -1.
    5000001    1    1    2    0    0  0.33363373409E+02  0.27224175102E+02 -0.10773588114E+03  0.13924902326E+03  0.77000000000E+02 0.  0.
   -5000001    1    1    2    0    0 -0.33363373409E+02 -0.27224175102E+02 -0.20156579310E+03  0.22002736045E+03  0.77000000000E+02 0.  0.
<mgrwt>
<rscale>  0 0.18278948E+03</rscale>
<asrwt>0</asrwt>
<pdfrwt beam="1">  1        2 0.38442086E-02 0.18278948E+03</pdfrwt>
<pdfrwt beam="2">  1       -2 0.51429078E-01 0.18278948E+03</pdfrwt>
<totfact> 0.78346018E+03</totfact>
</mgrwt>
</event>
<event>
 4    1  0.6207184E-004  0.5738181E+03  0.7818608E-02  0.9961265E-01
         -2   -1    0    0    0  501 -0.00000000000E+00  0.00000000000E+00  0.13129251086E+03  0.13129251089E+03  0.25500000000E-02 0. -1.
          2   -1    0    0  501    0  0.00000000000E+00 -0.00000000000E+00 -0.62697253742E+03  0.62697253742E+03  0.25500000000E-02 0.  1.
    5000001    1    1    2    0    0 -0.67081709625E+02 -0.24259769636E+03 -0.39870519047E+03  0.47775352113E+03  0.77000000000E+02 0.  0.
   -5000001    1    1    2    0    0  0.67081709625E+02  0.24259769636E+03 -0.96974836085E+02  0.28051152718E+03  0.77000000000E+02 0.  0.
<mgrwt>
<rscale>  0 0.57381809E+03</rscale>
<asrwt>0</asrwt>
<pdfrwt beam="1">  1        2 0.96457312E-01 0.57381809E+03</pdfrwt>
<pdfrwt beam="2">  1       -2 0.20198848E-01 0.57381809E+03</pdfrwt>
<totfact> 0.98954749E+02</totfact>
</mgrwt>
</event>
<event>
 4    1  0.6207184E-004  0.2675901E+03  0.7818608E-02  0.1102667E+00
          2   -1    0    0  501    0  0.00000000000E+00  0.00000000000E+00  0.26484319750E+03  0.26484319751E+03  0.25500000000E-02 0.  1.
         -2   -1    0    0    0  501 -0.00000000000E+00 -0.00000000000E+00 -0.67591358311E+02  0.67591358359E+02  0.25500000000E-02 0. -1.
    5000001    1    1    2    0    0 -0.96762971174E+02  0.44523490744E+02  0.67525575050E+02  0.14776372053E+03  0.77000000000E+02 0.  0.
   -5000001    1    1    2    0    0  0.96762971174E+02 -0.44523490744E+02  0.12972626414E+03  0.18467083534E+03  0.77000000000E+02 0.  0.
<mgrwt>
<rscale>  0 0.26759007E+03</rscale>
<asrwt>0</asrwt>
<pdfrwt beam="1">  1        2 0.40745107E-01 0.26759007E+03</pdfrwt>
<pdfrwt beam="2">  1       -2 0.10398670E-01 0.26759007E+03</pdfrwt>
<totfact> 0.77320854E+03</totfact>
</mgrwt>
</event>
<event>
 4    1  0.6207184E-004  0.4501885E+03  0.7818608E-02  0.1027666E+00
          2   -1    0    0  501    0  0.00000000000E+00  0.00000000000E+00  0.51587061458E+03  0.51587061458E+03  0.25500000000E-02 0.  1.
         -2   -1    0    0    0  501 -0.00000000000E+00 -0.00000000000E+00 -0.98217317758E+02  0.98217317791E+02  0.25500000000E-02 0. -1.
    5000001    1    1    2    0    0  0.11176084830E+03 -0.16291763456E+03  0.31186380073E+03  0.37712156272E+03  0.77000000000E+02 0.  0.
   -5000001    1    1    2    0    0 -0.11176084830E+03  0.16291763456E+03  0.10578949609E+03  0.23696636965E+03  0.77000000000E+02 0.  0.
<mgrwt>
<rscale>  0 0.45018853E+03</rscale>
<asrwt>0</asrwt>
<pdfrwt beam="1">  1        2 0.79364711E-01 0.45018853E+03</pdfrwt>
<pdfrwt beam="2">  1       -2 0.15110356E-01 0.45018853E+03</pdfrwt>
<totfact> 0.20439046E+03</totfact>
</mgrwt>
</event>
<event>
 4    1  0.6207184E-004  0.2220391E+03  0.7818608E-02  0.1132372E+00
          2   -1    0    0  501    0  0.00000000000E+00  0.00000000000E+00  0.22384510890E+03  0.22384510892E+03  0.25500000000E-02 0.  1.
         -2   -1    0    0    0  501 -0.00000000000E+00 -0.00000000000E+00 -0.55061932563E+02  0.55061932622E+02  0.25500000000E-02 0. -1.
    5000001    1    1    2    0    0  0.29043524746E+02 -0.66695960478E+02  0.42646412630E+02  0.11419104161E+03  0.77000000000E+02 0.  0.
   -5000001    1    1    2    0    0 -0.29043524746E+02  0.66695960478E+02  0.12613676371E+03  0.16471599993E+03  0.77000000000E+02 0.  0.
<mgrwt>
<rscale>  0 0.22203913E+03</rscale>
<asrwt>0</asrwt>
<pdfrwt beam="1">  1        2 0.34437709E-01 0.22203913E+03</pdfrwt>
<pdfrwt beam="2">  1       -2 0.84710665E-02 0.22203913E+03</pdfrwt>
<totfact> 0.12696455E+04</totfact>
</mgrwt>
</event>
<event>
 4    1  0.6207184E-004  0.2076461E+03  0.7818608E-02  0.1143444E+00
         -2   -1    0    0    0  501 -0.00000000000E+00  0.00000000000E+00  0.48151733542E+01  0.48151740295E+01  0.25500000000E-02 0. -1.
          2   -1    0    0  501    0  0.00000000000E+00 -0.00000000000E+00 -0.22385950954E+04  0.22385950954E+04  0.25500000000E-02 0.  1.
    5000001    1    1    2    0    0  0.49626548466E+02 -0.14656400406E+02 -0.61330027769E+03  0.62027722431E+03  0.77000000000E+02 0.  0.
   -5000001    1    1    2    0    0 -0.49626548466E+02  0.14656400406E+02 -0.16204796443E+04  0.16231330451E+04  0.77000000000E+02 0.  0.
<mgrwt>
<rscale>  0 0.20764609E+03</rscale>
<asrwt>0</asrwt>
<pdfrwt beam="1">  1        2 0.34439841E+00 0.20764609E+03</pdfrwt>
<pdfrwt beam="2">  1       -2 0.74079774E-03 0.20764609E+03</pdfrwt>
<totfact> 0.18150704E+04</totfact>
</mgrwt>
</event>
<event>
 4    1  0.6207184E-004  0.3075080E+03  0.7818608E-02  0.1081547E+00
         -2   -1    0    0    0  501 -0.00000000000E+00  0.00000000000E+00  0.21039293549E+03  0.21039293551E+03  0.25500000000E-02 0. -1.
          2   -1    0    0  501    0  0.00000000000E+00 -0.00000000000E+00 -0.11236255452E+03  0.11236255455E+03  0.25500000000E-02 0.  1.
    5000001    1    1    2    0    0  0.33548825497E+02  0.12601880895E+03  0.21146333935E+02  0.15291314966E+03  0.77000000000E+02 0.  0.
   -5000001    1    1    2    0    0 -0.33548825497E+02 -0.12601880895E+03  0.76884047038E+02  0.16984234039E+03  0.77000000000E+02 0.  0.
<mgrwt>
<rscale>  0 0.30750797E+03</rscale>
<asrwt>0</asrwt>
<pdfrwt beam="1">  1        2 0.17286547E-01 0.30750797E+03</pdfrwt>
<pdfrwt beam="2">  1       -2 0.32368144E-01 0.30750797E+03</pdfrwt>
<totfact> 0.29272191E+03</totfact>
</mgrwt>
</event>
<event>
 4    1  0.6207184E-004  0.4460319E+03  0.7818608E-02  0.1028912E+00
         -2   -1    0    0    0  501 -0.00000000000E+00  0.00000000000E+00  0.14699214276E+03  0.14699214278E+03  0.25500000000E-02 0. -1.
          2   -1    0    0  501    0  0.00000000000E+00 -0.00000000000E+00 -0.33835897298E+03  0.33835897299E+03  0.25500000000E-02 0.  1.
    5000001    1    1    2    0    0 -0.48883223471E+02  0.19276780286E+03 -0.24676797425E+02  0.21467868941E+03  0.77000000000E+02 0.  0.
   -5000001    1    1    2    0    0  0.48883223471E+02 -0.19276780286E+03 -0.16669003280E+03  0.27067242636E+03  0.77000000000E+02 0.  0.
<mgrwt>
<rscale>  0 0.44603188E+03</rscale>
<asrwt>0</asrwt>
<pdfrwt beam="1">  1        2 0.52055226E-01 0.44603188E+03</pdfrwt>
<pdfrwt beam="2">  1       -2 0.22614176E-01 0.44603188E+03</pdfrwt>
<totfact> 0.16388444E+03</totfact>
</mgrwt>
</event>
<event>
 4    1  0.6207184E-004  0.2385390E+03  0.7818608E-02  0.1120770E+00
          2   -1    0    0  501    0  0.00000000000E+00  0.00000000000E+00  0.36254699693E+03  0.36254699694E+03  0.25500000000E-02 0.  1.
         -2   -1    0    0    0  501 -0.00000000000E+00 -0.00000000000E+00 -0.39236878654E+02  0.39236878737E+02  0.25500000000E-02 0. -1.
    5000001    1    1    2    0    0  0.74044892933E+02  0.45388236153E+02  0.11542043040E+03  0.16368754963E+03  0.77000000000E+02 0.  0.
   -5000001    1    1    2    0    0 -0.74044892933E+02 -0.45388236153E+02  0.20788968788E+03  0.23809632605E+03  0.77000000000E+02 0.  0.
<mgrwt>
<rscale>  0 0.23853899E+03</rscale>
<asrwt>0</asrwt>
<pdfrwt beam="1">  1        2 0.55776460E-01 0.23853899E+03</pdfrwt>
<pdfrwt beam="2">  1       -2 0.60364430E-02 0.23853899E+03</pdfrwt>
<totfact> 0.12822058E+04</totfact>
</mgrwt>
</event>
<event>
 4    1  0.6207184E-004  0.1893043E+03  0.7818608E-02  0.1159090E+00
          2   -1    0    0  501    0  0.00000000000E+00  0.00000000000E+00  0.52444234392E+03  0.52444234393E+03  0.25500000000E-02 0.  1.
         -2   -1    0    0    0  501 -0.00000000000E+00 -0.00000000000E+00 -0.17082969185E+02  0.17082969375E+02  0.25500000000E-02 0. -1.
    5000001    1    1    2    0    0 -0.32896806458E+02 -0.36864598672E+02  0.18426447923E+03  0.20572699584E+03  0.77000000000E+02 0.  0.
   -5000001    1    1    2    0    0  0.32896806458E+02  0.36864598672E+02  0.32309489551E+03  0.33579831747E+03  0.77000000000E+02 0.  0.
<mgrwt>
<rscale>  0 0.18930433E+03</rscale>
<asrwt>0</asrwt>
<pdfrwt beam="1">  1        2 0.80683431E-01 0.18930433E+03</pdfrwt>
<pdfrwt beam="2">  1       -2 0.26281493E-02 0.18930433E+03</pdfrwt>
<totfact> 0.29336502E+04</totfact>
</mgrwt>
</event>
<event>
 4    1  0.6207184E-004  0.3379130E+03  0.7818608E-02  0.1067688E+00
         -2   -1    0    0    0  501 -0.00000000000E+00  0.00000000000E+00  0.50156450374E+03  0.50156450374E+03  0.25500000000E-02 0. -1.
          2   -1    0    0  501    0  0.00000000000E+00 -0.00000000000E+00 -0.56914508750E+02  0.56914508807E+02  0.25500000000E-02 0.  1.
    5000001    1    1    2    0    0 -0.10989069826E+03  0.53941022972E+02  0.36670683083E+03  0.39419347953E+03  0.77000000000E+02 0.  0.
   -5000001    1    1    2    0    0  0.10989069826E+03 -0.53941022972E+02  0.77943164154E+02  0.16428553302E+03  0.77000000000E+02 0.  0.
<mgrwt>
<rscale>  0 0.33791299E+03</rscale>
<asrwt>0</asrwt>
<pdfrwt beam="1">  1        2 0.87560782E-02 0.33791299E+03</pdfrwt>
<pdfrwt beam="2">  1       -2 0.77163771E-01 0.33791299E+03</pdfrwt>
<totfact> 0.11746441E+03</totfact>
</mgrwt>
</event>
<event>
 4    1  0.6207184E-004  0.1952909E+03  0.7818608E-02  0.1153774E+00
         -2   -1    0    0    0  501 -0.00000000000E+00  0.00000000000E+00  0.43619541520E+01  0.43619548974E+01  0.25500000000E-02 0. -1.
          2   -1    0    0  501    0  0.00000000000E+00 -0.00000000000E+00 -0.21858624626E+04  0.21858624626E+04  0.25500000000E-02 0.  1.
    5000001    1    1    2    0    0 -0.13435487626E+02  0.36767253171E+02 -0.58008465302E+03  0.58648064580E+03  0.77000000000E+02 0.  0.
   -5000001    1    1    2    0    0  0.13435487626E+02 -0.36767253171E+02 -0.16014158555E+04  0.16037437717E+04  0.77000000000E+02 0.  0.
<mgrwt>
<rscale>  0 0.19529089E+03</rscale>
<asrwt>0</asrwt>
<pdfrwt beam="1">  1        2 0.33628566E+00 0.19529089E+03</pdfrwt>
<pdfrwt beam="2">  1       -2 0.67107167E-03 0.19529089E+03</pdfrwt>
<totfact> 0.22251631E+04</totfact>
</mgrwt>
</event>
<event>
 4    1  0.6207184E-004  0.2365791E+03  0.7818608E-02  0.1122093E+00
         -2   -1    0    0    0  501 -0.00000000000E+00  0.00000000000E+00  0.15435882009E+02  0.15435882220E+02  0.25500000000E-02 0. -1.
          2   -1    0    0  501    0  0.00000000000E+00 -0.00000000000E+00 -0.90648621720E+03  0.90648621721E+03  0.25500000000E-02 0.  1.
    5000001    1    1    2    0    0  0.64629005448E+02 -0.56018687654E+02 -0.33891749336E+03  0.35792327253E+03  0.77000000000E+02 0.  0.
   -5000001    1    1    2    0    0 -0.64629005448E+02  0.56018687654E+02 -0.55213284183E+03  0.56399882690E+03  0.77000000000E+02 0.  0.
<mgrwt>
<rscale>  0 0.23657907E+03</rscale>
<asrwt>0</asrwt>
<pdfrwt beam="1">  1        2 0.13945938E+00 0.23657907E+03</pdfrwt>
<pdfrwt beam="2">  1       -2 0.23747518E-02 0.23657907E+03</pdfrwt>
<totfact> 0.17840272E+04</totfact>
</mgrwt>
</event>
<event>
 4    1  0.6207184E-004  0.4280228E+03  0.7818608E-02  0.1034486E+00
         -2   -1    0    0    0  501 -0.00000000000E+00  0.00000000000E+00  0.16826702733E+03  0.16826702735E+03  0.25500000000E-02 0. -1.
          2   -1    0    0  501    0  0.00000000000E+00 -0.00000000000E+00 -0.27219165783E+03  0.27219165784E+03  0.25500000000E-02 0.  1.
    5000001    1    1    2    0    0  0.16213721684E+03  0.11573761074E+03 -0.66079855896E+02  0.22356032515E+03  0.77000000000E+02 0.  0.
   -5000001    1    1    2    0    0 -0.16213721684E+03 -0.11573761074E+03 -0.37844774606E+02  0.21689836004E+03  0.77000000000E+02 0.  0.
<mgrwt>
<rscale>  0 0.42802281E+03</rscale>
<asrwt>0</asrwt>
<pdfrwt beam="1">  1        2 0.41875640E-01 0.42802281E+03</pdfrwt>
<pdfrwt beam="2">  1       -2 0.25887235E-01 0.42802281E+03</pdfrwt>
<totfact> 0.16351602E+03</totfact>
</mgrwt>
</event>
<event>
 4    1  0.6207184E-004  0.1802819E+03  0.7818608E-02  0.1167530E+00
         -2   -1    0    0    0  501 -0.00000000000E+00  0.00000000000E+00  0.30498092916E+02  0.30498093023E+02  0.25500000000E-02 0. -1.
          2   -1    0    0  501    0  0.00000000000E+00 -0.00000000000E+00 -0.26642302489E+03  0.26642302490E+03  0.25500000000E-02 0.  1.
    5000001    1    1    2    0    0 -0.46459497302E+02 -0.40949222653E-01 -0.10782213508E+03  0.14040334533E+03  0.77000000000E+02 0.  0.
   -5000001    1    1    2    0    0  0.46459497302E+02  0.40949222653E-01 -0.12810279689E+03  0.15651777260E+03  0.77000000000E+02 0.  0.
<mgrwt>
<rscale>  0 0.18028194E+03</rscale>
<asrwt>0</asrwt>
<pdfrwt beam="1">  1        2 0.40988156E-01 0.18028194E+03</pdfrwt>
<pdfrwt beam="2">  1       -2 0.46920145E-02 0.18028194E+03</pdfrwt>
<totfact> 0.25636676E+04</totfact>
</mgrwt>
</event>
<event>
 4    1  0.6207184E-004  0.3284921E+03  0.7818608E-02  0.1071806E+00
          2   -1    0    0  501    0  0.00000000000E+00  0.00000000000E+00  0.13078977247E+04  0.13078977247E+04  0.25500000000E-02 0.  1.
         -2   -1    0    0    0  501 -0.00000000000E+00 -0.00000000000E+00 -0.20626048904E+02  0.20626049061E+02  0.25500000000E-02 0. -1.
    5000001    1    1    2    0    0 -0.33961678737E+02  0.14027776402E+03  0.70314574240E+03  0.72192394458E+03  0.77000000000E+02 0.  0.
   -5000001    1    1    2    0    0  0.33961678737E+02 -0.14027776402E+03  0.58412593340E+03  0.60659982919E+03  0.77000000000E+02 0.  0.
<mgrwt>
<rscale>  0 0.32849209E+03</rscale>
<asrwt>0</asrwt>
<pdfrwt beam="1">  1        2 0.20121504E+00 0.32849209E+03</pdfrwt>
<pdfrwt beam="2">  1       -2 0.31732383E-02 0.32849209E+03</pdfrwt>
<totfact> 0.67850187E+03</totfact>
</mgrwt>
</event>
<event>
 4    1  0.6207184E-004  0.3381631E+03  0.7818608E-02  0.1067581E+00
          2   -1    0    0  501    0  0.00000000000E+00  0.00000000000E+00  0.57904703584E+03  0.57904703585E+03  0.25500000000E-02 0.  1.
         -2   -1    0    0    0  501 -0.00000000000E+00 -0.00000000000E+00 -0.49371762154E+02  0.49371762220E+02  0.25500000000E-02 0. -1.
    5000001    1    1    2    0    0 -0.89001610706E+02 -0.10359140154E+03  0.38247314319E+03  0.41336082355E+03  0.77000000000E+02 0.  0.
   -5000001    1    1    2    0    0  0.89001610706E+02  0.10359140154E+03  0.14720213049E+03  0.21505797451E+03  0.77000000000E+02 0.  0.
<mgrwt>
<rscale>  0 0.33816311E+03</rscale>
<asrwt>0</asrwt>
<pdfrwt beam="1">  1        2 0.89084155E-01 0.33816311E+03</pdfrwt>
<pdfrwt beam="2">  1       -2 0.75956561E-02 0.33816311E+03</pdfrwt>
<totfact> 0.54122322E+03</totfact>
</mgrwt>
</event>
<event>
 4    1  0.6207184E-004  0.3512920E+03  0.7818608E-02  0.1062086E+00
         -2   -1    0    0    0  501 -0.00000000000E+00  0.00000000000E+00  0.65873187948E+02  0.65873187997E+02  0.25500000000E-02 0. -1.
          2   -1    0    0  501    0  0.00000000000E+00 -0.00000000000E+00 -0.46834714445E+03  0.46834714446E+03  0.25500000000E-02 0.  1.
    5000001    1    1    2    0    0 -0.81420938523E+02  0.13338401411E+03 -0.16716939848E+03  0.24144413896E+03  0.77000000000E+02 0.  0.
   -5000001    1    1    2    0    0  0.81420938523E+02 -0.13338401411E+03 -0.23530455802E+03  0.29277619349E+03  0.77000000000E+02 0.  0.
<mgrwt>
<rscale>  0 0.35129201E+03</rscale>
<asrwt>0</asrwt>
<pdfrwt beam="1">  1        2 0.72053405E-01 0.35129201E+03</pdfrwt>
<pdfrwt beam="2">  1       -2 0.10134337E-01 0.35129201E+03</pdfrwt>
<totfact> 0.43688685E+03</totfact>
</mgrwt>
</event>
<event>
 4    1  0.6207184E-004  0.2891076E+03  0.7818608E-02  0.1090816E+00
          2   -1    0    0  501    0  0.00000000000E+00  0.00000000000E+00  0.15505844395E+04  0.15505844395E+04  0.25500000000E-02 0. -1.
         -2   -1    0    0    0  501 -0.00000000000E+00 -0.00000000000E+00 -0.13476084452E+02  0.13476084693E+02  0.25500000000E-02 0.  1.
    5000001    1    1    2    0    0 -0.30177475406E+02 -0.86802271395E+02  0.12054395367E+04  0.12113871351E+04  0.77000000000E+02 0.  0.
   -5000001    1    1    2    0    0  0.30177475406E+02  0.86802271395E+02  0.33166881833E+03  0.35267338912E+03  0.77000000000E+02 0.  0.
<mgrwt>
<rscale>  0 0.28910764E+03</rscale>
<asrwt>0</asrwt>
<pdfrwt beam="1">  1        2 0.23855131E+00 0.28910764E+03</pdfrwt>
<pdfrwt beam="2">  1       -2 0.20732451E-02 0.28910764E+03</pdfrwt>
<totfact> 0.94087648E+03</totfact>
</mgrwt>
</event>
<event>
 4    1  0.6207184E-004  0.2494655E+03  0.7818608E-02  0.1113643E+00
          2   -1    0    0  501    0  0.00000000000E+00  0.00000000000E+00  0.56556974548E+03  0.56556974549E+03  0.25500000000E-02 0.  1.
         -2   -1    0    0    0  501 -0.00000000000E+00 -0.00000000000E+00 -0.27509003028E+02  0.27509003146E+02  0.25500000000E-02 0. -1.
    5000001    1    1    2    0    0 -0.57970475819E+01  0.82361055107E+02  0.39510668639E+03  0.41091999561E+03  0.77000000000E+02 0.  0.
   -5000001    1    1    2    0    0  0.57970475819E+01 -0.82361055107E+02  0.14295405606E+03  0.18215875302E+03  0.77000000000E+02 0.  0.
<mgrwt>
<rscale>  0 0.24946551E+03</rscale>
<asrwt>0</asrwt>
<pdfrwt beam="1">  1        2 0.87010740E-01 0.24946551E+03</pdfrwt>
<pdfrwt beam="2">  1       -2 0.42321538E-02 0.24946551E+03</pdfrwt>
<totfact> 0.13491637E+04</totfact>
</mgrwt>
</event>
<event>
 4    1  0.6207184E-004  0.2067368E+03  0.7818608E-02  0.1144176E+00
          2   -1    0    0  501    0  0.00000000000E+00  0.00000000000E+00  0.21213394771E+03  0.21213394773E+03  0.25500000000E-02 0.  1.
         -2   -1    0    0    0  501 -0.00000000000E+00 -0.00000000000E+00 -0.50369242778E+02  0.50369242842E+02  0.25500000000E-02 0. -1.
    5000001    1    1    2    0    0 -0.10680296101E+02  0.34766260912E+02  0.15528192438E+03  0.17709951344E+03  0.77000000000E+02 0.  0.
   -5000001    1    1    2    0    0  0.10680296101E+02 -0.34766260912E+02  0.64827805517E+01  0.85403677124E+02  0.77000000000E+02 0.  0.
<mgrwt>
<rscale>  0 0.20673680E+03</rscale>
<asrwt>0</asrwt>
<pdfrwt beam="1">  1        2 0.32635991E-01 0.20673680E+03</pdfrwt>
<pdfrwt beam="2">  1       -2 0.77491144E-02 0.20673680E+03</pdfrwt>
<totfact> 0.15390569E+04</totfact>
</mgrwt>
</event>
<event>
 4    1  0.6207184E-004  0.3068712E+03  0.7818608E-02  0.1081855E+00
          2   -1    0    0  501    0  0.00000000000E+00  0.00000000000E+00  0.33862379433E+03  0.33862379433E+03  0.25500000000E-02 0.  1.
         -2   -1    0    0    0  501 -0.00000000000E+00 -0.00000000000E+00 -0.69524018763E+02  0.69524018810E+02  0.25500000000E-02 0. -1.
    5000001    1    1    2    0    0  0.44713833995E+02 -0.12247945455E+03  0.16747835088E+03  0.22578428145E+03  0.77000000000E+02 0.  0.
   -5000001    1    1    2    0    0 -0.44713833995E+02  0.12247945455E+03  0.10162142469E+03  0.18236353170E+03  0.77000000000E+02 0.  0.
<mgrwt>
<rscale>  0 0.30687122E+03</rscale>
<asrwt>0</asrwt>
<pdfrwt beam="1">  1        2 0.52095967E-01 0.30687122E+03</pdfrwt>
<pdfrwt beam="2">  1       -2 0.10696003E-01 0.30687122E+03</pdfrwt>
<totfact> 0.56982434E+03</totfact>
</mgrwt>
</event>
<event>
 4    1  0.6207184E-004  0.2786503E+03  0.7818608E-02  0.1096428E+00
         -2   -1    0    0    0  501 -0.00000000000E+00  0.00000000000E+00  0.12676395853E+02  0.12676396110E+02  0.25500000000E-02 0. -1.
          2   -1    0    0  501    0  0.00000000000E+00 -0.00000000000E+00 -0.15313099384E+04  0.15313099384E+04  0.25500000000E-02 0.  1.
    5000001    1    1    2    0    0 -0.88772739843E+02 -0.61660942418E+02 -0.99438749432E+03  0.10032039474E+04  0.77000000000E+02 0.  0.
   -5000001    1    1    2    0    0  0.88772739843E+02  0.61660942418E+02 -0.52424604818E+03  0.54078238709E+03  0.77000000000E+02 0.  0.
<mgrwt>
<rscale>  0 0.27865025E+03</rscale>
<asrwt>0</asrwt>
<pdfrwt beam="1">  1        2 0.23558600E+00 0.27865025E+03</pdfrwt>
<pdfrwt beam="2">  1       -2 0.19502160E-02 0.27865025E+03</pdfrwt>
<totfact> 0.10535798E+04</totfact>
</mgrwt>
</event>
<event>
 4    1  0.6207184E-004  0.1807222E+03  0.7818608E-02  0.1167106E+00
          2   -1    0    0  501    0  0.00000000000E+00  0.00000000000E+00  0.35941891332E+02  0.35941891422E+02  0.25500000000E-02 0.  1.
         -2   -1    0    0    0  501 -0.00000000000E+00 -0.00000000000E+00 -0.22717588019E+03  0.22717588021E+03  0.25500000000E-02 0. -1.
    5000001    1    1    2    0    0 -0.73423991698E+01 -0.45591493067E+02 -0.11043853697E+03  0.14233118251E+03  0.77000000000E+02 0.  0.
   -5000001    1    1    2    0    0  0.73423991698E+01  0.45591493067E+02 -0.80795451888E+02  0.12078658912E+03  0.77000000000E+02 0.  0.
<mgrwt>
<rscale>  0 0.18072223E+03</rscale>
<asrwt>0</asrwt>
<pdfrwt beam="1">  1        2 0.55295219E-02 0.18072223E+03</pdfrwt>
<pdfrwt beam="2">  1       -2 0.34950134E-01 0.18072223E+03</pdfrwt>
<totfact> 0.10180670E+04</totfact>
</mgrwt>
</event>
<event>
 4    1  0.6207184E-004  0.3338064E+03  0.7818608E-02  0.1069465E+00
          2   -1    0    0  501    0  0.00000000000E+00  0.00000000000E+00  0.18519135036E+04  0.18519135036E+04  0.25500000000E-02 0.  1.
         -2   -1    0    0    0  501 -0.00000000000E+00 -0.00000000000E+00 -0.15042101879E+02  0.15042102095E+02  0.25500000000E-02 0. -1.
    5000001    1    1    2    0    0  0.10769398223E+03  0.99936425253E+02  0.81494550299E+03  0.83165525054E+03  0.77000000000E+02 0.  0.
   -5000001    1    1    2    0    0 -0.10769398223E+03 -0.99936425253E+02  0.10219258988E+04  0.10353003552E+04  0.77000000000E+02 0.  0.
<mgrwt>
<rscale>  0 0.33380636E+03</rscale>
<asrwt>0</asrwt>
<pdfrwt beam="1">  1        2 0.28490957E+00 0.33380636E+03</pdfrwt>
<pdfrwt beam="2">  1       -2 0.23141712E-02 0.33380636E+03</pdfrwt>
<totfact> 0.55419290E+03</totfact>
</mgrwt>
</event>
<event>
 4    1  0.6207184E-004  0.2478842E+03  0.7818608E-02  0.1114649E+00
          2   -1    0    0  501    0  0.00000000000E+00  0.00000000000E+00  0.40692386850E+03  0.40692386850E+03  0.25500000000E-02 0.  1.
         -2   -1    0    0    0  501 -0.00000000000E+00 -0.00000000000E+00 -0.37750645777E+02  0.37750645863E+02  0.25500000000E-02 0. -1.
    5000001    1    1    2    0    0  0.47376234562E+02 -0.62621007681E+02  0.28711657324E+03  0.30745865549E+03  0.77000000000E+02 0.  0.
   -5000001    1    1    2    0    0 -0.47376234562E+02  0.62621007681E+02  0.82056649477E+02  0.13721585888E+03  0.77000000000E+02 0.  0.
<mgrwt>
<rscale>  0 0.24788416E+03</rscale>
<asrwt>0</asrwt>
<pdfrwt beam="1">  1        2 0.62603671E-01 0.24788416E+03</pdfrwt>
<pdfrwt beam="2">  1       -2 0.58077918E-02 0.24788416E+03</pdfrwt>
<totfact> 0.12029130E+04</totfact>
</mgrwt>
</event>
<event>
 4    1  0.6207184E-004  0.2602005E+03  0.7818608E-02  0.1107023E+00
          2   -1    0    0  501    0  0.00000000000E+00  0.00000000000E+00  0.41195170977E+03  0.41195170978E+03  0.25500000000E-02 0.  1.
         -2   -1    0    0    0  501 -0.00000000000E+00 -0.00000000000E+00 -0.41087508616E+02  0.41087508695E+02  0.25500000000E-02 0. -1.
    5000001    1    1    2    0    0  0.44029301792E+02  0.90143047288E+02  0.13225757369E+03  0.18299020244E+03  0.77000000000E+02 0.  0.
   -5000001    1    1    2    0    0 -0.44029301792E+02 -0.90143047288E+02  0.23860662746E+03  0.27004901603E+03  0.77000000000E+02 0.  0.
<mgrwt>
<rscale>  0 0.26020046E+03</rscale>
<asrwt>0</asrwt>
<pdfrwt beam="1">  1        2 0.63377185E-01 0.26020046E+03</pdfrwt>
<pdfrwt beam="2">  1       -2 0.63211553E-02 0.26020046E+03</pdfrwt>
<totfact> 0.10447460E+04</totfact>
</mgrwt>
</event>
<event>
 4    1  0.6207184E-004  0.2771827E+03  0.7818608E-02  0.1097238E+00
         -2   -1    0    0    0  501 -0.00000000000E+00  0.00000000000E+00  0.47192168139E+02  0.47192168208E+02  0.25500000000E-02 0. -1.
          2   -1    0    0  501    0  0.00000000000E+00 -0.00000000000E+00 -0.40700738362E+03  0.40700738363E+03  0.25500000000E-02 0.  1.
    5000001    1    1    2    0    0 -0.63715451657E+02 -0.94794773654E+02 -0.15490291503E+03  0.20729115026E+03  0.77000000000E+02 0.  0.
   -5000001    1    1    2    0    0  0.63715451657E+02  0.94794773654E+02 -0.20491230045E+03  0.24690840157E+03  0.77000000000E+02 0.  0.
<mgrwt>
<rscale>  0 0.27718269E+03</rscale>
<asrwt>0</asrwt>
<pdfrwt beam="1">  1        2 0.62616518E-01 0.27718269E+03</pdfrwt>
<pdfrwt beam="2">  1       -2 0.72603338E-02 0.27718269E+03</pdfrwt>
<totfact> 0.85684137E+03</totfact>
</mgrwt>
</event>
<event>
 4    1  0.6207184E-004  0.2320745E+03  0.7818608E-02  0.1125188E+00
          2   -1    0    0  501    0  0.00000000000E+00  0.00000000000E+00  0.11501608899E+03  0.11501608901E+03  0.25500000000E-02 0.  1.
         -2   -1    0    0    0  501 -0.00000000000E+00 -0.00000000000E+00 -0.11706745152E+03  0.11706745154E+03  0.25500000000E-02 0. -1.
    5000001    1    1    2    0    0 -0.14394904501E+02 -0.66694881949E+02 -0.54695457784E+02  0.11651615191E+03  0.77000000000E+02 0.  0.
   -5000001    1    1    2    0    0  0.14394904501E+02  0.66694881949E+02  0.52644095253E+02  0.11556738865E+03  0.77000000000E+02 0.  0.
<mgrwt>
<rscale>  0 0.23207447E+03</rscale>
<asrwt>0</asrwt>
<pdfrwt beam="1">  1        2 0.17694783E-01 0.23207447E+03</pdfrwt>
<pdfrwt beam="2">  1       -2 0.18010377E-01 0.23207447E+03</pdfrwt>
<totfact> 0.79034367E+03</totfact>
</mgrwt>
</event>
<event>
 4    1  0.6207184E-004  0.2495511E+03  0.7818608E-02  0.1113589E+00
          2   -1    0    0  501    0  0.00000000000E+00  0.00000000000E+00  0.20026545192E+03  0.20026545194E+03  0.25500000000E-02 0.  1.
         -2   -1    0    0    0  501 -0.00000000000E+00 -0.00000000000E+00 -0.77741500407E+02  0.77741500449E+02  0.25500000000E-02 0. -1.
    5000001    1    1    2    0    0  0.92071908116E+00  0.90626280794E+02  0.10332987298E+03  0.15754374994E+03  0.77000000000E+02 0.  0.
   -5000001    1    1    2    0    0 -0.92071908116E+00 -0.90626280794E+02  0.19194078537E+02  0.12046320245E+03  0.77000000000E+02 0.  0.
<mgrwt>
<rscale>  0 0.24955109E+03</rscale>
<asrwt>0</asrwt>
<pdfrwt beam="1">  1        2 0.30810070E-01 0.24955109E+03</pdfrwt>
<pdfrwt beam="2">  1       -2 0.11960231E-01 0.24955109E+03</pdfrwt>
<totfact> 0.83412572E+03</totfact>
</mgrwt>
</event>
<event>
 4    1  0.6207184E-004  0.4691768E+03  0.7818608E-02  0.1022153E+00
          2   -1    0    0  501    0  0.00000000000E+00  0.00000000000E+00  0.83328399040E+03  0.83328399040E+03  0.25500000000E-02 0.  1.
         -2   -1    0    0    0  501 -0.00000000000E+00 -0.00000000000E+00 -0.66041967296E+02  0.66041967345E+02  0.25500000000E-02 0. -1.
    5000001    1    1    2    0    0  0.18571458138E+03  0.47760441611E+01  0.61515151995E+03  0.64718861921E+03  0.77000000000E+02 0.  0.
   -5000001    1    1    2    0    0 -0.18571458138E+03 -0.47760441611E+01  0.15209050316E+03  0.25213733854E+03  0.77000000000E+02 0.  0.
<mgrwt>
<rscale>  0 0.46917679E+03</rscale>
<asrwt>0</asrwt>
<pdfrwt beam="1">  1        2 0.12819754E+00 0.46917679E+03</pdfrwt>
<pdfrwt beam="2">  1       -2 0.10160303E-01 0.46917679E+03</pdfrwt>
<totfact> 0.21835593E+03</totfact>
</mgrwt>
</event>
<event>
 4    1  0.6207184E-004  0.2019328E+03  0.7818608E-02  0.1148119E+00
          2   -1    0    0  501    0  0.00000000000E+00  0.00000000000E+00  0.91469128364E+01  0.91469131919E+01  0.25500000000E-02 0.  1.
         -2   -1    0    0    0  501 -0.00000000000E+00 -0.00000000000E+00 -0.11144973223E+04  0.11144973223E+04  0.25500000000E-02 0. -1.
    5000001    1    1    2    0    0  0.24024911278E+02 -0.60436262089E+02 -0.58581611555E+03  0.59442346806E+03  0.77000000000E+02 0.  0.
   -5000001    1    1    2    0    0 -0.24024911278E+02  0.60436262089E+02 -0.51953429395E+03  0.52922076747E+03  0.77000000000E+02 0.  0.
<mgrwt>
<rscale>  0 0.20193276E+03</rscale>
<asrwt>0</asrwt>
<pdfrwt beam="1">  1        2 0.14072183E-02 0.20193276E+03</pdfrwt>
<pdfrwt beam="2">  1       -2 0.17146102E+00 0.20193276E+03</pdfrwt>
<totfact> 0.19559329E+03</totfact>
</mgrwt>
</event>
<event>
 4    1  0.6207184E-004  0.2188576E+03  0.7818608E-02  0.1134738E+00
         -2   -1    0    0    0  501 -0.00000000000E+00  0.00000000000E+00  0.10278900712E+04  0.10278900712E+04  0.25500000000E-02 0. -1.
          2   -1    0    0  501    0  0.00000000000E+00 -0.00000000000E+00 -0.11649748449E+02  0.11649748728E+02  0.25500000000E-02 0.  1.
    5000001    1    1    2    0    0  0.66270332582E+01  0.70920851474E+02  0.65620388614E+03  0.66453459273E+03  0.77000000000E+02 0.  0.
   -5000001    1    1    2    0    0 -0.66270332582E+01 -0.70920851474E+02  0.36003643658E+03  0.37500522717E+03  0.77000000000E+02 0.  0.
<mgrwt>
<rscale>  0 0.21885759E+03</rscale>
<asrwt>0</asrwt>
<pdfrwt beam="1">  1        2 0.17922690E-02 0.21885759E+03</pdfrwt>
<pdfrwt beam="2">  1       -2 0.15813693E+00 0.21885759E+03</pdfrwt>
<totfact> 0.17424947E+03</totfact>
</mgrwt>
</event>
<event>
 4    1  0.6207184E-004  0.2826740E+03  0.7818608E-02  0.1094237E+00
          2   -1    0    0  501    0  0.00000000000E+00  0.00000000000E+00  0.74264930856E+03  0.74264930856E+03  0.25500000000E-02 0.  1.
         -2   -1    0    0    0  501 -0.00000000000E+00 -0.00000000000E+00 -0.26898487024E+02  0.26898487145E+02  0.25500000000E-02 0. -1.
    5000001    1    1    2    0    0  0.11198230199E+03  0.16096249405E+02  0.45404995711E+03  0.47422514564E+03  0.77000000000E+02 0.  0.
   -5000001    1    1    2    0    0 -0.11198230199E+03 -0.16096249405E+02  0.26170086443E+03  0.29532265007E+03  0.77000000000E+02 0.  0.
<mgrwt>
<rscale>  0 0.28267397E+03</rscale>
<asrwt>0</asrwt>
<pdfrwt beam="1">  1        2 0.11425371E+00 0.28267397E+03</pdfrwt>
<pdfrwt beam="2">  1       -2 0.41382298E-02 0.28267397E+03</pdfrwt>
<totfact> 0.10152490E+04</totfact>
</mgrwt>
</event>
<event>
 4    1  0.6207184E-004  0.2617013E+03  0.7818608E-02  0.1106125E+00
          2   -1    0    0  501    0  0.00000000000E+00  0.00000000000E+00  0.10044125545E+04  0.10044125545E+04  0.25500000000E-02 0.  1.
         -2   -1    0    0    0  501 -0.00000000000E+00 -0.00000000000E+00 -0.17046676198E+02  0.17046676389E+02  0.25500000000E-02 0. -1.
    5000001    1    1    2    0    0  0.35136388654E+00 -0.62688854534E+02  0.16104671276E+03  0.18919582350E+03  0.77000000000E+02 0.  0.
   -5000001    1    1    2    0    0 -0.35136388654E+00  0.62688854534E+02  0.82631916553E+03  0.83226340738E+03  0.77000000000E+02 0.  0.
<mgrwt>
<rscale>  0 0.26170132E+03</rscale>
<asrwt>0</asrwt>
<pdfrwt beam="1">  1        2 0.15452496E+00 0.26170132E+03</pdfrwt>
<pdfrwt beam="2">  1       -2 0.26225665E-02 0.26170132E+03</pdfrwt>
<totfact> 0.13440309E+04</totfact>
</mgrwt>
</event>
<event>
 4    1  0.6207184E-004  0.2032538E+03  0.7818608E-02  0.1147022E+00
         -2   -1    0    0    0  501 -0.00000000000E+00  0.00000000000E+00  0.47614170875E+02  0.47614170943E+02  0.25500000000E-02 0. -1.
          2   -1    0    0  501    0  0.00000000000E+00 -0.00000000000E+00 -0.21691081137E+03  0.21691081139E+03  0.25500000000E-02 0.  1.
    5000001    1    1    2    0    0 -0.36580740234E+02  0.46699302096E+02 -0.12325677485E+03  0.15697199724E+03  0.77000000000E+02 0.  0.
   -5000001    1    1    2    0    0  0.36580740234E+02 -0.46699302096E+02 -0.46039865649E+02  0.10755298509E+03  0.77000000000E+02 0.  0.
<mgrwt>
<rscale>  0 0.20325382E+03</rscale>
<asrwt>0</asrwt>
<pdfrwt beam="1">  1        2 0.33370894E-01 0.20325382E+03</pdfrwt>
<pdfrwt beam="2">  1       -2 0.73252572E-02 0.20325382E+03</pdfrwt>
<totfact> 0.16372079E+04</totfact>
</mgrwt>
</event>
<event>
 4    1  0.6207184E-004  0.5661232E+03  0.7818608E-02  0.9978294E-01
          2   -1    0    0  501    0  0.00000000000E+00  0.00000000000E+00  0.30885362743E+02  0.30885362848E+02  0.25500000000E-02 0.  1.
         -2   -1    0    0    0  501 -0.00000000000E+00 -0.00000000000E+00 -0.25942346841E+04  0.25942346841E+04  0.25500000000E-02 0. -1.
    5000001    1    1    2    0    0 -0.25639045330E+03 -0.40126640880E+01 -0.85560637236E+03  0.89651738992E+03  0.77000000000E+02 0.  0.
   -5000001    1    1    2    0    0  0.25639045330E+03  0.40126640880E+01 -0.17077429490E+04  0.17286026570E+04  0.77000000000E+02 0.  0.
<mgrwt>
<rscale>  0 0.56612324E+03</rscale>
<asrwt>0</asrwt>
<pdfrwt beam="1">  1        2 0.47515963E-02 0.56612324E+03</pdfrwt>
<pdfrwt beam="2">  1       -2 0.39911286E+00 0.56612324E+03</pdfrwt>
<totfact> 0.14547387E+01</totfact>
</mgrwt>
</event>
<event>
 4    1  0.6207184E-004  0.1669792E+03  0.7818608E-02  0.1181035E+00
          2   -1    0    0  501    0  0.00000000000E+00  0.00000000000E+00  0.14079074306E+04  0.14079074306E+04  0.25500000000E-02 0.  1.
         -2   -1    0    0    0  501 -0.00000000000E+00 -0.00000000000E+00 -0.49509727582E+01  0.49509734149E+01  0.25500000000E-02 0. -1.
    5000001    1    1    2    0    0  0.24289463146E+02  0.21208181049E+02  0.71266133661E+03  0.71753393346E+03  0.77000000000E+02 0.  0.
   -5000001    1    1    2    0    0 -0.24289463146E+02 -0.21208181049E+02  0.69029512119E+03  0.69532447052E+03  0.77000000000E+02 0.  0.
<mgrwt>
<rscale>  0 0.16697918E+03</rscale>
<asrwt>0</asrwt>
<pdfrwt beam="1">  1        2 0.21660110E+00 0.16697918E+03</pdfrwt>
<pdfrwt beam="2">  1       -2 0.76168832E-03 0.16697918E+03</pdfrwt>
<totfact> 0.46759797E+04</totfact>
</mgrwt>
</event>
<event>
 4    1  0.6207184E-004  0.2923683E+03  0.7818608E-02  0.1089119E+00
         -2   -1    0    0    0  501 -0.00000000000E+00  0.00000000000E+00  0.19039938044E+02  0.19039938215E+02  0.25500000000E-02 0. -1.
          2   -1    0    0  501    0  0.00000000000E+00 -0.00000000000E+00 -0.11223672596E+04  0.11223672596E+04  0.25500000000E-02 0.  1.
    5000001    1    1    2    0    0  0.11845372107E+03 -0.12882019117E+02 -0.68933576346E+03  0.70378265483E+03  0.77000000000E+02 0.  0.
   -5000001    1    1    2    0    0 -0.11845372107E+03  0.12882019117E+02 -0.41399155808E+03  0.43762454298E+03  0.77000000000E+02 0.  0.
<mgrwt>
<rscale>  0 0.29236828E+03</rscale>
<asrwt>0</asrwt>
<pdfrwt beam="1">  1        2 0.17267183E+00 0.29236828E+03</pdfrwt>
<pdfrwt beam="2">  1       -2 0.29292221E-02 0.29236828E+03</pdfrwt>
<totfact> 0.97316868E+03</totfact>
</mgrwt>
</event>
<event>
 4    1  0.6207184E-004  0.2049755E+03  0.7818608E-02  0.1145608E+00
         -2   -1    0    0    0  501 -0.00000000000E+00  0.00000000000E+00  0.11034860239E+02  0.11034860533E+02  0.25500000000E-02 0. -1.
          2   -1    0    0  501    0  0.00000000000E+00 -0.00000000000E+00 -0.95186855143E+03  0.95186855144E+03  0.25500000000E-02 0.  1.
    5000001    1    1    2    0    0  0.51138300411E+02 -0.25413053212E+02 -0.64068890439E+03  0.64782113368E+03  0.77000000000E+02 0.  0.
   -5000001    1    1    2    0    0 -0.51138300411E+02  0.25413053212E+02 -0.30014478681E+03  0.31508227829E+03  0.77000000000E+02 0.  0.
<mgrwt>
<rscale>  0 0.20497548E+03</rscale>
<asrwt>0</asrwt>
<pdfrwt beam="1">  1        2 0.14644125E+00 0.20497548E+03</pdfrwt>
<pdfrwt beam="2">  1       -2 0.16976716E-02 0.20497548E+03</pdfrwt>
<totfact> 0.27090853E+04</totfact>
</mgrwt>
</event>
<event>
 4    1  0.6207184E-004  0.2968834E+03  0.7818608E-02  0.1086809E+00
         -2   -1    0    0    0  501 -0.00000000000E+00  0.00000000000E+00  0.19340721556E+02  0.19340721725E+02  0.25500000000E-02 0. -1.
          2   -1    0    0  501    0  0.00000000000E+00 -0.00000000000E+00 -0.11393031198E+04  0.11393031198E+04  0.25500000000E-02 0.  1.
    5000001    1    1    2    0    0 -0.99267004723E+02  0.78190201486E+02 -0.60587700347E+03  0.62368548898E+03  0.77000000000E+02 0.  0.
   -5000001    1    1    2    0    0  0.99267004723E+02 -0.78190201486E+02 -0.51408539474E+03  0.53495835251E+03  0.77000000000E+02 0.  0.
<mgrwt>
<rscale>  0 0.29688344E+03</rscale>
<asrwt>0</asrwt>
<pdfrwt beam="1">  1        2 0.17527735E+00 0.29688344E+03</pdfrwt>
<pdfrwt beam="2">  1       -2 0.29754965E-02 0.29688344E+03</pdfrwt>
<totfact> 0.92967075E+03</totfact>
</mgrwt>
</event>
<event>
 4    1  0.6207184E-004  0.2550335E+03  0.7818608E-02  0.1110164E+00
          2   -1    0    0  501    0  0.00000000000E+00  0.00000000000E+00  0.29487440312E+04  0.29487440312E+04  0.25500000000E-02 0.  1.
         -2   -1    0    0    0  501 -0.00000000000E+00 -0.00000000000E+00 -0.55143882310E+01  0.55143888206E+01  0.25500000000E-02 0. -1.
    5000001    1    1    2    0    0 -0.85265992248E-01  0.73306033954E+02  0.65598504902E+03  0.66454432991E+03  0.77000000000E+02 0.  0.
   -5000001    1    1    2    0    0  0.85265992248E-01 -0.73306033954E+02  0.22872445940E+04  0.22897140901E+04  0.77000000000E+02 0.  0.
<mgrwt>
<rscale>  0 0.25503349E+03</rscale>
<asrwt>0</asrwt>
<pdfrwt beam="1">  1        2 0.45365479E+00 0.25503349E+03</pdfrwt>
<pdfrwt beam="2">  1       -2 0.84836399E-03 0.25503349E+03</pdfrwt>
<totfact> 0.60522035E+03</totfact>
</mgrwt>
</event>
<event>
 4    1  0.6207184E-004  0.2280915E+03  0.7818608E-02  0.1127990E+00
         -2   -1    0    0    0  501 -0.00000000000E+00  0.00000000000E+00  0.27137299248E+02  0.27137299368E+02  0.25500000000E-02 0. -1.
          2   -1    0    0  501    0  0.00000000000E+00 -0.00000000000E+00 -0.47928252406E+03  0.47928252407E+03  0.25500000000E-02 0.  1.
    5000001    1    1    2    0    0 -0.39984259147E+02 -0.63947901283E+02 -0.14331485466E+03  0.17932156207E+03  0.77000000000E+02 0.  0.
   -5000001    1    1    2    0    0  0.39984259147E+02  0.63947901283E+02 -0.30883037015E+03  0.32709826136E+03  0.77000000000E+02 0.  0.
<mgrwt>
<rscale>  0 0.22809150E+03</rscale>
<asrwt>0</asrwt>
<pdfrwt beam="1">  1        2 0.73735766E-01 0.22809150E+03</pdfrwt>
<pdfrwt beam="2">  1       -2 0.41749695E-02 0.22809150E+03</pdfrwt>
<totfact> 0.16506709E+04</totfact>
</mgrwt>
</event>
<event>
 4    1  0.6207184E-004  0.3306692E+03  0.7818608E-02  0.1070841E+00
         -2   -1    0    0    0  501 -0.00000000000E+00  0.00000000000E+00  0.47268931795E+02  0.47268931864E+02  0.25500000000E-02 0. -1.
          2   -1    0    0  501    0  0.00000000000E+00 -0.00000000000E+00 -0.57829786616E+03  0.57829786617E+03  0.25500000000E-02 0.  1.
    5000001    1    1    2    0    0  0.25834993645E+01  0.12895433870E+03 -0.13484692783E+03  0.20186279965E+03  0.77000000000E+02 0.  0.
   -5000001    1    1    2    0    0 -0.25834993645E+01 -0.12895433870E+03 -0.39618200654E+03  0.42370399838E+03  0.77000000000E+02 0.  0.
<mgrwt>
<rscale>  0 0.33066915E+03</rscale>
<asrwt>0</asrwt>
<pdfrwt beam="1">  1        2 0.88968898E-01 0.33066915E+03</pdfrwt>
<pdfrwt beam="2">  1       -2 0.72721438E-02 0.33066915E+03</pdfrwt>
<totfact> 0.57987323E+03</totfact>
</mgrwt>
</event>
<event>
 4    1  0.6207184E-004  0.2355273E+03  0.7818608E-02  0.1122809E+00
         -2   -1    0    0    0  501 -0.00000000000E+00  0.00000000000E+00  0.15812772308E+03  0.15812772310E+03  0.25500000000E-02 0. -1.
          2   -1    0    0  501    0  0.00000000000E+00 -0.00000000000E+00 -0.87703011018E+02  0.87703011055E+02  0.25500000000E-02 0.  1.
    5000001    1    1    2    0    0 -0.65065939131E+02  0.28396907155E+01  0.98680685651E+02  0.14109754781E+03  0.77000000000E+02 0.  0.
   -5000001    1    1    2    0    0  0.65065939131E+02 -0.28396907155E+01 -0.28255973587E+02  0.10473318634E+03  0.77000000000E+02 0.  0.
<mgrwt>
<rscale>  0 0.23552730E+03</rscale>
<asrwt>0</asrwt>
<pdfrwt beam="1">  1        2 0.13492771E-01 0.23552730E+03</pdfrwt>
<pdfrwt beam="2">  1       -2 0.24327342E-01 0.23552730E+03</pdfrwt>
<totfact> 0.64956068E+03</totfact>
</mgrwt>
</event>
<event>
 4    1  0.6207184E-004  0.2860119E+03  0.7818608E-02  0.1092450E+00
          2   -1    0    0  501    0  0.00000000000E+00  0.00000000000E+00  0.32202676229E+03  0.32202676230E+03  0.25500000000E-02 0.  1.
         -2   -1    0    0    0  501 -0.00000000000E+00 -0.00000000000E+00 -0.63506209211E+02  0.63506209262E+02  0.25500000000E-02 0. -1.
    5000001    1    1    2    0    0  0.30637829522E+02  0.23589905713E+02  0.28310831708E+03  0.29592985562E+03  0.77000000000E+02 0.  0.
   -5000001    1    1    2    0    0 -0.30637829522E+02 -0.23589905713E+02 -0.24587763992E+02  0.89603115948E+02  0.77000000000E+02 0.  0.
<mgrwt>
<rscale>  0 0.28601188E+03</rscale>
<asrwt>0</asrwt>
<pdfrwt beam="1">  1        2 0.49542580E-01 0.28601188E+03</pdfrwt>
<pdfrwt beam="2">  1       -2 0.97701857E-02 0.28601188E+03</pdfrwt>
<totfact> 0.69355212E+03</totfact>
</mgrwt>
</event>
<event>
 4    1  0.6207184E-004  0.3054618E+03  0.7818608E-02  0.1082542E+00
          2   -1    0    0  501    0  0.00000000000E+00  0.00000000000E+00  0.83181409905E+03  0.83181409906E+03  0.25500000000E-02 0.  1.
         -2   -1    0    0    0  501 -0.00000000000E+00 -0.00000000000E+00 -0.28043206846E+02  0.28043206962E+02  0.25500000000E-02 0. -1.
    5000001    1    1    2    0    0  0.82065891089E+02  0.72601815358E+02  0.60858539089E+03  0.62314605998E+03  0.77000000000E+02 0.  0.
   -5000001    1    1    2    0    0 -0.82065891089E+02 -0.72601815358E+02  0.19518550132E+03  0.23671124603E+03  0.77000000000E+02 0.  0.
<mgrwt>
<rscale>  0 0.30546185E+03</rscale>
<asrwt>0</asrwt>
<pdfrwt beam="1">  1        2 0.12797142E+00 0.30546185E+03</pdfrwt>
<pdfrwt beam="2">  1       -2 0.43143389E-02 0.30546185E+03</pdfrwt>
<totfact> 0.82749657E+03</totfact>
</mgrwt>
</event>
<event>
 4    1  0.6207184E-004  0.3378131E+03  0.7818608E-02  0.1067731E+00
          2   -1    0    0  501    0  0.00000000000E+00  0.00000000000E+00  0.20609448407E+04  0.20609448407E+04  0.25500000000E-02 0.  1.
         -2   -1    0    0    0  501 -0.00000000000E+00 -0.00000000000E+00 -0.13842881623E+02  0.13842881858E+02  0.25500000000E-02 0. -1.
    5000001    1    1    2    0    0  0.99960027374E+02  0.37556024390E+02  0.16734809560E+04  0.16786512360E+04  0.77000000000E+02 0.  0.
   -5000001    1    1    2    0    0 -0.99960027374E+02 -0.37556024390E+02  0.37362100308E+03  0.39613648655E+03  0.77000000000E+02 0.  0.
<mgrwt>
<rscale>  0 0.33781306E+03</rscale>
<asrwt>0</asrwt>
<pdfrwt beam="1">  1        2 0.31706846E+00 0.33781306E+03</pdfrwt>
<pdfrwt beam="2">  1       -2 0.21296739E-02 0.33781306E+03</pdfrwt>
<totfact> 0.48579000E+03</totfact>
</mgrwt>
</event>
<event>
 4    1  0.6207184E-004  0.3312907E+03  0.7818608E-02  0.1070567E+00
          2   -1    0    0  501    0  0.00000000000E+00  0.00000000000E+00  0.15608789887E+03  0.15608789889E+03  0.25500000000E-02 0.  1.
         -2   -1    0    0    0  501 -0.00000000000E+00 -0.00000000000E+00 -0.17578800634E+03  0.17578800636E+03  0.25500000000E-02 0. -1.
    5000001    1    1    2    0    0 -0.55495002227E+02 -0.12306276434E+03 -0.67268327045E+02  0.16934629333E+03  0.77000000000E+02 0.  0.
   -5000001    1    1    2    0    0  0.55495002227E+02  0.12306276434E+03  0.47568219568E+02  0.16252961193E+03  0.77000000000E+02 0.  0.
<mgrwt>
<rscale>  0 0.33129069E+03</rscale>
<asrwt>0</asrwt>
<pdfrwt beam="1">  1        2 0.24013523E-01 0.33129069E+03</pdfrwt>
<pdfrwt beam="2">  1       -2 0.27044309E-01 0.33129069E+03</pdfrwt>
<totfact> 0.27873882E+03</totfact>
</mgrwt>
</event>
<event>
 4    1  0.6207184E-004  0.2609360E+03  0.7818608E-02  0.1106582E+00
          2   -1    0    0  501    0  0.00000000000E+00  0.00000000000E+00  0.20850051911E+04  0.20850051911E+04  0.25500000000E-02 0. -1.
         -2   -1    0    0    0  501 -0.00000000000E+00 -0.00000000000E+00 -0.81639607650E+01  0.81639611633E+01  0.25500000000E-02 0.  1.
    5000001    1    1    2    0    0  0.28586454286E+02  0.82766010836E+02  0.56892398343E+03  0.58075028786E+03  0.77000000000E+02 0.  0.
   -5000001    1    1    2    0    0 -0.28586454286E+02 -0.82766010836E+02  0.15079172469E+04  0.15124188644E+04  0.77000000000E+02 0.  0.
<mgrwt>
<rscale>  0 0.26093602E+03</rscale>
<asrwt>0</asrwt>
<pdfrwt beam="1">  1        2 0.32077074E+00 0.26093602E+03</pdfrwt>
<pdfrwt beam="2">  1       -2 0.12559912E-02 0.26093602E+03</pdfrwt>
<totfact> 0.10240630E+04</totfact>
</mgrwt>
</event>
<event>
 4    1  0.6207184E-004  0.1667752E+03  0.7818608E-02  0.1181253E+00
          2   -1    0    0  501    0  0.00000000000E+00  0.00000000000E+00  0.18119096100E+04  0.18119096100E+04  0.25500000000E-02 0.  1.
         -2   -1    0    0    0  501 -0.00000000000E+00 -0.00000000000E+00 -0.38376585812E+01  0.38376594283E+01  0.25500000000E-02 0. -1.
    5000001    1    1    2    0    0  0.99840809050E+01 -0.30408414681E+02  0.89999619320E+03  0.90385092871E+03  0.77000000000E+02 0.  0.
   -5000001    1    1    2    0    0 -0.99840809050E+01  0.30408414681E+02  0.90807575826E+03  0.91189634077E+03  0.77000000000E+02 0.  0.
<mgrwt>
<rscale>  0 0.16677519E+03</rscale>
<asrwt>0</asrwt>
<pdfrwt beam="1">  1        2 0.27875484E+00 0.16677519E+03</pdfrwt>
<pdfrwt beam="2">  1       -2 0.59041011E-03 0.16677519E+03</pdfrwt>
<totfact> 0.41431072E+04</totfact>
</mgrwt>
</event>
<event>
 4    1  0.6207184E-004  0.1665433E+03  0.7818608E-02  0.1181501E+00
          2   -1    0    0  501    0  0.00000000000E+00  0.00000000000E+00  0.90348751720E+03  0.90348751720E+03  0.25500000000E-02 0.  1.
         -2   -1    0    0    0  501 -0.00000000000E+00 -0.00000000000E+00 -0.76748867697E+01  0.76748871933E+01  0.25500000000E-02 0. -1.
    5000001    1    1    2    0    0  0.18402105971E+02  0.23220433343E+02  0.50964376521E+03  0.51627860061E+03  0.77000000000E+02 0.  0.
   -5000001    1    1    2    0    0 -0.18402105971E+02 -0.23220433343E+02  0.38616886521E+03  0.39488380378E+03  0.77000000000E+02 0.  0.
<mgrwt>
<rscale>  0 0.16654326E+03</rscale>
<asrwt>0</asrwt>
<pdfrwt beam="1">  1        2 0.13899797E+00 0.16654326E+03</pdfrwt>
<pdfrwt beam="2">  1       -2 0.11807528E-02 0.16654326E+03</pdfrwt>
<totfact> 0.48393431E+04</totfact>
</mgrwt>
</event>
<event>
 4    1  0.6207184E-004  0.3992158E+03  0.7818608E-02  0.1044052E+00
          2   -1    0    0  501    0  0.00000000000E+00  0.00000000000E+00  0.16655813527E+04  0.16655813527E+04  0.25500000000E-02 0.  1.
         -2   -1    0    0    0  501 -0.00000000000E+00 -0.00000000000E+00 -0.23921566127E+02  0.23921566262E+02  0.25500000000E-02 0. -1.
    5000001    1    1    2    0    0  0.66835298919E+02  0.65100430870E+02  0.14927715084E+04  0.14976651159E+04  0.77000000000E+02 0.  0.
   -5000001    1    1    2    0    0 -0.66835298919E+02 -0.65100430870E+02  0.14888827815E+03  0.19183780298E+03  0.77000000000E+02 0.  0.
<mgrwt>
<rscale>  0 0.39921580E+03</rscale>
<asrwt>0</asrwt>
<pdfrwt beam="1">  1        2 0.25624325E+00 0.39921580E+03</pdfrwt>
<pdfrwt beam="2">  1       -2 0.36802414E-02 0.39921580E+03</pdfrwt>
<totfact> 0.34691644E+03</totfact>
</mgrwt>
</event>
<event>
 4    1  0.6207184E-004  0.2623175E+03  0.7818608E-02  0.1105759E+00
          2   -1    0    0  501    0  0.00000000000E+00  0.00000000000E+00  0.40010019077E+02  0.40010019159E+02  0.25500000000E-02 0.  1.
         -2   -1    0    0    0  501 -0.00000000000E+00 -0.00000000000E+00 -0.42995783978E+03  0.42995783979E+03  0.25500000000E-02 0. -1.
    5000001    1    1    2    0    0  0.11174083503E+02 -0.84838845197E+02 -0.82357522424E+02  0.14154240105E+03  0.77000000000E+02 0.  0.
   -5000001    1    1    2    0    0 -0.11174083503E+02  0.84838845197E+02 -0.30759029828E+03  0.32842545789E+03  0.77000000000E+02 0.  0.
<mgrwt>
<rscale>  0 0.26231753E+03</rscale>
<asrwt>0</asrwt>
<pdfrwt beam="1">  1        2 0.61553879E-02 0.26231753E+03</pdfrwt>
<pdfrwt beam="2">  1       -2 0.66147357E-01 0.26231753E+03</pdfrwt>
<totfact> 0.25596526E+03</totfact>
</mgrwt>
</event>
<event>
 4    1  0.6207184E-004  0.3095505E+03  0.7818608E-02  0.1080562E+00
         -2   -1    0    0    0  501 -0.00000000000E+00  0.00000000000E+00  0.10066518584E+03  0.10066518587E+03  0.25500000000E-02 0. -1.
          2   -1    0    0  501    0  0.00000000000E+00 -0.00000000000E+00 -0.23797080376E+03  0.23797080377E+03  0.25500000000E-02 0.  1.
    5000001    1    1    2    0    0 -0.89997253285E+02 -0.32530841277E+02 -0.17167469669E+03  0.21108993988E+03  0.77000000000E+02 0.  0.
   -5000001    1    1    2    0    0  0.89997253285E+02  0.32530841277E+02  0.34369078774E+02  0.12754604976E+03  0.77000000000E+02 0.  0.
<mgrwt>
<rscale>  0 0.30955048E+03</rscale>
<asrwt>0</asrwt>
<pdfrwt beam="1">  1        2 0.36610893E-01 0.30955048E+03</pdfrwt>
<pdfrwt beam="2">  1       -2 0.15486952E-01 0.30955048E+03</pdfrwt>
<totfact> 0.45637044E+03</totfact>
</mgrwt>
</event>
<event>
 4    1  0.6207184E-004  0.2676886E+03  0.7818608E-02  0.1102610E+00
          2   -1    0    0  501    0  0.00000000000E+00  0.00000000000E+00  0.98317043463E+03  0.98317043463E+03  0.25500000000E-02 0.  1.
         -2   -1    0    0    0  501 -0.00000000000E+00 -0.00000000000E+00 -0.18220941876E+02  0.18220942055E+02  0.25500000000E-02 0. -1.
    5000001    1    1    2    0    0  0.71191975318E+02 -0.20232531250E+02  0.18069801330E+03  0.20990098780E+03  0.77000000000E+02 0.  0.
   -5000001    1    1    2    0    0 -0.71191975318E+02  0.20232531250E+02  0.78425147946E+03  0.79149038889E+03  0.77000000000E+02 0.  0.
<mgrwt>
<rscale>  0 0.26768856E+03</rscale>
<asrwt>0</asrwt>
<pdfrwt beam="1">  1        2 0.15125701E+00 0.26768856E+03</pdfrwt>
<pdfrwt beam="2">  1       -2 0.28032214E-02 0.26768856E+03</pdfrwt>
<totfact> 0.12557616E+04</totfact>
</mgrwt>
</event>
<event>
 4    1  0.6207184E-004  0.1728147E+03  0.7818608E-02  0.1174944E+00
          2   -1    0    0  501    0  0.00000000000E+00  0.00000000000E+00  0.33680219771E+03  0.33680219772E+03  0.25500000000E-02 0.  1.
         -2   -1    0    0    0  501 -0.00000000000E+00 -0.00000000000E+00 -0.22167992111E+02  0.22167992258E+02  0.25500000000E-02 0. -1.
    5000001    1    1    2    0    0  0.36391016411E+02 -0.69403662303E+01  0.18397926587E+03  0.20285424578E+03  0.77000000000E+02 0.  0.
   -5000001    1    1    2    0    0 -0.36391016411E+02  0.69403662303E+01  0.13065493973E+03  0.15611594420E+03  0.77000000000E+02 0.  0.
<mgrwt>
<rscale>  0 0.17281468E+03</rscale>
<asrwt>0</asrwt>
<pdfrwt beam="1">  1        2 0.51815719E-01 0.17281468E+03</pdfrwt>
<pdfrwt beam="2">  1       -2 0.34104606E-02 0.17281468E+03</pdfrwt>
<totfact> 0.32031602E+04</totfact>
</mgrwt>
</event>
<event>
 4    1  0.6207184E-004  0.2077848E+03  0.7818608E-02  0.1143332E+00
          2   -1    0    0  501    0  0.00000000000E+00  0.00000000000E+00  0.20824213039E+04  0.20824213039E+04  0.25500000000E-02 0.  1.
         -2   -1    0    0    0  501 -0.00000000000E+00 -0.00000000000E+00 -0.51832096426E+01  0.51832102699E+01  0.25500000000E-02 0. -1.
    5000001    1    1    2    0    0 -0.60327098805E+02  0.32359910044E+02  0.11727014008E+04  0.11772187979E+04  0.77000000000E+02 0.  0.
   -5000001    1    1    2    0    0  0.60327098805E+02 -0.32359910044E+02  0.90453669340E+03  0.91038571624E+03  0.77000000000E+02 0.  0.
<mgrwt>
<rscale>  0 0.20778476E+03</rscale>
<asrwt>0</asrwt>
<pdfrwt beam="1">  1        2 0.32037268E+00 0.20778476E+03</pdfrwt>
<pdfrwt beam="2">  1       -2 0.79741650E-03 0.20778476E+03</pdfrwt>
<totfact> 0.19720924E+04</totfact>
</mgrwt>
</event>
<event>
 4    1  0.6207184E-004  0.3628482E+03  0.7818608E-02  0.1057462E+00
          2   -1    0    0  501    0  0.00000000000E+00  0.00000000000E+00  0.96962393402E+02  0.96962393435E+02  0.25500000000E-02 0.  1.
         -2   -1    0    0    0  501 -0.00000000000E+00 -0.00000000000E+00 -0.33945843172E+03  0.33945843173E+03  0.25500000000E-02 0. -1.
    5000001    1    1    2    0    0 -0.97996086321E+02 -0.88094203578E+02 -0.23922858729E+03  0.28376599271E+03  0.77000000000E+02 0.  0.
   -5000001    1    1    2    0    0  0.97996086321E+02  0.88094203578E+02 -0.32674510303E+01  0.15265483246E+03  0.77000000000E+02 0.  0.
<mgrwt>
<rscale>  0 0.36284819E+03</rscale>
<asrwt>0</asrwt>
<pdfrwt beam="1">  1        2 0.14917291E-01 0.36284819E+03</pdfrwt>
<pdfrwt beam="2">  1       -2 0.52224374E-01 0.36284819E+03</pdfrwt>
<totfact> 0.13882718E+03</totfact>
</mgrwt>
</event>
<event>
 4    1  0.6207184E-004  0.2141644E+03  0.7818608E-02  0.1138310E+00
          2   -1    0    0  501    0  0.00000000000E+00  0.00000000000E+00  0.10756453632E+04  0.10756453632E+04  0.25500000000E-02 0.  1.
         -2   -1    0    0    0  501 -0.00000000000E+00 -0.00000000000E+00 -0.10660204824E+02  0.10660205129E+02  0.25500000000E-02 0. -1.
    5000001    1    1    2    0    0 -0.15231473613E+02  0.57758328818E+02  0.75760073972E+03  0.76384285240E+03  0.77000000000E+02 0.  0.
   -5000001    1    1    2    0    0  0.15231473613E+02 -0.57758328818E+02  0.30738441870E+03  0.32246271598E+03  0.77000000000E+02 0.  0.
<mgrwt>
<rscale>  0 0.21416442E+03</rscale>
<asrwt>0</asrwt>
<pdfrwt beam="1">  1        2 0.16548388E+00 0.21416442E+03</pdfrwt>
<pdfrwt beam="2">  1       -2 0.16400318E-02 0.21416442E+03</pdfrwt>
<totfact> 0.24049618E+04</totfact>
</mgrwt>
</event>
<event>
 4    1  0.6207184E-004  0.4203151E+03  0.7818608E-02  0.1036964E+00
         -2   -1    0    0    0  501 -0.00000000000E+00  0.00000000000E+00  0.65213986633E+02  0.65213986683E+02  0.25500000000E-02 0. -1.
          2   -1    0    0  501    0  0.00000000000E+00 -0.00000000000E+00 -0.67725031356E+03  0.67725031356E+03  0.25500000000E-02 0.  1.
    5000001    1    1    2    0    0  0.13333543147E+03 -0.49436309945E+02 -0.54311000454E+03  0.56667430069E+03  0.77000000000E+02 0.  0.
   -5000001    1    1    2    0    0 -0.13333543147E+03  0.49436309945E+02 -0.68926322385E+02  0.17578999956E+03  0.77000000000E+02 0.  0.
<mgrwt>
<rscale>  0 0.42031509E+03</rscale>
<asrwt>0</asrwt>
<pdfrwt beam="1">  1        2 0.10419235E+00 0.42031509E+03</pdfrwt>
<pdfrwt beam="2">  1       -2 0.10032922E-01 0.42031509E+03</pdfrwt>
<totfact> 0.28983489E+03</totfact>
</mgrwt>
</event>
<event>
 4    1  0.6207184E-004  0.2762750E+03  0.7818608E-02  0.1097741E+00
         -2   -1    0    0    0  501 -0.00000000000E+00  0.00000000000E+00  0.15093261200E+02  0.15093261416E+02  0.25500000000E-02 0. -1.
          2   -1    0    0  501    0  0.00000000000E+00 -0.00000000000E+00 -0.12642703752E+04  0.12642703752E+04  0.25500000000E-02 0.  1.
    5000001    1    1    2    0    0  0.75199169693E+02  0.11518753481E+02 -0.22716861386E+03  0.25163897935E+03  0.77000000000E+02 0.  0.
   -5000001    1    1    2    0    0 -0.75199169693E+02 -0.11518753481E+02 -0.10220085001E+04  0.10277246572E+04  0.77000000000E+02 0.  0.
<mgrwt>
<rscale>  0 0.27627496E+03</rscale>
<asrwt>0</asrwt>
<pdfrwt beam="1">  1        2 0.19450305E+00 0.27627496E+03</pdfrwt>
<pdfrwt beam="2">  1       -2 0.23220412E-02 0.27627496E+03</pdfrwt>
<totfact> 0.11382563E+04</totfact>
</mgrwt>
</event>
<event>
 4    1  0.6207184E-004  0.5449341E+03  0.7818608E-02  0.1002673E+00
         -2   -1    0    0    0  501 -0.00000000000E+00  0.00000000000E+00  0.38027079494E+02  0.38027079579E+02  0.25500000000E-02 0.  1.
          2   -1    0    0  501    0  0.00000000000E+00 -0.00000000000E+00 -0.19522480009E+04  0.19522480009E+04  0.25500000000E-02 0. -1.
    5000001    1    1    2    0    0 -0.14857219937E+03 -0.13043772722E+03 -0.33277060741E+03  0.39465551594E+03  0.77000000000E+02 0.  0.
   -5000001    1    1    2    0    0  0.14857219937E+03  0.13043772722E+03 -0.15814503140E+04  0.15956195645E+04  0.77000000000E+02 0.  0.
<mgrwt>
<rscale>  0 0.54493409E+03</rscale>
<asrwt>0</asrwt>
<pdfrwt beam="1">  1        2 0.30034577E+00 0.54493409E+03</pdfrwt>
<pdfrwt beam="2">  1       -2 0.58503214E-02 0.54493409E+03</pdfrwt>
<totfact> 0.11862691E+03</totfact>
</mgrwt>
</event>
<event>
 4    1  0.6207184E-004  0.3261470E+03  0.7818608E-02  0.1072855E+00
          2   -1    0    0  501    0  0.00000000000E+00  0.00000000000E+00  0.80274369770E+03  0.80274369771E+03  0.25500000000E-02 0.  1.
         -2   -1    0    0    0  501 -0.00000000000E+00 -0.00000000000E+00 -0.33127590397E+02  0.33127590496E+02  0.25500000000E-02 0. -1.
    5000001    1    1    2    0    0 -0.11644292144E+03 -0.83543771896E+02  0.41351315464E+03  0.44436544064E+03  0.77000000000E+02 0.  0.
   -5000001    1    1    2    0    0  0.11644292144E+03  0.83543771896E+02  0.35610295267E+03  0.39150584756E+03  0.77000000000E+02 0.  0.
<mgrwt>
<rscale>  0 0.32614699E+03</rscale>
<asrwt>0</asrwt>
<pdfrwt beam="1">  1        2 0.12349902E+00 0.32614699E+03</pdfrwt>
<pdfrwt beam="2">  1       -2 0.50965529E-02 0.32614699E+03</pdfrwt>
<totfact> 0.67353778E+03</totfact>
</mgrwt>
</event>
<event>
 4    1  0.6207184E-004  0.3953748E+03  0.7818608E-02  0.1045393E+00
         -2   -1    0    0    0  501 -0.00000000000E+00  0.00000000000E+00  0.80858878716E+02  0.80858878756E+02  0.25500000000E-02 0. -1.
          2   -1    0    0  501    0  0.00000000000E+00 -0.00000000000E+00 -0.48331490725E+03  0.48331490726E+03  0.25500000000E-02 0.  1.
    5000001    1    1    2    0    0 -0.40562280974E+02  0.17675262399E+03 -0.22443545569E+03  0.29864203070E+03  0.77000000000E+02 0.  0.
   -5000001    1    1    2    0    0  0.40562280974E+02 -0.17675262399E+03 -0.17802057284E+03  0.26553175532E+03  0.77000000000E+02 0.  0.
<mgrwt>
<rscale>  0 0.39537477E+03</rscale>
<asrwt>0</asrwt>
<pdfrwt beam="1">  1        2 0.74356138E-01 0.39537477E+03</pdfrwt>
<pdfrwt beam="2">  1       -2 0.12439828E-01 0.39537477E+03</pdfrwt>
<totfact> 0.30330191E+03</totfact>
</mgrwt>
</event>
<event>
 4    1  0.6207184E-004  0.3503845E+03  0.7818608E-02  0.1062457E+00
         -2   -1    0    0    0  501 -0.00000000000E+00  0.00000000000E+00  0.22538691564E+03  0.22538691565E+03  0.25500000000E-02 0. -1.
          2   -1    0    0  501    0  0.00000000000E+00 -0.00000000000E+00 -0.13617615331E+03  0.13617615334E+03  0.25500000000E-02 0.  1.
    5000001    1    1    2    0    0 -0.10055291300E+03  0.11946709340E+03  0.64722171042E+02  0.18574507838E+03  0.77000000000E+02 0.  0.
   -5000001    1    1    2    0    0  0.10055291300E+03 -0.11946709340E+03  0.24488591285E+02  0.17581799061E+03  0.77000000000E+02 0.  0.
<mgrwt>
<rscale>  0 0.35038449E+03</rscale>
<asrwt>0</asrwt>
<pdfrwt beam="1">  1        2 0.20950178E-01 0.35038449E+03</pdfrwt>
<pdfrwt beam="2">  1       -2 0.34674910E-01 0.35038449E+03</pdfrwt>
<totfact> 0.20671677E+03</totfact>
</mgrwt>
</event>
<event>
 4    1  0.6207184E-004  0.6383561E+03  0.7818608E-02  0.9828877E-01
         -2   -1    0    0    0  501 -0.00000000000E+00  0.00000000000E+00  0.80385537534E+02  0.80385537574E+02  0.25500000000E-02 0. -1.
          2   -1    0    0  501    0  0.00000000000E+00 -0.00000000000E+00 -0.12673252442E+04  0.12673252442E+04  0.25500000000E-02 0.  1.
    5000001    1    1    2    0    0 -0.24649797578E+03 -0.60143400240E+01 -0.98927845496E+03  0.10224472044E+04  0.77000000000E+02 0.  0.
   -5000001    1    1    2    0    0  0.24649797578E+03  0.60143400240E+01 -0.19766125175E+03  0.32526357741E+03  0.77000000000E+02 0.  0.
<mgrwt>
<rscale>  0 0.63835608E+03</rscale>
<asrwt>0</asrwt>
<pdfrwt beam="1">  1        2 0.19497310E+00 0.63835608E+03</pdfrwt>
<pdfrwt beam="2">  1       -2 0.12367007E-01 0.63835608E+03</pdfrwt>
<totfact> 0.84683707E+02</totfact>
</mgrwt>
</event>
<event>
 4    1  0.6207184E-004  0.5802983E+03  0.7818608E-02  0.9947145E-01
          2   -1    0    0  501    0  0.00000000000E+00  0.00000000000E+00  0.10177672481E+04  0.10177672481E+04  0.25500000000E-02 0.  1.
         -2   -1    0    0    0  501 -0.00000000000E+00 -0.00000000000E+00 -0.82716869544E+02  0.82716869584E+02  0.25500000000E-02 0. -1.
    5000001    1    1    2    0    0  0.15334568608E+02 -0.16444509695E+03  0.39338470173E+02  0.18642385615E+03  0.77000000000E+02 0.  0.
   -5000001    1    1    2    0    0 -0.15334568608E+02  0.16444509695E+03  0.89571190836E+03  0.91406026151E+03  0.77000000000E+02 0.  0.
<mgrwt>
<rscale>  0 0.58029827E+03</rscale>
<asrwt>0</asrwt>
<pdfrwt beam="1">  1        2 0.15657958E+00 0.58029827E+03</pdfrwt>
<pdfrwt beam="2">  1       -2 0.12725672E-01 0.58029827E+03</pdfrwt>
<totfact> 0.11422350E+03</totfact>
</mgrwt>
</event>
<event>
 4    1  0.6207184E-004  0.4725201E+03  0.7818608E-02  0.1021211E+00
         -2   -1    0    0    0  501 -0.00000000000E+00  0.00000000000E+00  0.97426987500E+02  0.97426987533E+02  0.25500000000E-02 0. -1.
          2   -1    0    0  501    0  0.00000000000E+00 -0.00000000000E+00 -0.57292963047E+03  0.57292963048E+03  0.25500000000E-02 0.  1.
    5000001    1    1    2    0    0  0.53059507546E+02 -0.18267013090E+03 -0.71661549061E+02  0.21736620178E+03  0.77000000000E+02 0.  0.
   -5000001    1    1    2    0    0 -0.53059507546E+02  0.18267013090E+03 -0.40384109391E+03  0.45299041623E+03  0.77000000000E+02 0.  0.
<mgrwt>
<rscale>  0 0.47252009E+03</rscale>
<asrwt>0</asrwt>
<pdfrwt beam="1">  1        2 0.88143018E-01 0.47252009E+03</pdfrwt>
<pdfrwt beam="2">  1       -2 0.14988768E-01 0.47252009E+03</pdfrwt>
<totfact> 0.18347425E+03</totfact>
</mgrwt>
</event>
<event>
 4    1  0.6207184E-004  0.2396535E+03  0.7818608E-02  0.1120024E+00
          2   -1    0    0  501    0  0.00000000000E+00  0.00000000000E+00  0.85132834063E+02  0.85132834101E+02  0.25500000000E-02 0.  1.
         -2   -1    0    0    0  501 -0.00000000000E+00 -0.00000000000E+00 -0.16865932415E+03  0.16865932417E+03  0.25500000000E-02 0. -1.
    5000001    1    1    2    0    0 -0.14796736532E+02 -0.68344034165E+02 -0.10476770859E+03  0.14763171469E+03  0.77000000000E+02 0.  0.
   -5000001    1    1    2    0    0  0.14796736532E+02  0.68344034165E+02  0.21241218505E+02  0.10616044358E+03  0.77000000000E+02 0.  0.
<mgrwt>
<rscale>  0 0.23965347E+03</rscale>
<asrwt>0</asrwt>
<pdfrwt beam="1">  1        2 0.13097359E-01 0.23965347E+03</pdfrwt>
<pdfrwt beam="2">  1       -2 0.25947588E-01 0.23965347E+03</pdfrwt>
<totfact> 0.60133755E+03</totfact>
</mgrwt>
</event>
<event>
 4    1  0.6207184E-004  0.2641113E+03  0.7818608E-02  0.1104698E+00
          2   -1    0    0  501    0  0.00000000000E+00  0.00000000000E+00  0.14629653630E+04  0.14629653630E+04  0.25500000000E-02 0.  1.
         -2   -1    0    0    0  501 -0.00000000000E+00 -0.00000000000E+00 -0.11920103437E+02  0.11920103710E+02  0.25500000000E-02 0. -1.
    5000001    1    1    2    0    0 -0.35666974357E+01 -0.10404090783E+03  0.87033534459E+03  0.87991467989E+03  0.77000000000E+02 0.  0.
   -5000001    1    1    2    0    0  0.35666974357E+01  0.10404090783E+03  0.58070991500E+03  0.59497078685E+03  0.77000000000E+02 0.  0.
<mgrwt>
<rscale>  0 0.26411133E+03</rscale>
<asrwt>0</asrwt>
<pdfrwt beam="1">  1        2 0.22507146E+00 0.26411133E+03</pdfrwt>
<pdfrwt beam="2">  1       -2 0.18338632E-02 0.26411133E+03</pdfrwt>
<totfact> 0.12530597E+04</totfact>
</mgrwt>
</event>
<event>
 4    1  0.6207184E-004  0.1969889E+03  0.7818608E-02  0.1152305E+00
         -2   -1    0    0    0  501 -0.00000000000E+00  0.00000000000E+00  0.60270831552E+01  0.60270836946E+01  0.25500000000E-02 0. -1.
          2   -1    0    0  501    0  0.00000000000E+00 -0.00000000000E+00 -0.16095933095E+04  0.16095933095E+04  0.25500000000E-02 0.  1.
    5000001    1    1    2    0    0  0.38013153631E+02 -0.41754632243E+02 -0.99993307085E+03  0.10044817546E+04  0.77000000000E+02 0.  0.
   -5000001    1    1    2    0    0 -0.38013153631E+02  0.41754632243E+02 -0.60363315552E+03  0.61113863861E+03  0.77000000000E+02 0.  0.
<mgrwt>
<rscale>  0 0.19698886E+03</rscale>
<asrwt>0</asrwt>
<pdfrwt beam="1">  1        2 0.24762940E+00 0.19698886E+03</pdfrwt>
<pdfrwt beam="2">  1       -2 0.92724489E-03 0.19698886E+03</pdfrwt>
<totfact> 0.27900431E+04</totfact>
</mgrwt>
</event>
<event>
 4    1  0.6207184E-004  0.2415608E+03  0.7818608E-02  0.1118757E+00
         -2   -1    0    0    0  501 -0.00000000000E+00  0.00000000000E+00  0.62938226848E+02  0.62938226899E+02  0.25500000000E-02 0. -1.
          2   -1    0    0  501    0  0.00000000000E+00 -0.00000000000E+00 -0.23178135830E+03  0.23178135832E+03  0.25500000000E-02 0.  1.
    5000001    1    1    2    0    0  0.88462140865E+02 -0.18123987883E+02 -0.57007345357E+02  0.13165434565E+03  0.77000000000E+02 0.  0.
   -5000001    1    1    2    0    0 -0.88462140865E+02  0.18123987883E+02 -0.11183578610E+03  0.16306523957E+03  0.77000000000E+02 0.  0.
<mgrwt>
<rscale>  0 0.24156082E+03</rscale>
<asrwt>0</asrwt>
<pdfrwt beam="1">  1        2 0.35658670E-01 0.24156082E+03</pdfrwt>
<pdfrwt beam="2">  1       -2 0.96828042E-02 0.24156082E+03</pdfrwt>
<totfact> 0.99542038E+03</totfact>
</mgrwt>
</event>
<event>
 4    1  0.6207184E-004  0.3014370E+03  0.7818608E-02  0.1084524E+00
          2   -1    0    0  501    0  0.00000000000E+00  0.00000000000E+00  0.56365654222E+03  0.56365654223E+03  0.25500000000E-02 0.  1.
         -2   -1    0    0    0  501 -0.00000000000E+00 -0.00000000000E+00 -0.40301264867E+02  0.40301264948E+02  0.25500000000E-02 0. -1.
    5000001    1    1    2    0    0 -0.56158422156E+02  0.11297612053E+03  0.20259027897E+03  0.25077717863E+03  0.77000000000E+02 0.  0.
   -5000001    1    1    2    0    0  0.56158422156E+02 -0.11297612053E+03  0.32076499839E+03  0.35318062855E+03  0.77000000000E+02 0.  0.
<mgrwt>
<rscale>  0 0.30143704E+03</rscale>
<asrwt>0</asrwt>
<pdfrwt beam="1">  1        2 0.86716390E-01 0.30143704E+03</pdfrwt>
<pdfrwt beam="2">  1       -2 0.62001947E-02 0.30143704E+03</pdfrwt>
<totfact> 0.76289303E+03</totfact>
</mgrwt>
</event>
<event>
 4    1  0.6207184E-004  0.2279328E+03  0.7818608E-02  0.1128103E+00
          2   -1    0    0  501    0  0.00000000000E+00  0.00000000000E+00  0.25880982892E+04  0.25880982892E+04  0.25500000000E-02 0.  1.
         -2   -1    0    0    0  501 -0.00000000000E+00 -0.00000000000E+00 -0.50184891953E+01  0.50184898431E+01  0.25500000000E-02 0. -1.
    5000001    1    1    2    0    0  0.75221242229E+02 -0.35964547222E+02  0.11734962084E+04  0.11789716006E+04  0.77000000000E+02 0.  0.
   -5000001    1    1    2    0    0 -0.75221242229E+02  0.35964547222E+02  0.14095835916E+04  0.14141451785E+04  0.77000000000E+02 0.  0.
<mgrwt>
<rscale>  0 0.22793283E+03</rscale>
<asrwt>0</asrwt>
<pdfrwt beam="1">  1        2 0.39816866E+00 0.22793283E+03</pdfrwt>
<pdfrwt beam="2">  1       -2 0.77207590E-03 0.22793283E+03</pdfrwt>
<totfact> 0.11107307E+04</totfact>
</mgrwt>
</event>
<event>
 4    1  0.6207184E-004  0.4740055E+03  0.7818608E-02  0.1020796E+00
         -2   -1    0    0    0  501 -0.00000000000E+00  0.00000000000E+00  0.16097192533E+03  0.16097192535E+03  0.25500000000E-02 0. -1.
          2   -1    0    0  501    0  0.00000000000E+00 -0.00000000000E+00 -0.34894466424E+03  0.34894466425E+03  0.25500000000E-02 0.  1.
    5000001    1    1    2    0    0  0.20022884209E+03 -0.68722326473E+02 -0.14737406272E+02  0.22574440969E+03  0.77000000000E+02 0.  0.
   -5000001    1    1    2    0    0 -0.20022884209E+03  0.68722326473E+02 -0.17323533264E+03  0.28417217991E+03  0.77000000000E+02 0.  0.
<mgrwt>
<rscale>  0 0.47400546E+03</rscale>
<asrwt>0</asrwt>
<pdfrwt beam="1">  1        2 0.53683794E-01 0.47400546E+03</pdfrwt>
<pdfrwt beam="2">  1       -2 0.24764912E-01 0.47400546E+03</pdfrwt>
<totfact> 0.13491266E+03</totfact>
</mgrwt>
</event>
<event>
 4    1  0.6207184E-004  0.3744460E+03  0.7818608E-02  0.1053006E+00
         -2   -1    0    0    0  501 -0.00000000000E+00  0.00000000000E+00  0.72288419186E+02  0.72288419231E+02  0.25500000000E-02 0. -1.
          2   -1    0    0  501    0  0.00000000000E+00 -0.00000000000E+00 -0.48489730140E+03  0.48489730141E+03  0.25500000000E-02 0.  1.
    5000001    1    1    2    0    0  0.12645129615E+03 -0.59305516199E+02 -0.35222505652E+03  0.38665044290E+03  0.77000000000E+02 0.  0.
   -5000001    1    1    2    0    0 -0.12645129615E+03  0.59305516199E+02 -0.60383825696E+02  0.17053527775E+03  0.77000000000E+02 0.  0.
<mgrwt>
<rscale>  0 0.37444604E+03</rscale>
<asrwt>0</asrwt>
<pdfrwt beam="1">  1        2 0.74599583E-01 0.37444604E+03</pdfrwt>
<pdfrwt beam="2">  1       -2 0.11121296E-01 0.37444604E+03</pdfrwt>
<totfact> 0.36226113E+03</totfact>
</mgrwt>
</event>
<event>
 4    1  0.6207184E-004  0.1691665E+03  0.7818608E-02  0.1178720E+00
          2   -1    0    0  501    0  0.00000000000E+00  0.00000000000E+00  0.60332823695E+02  0.60332823749E+02  0.25500000000E-02 0.  1.
         -2   -1    0    0    0  501 -0.00000000000E+00 -0.00000000000E+00 -0.11858092437E+03  0.11858092439E+03  0.25500000000E-02 0. -1.
    5000001    1    1    2    0    0  0.30146678737E+02 -0.15992334537E+02 -0.37367040332E+02  0.92140505240E+02  0.77000000000E+02 0.  0.
   -5000001    1    1    2    0    0 -0.30146678737E+02  0.15992334537E+02 -0.20881060337E+02  0.86773242901E+02  0.77000000000E+02 0.  0.
<mgrwt>
<rscale>  0 0.16916645E+03</rscale>
<asrwt>0</asrwt>
<pdfrwt beam="1">  1        2 0.92819729E-02 0.16916645E+03</pdfrwt>
<pdfrwt beam="2">  1       -2 0.18243219E-01 0.16916645E+03</pdfrwt>
<totfact> 0.16428883E+04</totfact>
</mgrwt>
</event>
<event>
 4    1  0.6207184E-004  0.2982261E+03  0.7818608E-02  0.1086131E+00
         -2   -1    0    0    0  501 -0.00000000000E+00  0.00000000000E+00  0.54771829183E+03  0.54771829184E+03  0.25500000000E-02 0. -1.
          2   -1    0    0  501    0  0.00000000000E+00 -0.00000000000E+00 -0.40595133489E+02  0.40595133569E+02  0.25500000000E-02 0.  1.
    5000001    1    1    2    0    0  0.83515348830E+02 -0.56282334363E+02  0.98692160066E+02  0.16066006694E+03  0.77000000000E+02 0.  0.
   -5000001    1    1    2    0    0 -0.83515348830E+02  0.56282334363E+02  0.40843099828E+03  0.42765335846E+03  0.77000000000E+02 0.  0.
<mgrwt>
<rscale>  0 0.29822607E+03</rscale>
<asrwt>0</asrwt>
<pdfrwt beam="1">  1        2 0.62454056E-02 0.29822607E+03</pdfrwt>
<pdfrwt beam="2">  1       -2 0.84264347E-01 0.29822607E+03</pdfrwt>
<totfact> 0.14891600E+03</totfact>
</mgrwt>
</event>
<event>
 4    1  0.6207184E-004  0.2929176E+03  0.7818608E-02  0.1088836E+00
          2   -1    0    0  501    0  0.00000000000E+00  0.00000000000E+00  0.23369909235E+03  0.23369909237E+03  0.25500000000E-02 0.  1.
         -2   -1    0    0    0  501 -0.00000000000E+00 -0.00000000000E+00 -0.91785496971E+02  0.91785497007E+02  0.25500000000E-02 0. -1.
    5000001    1    1    2    0    0  0.10621994394E+03  0.99909468317E+01  0.14244204689E+03  0.19391037165E+03  0.77000000000E+02 0.  0.
   -5000001    1    1    2    0    0 -0.10621994394E+03 -0.99909468317E+01 -0.52845150734E+00  0.13157421773E+03  0.77000000000E+02 0.  0.
<mgrwt>
<rscale>  0 0.29291765E+03</rscale>
<asrwt>0</asrwt>
<pdfrwt beam="1">  1        2 0.35953706E-01 0.29291765E+03</pdfrwt>
<pdfrwt beam="2">  1       -2 0.14120846E-01 0.29291765E+03</pdfrwt>
<totfact> 0.54134794E+03</totfact>
</mgrwt>
</event>
<event>
 4    1  0.6207184E-004  0.2122356E+03  0.7818608E-02  0.1139808E+00
         -2   -1    0    0    0  501 -0.00000000000E+00  0.00000000000E+00  0.79656799558E+01  0.79656803639E+01  0.25500000000E-02 0. -1.
          2   -1    0    0  501    0  0.00000000000E+00 -0.00000000000E+00 -0.14136882825E+04  0.14136882825E+04  0.25500000000E-02 0.  1.
    5000001    1    1    2    0    0 -0.55488350781E+01 -0.72012849964E+02 -0.77480317811E+03  0.78196266211E+03  0.77000000000E+02 0.  0.
   -5000001    1    1    2    0    0  0.55488350781E+01  0.72012849964E+02 -0.63091942447E+03  0.63969130079E+03  0.77000000000E+02 0.  0.
<mgrwt>
<rscale>  0 0.21223561E+03</rscale>
<asrwt>0</asrwt>
<pdfrwt beam="1">  1        2 0.21749031E+00 0.21223561E+03</pdfrwt>
<pdfrwt beam="2">  1       -2 0.12254904E-02 0.21223561E+03</pdfrwt>
<totfact> 0.23769695E+04</totfact>
</mgrwt>
</event>
<event>
 4    1  0.6207184E-004  0.3152183E+03  0.7818608E-02  0.1077871E+00
         -2   -1    0    0    0  501 -0.00000000000E+00  0.00000000000E+00  0.19584454051E+04  0.19584454051E+04  0.25500000000E-02 0. -1.
          2   -1    0    0  501    0  0.00000000000E+00 -0.00000000000E+00 -0.12683857156E+02  0.12683857413E+02  0.25500000000E-02 0.  1.
    5000001    1    1    2    0    0 -0.17603232004E+02  0.10924708646E+03  0.14834607682E+04  0.14895736472E+04  0.77000000000E+02 0.  0.
   -5000001    1    1    2    0    0  0.17603232004E+02 -0.10924708646E+03  0.46230077972E+03  0.48155561528E+03  0.77000000000E+02 0.  0.
<mgrwt>
<rscale>  0 0.31521829E+03</rscale>
<asrwt>0</asrwt>
<pdfrwt beam="1">  1        2 0.19513639E-02 0.31521829E+03</pdfrwt>
<pdfrwt beam="2">  1       -2 0.30129910E+00 0.31521829E+03</pdfrwt>
<totfact> 0.20339108E+02</totfact>
</mgrwt>
</event>
<event>
 4    1  0.6207184E-004  0.2593173E+03  0.7818608E-02  0.1107554E+00
         -2   -1    0    0    0  501 -0.00000000000E+00  0.00000000000E+00  0.76041255952E+01  0.76041260228E+01  0.25500000000E-02 0. -1.
          2   -1    0    0  501    0  0.00000000000E+00 -0.00000000000E+00 -0.22108220328E+04  0.22108220328E+04  0.25500000000E-02 0.  1.
    5000001    1    1    2    0    0 -0.61624574527E+02  0.80926950007E+02 -0.12995963581E+04  0.13058431963E+04  0.77000000000E+02 0.  0.
   -5000001    1    1    2    0    0  0.61624574527E+02 -0.80926950007E+02 -0.90362154914E+03  0.91258296253E+03  0.77000000000E+02 0.  0.
<mgrwt>
<rscale>  0 0.25931733E+03</rscale>
<asrwt>0</asrwt>
<pdfrwt beam="1">  1        2 0.34012595E+00 0.25931733E+03</pdfrwt>
<pdfrwt beam="2">  1       -2 0.11698673E-02 0.25931733E+03</pdfrwt>
<totfact> 0.97417580E+03</totfact>
</mgrwt>
</event>
<event>
 4    1  0.6207184E-004  0.2311837E+03  0.7818608E-02  0.1125809E+00
          2   -1    0    0  501    0  0.00000000000E+00  0.00000000000E+00  0.13782950557E+04  0.13782950557E+04  0.25500000000E-02 0.  1.
         -2   -1    0    0    0  501 -0.00000000000E+00 -0.00000000000E+00 -0.96942041478E+01  0.96942044831E+01  0.25500000000E-02 0. -1.
    5000001    1    1    2    0    0  0.63912841582E+02  0.46021012317E+02  0.47376432846E+03  0.48639944882E+03  0.77000000000E+02 0.  0.
   -5000001    1    1    2    0    0 -0.63912841582E+02 -0.46021012317E+02  0.89483652311E+03  0.90158981138E+03  0.77000000000E+02 0.  0.
<mgrwt>
<rscale>  0 0.23118368E+03</rscale>
<asrwt>0</asrwt>
<pdfrwt beam="1">  1        2 0.21204552E+00 0.23118368E+03</pdfrwt>
<pdfrwt beam="2">  1       -2 0.14914152E-02 0.23118368E+03</pdfrwt>
<totfact> 0.18746313E+04</totfact>
</mgrwt>
</event>
<event>
 4    1  0.6207184E-004  0.2169584E+03  0.7818608E-02  0.1136171E+00
         -2   -1    0    0    0  501 -0.00000000000E+00  0.00000000000E+00  0.31519485284E+02  0.31519485387E+02  0.25500000000E-02 0. -1.
          2   -1    0    0  501    0  0.00000000000E+00 -0.00000000000E+00 -0.37334802263E+03  0.37334802264E+03  0.25500000000E-02 0.  1.
    5000001    1    1    2    0    0  0.56734562536E+02  0.36201275886E+02 -0.23844037518E+03  0.25944586233E+03  0.77000000000E+02 0.  0.
   -5000001    1    1    2    0    0 -0.56734562536E+02 -0.36201275886E+02 -0.10338816217E+03  0.14542164570E+03  0.77000000000E+02 0.  0.
<mgrwt>
<rscale>  0 0.21695841E+03</rscale>
<asrwt>0</asrwt>
<pdfrwt beam="1">  1        2 0.57438154E-01 0.21695841E+03</pdfrwt>
<pdfrwt beam="2">  1       -2 0.48491519E-02 0.21695841E+03</pdfrwt>
<totfact> 0.17237086E+04</totfact>
</mgrwt>
</event>
<event>
 4    1  0.6207184E-004  0.2902958E+03  0.7818608E-02  0.1090195E+00
         -2   -1    0    0    0  501 -0.00000000000E+00  0.00000000000E+00  0.15748854912E+02  0.15748855119E+02  0.25500000000E-02 0. -1.
          2   -1    0    0  501    0  0.00000000000E+00 -0.00000000000E+00 -0.13377424877E+04  0.13377424877E+04  0.25500000000E-02 0.  1.
    5000001    1    1    2    0    0 -0.10941282340E+03 -0.51273095296E+02 -0.76922368221E+03  0.78245394081E+03  0.77000000000E+02 0.  0.
   -5000001    1    1    2    0    0  0.10941282340E+03  0.51273095296E+02 -0.55276995057E+03  0.57103740200E+03  0.77000000000E+02 0.  0.
<mgrwt>
<rscale>  0 0.29029580E+03</rscale>
<asrwt>0</asrwt>
<pdfrwt beam="1">  1        2 0.20580645E+00 0.29029580E+03</pdfrwt>
<pdfrwt beam="2">  1       -2 0.24229018E-02 0.29029580E+03</pdfrwt>
<totfact> 0.97427527E+03</totfact>
</mgrwt>
</event>
<event>
 4    1  0.6207184E-004  0.1757379E+03  0.7818608E-02  0.1171993E+00
          2   -1    0    0  501    0  0.00000000000E+00  0.00000000000E+00  0.17720311400E+03  0.17720311402E+03  0.25500000000E-02 0.  1.
         -2   -1    0    0    0  501 -0.00000000000E+00 -0.00000000000E+00 -0.43571205350E+02  0.43571205425E+02  0.25500000000E-02 0. -1.
    5000001    1    1    2    0    0  0.23823560963E+02 -0.34389750754E+02  0.58699994498E+02  0.10547467169E+03  0.77000000000E+02 0.  0.
   -5000001    1    1    2    0    0 -0.23823560963E+02  0.34389750754E+02  0.74931914157E+02  0.11529964776E+03  0.77000000000E+02 0.  0.
<mgrwt>
<rscale>  0 0.17573791E+03</rscale>
<asrwt>0</asrwt>
<pdfrwt beam="1">  1        2 0.27262018E-01 0.17573791E+03</pdfrwt>
<pdfrwt beam="2">  1       -2 0.67032623E-02 0.17573791E+03</pdfrwt>
<totfact> 0.23132049E+04</totfact>
</mgrwt>
</event>
<event>
 4    1  0.6207184E-004  0.2323135E+03  0.7818608E-02  0.1125022E+00
         -2   -1    0    0    0  501 -0.00000000000E+00  0.00000000000E+00  0.16769948777E+02  0.16769948971E+02  0.25500000000E-02 0. -1.
          2   -1    0    0  501    0  0.00000000000E+00 -0.00000000000E+00 -0.80455762529E+03  0.80455762530E+03  0.25500000000E-02 0.  1.
    5000001    1    1    2    0    0  0.17085610733E+01  0.84373397824E+02 -0.31959929985E+03  0.33940315542E+03  0.77000000000E+02 0.  0.
   -5000001    1    1    2    0    0 -0.17085610733E+01 -0.84373397824E+02 -0.46818837666E+03  0.48192441885E+03  0.77000000000E+02 0.  0.
<mgrwt>
<rscale>  0 0.23231350E+03</rscale>
<asrwt>0</asrwt>
<pdfrwt beam="1">  1        2 0.12377807E+00 0.23231350E+03</pdfrwt>
<pdfrwt beam="2">  1       -2 0.25799928E-02 0.23231350E+03</pdfrwt>
<totfact> 0.18422329E+04</totfact>
</mgrwt>
</event>
<event>
 4    1  0.6207184E-004  0.2177034E+03  0.7818608E-02  0.1135607E+00
          2   -1    0    0  501    0  0.00000000000E+00  0.00000000000E+00  0.20438903409E+04  0.20438903409E+04  0.25500000000E-02 0.  1.
         -2   -1    0    0    0  501 -0.00000000000E+00 -0.00000000000E+00 -0.57971293887E+01  0.57971299495E+01  0.25500000000E-02 0. -1.
    5000001    1    1    2    0    0 -0.74458373710E+01 -0.76024312370E+02  0.11056244605E+04  0.11109318540E+04  0.77000000000E+02 0.  0.
   -5000001    1    1    2    0    0  0.74458373710E+01  0.76024312370E+02  0.93246875102E+03  0.93875561687E+03  0.77000000000E+02 0.  0.
<mgrwt>
<rscale>  0 0.21770344E+03</rscale>
<asrwt>0</asrwt>
<pdfrwt beam="1">  1        2 0.31444461E+00 0.21770344E+03</pdfrwt>
<pdfrwt beam="2">  1       -2 0.89186627E-03 0.21770344E+03</pdfrwt>
<totfact> 0.17607428E+04</totfact>
</mgrwt>
</event>
<event>
 4    1  0.6207184E-004  0.2113944E+03  0.7818608E-02  0.1140466E+00
         -2   -1    0    0    0  501 -0.00000000000E+00  0.00000000000E+00  0.31485630073E+03  0.31485630074E+03  0.25500000000E-02 0. -1.
          2   -1    0    0  501    0  0.00000000000E+00 -0.00000000000E+00 -0.35482537172E+02  0.35482537264E+02  0.25500000000E-02 0.  1.
    5000001    1    1    2    0    0 -0.28711551395E+01 -0.72135541863E+02  0.13044164772E+03  0.16779691115E+03  0.77000000000E+02 0.  0.
   -5000001    1    1    2    0    0  0.28711551395E+01  0.72135541863E+02  0.14893211584E+03  0.18254192685E+03  0.77000000000E+02 0.  0.
<mgrwt>
<rscale>  0 0.21139442E+03</rscale>
<asrwt>0</asrwt>
<pdfrwt beam="1">  1        2 0.54588515E-02 0.21139442E+03</pdfrwt>
<pdfrwt beam="2">  1       -2 0.48439434E-01 0.21139442E+03</pdfrwt>
<totfact> 0.56037949E+03</totfact>
</mgrwt>
</event>
<event>
 4    1  0.6207184E-004  0.3169936E+03  0.7818608E-02  0.1077041E+00
          2   -1    0    0  501    0  0.00000000000E+00  0.00000000000E+00  0.30186406968E+04  0.30186406968E+04  0.25500000000E-02 0.  1.
         -2   -1    0    0    0  501 -0.00000000000E+00 -0.00000000000E+00 -0.83220329060E+01  0.83220332967E+01  0.25500000000E-02 0. -1.
    5000001    1    1    2    0    0 -0.28801377996E+02 -0.12471913452E+03  0.20111509034E+04  0.20166906898E+04  0.77000000000E+02 0.  0.
   -5000001    1    1    2    0    0  0.28801377996E+02  0.12471913452E+03  0.99916776046E+03  0.10102720403E+04  0.77000000000E+02 0.  0.
<mgrwt>
<rscale>  0 0.31699355E+03</rscale>
<asrwt>0</asrwt>
<pdfrwt beam="1">  1        2 0.46440705E+00 0.31699355E+03</pdfrwt>
<pdfrwt beam="2">  1       -2 0.12803106E-02 0.31699355E+03</pdfrwt>
<totfact> 0.30092134E+03</totfact>
</mgrwt>
</event>
<event>
 4    1  0.6207184E-004  0.1550587E+04  0.7818608E-02  0.8851493E-01
          2   -1    0    0  501    0  0.00000000000E+00  0.00000000000E+00  0.25099232529E+04  0.25099232529E+04  0.25500000000E-02 0.  1.
         -2   -1    0    0    0  501 -0.00000000000E+00 -0.00000000000E+00 -0.23948150901E+03  0.23948150902E+03  0.25500000000E-02 0. -1.
    5000001    1    1    2    0    0 -0.74371265623E+03  0.15306305821E+03  0.89330357927E+03  0.11749285508E+04  0.77000000000E+02 0.  0.
   -5000001    1    1    2    0    0  0.74371265623E+03 -0.15306305821E+03  0.13771381646E+04  0.15744762111E+04  0.77000000000E+02 0.  0.
<mgrwt>
<rscale>  0 0.15505873E+04</rscale>
<asrwt>0</asrwt>
<pdfrwt beam="1">  1        2 0.38614201E+00 0.15505873E+04</pdfrwt>
<pdfrwt beam="2">  1       -2 0.36843311E-01 0.15505873E+04</pdfrwt>
<totfact> 0.23006335E+01</totfact>
</mgrwt>
</event>
<event>
 4    1  0.6207184E-004  0.2374153E+03  0.7818608E-02  0.1121527E+00
          2   -1    0    0  501    0  0.00000000000E+00  0.00000000000E+00  0.16760954382E+04  0.16760954382E+04  0.25500000000E-02 0.  1.
         -2   -1    0    0    0  501 -0.00000000000E+00 -0.00000000000E+00 -0.84073425434E+01  0.84073429301E+01  0.25500000000E-02 0. -1.
    5000001    1    1    2    0    0 -0.56743748364E+01 -0.90122803974E+02  0.85414974070E+03  0.86235439226E+03  0.77000000000E+02 0.  0.
   -5000001    1    1    2    0    0  0.56743748364E+01  0.90122803974E+02  0.81353835493E+03  0.82214838884E+03  0.77000000000E+02 0.  0.
<mgrwt>
<rscale>  0 0.23741532E+03</rscale>
<asrwt>0</asrwt>
<pdfrwt beam="1">  1        2 0.25786094E+00 0.23741532E+03</pdfrwt>
<pdfrwt beam="2">  1       -2 0.12934368E-02 0.23741532E+03</pdfrwt>
<totfact> 0.16035570E+04</totfact>
</mgrwt>
</event>
<event>
 4    1  0.6207184E-004  0.3559098E+03  0.7818608E-02  0.1060215E+00
          2   -1    0    0  501    0  0.00000000000E+00  0.00000000000E+00  0.92093366783E+03  0.92093366783E+03  0.25500000000E-02 0.  1.
         -2   -1    0    0    0  501 -0.00000000000E+00 -0.00000000000E+00 -0.34386779097E+02  0.34386779191E+02  0.25500000000E-02 0. -1.
    5000001    1    1    2    0    0  0.14776621127E+03 -0.22671395218E+02  0.28698918688E+03  0.33262687615E+03  0.77000000000E+02 0.  0.
   -5000001    1    1    2    0    0 -0.14776621127E+03  0.22671395218E+02  0.59955770185E+03  0.62269357087E+03  0.77000000000E+02 0.  0.
<mgrwt>
<rscale>  0 0.35590978E+03</rscale>
<asrwt>0</asrwt>
<pdfrwt beam="1">  1        2 0.14168208E+00 0.35590978E+03</pdfrwt>
<pdfrwt beam="2">  1       -2 0.52902746E-02 0.35590978E+03</pdfrwt>
<totfact> 0.53118231E+03</totfact>
</mgrwt>
</event>
<event>
 4    1  0.6207184E-004  0.1941478E+03  0.7818608E-02  0.1154773E+00
         -2   -1    0    0    0  501 -0.00000000000E+00  0.00000000000E+00  0.36238148535E+02  0.36238148625E+02  0.25500000000E-02 0. -1.
          2   -1    0    0  501    0  0.00000000000E+00 -0.00000000000E+00 -0.26003929689E+03  0.26003929691E+03  0.25500000000E-02 0.  1.
    5000001    1    1    2    0    0  0.57055648576E+02 -0.12386192221E+02 -0.12601771959E+03  0.15880248878E+03  0.77000000000E+02 0.  0.
   -5000001    1    1    2    0    0 -0.57055648576E+02  0.12386192221E+02 -0.97783428773E+02  0.13747495675E+03  0.77000000000E+02 0.  0.
<mgrwt>
<rscale>  0 0.19414781E+03</rscale>
<asrwt>0</asrwt>
<pdfrwt beam="1">  1        2 0.40006045E-01 0.19414781E+03</pdfrwt>
<pdfrwt beam="2">  1       -2 0.55750999E-02 0.19414781E+03</pdfrwt>
<totfact> 0.20394824E+04</totfact>
</mgrwt>
</event>
<event>
 4    1  0.6207184E-004  0.4725506E+03  0.7818608E-02  0.1021203E+00
          2   -1    0    0  501    0  0.00000000000E+00  0.00000000000E+00  0.34818294003E+04  0.34818294003E+04  0.25500000000E-02 0.  1.
         -2   -1    0    0    0  501 -0.00000000000E+00 -0.00000000000E+00 -0.16033529278E+02  0.16033529480E+02  0.25500000000E-02 0. -1.
    5000001    1    1    2    0    0 -0.21189434892E+03  0.70644416603E+02  0.17130839810E+04  0.17292991571E+04  0.77000000000E+02 0.  0.
   -5000001    1    1    2    0    0  0.21189434892E+03 -0.70644416603E+02  0.17527118900E+04  0.17685637727E+04  0.77000000000E+02 0.  0.
<mgrwt>
<rscale>  0 0.47255059E+03</rscale>
<asrwt>0</asrwt>
<pdfrwt beam="1">  1        2 0.53566656E+00 0.47255059E+03</pdfrwt>
<pdfrwt beam="2">  1       -2 0.24666945E-02 0.47255059E+03</pdfrwt>
<totfact> 0.56841667E+02</totfact>
</mgrwt>
</event>
<event>
 4    1  0.6207184E-004  0.1824777E+03  0.7818608E-02  0.1165426E+00
          2   -1    0    0  501    0  0.00000000000E+00  0.00000000000E+00  0.16835716451E+04  0.16835716451E+04  0.25500000000E-02 0.  1.
         -2   -1    0    0    0  501 -0.00000000000E+00 -0.00000000000E+00 -0.49445661004E+01  0.49445667580E+01  0.25500000000E-02 0. -1.
    5000001    1    1    2    0    0  0.32282271589E+02  0.35682620215E+02  0.75647871748E+03  0.76190842261E+03  0.77000000000E+02 0.  0.
   -5000001    1    1    2    0    0 -0.32282271589E+02 -0.35682620215E+02  0.92214836149E+03  0.92660778922E+03  0.77000000000E+02 0.  0.
<mgrwt>
<rscale>  0 0.18247774E+03</rscale>
<asrwt>0</asrwt>
<pdfrwt beam="1">  1        2 0.25901091E+00 0.18247774E+03</pdfrwt>
<pdfrwt beam="2">  1       -2 0.76070285E-03 0.18247774E+03</pdfrwt>
<totfact> 0.33785832E+04</totfact>
</mgrwt>
</event>
<event>
 4    1  0.6207184E-004  0.1779903E+03  0.7818608E-02  0.1169762E+00
         -2   -1    0    0    0  501 -0.00000000000E+00  0.00000000000E+00  0.13445734138E+03  0.13445734140E+03  0.25500000000E-02 0. -1.
          2   -1    0    0  501    0  0.00000000000E+00 -0.00000000000E+00 -0.58904470798E+02  0.58904470853E+02  0.25500000000E-02 0.  1.
    5000001    1    1    2    0    0  0.73549101855E+01 -0.43802414798E+02  0.33117439184E+02  0.94860481889E+02  0.77000000000E+02 0.  0.
   -5000001    1    1    2    0    0 -0.73549101855E+01  0.43802414798E+02  0.42435431394E+02  0.98501330364E+02  0.77000000000E+02 0.  0.
<mgrwt>
<rscale>  0 0.17799032E+03</rscale>
<asrwt>0</asrwt>
<pdfrwt beam="1">  1        2 0.90622264E-02 0.17799032E+03</pdfrwt>
<pdfrwt beam="2">  1       -2 0.20685745E-01 0.17799032E+03</pdfrwt>
<totfact> 0.13740991E+04</totfact>
</mgrwt>
</event>
<event>
 4    1  0.6207184E-004  0.2680040E+03  0.7818608E-02  0.1102427E+00
         -2   -1    0    0    0  501 -0.00000000000E+00  0.00000000000E+00  0.62287145515E+02  0.62287145567E+02  0.25500000000E-02 0. -1.
          2   -1    0    0  501    0  0.00000000000E+00 -0.00000000000E+00 -0.28828633946E+03  0.28828633947E+03  0.25500000000E-02 0.  1.
    5000001    1    1    2    0    0  0.35111309100E+02  0.10185205241E+03 -0.13983582017E+03  0.19258686666E+03  0.77000000000E+02 0.  0.
   -5000001    1    1    2    0    0 -0.35111309100E+02 -0.10185205241E+03 -0.86163373776E+02  0.15798661838E+03  0.77000000000E+02 0.  0.
<mgrwt>
<rscale>  0 0.26800398E+03</rscale>
<asrwt>0</asrwt>
<pdfrwt beam="1">  1        2 0.44351744E-01 0.26800398E+03</pdfrwt>
<pdfrwt beam="2">  1       -2 0.95826379E-02 0.26800398E+03</pdfrwt>
<totfact> 0.80369162E+03</totfact>
</mgrwt>
</event>
<event>
 4    1  0.6207184E-004  0.3678906E+03  0.7818608E-02  0.1055502E+00
         -2   -1    0    0    0  501 -0.00000000000E+00  0.00000000000E+00  0.97951645659E+01  0.97951648978E+01  0.25500000000E-02 0. -1.
          2   -1    0    0  501    0  0.00000000000E+00 -0.00000000000E+00 -0.34543436131E+04  0.34543436131E+04  0.25500000000E-02 0.  1.
    5000001    1    1    2    0    0 -0.29798273337E+01 -0.15453501446E+03 -0.23190661648E+04  0.23254863635E+04  0.77000000000E+02 0.  0.
   -5000001    1    1    2    0    0  0.29798273337E+01  0.15453501446E+03 -0.11254822838E+04  0.11386524146E+04  0.77000000000E+02 0.  0.
<mgrwt>
<rscale>  0 0.36789055E+03</rscale>
<asrwt>0</asrwt>
<pdfrwt beam="1">  1        2 0.53143651E+00 0.36789055E+03</pdfrwt>
<pdfrwt beam="2">  1       -2 0.15069512E-02 0.36789055E+03</pdfrwt>
<totfact> 0.12539286E+03</totfact>
</mgrwt>
</event>
<event>
 4    1  0.6207184E-004  0.1845996E+03  0.7818608E-02  0.1163424E+00
         -2   -1    0    0    0  501 -0.00000000000E+00  0.00000000000E+00  0.45043809006E+01  0.45043816224E+01  0.25500000000E-02 0. -1.
          2   -1    0    0  501    0  0.00000000000E+00 -0.00000000000E+00 -0.18913255845E+04  0.18913255845E+04  0.25500000000E-02 0.  1.
    5000001    1    1    2    0    0  0.15675076250E+02 -0.35163088758E+02 -0.12852784685E+04  0.12881583336E+04  0.77000000000E+02 0.  0.
   -5000001    1    1    2    0    0 -0.15675076250E+02  0.35163088758E+02 -0.60154273504E+03  0.60767163247E+03  0.77000000000E+02 0.  0.
<mgrwt>
<rscale>  0 0.18459958E+03</rscale>
<asrwt>0</asrwt>
<pdfrwt beam="1">  1        2 0.29097253E+00 0.18459958E+03</pdfrwt>
<pdfrwt beam="2">  1       -2 0.69298324E-03 0.18459958E+03</pdfrwt>
<totfact> 0.30164915E+04</totfact>
</mgrwt>
</event>
<event>
 4    1  0.6207184E-004  0.2851501E+03  0.7818608E-02  0.1092909E+00
         -2   -1    0    0    0  501 -0.00000000000E+00  0.00000000000E+00  0.43804859097E+02  0.43804859171E+02  0.25500000000E-02 0. -1.
          2   -1    0    0  501    0  0.00000000000E+00 -0.00000000000E+00 -0.46405002752E+03  0.46405002753E+03  0.25500000000E-02 0.  1.
    5000001    1    1    2    0    0  0.52398824058E+02  0.62680506274E+02 -0.36665050720E+03  0.38345283550E+03  0.77000000000E+02 0.  0.
   -5000001    1    1    2    0    0 -0.52398824058E+02 -0.62680506274E+02 -0.53594661229E+02  0.12440205120E+03  0.77000000000E+02 0.  0.
<mgrwt>
<rscale>  0 0.28515011E+03</rscale>
<asrwt>0</asrwt>
<pdfrwt beam="1">  1        2 0.71392309E-01 0.28515011E+03</pdfrwt>
<pdfrwt beam="2">  1       -2 0.67392094E-02 0.28515011E+03</pdfrwt>
<totfact> 0.83357489E+03</totfact>
</mgrwt>
</event>
<event>
 4    1  0.6207184E-004  0.1607058E+03  0.7818608E-02  0.1187902E+00
          2   -1    0    0  501    0  0.00000000000E+00  0.00000000000E+00  0.50100135069E+03  0.50100135070E+03  0.25500000000E-02 0.  1.
         -2   -1    0    0    0  501 -0.00000000000E+00 -0.00000000000E+00 -0.12887368368E+02  0.12887368620E+02  0.25500000000E-02 0. -1.
    5000001    1    1    2    0    0  0.22187383265E+02  0.13779406291E+01  0.26254022226E+03  0.27450054098E+03  0.77000000000E+02 0.  0.
   -5000001    1    1    2    0    0 -0.22187383265E+02 -0.13779406291E+01  0.22557376006E+03  0.23938817833E+03  0.77000000000E+02 0.  0.
<mgrwt>
<rscale>  0 0.16070581E+03</rscale>
<asrwt>0</asrwt>
<pdfrwt beam="1">  1        2 0.77077113E-01 0.16070581E+03</pdfrwt>
<pdfrwt beam="2">  1       -2 0.19826725E-02 0.16070581E+03</pdfrwt>
<totfact> 0.45953471E+04</totfact>
</mgrwt>
</event>
<event>
 4    1  0.6207184E-004  0.2161977E+03  0.7818608E-02  0.1136750E+00
          2   -1    0    0  501    0  0.00000000000E+00  0.00000000000E+00  0.12688308088E+04  0.12688308088E+04  0.25500000000E-02 0.  1.
         -2   -1    0    0    0  501 -0.00000000000E+00 -0.00000000000E+00 -0.92095528174E+01  0.92095531704E+01  0.25500000000E-02 0. -1.
    5000001    1    1    2    0    0 -0.34844525827E+02  0.37814835905E+02  0.95959608529E+03  0.96405277330E+03  0.77000000000E+02 0.  0.
   -5000001    1    1    2    0    0  0.34844525827E+02 -0.37814835905E+02  0.30002517070E+03  0.31398758868E+03  0.77000000000E+02 0.  0.
<mgrwt>
<rscale>  0 0.21619773E+03</rscale>
<asrwt>0</asrwt>
<pdfrwt beam="1">  1        2 0.19520469E+00 0.21619773E+03</pdfrwt>
<pdfrwt beam="2">  1       -2 0.14168547E-02 0.21619773E+03</pdfrwt>
<totfact> 0.23113324E+04</totfact>
</mgrwt>
</event>
<event>
 4    1  0.6207184E-004  0.4698634E+03  0.7818608E-02  0.1021959E+00
         -2   -1    0    0    0  501 -0.00000000000E+00  0.00000000000E+00  0.89184918340E+02  0.89184918376E+02  0.25500000000E-02 0. -1.
          2   -1    0    0  501    0  0.00000000000E+00 -0.00000000000E+00 -0.61885909984E+03  0.61885909985E+03  0.25500000000E-02 0.  1.
    5000001    1    1    2    0    0 -0.16674524796E+03 -0.12038376367E+03 -0.13905104930E+03  0.25992387844E+03  0.77000000000E+02 0.  0.
   -5000001    1    1    2    0    0  0.16674524796E+03  0.12038376367E+03 -0.39062313220E+03  0.44812013978E+03  0.77000000000E+02 0.  0.
<mgrwt>
<rscale>  0 0.46986338E+03</rscale>
<asrwt>0</asrwt>
<pdfrwt beam="1">  1        2 0.95209089E-01 0.46986338E+03</pdfrwt>
<pdfrwt beam="2">  1       -2 0.13720757E-01 0.46986338E+03</pdfrwt>
<totfact> 0.19402642E+03</totfact>
</mgrwt>
</event>
<event>
 4    1  0.6207184E-004  0.2584565E+03  0.7818608E-02  0.1108074E+00
         -2   -1    0    0    0  501 -0.00000000000E+00  0.00000000000E+00  0.96964372658E+01  0.96964376011E+01  0.25500000000E-02 0. -1.
          2   -1    0    0  501    0  0.00000000000E+00 -0.00000000000E+00 -0.17222758188E+04  0.17222758188E+04  0.25500000000E-02 0.  1.
    5000001    1    1    2    0    0  0.33746118475E+02  0.85624550515E+02 -0.11777088305E+04  0.11838063413E+04  0.77000000000E+02 0.  0.
   -5000001    1    1    2    0    0 -0.33746118475E+02 -0.85624550515E+02 -0.53487055099E+03  0.54816591510E+03  0.77000000000E+02 0.  0.
<mgrwt>
<rscale>  0 0.25845649E+03</rscale>
<asrwt>0</asrwt>
<pdfrwt beam="1">  1        2 0.26496527E+00 0.25845649E+03</pdfrwt>
<pdfrwt beam="2">  1       -2 0.14917610E-02 0.25845649E+03</pdfrwt>
<totfact> 0.12347704E+04</totfact>
</mgrwt>
</event>
<event>
 4    1  0.6207184E-004  0.2378316E+03  0.7818608E-02  0.1121246E+00
         -2   -1    0    0    0  501 -0.00000000000E+00  0.00000000000E+00  0.77686860560E+01  0.77686864745E+01  0.25500000000E-02 0. -1.
          2   -1    0    0  501    0  0.00000000000E+00 -0.00000000000E+00 -0.18202517653E+04  0.18202517653E+04  0.25500000000E-02 0.  1.
    5000001    1    1    2    0    0 -0.82831664268E+02  0.10602391614E+02 -0.11767334021E+04  0.11822030261E+04  0.77000000000E+02 0.  0.
   -5000001    1    1    2    0    0  0.82831664268E+02 -0.10602391614E+02 -0.63574967720E+03  0.64581742573E+03  0.77000000000E+02 0.  0.
<mgrwt>
<rscale>  0 0.23783158E+03</rscale>
<asrwt>0</asrwt>
<pdfrwt beam="1">  1        2 0.28003839E+00 0.23783158E+03</pdfrwt>
<pdfrwt beam="2">  1       -2 0.11951839E-02 0.23783158E+03</pdfrwt>
<totfact> 0.15120003E+04</totfact>
</mgrwt>
</event>
<event>
 4    1  0.6207184E-004  0.1714336E+03  0.7818608E-02  0.1176361E+00
         -2   -1    0    0    0  501 -0.00000000000E+00  0.00000000000E+00  0.23919044392E+02  0.23919044528E+02  0.25500000000E-02 0. -1.
          2   -1    0    0  501    0  0.00000000000E+00 -0.00000000000E+00 -0.30717659397E+03  0.30717659398E+03  0.25500000000E-02 0.  1.
    5000001    1    1    2    0    0 -0.11386448630E+02 -0.12687007644E+02 -0.76770455989E+02  0.11006050285E+03  0.77000000000E+02 0.  0.
   -5000001    1    1    2    0    0  0.11386448630E+02  0.12687007644E+02 -0.20648709358E+03  0.22103513565E+03  0.77000000000E+02 0.  0.
<mgrwt>
<rscale>  0 0.17143361E+03</rscale>
<asrwt>0</asrwt>
<pdfrwt beam="1">  1        2 0.47257935E-01 0.17143361E+03</pdfrwt>
<pdfrwt beam="2">  1       -2 0.36798532E-02 0.17143361E+03</pdfrwt>
<totfact> 0.31539399E+04</totfact>
</mgrwt>
</event>
<event>
 4    1  0.6207184E-004  0.1875863E+03  0.7818608E-02  0.1160657E+00
          2   -1    0    0  501    0  0.00000000000E+00  0.00000000000E+00  0.22921224660E+03  0.22921224661E+03  0.25500000000E-02 0.  1.
         -2   -1    0    0    0  501 -0.00000000000E+00 -0.00000000000E+00 -0.38379938051E+02  0.38379938135E+02  0.25500000000E-02 0. -1.
    5000001    1    1    2    0    0  0.18840811747E+02  0.32585666509E+02  0.14976101283E+03  0.17255191338E+03  0.77000000000E+02 0.  0.
   -5000001    1    1    2    0    0 -0.18840811747E+02 -0.32585666509E+02  0.41071295722E+02  0.95040271366E+02  0.77000000000E+02 0.  0.
<mgrwt>
<rscale>  0 0.18758627E+03</rscale>
<asrwt>0</asrwt>
<pdfrwt beam="1">  1        2 0.35263422E-01 0.18758627E+03</pdfrwt>
<pdfrwt beam="2">  1       -2 0.59046059E-02 0.18758627E+03</pdfrwt>
<totfact> 0.21344862E+04</totfact>
</mgrwt>
</event>
<event>
 4    1  0.6207184E-004  0.2084576E+03  0.7818608E-02  0.1142793E+00
          2   -1    0    0  501    0  0.00000000000E+00  0.00000000000E+00  0.15419055117E+04  0.15419055117E+04  0.25500000000E-02 0.  1.
         -2   -1    0    0    0  501 -0.00000000000E+00 -0.00000000000E+00 -0.70455957676E+01  0.70455962291E+01  0.25500000000E-02 0. -1.
    5000001    1    1    2    0    0 -0.58339735591E+02 -0.37216943808E+02  0.67764105946E+03  0.68550348732E+03  0.77000000000E+02 0.  0.
   -5000001    1    1    2    0    0  0.58339735591E+02  0.37216943808E+02  0.85721885644E+03  0.86344762058E+03  0.77000000000E+02 0.  0.
<mgrwt>
<rscale>  0 0.20845761E+03</rscale>
<asrwt>0</asrwt>
<pdfrwt beam="1">  1        2 0.23721630E+00 0.20845761E+03</pdfrwt>
<pdfrwt beam="2">  1       -2 0.10839375E-02 0.20845761E+03</pdfrwt>
<totfact> 0.24242995E+04</totfact>
</mgrwt>
</event>
<event>
 4    1  0.6207184E-004  0.7561910E+03  0.7818608E-02  0.9625687E-01
         -2   -1    0    0    0  501 -0.00000000000E+00  0.00000000000E+00  0.70818152967E+02  0.70818153013E+02  0.25500000000E-02 0. -1.
          2   -1    0    0  501    0  0.00000000000E+00 -0.00000000000E+00 -0.20186381159E+04  0.20186381159E+04  0.25500000000E-02 0.  1.
    5000001    1    1    2    0    0 -0.19931908958E+02 -0.31160698388E+03 -0.42453254262E+03  0.53259090599E+03  0.77000000000E+02 0.  0.
   -5000001    1    1    2    0    0  0.19931908958E+02  0.31160698388E+03 -0.15232874203E+04  0.15568653629E+04  0.77000000000E+02 0.  0.
<mgrwt>
<rscale>  0 0.75619104E+03</rscale>
<asrwt>0</asrwt>
<pdfrwt beam="1">  1        2 0.31055967E+00 0.75619104E+03</pdfrwt>
<pdfrwt beam="2">  1       -2 0.10895102E-01 0.75619104E+03</pdfrwt>
<totfact> 0.39842630E+02</totfact>
</mgrwt>
</event>
<event>
 4    1  0.6207184E-004  0.1776394E+03  0.7818608E-02  0.1170107E+00
          2   -1    0    0  501    0  0.00000000000E+00  0.00000000000E+00  0.16268885362E+03  0.16268885364E+03  0.25500000000E-02 0.  1.
         -2   -1    0    0    0  501 -0.00000000000E+00 -0.00000000000E+00 -0.48490982218E+02  0.48490982285E+02  0.25500000000E-02 0. -1.
    5000001    1    1    2    0    0 -0.88735223519E+01 -0.40014840384E+02  0.76992109309E+02  0.11634737533E+03  0.77000000000E+02 0.  0.
   -5000001    1    1    2    0    0  0.88735223519E+01  0.40014840384E+02  0.37205762094E+02  0.94832460597E+02  0.77000000000E+02 0.  0.
<mgrwt>
<rscale>  0 0.17763944E+03</rscale>
<asrwt>0</asrwt>
<pdfrwt beam="1">  1        2 0.25029054E-01 0.17763944E+03</pdfrwt>
<pdfrwt beam="2">  1       -2 0.74601511E-02 0.17763944E+03</pdfrwt>
<totfact> 0.21582199E+04</totfact>
</mgrwt>
</event>
<event>
 4    1  0.6207184E-004  0.2390717E+03  0.7818608E-02  0.1120413E+00
          2   -1    0    0  501    0  0.00000000000E+00  0.00000000000E+00  0.12774653414E+03  0.12774653417E+03  0.25500000000E-02 0.  1.
         -2   -1    0    0    0  501 -0.00000000000E+00 -0.00000000000E+00 -0.11185291699E+03  0.11185291702E+03  0.25500000000E-02 0. -1.
    5000001    1    1    2    0    0  0.62124009729E+02 -0.56348365840E+02 -0.28538104872E+02  0.11737953121E+03  0.77000000000E+02 0.  0.
   -5000001    1    1    2    0    0 -0.62124009729E+02  0.56348365840E+02  0.44431722018E+02  0.12221991998E+03  0.77000000000E+02 0.  0.
<mgrwt>
<rscale>  0 0.23907173E+03</rscale>
<asrwt>0</asrwt>
<pdfrwt beam="1">  1        2 0.19653313E-01 0.23907173E+03</pdfrwt>
<pdfrwt beam="2">  1       -2 0.17208141E-01 0.23907173E+03</pdfrwt>
<totfact> 0.75709301E+03</totfact>
</mgrwt>
</event>
<event>
 4    1  0.6207184E-004  0.4349156E+03  0.7818608E-02  0.1032318E+00
         -2   -1    0    0    0  501 -0.00000000000E+00  0.00000000000E+00  0.25452904711E+02  0.25452904839E+02  0.25500000000E-02 0. -1.
          2   -1    0    0  501    0  0.00000000000E+00 -0.00000000000E+00 -0.18578588333E+04  0.18578588333E+04  0.25500000000E-02 0.  1.
    5000001    1    1    2    0    0 -0.22633255709E+02 -0.20030252700E+03 -0.79956307919E+03  0.82816875345E+03  0.77000000000E+02 0.  0.
   -5000001    1    1    2    0    0  0.22633255709E+02  0.20030252700E+03 -0.10328428494E+04  0.10551429847E+04  0.77000000000E+02 0.  0.
<mgrwt>
<rscale>  0 0.43491564E+03</rscale>
<asrwt>0</asrwt>
<pdfrwt beam="1">  1        2 0.28582433E+00 0.43491564E+03</pdfrwt>
<pdfrwt beam="2">  1       -2 0.39158330E-02 0.43491564E+03</pdfrwt>
<totfact> 0.24890584E+03</totfact>
</mgrwt>
</event>
<event>
 4    1  0.6207184E-004  0.4416715E+03  0.7818608E-02  0.1030235E+00
         -2   -1    0    0    0  501 -0.00000000000E+00  0.00000000000E+00  0.41149656733E+02  0.41149656812E+02  0.25500000000E-02 0. -1.
          2   -1    0    0  501    0  0.00000000000E+00 -0.00000000000E+00 -0.11851479298E+04  0.11851479298E+04  0.25500000000E-02 0.  1.
    5000001    1    1    2    0    0  0.18648108164E+03 -0.45778336059E+02 -0.35749680234E+03  0.41304214500E+03  0.77000000000E+02 0.  0.
   -5000001    1    1    2    0    0 -0.18648108164E+03  0.45778336059E+02 -0.78650147068E+03  0.81325544157E+03  0.77000000000E+02 0.  0.
<mgrwt>
<rscale>  0 0.44167151E+03</rscale>
<asrwt>0</asrwt>
<pdfrwt beam="1">  1        2 0.18233042E+00 0.44167151E+03</pdfrwt>
<pdfrwt beam="2">  1       -2 0.63307173E-02 0.44167151E+03</pdfrwt>
<totfact> 0.27798415E+03</totfact>
</mgrwt>
</event>
<event>
 4    1  0.6207184E-004  0.2000511E+03  0.7818608E-02  0.1149696E+00
         -2   -1    0    0    0  501 -0.00000000000E+00  0.00000000000E+00  0.83132925695E+02  0.83132925734E+02  0.25500000000E-02 0. -1.
          2   -1    0    0  501    0  0.00000000000E+00 -0.00000000000E+00 -0.12035081783E+03  0.12035081786E+03  0.25500000000E-02 0.  1.
    5000001    1    1    2    0    0 -0.57726432667E+02  0.13169511509E+02 -0.42900484913E+02  0.10618487966E+03  0.77000000000E+02 0.  0.
   -5000001    1    1    2    0    0  0.57726432667E+02 -0.13169511509E+02  0.56825927808E+01  0.97298863933E+02  0.77000000000E+02 0.  0.
<mgrwt>
<rscale>  0 0.20005115E+03</rscale>
<asrwt>0</asrwt>
<pdfrwt beam="1">  1        2 0.18515510E-01 0.20005115E+03</pdfrwt>
<pdfrwt beam="2">  1       -2 0.12789681E-01 0.20005115E+03</pdfrwt>
<totfact> 0.13071713E+04</totfact>
</mgrwt>
</event>
<event>
 4    1  0.6207184E-004  0.3055462E+03  0.7818608E-02  0.1082501E+00
         -2   -1    0    0    0  501 -0.00000000000E+00  0.00000000000E+00  0.75640429137E+02  0.75640429180E+02  0.25500000000E-02 0. -1.
          2   -1    0    0  501    0  0.00000000000E+00 -0.00000000000E+00 -0.30856008111E+03  0.30856008112E+03  0.25500000000E-02 0.  1.
    5000001    1    1    2    0    0  0.24403790192E+01  0.47824725893E+02  0.38144076467E+02  0.98372406832E+02  0.77000000000E+02 0.  0.
   -5000001    1    1    2    0    0 -0.24403790192E+01 -0.47824725893E+02 -0.27106372844E+03  0.28582810347E+03  0.77000000000E+02 0.  0.
<mgrwt>
<rscale>  0 0.30554618E+03</rscale>
<asrwt>0</asrwt>
<pdfrwt beam="1">  1        2 0.47470781E-01 0.30554618E+03</pdfrwt>
<pdfrwt beam="2">  1       -2 0.11636989E-01 0.30554618E+03</pdfrwt>
<totfact> 0.55006591E+03</totfact>
</mgrwt>
</event>
<event>
 4    1  0.6207184E-004  0.1740814E+03  0.7818608E-02  0.1173657E+00
          2   -1    0    0  501    0  0.00000000000E+00  0.00000000000E+00  0.53098599033E+03  0.53098599033E+03  0.25500000000E-02 0.  1.
         -2   -1    0    0    0  501 -0.00000000000E+00 -0.00000000000E+00 -0.14267954327E+02  0.14267954555E+02  0.25500000000E-02 0. -1.
    5000001    1    1    2    0    0 -0.38525912384E+02  0.11798794934E+02  0.27358360547E+03  0.28705477991E+03  0.77000000000E+02 0.  0.
   -5000001    1    1    2    0    0  0.38525912384E+02 -0.11798794934E+02  0.24313443053E+03  0.25819916497E+03  0.77000000000E+02 0.  0.
<mgrwt>
<rscale>  0 0.17408141E+03</rscale>
<asrwt>0</asrwt>
<pdfrwt beam="1">  1        2 0.81690141E-01 0.17408141E+03</pdfrwt>
<pdfrwt beam="2">  1       -2 0.21950702E-02 0.17408141E+03</pdfrwt>
<totfact> 0.37413797E+04</totfact>
</mgrwt>
</event>
<event>
 4    1  0.6207184E-004  0.2948818E+03  0.7818608E-02  0.1087827E+00
          2   -1    0    0  501    0  0.00000000000E+00  0.00000000000E+00  0.17575546857E+04  0.17575546857E+04  0.25500000000E-02 0.  1.
         -2   -1    0    0    0  501 -0.00000000000E+00 -0.00000000000E+00 -0.12368788981E+02  0.12368789244E+02  0.25500000000E-02 0. -1.
    5000001    1    1    2    0    0  0.95174348102E+02  0.68050348251E+02  0.59618020671E+03  0.61241231643E+03  0.77000000000E+02 0.  0.
   -5000001    1    1    2    0    0 -0.95174348102E+02 -0.68050348251E+02  0.11490056900E+04  0.11575111585E+04  0.77000000000E+02 0.  0.
<mgrwt>
<rscale>  0 0.29488183E+03</rscale>
<asrwt>0</asrwt>
<pdfrwt beam="1">  1        2 0.27039318E+00 0.29488183E+03</pdfrwt>
<pdfrwt beam="2">  1       -2 0.19028895E-02 0.29488183E+03</pdfrwt>
<totfact> 0.82970102E+03</totfact>
</mgrwt>
</event>
<event>
 4    1  0.6207184E-004  0.2681134E+03  0.7818608E-02  0.1102364E+00
         -2   -1    0    0    0  501 -0.00000000000E+00  0.00000000000E+00  0.59561509412E+03  0.59561509413E+03  0.25500000000E-02 0. -1.
          2   -1    0    0  501    0  0.00000000000E+00 -0.00000000000E+00 -0.30172499943E+02  0.30172500051E+02  0.25500000000E-02 0.  1.
    5000001    1    1    2    0    0 -0.62078395051E+02 -0.35698012546E+02  0.88643009310E+02  0.13753057235E+03  0.77000000000E+02 0.  0.
   -5000001    1    1    2    0    0  0.62078395051E+02  0.35698012546E+02  0.47679958487E+03  0.48825702183E+03  0.77000000000E+02 0.  0.
<mgrwt>
<rscale>  0 0.26811338E+03</rscale>
<asrwt>0</asrwt>
<pdfrwt beam="1">  1        2 0.46419229E-02 0.26811338E+03</pdfrwt>
<pdfrwt beam="2">  1       -2 0.91633094E-01 0.26811338E+03</pdfrwt>
<totfact> 0.18171000E+03</totfact>
</mgrwt>
</event>
<event>
 4    1  0.6207184E-004  0.2629271E+03  0.7818608E-02  0.1105397E+00
          2   -1    0    0  501    0  0.00000000000E+00  0.00000000000E+00  0.23710763286E+02  0.23710763423E+02  0.25500000000E-02 0.  1.
         -2   -1    0    0    0  501 -0.00000000000E+00 -0.00000000000E+00 -0.72889535281E+03  0.72889535282E+03  0.25500000000E-02 0. -1.
    5000001    1    1    2    0    0  0.62316786997E+02  0.85818804733E+02 -0.38198135718E+03  0.40384032293E+03  0.77000000000E+02 0.  0.
   -5000001    1    1    2    0    0 -0.62316786997E+02 -0.85818804733E+02 -0.32320323234E+03  0.34876579331E+03  0.77000000000E+02 0.  0.
<mgrwt>
<rscale>  0 0.26292710E+03</rscale>
<asrwt>0</asrwt>
<pdfrwt beam="1">  1        2 0.36478103E-02 0.26292710E+03</pdfrwt>
<pdfrwt beam="2">  1       -2 0.11213773E+00 0.26292710E+03</pdfrwt>
<totfact> 0.15662901E+03</totfact>
</mgrwt>
</event>
<event>
 4    1  0.6207184E-004  0.3582355E+03  0.7818608E-02  0.1059285E+00
          2   -1    0    0  501    0  0.00000000000E+00  0.00000000000E+00  0.80945936095E+03  0.80945936095E+03  0.25500000000E-02 0.  1.
         -2   -1    0    0    0  501 -0.00000000000E+00 -0.00000000000E+00 -0.39635298086E+02  0.39635298168E+02  0.25500000000E-02 0. -1.
    5000001    1    1    2    0    0  0.15121969545E+03 -0.21294335436E+02  0.25874810671E+03  0.31016193793E+03  0.77000000000E+02 0.  0.
   -5000001    1    1    2    0    0 -0.15121969545E+03  0.21294335436E+02  0.51107595615E+03  0.53893272119E+03  0.77000000000E+02 0.  0.
<mgrwt>
<rscale>  0 0.35823547E+03</rscale>
<asrwt>0</asrwt>
<pdfrwt beam="1">  1        2 0.12453220E+00 0.35823547E+03</pdfrwt>
<pdfrwt beam="2">  1       -2 0.60977384E-02 0.35823547E+03</pdfrwt>
<totfact> 0.50668716E+03</totfact>
</mgrwt>
</event>
<event>
 4    1  0.6207184E-004  0.3495086E+03  0.7818608E-02  0.1062817E+00
         -2   -1    0    0    0  501 -0.00000000000E+00  0.00000000000E+00  0.68103849081E+03  0.68103849081E+03  0.25500000000E-02 0. -1.
          2   -1    0    0  501    0  0.00000000000E+00 -0.00000000000E+00 -0.44841906340E+02  0.44841906412E+02  0.25500000000E-02 0.  1.
    5000001    1    1    2    0    0  0.98875439552E+01 -0.15401470922E+03  0.25965875761E+03  0.31172097232E+03  0.77000000000E+02 0.  0.
   -5000001    1    1    2    0    0 -0.98875439552E+01  0.15401470922E+03  0.37653782686E+03  0.41415942491E+03  0.77000000000E+02 0.  0.
<mgrwt>
<rscale>  0 0.34950859E+03</rscale>
<asrwt>0</asrwt>
<pdfrwt beam="1">  1        2 0.68987551E-02 0.34950859E+03</pdfrwt>
<pdfrwt beam="2">  1       -2 0.10477515E+00 0.34950859E+03</pdfrwt>
<totfact> 0.79540577E+02</totfact>
</mgrwt>
</event>
<event>
 4    1  0.6207184E-004  0.2716539E+03  0.7818608E-02  0.1100337E+00
         -2   -1    0    0    0  501 -0.00000000000E+00  0.00000000000E+00  0.50353978384E+02  0.50353978449E+02  0.25500000000E-02 0. -1.
          2   -1    0    0  501    0  0.00000000000E+00 -0.00000000000E+00 -0.36638540946E+03  0.36638540946E+03  0.25500000000E-02 0.  1.
    5000001    1    1    2    0    0  0.88475021000E+01  0.67469184725E+02 -0.21753358672E+02  0.10503607854E+03  0.77000000000E+02 0.  0.
   -5000001    1    1    2    0    0 -0.88475021000E+01 -0.67469184725E+02 -0.29427807240E+03  0.31170330938E+03  0.77000000000E+02 0.  0.
<mgrwt>
<rscale>  0 0.27165392E+03</rscale>
<asrwt>0</asrwt>
<pdfrwt beam="1">  1        2 0.56366984E-01 0.27165392E+03</pdfrwt>
<pdfrwt beam="2">  1       -2 0.77467661E-02 0.27165392E+03</pdfrwt>
<totfact> 0.86749061E+03</totfact>
</mgrwt>
</event>
<event>
 4    1  0.6207184E-004  0.2306379E+03  0.7818608E-02  0.1126192E+00
         -2   -1    0    0    0  501 -0.00000000000E+00  0.00000000000E+00  0.82253965203E+02  0.82253965243E+02  0.25500000000E-02 0. -1.
          2   -1    0    0  501    0  0.00000000000E+00 -0.00000000000E+00 -0.16167558610E+03  0.16167558612E+03  0.25500000000E-02 0.  1.
    5000001    1    1    2    0    0 -0.52740136825E+02 -0.52532271413E+02  0.55119520010E+01  0.10724058554E+03  0.77000000000E+02 0.  0.
   -5000001    1    1    2    0    0  0.52740136825E+02  0.52532271413E+02 -0.84933572895E+02  0.13668896582E+03  0.77000000000E+02 0.  0.
<mgrwt>
<rscale>  0 0.23063788E+03</rscale>
<asrwt>0</asrwt>
<pdfrwt beam="1">  1        2 0.24873167E-01 0.23063788E+03</pdfrwt>
<pdfrwt beam="2">  1       -2 0.12654456E-01 0.23063788E+03</pdfrwt>
<totfact> 0.96060558E+03</totfact>
</mgrwt>
</event>
<event>
 4    1  0.6207184E-004  0.9672165E+03  0.7818608E-02  0.9345250E-01
         -2   -1    0    0    0  501 -0.00000000000E+00  0.00000000000E+00  0.10192900501E+03  0.10192900505E+03  0.25500000000E-02 0. -1.
          2   -1    0    0  501    0  0.00000000000E+00 -0.00000000000E+00 -0.22945084411E+04  0.22945084411E+04  0.25500000000E-02 0.  1.
    5000001    1    1    2    0    0 -0.23481150397E+03 -0.34874175896E+03 -0.16568701541E+04  0.17111122010E+04  0.77000000000E+02 0.  0.
   -5000001    1    1    2    0    0  0.23481150397E+03  0.34874175896E+03 -0.53570928197E+03  0.68532524514E+03  0.77000000000E+02 0.  0.
<mgrwt>
<rscale>  0 0.96721655E+03</rscale>
<asrwt>0</asrwt>
<pdfrwt beam="1">  1        2 0.35300126E+00 0.96721655E+03</pdfrwt>
<pdfrwt beam="2">  1       -2 0.15681387E-01 0.96721655E+03</pdfrwt>
<totfact> 0.15011493E+02</totfact>
</mgrwt>
</event>
<event>
 4    1  0.6207184E-004  0.4753593E+03  0.7818608E-02  0.1020418E+00
         -2   -1    0    0    0  501 -0.00000000000E+00  0.00000000000E+00  0.61165781877E+02  0.61165781931E+02  0.25500000000E-02 0. -1.
          2   -1    0    0  501    0  0.00000000000E+00 -0.00000000000E+00 -0.92358208975E+03  0.92358208975E+03  0.25500000000E-02 0.  1.
    5000001    1    1    2    0    0  0.93412341483E+02 -0.20303416926E+03 -0.37988123186E+03  0.44742316631E+03  0.77000000000E+02 0.  0.
   -5000001    1    1    2    0    0 -0.93412341483E+02  0.20303416926E+03 -0.48253507601E+03  0.53732470537E+03  0.77000000000E+02 0.  0.
<mgrwt>
<rscale>  0 0.47535932E+03</rscale>
<asrwt>0</asrwt>
<pdfrwt beam="1">  1        2 0.14208954E+00 0.47535932E+03</pdfrwt>
<pdfrwt beam="2">  1       -2 0.94101210E-02 0.47535932E+03</pdfrwt>
<totfact> 0.21490167E+03</totfact>
</mgrwt>
</event>
<event>
 4    1  0.6207184E-004  0.2312007E+03  0.7818608E-02  0.1125797E+00
          2   -1    0    0  501    0  0.00000000000E+00  0.00000000000E+00  0.51612196848E+03  0.51612196849E+03  0.25500000000E-02 0.  1.
         -2   -1    0    0    0  501 -0.00000000000E+00 -0.00000000000E+00 -0.25892028438E+02  0.25892028563E+02  0.25500000000E-02 0. -1.
    5000001    1    1    2    0    0  0.75269139328E+01 -0.85323706900E+02  0.26828194171E+03  0.29196059604E+03  0.77000000000E+02 0.  0.
   -5000001    1    1    2    0    0 -0.75269139328E+01  0.85323706900E+02  0.22194799833E+03  0.25005340101E+03  0.77000000000E+02 0.  0.
<mgrwt>
<rscale>  0 0.23120073E+03</rscale>
<asrwt>0</asrwt>
<pdfrwt beam="1">  1        2 0.79403374E-01 0.23120073E+03</pdfrwt>
<pdfrwt beam="2">  1       -2 0.39833893E-02 0.23120073E+03</pdfrwt>
<totfact> 0.16324041E+04</totfact>
</mgrwt>
</event>
<event>
 4    1  0.6207184E-004  0.2388377E+03  0.7818608E-02  0.1120570E+00
         -2   -1    0    0    0  501 -0.00000000000E+00  0.00000000000E+00  0.71531097735E+01  0.71531102281E+01  0.25500000000E-02 0. -1.
          2   -1    0    0  501    0  0.00000000000E+00 -0.00000000000E+00 -0.19936593877E+04  0.19936593877E+04  0.25500000000E-02 0.  1.
    5000001    1    1    2    0    0  0.66356982714E+02  0.55791726522E+02 -0.12325415494E+04  0.12379836981E+04  0.77000000000E+02 0.  0.
   -5000001    1    1    2    0    0 -0.66356982714E+02 -0.55791726522E+02 -0.75396472862E+03  0.76282879986E+03  0.77000000000E+02 0.  0.
<mgrwt>
<rscale>  0 0.23883773E+03</rscale>
<asrwt>0</asrwt>
<pdfrwt beam="1">  1        2 0.30671639E+00 0.23883773E+03</pdfrwt>
<pdfrwt beam="2">  1       -2 0.11004801E-02 0.23883773E+03</pdfrwt>
<totfact> 0.13836569E+04</totfact>
</mgrwt>
</event>
<event>
 4    1  0.6207184E-004  0.5183292E+03  0.7818608E-02  0.1009102E+00
         -2   -1    0    0    0  501 -0.00000000000E+00  0.00000000000E+00  0.81490514148E+02  0.81490514188E+02  0.25500000000E-02 0. -1.
          2   -1    0    0  501    0  0.00000000000E+00 -0.00000000000E+00 -0.82422225685E+03  0.82422225685E+03  0.25500000000E-02 0.  1.
    5000001    1    1    2    0    0 -0.11367930107E+03  0.20793427275E+03 -0.24685244373E+03  0.35074887633E+03  0.77000000000E+02 0.  0.
   -5000001    1    1    2    0    0  0.11367930107E+03 -0.20793427275E+03 -0.49587929897E+03  0.55496389471E+03  0.77000000000E+02 0.  0.
<mgrwt>
<rscale>  0 0.51832922E+03</rscale>
<asrwt>0</asrwt>
<pdfrwt beam="1">  1        2 0.12680342E+00 0.51832922E+03</pdfrwt>
<pdfrwt beam="2">  1       -2 0.12537003E-01 0.51832922E+03</pdfrwt>
<totfact> 0.15721102E+03</totfact>
</mgrwt>
</event>
<event>
 4    1  0.6207184E-004  0.1803370E+03  0.7818608E-02  0.1167477E+00
          2   -1    0    0  501    0  0.00000000000E+00  0.00000000000E+00  0.23169920193E+04  0.23169920193E+04  0.25500000000E-02 0.  1.
         -2   -1    0    0    0  501 -0.00000000000E+00 -0.00000000000E+00 -0.35090128707E+01  0.35090137973E+01  0.25500000000E-02 0. -1.
    5000001    1    1    2    0    0 -0.15870279211E+02 -0.43037651444E+02  0.10298468460E+04  0.10337396342E+04  0.77000000000E+02 0.  0.
   -5000001    1    1    2    0    0  0.15870279211E+02  0.43037651444E+02  0.12836361604E+04  0.12867613989E+04  0.77000000000E+02 0.  0.
<mgrwt>
<rscale>  0 0.18033697E+03</rscale>
<asrwt>0</asrwt>
<pdfrwt beam="1">  1        2 0.35646109E+00 0.18033697E+03</pdfrwt>
<pdfrwt beam="2">  1       -2 0.53984702E-03 0.18033697E+03</pdfrwt>
<totfact> 0.25826599E+04</totfact>
</mgrwt>
</event>
<event>
 4    1  0.6207184E-004  0.2891792E+03  0.7818608E-02  0.1090778E+00
          2   -1    0    0  501    0  0.00000000000E+00  0.00000000000E+00  0.98484486211E+03  0.98484486211E+03  0.25500000000E-02 0.  1.
         -2   -1    0    0    0  501 -0.00000000000E+00 -0.00000000000E+00 -0.21227866481E+02  0.21227866634E+02  0.25500000000E-02 0. -1.
    5000001    1    1    2    0    0 -0.58137246028E+01 -0.11700224525E+03  0.35861672218E+03  0.38504321603E+03  0.77000000000E+02 0.  0.
   -5000001    1    1    2    0    0  0.58137246028E+01  0.11700224525E+03  0.60500027345E+03  0.62102951272E+03  0.77000000000E+02 0.  0.
<mgrwt>
<rscale>  0 0.28917922E+03</rscale>
<asrwt>0</asrwt>
<pdfrwt beam="1">  1        2 0.15151457E+00 0.28917922E+03</pdfrwt>
<pdfrwt beam="2">  1       -2 0.32658261E-02 0.28917922E+03</pdfrwt>
<totfact> 0.10002475E+04</totfact>
</mgrwt>
</event>
<event>
 4    1  0.6207184E-004  0.2034960E+03  0.7818608E-02  0.1146822E+00
         -2   -1    0    0    0  501 -0.00000000000E+00  0.00000000000E+00  0.14557371846E+02  0.14557372069E+02  0.25500000000E-02 0. -1.
          2   -1    0    0  501    0  0.00000000000E+00 -0.00000000000E+00 -0.71116248643E+03  0.71116248643E+03  0.25500000000E-02 0.  1.
    5000001    1    1    2    0    0  0.40296808240E+02  0.52750521159E+02 -0.36309570795E+03  0.37705960188E+03  0.77000000000E+02 0.  0.
   -5000001    1    1    2    0    0 -0.40296808240E+02 -0.52750521159E+02 -0.33350940663E+03  0.34866025662E+03  0.77000000000E+02 0.  0.
<mgrwt>
<rscale>  0 0.20349601E+03</rscale>
<asrwt>0</asrwt>
<pdfrwt beam="1">  1        2 0.10940959E+00 0.20349601E+03</pdfrwt>
<pdfrwt beam="2">  1       -2 0.22395962E-02 0.20349601E+03</pdfrwt>
<totfact> 0.26219408E+04</totfact>
</mgrwt>
</event>
<event>
 4    1  0.6207184E-004  0.3945329E+03  0.7818608E-02  0.1045689E+00
         -2   -1    0    0    0  501 -0.00000000000E+00  0.00000000000E+00  0.12088423767E+03  0.12088423769E+03  0.25500000000E-02 0. -1.
          2   -1    0    0  501    0  0.00000000000E+00 -0.00000000000E+00 -0.32191178420E+03  0.32191178421E+03  0.25500000000E-02 0.  1.
    5000001    1    1    2    0    0 -0.64352701188E+02  0.16970996975E+03 -0.10781466815E+03  0.22471258677E+03  0.77000000000E+02 0.  0.
   -5000001    1    1    2    0    0  0.64352701188E+02 -0.16970996975E+03 -0.93212878385E+02  0.21808343514E+03  0.77000000000E+02 0.  0.
<mgrwt>
<rscale>  0 0.39453294E+03</rscale>
<asrwt>0</asrwt>
<pdfrwt beam="1">  1        2 0.49524889E-01 0.39453294E+03</pdfrwt>
<pdfrwt beam="2">  1       -2 0.18597575E-01 0.39453294E+03</pdfrwt>
<totfact> 0.24263301E+03</totfact>
</mgrwt>
</event>
<event>
 4    1  0.6207184E-004  0.2464307E+03  0.7818608E-02  0.1115582E+00
          2   -1    0    0  501    0  0.00000000000E+00  0.00000000000E+00  0.27906705099E+02  0.27906705216E+02  0.25500000000E-02 0.  1.
         -2   -1    0    0    0  501 -0.00000000000E+00 -0.00000000000E+00 -0.54402779011E+03  0.54402779012E+03  0.25500000000E-02 0. -1.
    5000001    1    1    2    0    0 -0.82512877255E+02  0.41184005587E+02 -0.19456329643E+03  0.22866651164E+03  0.77000000000E+02 0.  0.
   -5000001    1    1    2    0    0  0.82512877255E+02 -0.41184005587E+02 -0.32155778858E+03  0.34326798369E+03  0.77000000000E+02 0.  0.
<mgrwt>
<rscale>  0 0.24643071E+03</rscale>
<asrwt>0</asrwt>
<pdfrwt beam="1">  1        2 0.42933397E-02 0.24643071E+03</pdfrwt>
<pdfrwt beam="2">  1       -2 0.83696575E-01 0.24643071E+03</pdfrwt>
<totfact> 0.24642240E+03</totfact>
</mgrwt>
</event>
<event>
 4    1  0.6207184E-004  0.2074946E+03  0.7818608E-02  0.1143566E+00
          2   -1    0    0  501    0  0.00000000000E+00  0.00000000000E+00  0.75347293403E+03  0.75347293404E+03  0.25500000000E-02 0.  1.
         -2   -1    0    0    0  501 -0.00000000000E+00 -0.00000000000E+00 -0.14285182023E+02  0.14285182250E+02  0.25500000000E-02 0. -1.
    5000001    1    1    2    0    0 -0.35757337421E+02 -0.28502382636E+02  0.56340208610E+03  0.57047513848E+03  0.77000000000E+02 0.  0.
   -5000001    1    1    2    0    0  0.35757337421E+02  0.28502382636E+02  0.17578566591E+03  0.19728297781E+03  0.77000000000E+02 0.  0.
<mgrwt>
<rscale>  0 0.20749456E+03</rscale>
<asrwt>0</asrwt>
<pdfrwt beam="1">  1        2 0.11591896E+00 0.20749456E+03</pdfrwt>
<pdfrwt beam="2">  1       -2 0.21977194E-02 0.20749456E+03</pdfrwt>
<totfact> 0.25151587E+04</totfact>
</mgrwt>
</event>
<event>
 4    1  0.6207184E-004  0.2110203E+03  0.7818608E-02  0.1140761E+00
          2   -1    0    0  501    0  0.00000000000E+00  0.00000000000E+00  0.39676899011E+04  0.39676899011E+04  0.25500000000E-02 0.  1.
         -2   -1    0    0    0  501 -0.00000000000E+00 -0.00000000000E+00 -0.28057606705E+01  0.28057618293E+01  0.25500000000E-02 0. -1.
    5000001    1    1    2    0    0  0.95848136331E+01 -0.69112690353E+02  0.23268044208E+04  0.23291234929E+04  0.77000000000E+02 0.  0.
   -5000001    1    1    2    0    0 -0.95848136331E+01  0.69112690353E+02  0.16380797196E+04  0.16413721700E+04  0.77000000000E+02 0.  0.
<mgrwt>
<rscale>  0 0.21102029E+03</rscale>
<asrwt>0</asrwt>
<pdfrwt beam="1">  1        2 0.61041020E+00 0.21102029E+03</pdfrwt>
<pdfrwt beam="2">  1       -2 0.43165814E-03 0.21102029E+03</pdfrwt>
<totfact> 0.34304252E+03</totfact>
</mgrwt>
</event>
<event>
 4    1  0.6207184E-004  0.1858284E+03  0.7818608E-02  0.1162279E+00
          2   -1    0    0  501    0  0.00000000000E+00  0.00000000000E+00  0.35364523159E+03  0.35364523160E+03  0.25500000000E-02 0.  1.
         -2   -1    0    0    0  501 -0.00000000000E+00 -0.00000000000E+00 -0.24411603761E+02  0.24411603894E+02  0.25500000000E-02 0. -1.
    5000001    1    1    2    0    0  0.41462983926E+02 -0.27079932111E+02  0.13235020361E+03  0.16092879840E+03  0.77000000000E+02 0.  0.
   -5000001    1    1    2    0    0 -0.41462983926E+02  0.27079932111E+02  0.19688342421E+03  0.21712803709E+03  0.77000000000E+02 0.  0.
<mgrwt>
<rscale>  0 0.18582839E+03</rscale>
<asrwt>0</asrwt>
<pdfrwt beam="1">  1        2 0.54406959E-01 0.18582839E+03</pdfrwt>
<pdfrwt beam="2">  1       -2 0.37556313E-02 0.18582839E+03</pdfrwt>
<totfact> 0.26509857E+04</totfact>
</mgrwt>
</event>
<event>
 4    1  0.6207184E-004  0.3261537E+03  0.7818608E-02  0.1072852E+00
          2   -1    0    0  501    0  0.00000000000E+00  0.00000000000E+00  0.19850163298E+04  0.19850163298E+04  0.25500000000E-02 0.  1.
         -2   -1    0    0    0  501 -0.00000000000E+00 -0.00000000000E+00 -0.13397400990E+02  0.13397401233E+02  0.25500000000E-02 0. -1.
    5000001    1    1    2    0    0  0.67423986963E+02 -0.11133699998E+03  0.61194199539E+03  0.63035222479E+03  0.77000000000E+02 0.  0.
   -5000001    1    1    2    0    0 -0.67423986963E+02  0.11133699998E+03  0.13596769334E+04  0.13680615063E+04  0.77000000000E+02 0.  0.
<mgrwt>
<rscale>  0 0.32615371E+03</rscale>
<asrwt>0</asrwt>
<pdfrwt beam="1">  1        2 0.30538682E+00 0.32615371E+03</pdfrwt>
<pdfrwt beam="2">  1       -2 0.20611407E-02 0.32615371E+03</pdfrwt>
<totfact> 0.55956548E+03</totfact>
</mgrwt>
</event>
<event>
 4    1  0.6207184E-004  0.1924409E+03  0.7818608E-02  0.1156278E+00
          2   -1    0    0  501    0  0.00000000000E+00  0.00000000000E+00  0.15753758993E+04  0.15753758993E+04  0.25500000000E-02 0.  1.
         -2   -1    0    0    0  501 -0.00000000000E+00 -0.00000000000E+00 -0.58769316821E+01  0.58769322353E+01  0.25500000000E-02 0. -1.
    5000001    1    1    2    0    0 -0.28093579273E+02 -0.22445523445E+02  0.11555391064E+04  0.11586598626E+04  0.77000000000E+02 0.  0.
   -5000001    1    1    2    0    0  0.28093579273E+02  0.22445523445E+02  0.41395986127E+03  0.42259296902E+03  0.77000000000E+02 0.  0.
<mgrwt>
<rscale>  0 0.19244092E+03</rscale>
<asrwt>0</asrwt>
<pdfrwt beam="1">  1        2 0.24236568E+00 0.19244092E+03</pdfrwt>
<pdfrwt beam="2">  1       -2 0.90414281E-03 0.19244092E+03</pdfrwt>
<totfact> 0.30112194E+04</totfact>
</mgrwt>
</event>
<event>
 4    1  0.6207184E-004  0.3444520E+03  0.7818608E-02  0.1064915E+00
          2   -1    0    0  501    0  0.00000000000E+00  0.00000000000E+00  0.32836650100E+03  0.32836650101E+03  0.25500000000E-02 0.  1.
         -2   -1    0    0    0  501 -0.00000000000E+00 -0.00000000000E+00 -0.90331375605E+02  0.90331375641E+02  0.25500000000E-02 0. -1.
    5000001    1    1    2    0    0  0.13347247662E+03 -0.53684823057E+02  0.18599231963E+03  0.24742494863E+03  0.77000000000E+02 0.  0.
   -5000001    1    1    2    0    0 -0.13347247662E+03  0.53684823057E+02  0.52042805767E+02  0.17127292803E+03  0.77000000000E+02 0.  0.
<mgrwt>
<rscale>  0 0.34445202E+03</rscale>
<asrwt>0</asrwt>
<pdfrwt beam="1">  1        2 0.50517923E-01 0.34445202E+03</pdfrwt>
<pdfrwt beam="2">  1       -2 0.13897135E-01 0.34445202E+03</pdfrwt>
<totfact> 0.38618894E+03</totfact>
</mgrwt>
</event>
<event>
 4    1  0.6207184E-004  0.2937004E+03  0.7818608E-02  0.1088433E+00
          2   -1    0    0  501    0  0.00000000000E+00  0.00000000000E+00  0.12211443862E+02  0.12211444128E+02  0.25500000000E-02 0.  1.
         -2   -1    0    0    0  501 -0.00000000000E+00 -0.00000000000E+00 -0.17659648127E+04  0.17659648127E+04  0.25500000000E-02 0. -1.
    5000001    1    1    2    0    0  0.29372909975E+02 -0.11361217038E+03 -0.11383735135E+04  0.11469933519E+04  0.77000000000E+02 0.  0.
   -5000001    1    1    2    0    0 -0.29372909975E+02  0.11361217038E+03 -0.61537985533E+03  0.63118290491E+03  0.77000000000E+02 0.  0.
<mgrwt>
<rscale>  0 0.29370039E+03</rscale>
<asrwt>0</asrwt>
<pdfrwt beam="1">  1        2 0.18786851E-02 0.29370039E+03</pdfrwt>
<pdfrwt beam="2">  1       -2 0.27168669E+00 0.29370039E+03</pdfrwt>
<totfact> 0.31980473E+02</totfact>
</mgrwt>
</event>
<event>
 4    1  0.6207184E-004  0.2476449E+03  0.7818608E-02  0.1114802E+00
          2   -1    0    0  501    0  0.00000000000E+00  0.00000000000E+00  0.55924258745E+03  0.55924258746E+03  0.25500000000E-02 0.  1.
         -2   -1    0    0    0  501 -0.00000000000E+00 -0.00000000000E+00 -0.27415650159E+02  0.27415650278E+02  0.25500000000E-02 0. -1.
    5000001    1    1    2    0    0 -0.54485537026E+02 -0.79767848805E+02  0.28593294411E+03  0.31147749835E+03  0.77000000000E+02 0.  0.
   -5000001    1    1    2    0    0  0.54485537026E+02  0.79767848805E+02  0.24589399318E+03  0.27518073939E+03  0.77000000000E+02 0.  0.
<mgrwt>
<rscale>  0 0.24764490E+03</rscale>
<asrwt>0</asrwt>
<pdfrwt beam="1">  1        2 0.86037315E-01 0.24764490E+03</pdfrwt>
<pdfrwt beam="2">  1       -2 0.42177926E-02 0.24764490E+03</pdfrwt>
<totfact> 0.13731234E+04</totfact>
</mgrwt>
</event>
<event>
 4    1  0.6207184E-004  0.3690707E+03  0.7818608E-02  0.1055049E+00
         -2   -1    0    0    0  501 -0.00000000000E+00  0.00000000000E+00  0.15534272203E+03  0.15534272205E+03  0.25500000000E-02 0. -1.
          2   -1    0    0  501    0  0.00000000000E+00 -0.00000000000E+00 -0.21921393884E+03  0.21921393886E+03  0.25500000000E-02 0.  1.
    5000001    1    1    2    0    0 -0.16167190088E+03 -0.21995999002E+02 -0.71276002885E+02  0.19398684516E+03  0.77000000000E+02 0.  0.
   -5000001    1    1    2    0    0  0.16167190088E+03  0.21995999002E+02  0.74047860737E+01  0.18056981576E+03  0.77000000000E+02 0.  0.
<mgrwt>
<rscale>  0 0.36907067E+03</rscale>
<asrwt>0</asrwt>
<pdfrwt beam="1">  1        2 0.33725222E-01 0.36907067E+03</pdfrwt>
<pdfrwt beam="2">  1       -2 0.23898880E-01 0.36907067E+03</pdfrwt>
<totfact> 0.23851042E+03</totfact>
</mgrwt>
</event>
<event>
 4    1  0.6207184E-004  0.1941130E+03  0.7818608E-02  0.1154803E+00
          2   -1    0    0  501    0  0.00000000000E+00  0.00000000000E+00  0.10420695471E+03  0.10420695474E+03  0.25500000000E-02 0.  1.
         -2   -1    0    0    0  501 -0.00000000000E+00 -0.00000000000E+00 -0.90396647912E+02  0.90396647947E+02  0.25500000000E-02 0. -1.
    5000001    1    1    2    0    0  0.48412941321E+02 -0.32720696783E+02 -0.18635266693E+01  0.96679520153E+02  0.77000000000E+02 0.  0.
   -5000001    1    1    2    0    0 -0.48412941321E+02  0.32720696783E+02  0.15673833471E+02  0.97924082539E+02  0.77000000000E+02 0.  0.
<mgrwt>
<rscale>  0 0.19411295E+03</rscale>
<asrwt>0</asrwt>
<pdfrwt beam="1">  1        2 0.16031839E-01 0.19411295E+03</pdfrwt>
<pdfrwt beam="2">  1       -2 0.13907177E-01 0.19411295E+03</pdfrwt>
<totfact> 0.13455482E+04</totfact>
</mgrwt>
</event>
<event>
 4    1  0.6207184E-004  0.2304115E+03  0.7818608E-02  0.1126350E+00
          2   -1    0    0  501    0  0.00000000000E+00  0.00000000000E+00  0.99180818850E+03  0.99180818850E+03  0.25500000000E-02 0.  1.
         -2   -1    0    0    0  501 -0.00000000000E+00 -0.00000000000E+00 -0.13381985809E+02  0.13381986052E+02  0.25500000000E-02 0. -1.
    5000001    1    1    2    0    0  0.83867516576E+02  0.71770601944E+01  0.41912698931E+03  0.43437507260E+03  0.77000000000E+02 0.  0.
   -5000001    1    1    2    0    0 -0.83867516576E+02 -0.71770601944E+01  0.55929921338E+03  0.57081510196E+03  0.77000000000E+02 0.  0.
<mgrwt>
<rscale>  0 0.23041149E+03</rscale>
<asrwt>0</asrwt>
<pdfrwt beam="1">  1        2 0.15258585E+00 0.23041149E+03</pdfrwt>
<pdfrwt beam="2">  1       -2 0.20587674E-02 0.23041149E+03</pdfrwt>
<totfact> 0.19438273E+04</totfact>
</mgrwt>
</event>
<event>
 4    1  0.6207184E-004  0.3485566E+03  0.7818608E-02  0.1063209E+00
          2   -1    0    0  501    0  0.00000000000E+00  0.00000000000E+00  0.52010442920E+03  0.52010442921E+03  0.25500000000E-02 0. -1.
         -2   -1    0    0    0  501 -0.00000000000E+00 -0.00000000000E+00 -0.58397729634E+02  0.58397729689E+02  0.25500000000E-02 0.  1.
    5000001    1    1    2    0    0 -0.41911728182E+02  0.15001471964E+03  0.20840683001E+03  0.27133635190E+03  0.77000000000E+02 0.  0.
   -5000001    1    1    2    0    0  0.41911728182E+02 -0.15001471964E+03  0.25329986956E+03  0.30716580699E+03  0.77000000000E+02 0.  0.
<mgrwt>
<rscale>  0 0.34855655E+03</rscale>
<asrwt>0</asrwt>
<pdfrwt beam="1">  1        2 0.80016065E-01 0.34855655E+03</pdfrwt>
<pdfrwt beam="2">  1       -2 0.89842662E-02 0.34855655E+03</pdfrwt>
<totfact> 0.47027266E+03</totfact>
</mgrwt>
</event>
<event>
 4    1  0.6207184E-004  0.3374030E+03  0.7818608E-02  0.1067907E+00
         -2   -1    0    0    0  501 -0.00000000000E+00  0.00000000000E+00  0.10285637471E+03  0.10285637474E+03  0.25500000000E-02 0. -1.
          2   -1    0    0  501    0  0.00000000000E+00 -0.00000000000E+00 -0.27669841693E+03  0.27669841694E+03  0.25500000000E-02 0.  1.
    5000001    1    1    2    0    0 -0.70310413648E+02 -0.12431009101E+03 -0.34946778093E+02  0.16597237810E+03  0.77000000000E+02 0.  0.
   -5000001    1    1    2    0    0  0.70310413648E+02  0.12431009101E+03 -0.13889526413E+03  0.21358241358E+03  0.77000000000E+02 0.  0.
<mgrwt>
<rscale>  0 0.33740300E+03</rscale>
<asrwt>0</asrwt>
<pdfrwt beam="1">  1        2 0.42568987E-01 0.33740300E+03</pdfrwt>
<pdfrwt beam="2">  1       -2 0.15824058E-01 0.33740300E+03</pdfrwt>
<totfact> 0.37466091E+03</totfact>
</mgrwt>
</event>
<event>
 4    1  0.6207184E-004  0.2582392E+03  0.7818608E-02  0.1108206E+00
          2   -1    0    0  501    0  0.00000000000E+00  0.00000000000E+00  0.53330910225E+03  0.53330910226E+03  0.25500000000E-02 0.  1.
         -2   -1    0    0    0  501 -0.00000000000E+00 -0.00000000000E+00 -0.31261172962E+02  0.31261173066E+02  0.25500000000E-02 0. -1.
    5000001    1    1    2    0    0 -0.32770716625E+02 -0.77613190035E+02  0.11903031264E+03  0.16490889140E+03  0.77000000000E+02 0.  0.
   -5000001    1    1    2    0    0  0.32770716625E+02  0.77613190035E+02  0.38301761665E+03  0.39966138392E+03  0.77000000000E+02 0.  0.
<mgrwt>
<rscale>  0 0.25823918E+03</rscale>
<asrwt>0</asrwt>
<pdfrwt beam="1">  1        2 0.82047550E-01 0.25823918E+03</pdfrwt>
<pdfrwt beam="2">  1       -2 0.48094115E-02 0.25823918E+03</pdfrwt>
<totfact> 0.11908564E+04</totfact>
</mgrwt>
</event>
<event>
 4    1  0.6207184E-004  0.2251779E+03  0.7818608E-02  0.1130081E+00
         -2   -1    0    0    0  501 -0.00000000000E+00  0.00000000000E+00  0.67465874403E+01  0.67465879222E+01  0.25500000000E-02 0. -1.
          2   -1    0    0  501    0  0.00000000000E+00 -0.00000000000E+00 -0.18789164522E+04  0.18789164522E+04  0.25500000000E-02 0.  1.
    5000001    1    1    2    0    0  0.77889086878E+02  0.14912112923E+02 -0.11153364314E+04  0.11208003552E+04  0.77000000000E+02 0.  0.
   -5000001    1    1    2    0    0 -0.77889086878E+02 -0.14912112923E+02 -0.75683343332E+03  0.76486268490E+03  0.77000000000E+02 0.  0.
<mgrwt>
<rscale>  0 0.22517793E+03</rscale>
<asrwt>0</asrwt>
<pdfrwt beam="1">  1        2 0.28906365E+00 0.22517793E+03</pdfrwt>
<pdfrwt beam="2">  1       -2 0.10379381E-02 0.22517793E+03</pdfrwt>
<totfact> 0.17259715E+04</totfact>
</mgrwt>
</event>
<event>
 4    1  0.6207184E-004  0.2112751E+03  0.7818608E-02  0.1140560E+00
         -2   -1    0    0    0  501 -0.00000000000E+00  0.00000000000E+00  0.39596196996E+01  0.39596205207E+01  0.25500000000E-02 0. -1.
          2   -1    0    0  501    0  0.00000000000E+00 -0.00000000000E+00 -0.28182740658E+04  0.28182740658E+04  0.25500000000E-02 0.  1.
    5000001    1    1    2    0    0  0.41085162308E+01  0.47300893934E+02 -0.67843166862E+03  0.68443610619E+03  0.77000000000E+02 0.  0.
   -5000001    1    1    2    0    0 -0.41085162308E+01 -0.47300893934E+02 -0.21358827775E+04  0.21377975802E+04  0.77000000000E+02 0.  0.
<mgrwt>
<rscale>  0 0.21127513E+03</rscale>
<asrwt>0</asrwt>
<pdfrwt beam="1">  1        2 0.43357902E+00 0.21127513E+03</pdfrwt>
<pdfrwt beam="2">  1       -2 0.60917458E-03 0.21127513E+03</pdfrwt>
<totfact> 0.11600895E+04</totfact>
</mgrwt>
</event>
<event>
 4    1  0.6207184E-004  0.1702860E+03  0.7818608E-02  0.1177550E+00
         -2   -1    0    0    0  501 -0.00000000000E+00  0.00000000000E+00  0.19643044916E+02  0.19643045081E+02  0.25500000000E-02 0. -1.
          2   -1    0    0  501    0  0.00000000000E+00 -0.00000000000E+00 -0.36905310228E+03  0.36905310229E+03  0.25500000000E-02 0.  1.
    5000001    1    1    2    0    0 -0.31390779663E+02  0.17554312706E+02 -0.16289007584E+03  0.18372727546E+03  0.77000000000E+02 0.  0.
   -5000001    1    1    2    0    0  0.31390779663E+02 -0.17554312706E+02 -0.18651998153E+03  0.20496887191E+03  0.77000000000E+02 0.  0.
<mgrwt>
<rscale>  0 0.17028596E+03</rscale>
<asrwt>0</asrwt>
<pdfrwt beam="1">  1        2 0.56777395E-01 0.17028596E+03</pdfrwt>
<pdfrwt beam="2">  1       -2 0.30220072E-02 0.17028596E+03</pdfrwt>
<totfact> 0.34693544E+04</totfact>
</mgrwt>
</event>
<event>
 4    1  0.6207184E-004  0.1977953E+03  0.7818608E-02  0.1151613E+00
          2   -1    0    0  501    0  0.00000000000E+00  0.00000000000E+00  0.39636028053E+03  0.39636028054E+03  0.25500000000E-02 0.  1.
         -2   -1    0    0    0  501 -0.00000000000E+00 -0.00000000000E+00 -0.24676397859E+02  0.24676397991E+02  0.25500000000E-02 0. -1.
    5000001    1    1    2    0    0  0.28943291941E+00  0.50266563320E+02  0.26332395927E+03  0.27891812183E+03  0.77000000000E+02 0.  0.
   -5000001    1    1    2    0    0 -0.28943291941E+00 -0.50266563320E+02  0.10835992341E+03  0.14211855671E+03  0.77000000000E+02 0.  0.
<mgrwt>
<rscale>  0 0.19779529E+03</rscale>
<asrwt>0</asrwt>
<pdfrwt beam="1">  1        2 0.60978507E-01 0.19779529E+03</pdfrwt>
<pdfrwt beam="2">  1       -2 0.37963688E-02 0.19779529E+03</pdfrwt>
<totfact> 0.23193227E+04</totfact>
</mgrwt>
</event>
<event>
 4    1  0.6207184E-004  0.2408925E+03  0.7818608E-02  0.1119200E+00
          2   -1    0    0  501    0  0.00000000000E+00  0.00000000000E+00  0.95909190595E+01  0.95909193985E+01  0.25500000000E-02 0.  1.
         -2   -1    0    0    0  501 -0.00000000000E+00 -0.00000000000E+00 -0.15126079043E+04  0.15126079043E+04  0.25500000000E-02 0. -1.
    5000001    1    1    2    0    0 -0.32056555530E+02 -0.86883675650E+02 -0.74278829792E+03  0.75248910383E+03  0.77000000000E+02 0.  0.
   -5000001    1    1    2    0    0  0.32056555530E+02  0.86883675650E+02 -0.76022868727E+03  0.76970971983E+03  0.77000000000E+02 0.  0.
<mgrwt>
<rscale>  0 0.24089251E+03</rscale>
<asrwt>0</asrwt>
<pdfrwt beam="1">  1        2 0.14755272E-02 0.24089251E+03</pdfrwt>
<pdfrwt beam="2">  1       -2 0.23270872E+00 0.24089251E+03</pdfrwt>
<totfact> 0.75717650E+02</totfact>
</mgrwt>
</event>
<event>
 4    1  0.6207184E-004  0.2738721E+03  0.7818608E-02  0.1099084E+00
          2   -1    0    0  501    0  0.00000000000E+00  0.00000000000E+00  0.20190312753E+03  0.20190312754E+03  0.25500000000E-02 0.  1.
         -2   -1    0    0    0  501 -0.00000000000E+00 -0.00000000000E+00 -0.92873685404E+02  0.92873685439E+02  0.25500000000E-02 0. -1.
    5000001    1    1    2    0    0 -0.25647836335E+02 -0.81940664719E+02  0.13397677533E+03  0.17677912878E+03  0.77000000000E+02 0.  0.
   -5000001    1    1    2    0    0  0.25647836335E+02  0.81940664719E+02 -0.24947333208E+02  0.11799768420E+03  0.77000000000E+02 0.  0.
<mgrwt>
<rscale>  0 0.27387214E+03</rscale>
<asrwt>0</asrwt>
<pdfrwt beam="1">  1        2 0.31062019E-01 0.27387214E+03</pdfrwt>
<pdfrwt beam="2">  1       -2 0.14288259E-01 0.27387214E+03</pdfrwt>
<totfact> 0.62133714E+03</totfact>
</mgrwt>
</event>
<event>
 4    1  0.6207184E-004  0.1992514E+03  0.7818608E-02  0.1150372E+00
          2   -1    0    0  501    0  0.00000000000E+00  0.00000000000E+00  0.16939933451E+04  0.16939933451E+04  0.25500000000E-02 0.  1.
         -2   -1    0    0    0  501 -0.00000000000E+00 -0.00000000000E+00 -0.58591001391E+01  0.58591006940E+01  0.25500000000E-02 0. -1.
    5000001    1    1    2    0    0  0.13454997217E+02 -0.57625988324E+02  0.65435864053E+03  0.66152552627E+03  0.77000000000E+02 0.  0.
   -5000001    1    1    2    0    0 -0.13454997217E+02  0.57625988324E+02  0.10337756045E+04  0.10383269196E+04  0.77000000000E+02 0.  0.
<mgrwt>
<rscale>  0 0.19925137E+03</rscale>
<asrwt>0</asrwt>
<pdfrwt beam="1">  1        2 0.26061470E+00 0.19925137E+03</pdfrwt>
<pdfrwt beam="2">  1       -2 0.90139889E-03 0.19925137E+03</pdfrwt>
<totfact> 0.26272751E+04</totfact>
</mgrwt>
</event>
<event>
 4    1  0.6207184E-004  0.2173378E+03  0.7818608E-02  0.1135884E+00
          2   -1    0    0  501    0  0.00000000000E+00  0.00000000000E+00  0.13859680538E+04  0.13859680538E+04  0.25500000000E-02 0.  1.
         -2   -1    0    0    0  501 -0.00000000000E+00 -0.00000000000E+00 -0.85203450643E+01  0.85203454459E+01  0.25500000000E-02 0. -1.
    5000001    1    1    2    0    0  0.14786306056E+02 -0.64888514592E+02  0.44433617355E+03  0.45584294367E+03  0.77000000000E+02 0.  0.
   -5000001    1    1    2    0    0 -0.14786306056E+02  0.64888514592E+02  0.93311153517E+03  0.93864545556E+03  0.77000000000E+02 0.  0.
<mgrwt>
<rscale>  0 0.21733777E+03</rscale>
<asrwt>0</asrwt>
<pdfrwt beam="1">  1        2 0.21322581E+00 0.21733777E+03</pdfrwt>
<pdfrwt beam="2">  1       -2 0.13108226E-02 0.21733777E+03</pdfrwt>
<totfact> 0.22338930E+04</totfact>
</mgrwt>
</event>
<event>
 4    1  0.6207184E-004  0.4744344E+03  0.7818608E-02  0.1020676E+00
          2   -1    0    0  501    0  0.00000000000E+00  0.00000000000E+00  0.61129432921E+03  0.61129432921E+03  0.25500000000E-02 0.  1.
         -2   -1    0    0    0  501 -0.00000000000E+00 -0.00000000000E+00 -0.92053859743E+02  0.92053859778E+02  0.25500000000E-02 0. -1.
    5000001    1    1    2    0    0  0.20855459749E+03  0.78180383014E+02  0.29983421361E+03  0.38136170242E+03  0.77000000000E+02 0.  0.
   -5000001    1    1    2    0    0 -0.20855459749E+03 -0.78180383014E+02  0.21940625585E+03  0.32198648657E+03  0.77000000000E+02 0.  0.
<mgrwt>
<rscale>  0 0.47443441E+03</rscale>
<asrwt>0</asrwt>
<pdfrwt beam="1">  1        2 0.94045282E-01 0.47443441E+03</pdfrwt>
<pdfrwt beam="2">  1       -2 0.14162132E-01 0.47443441E+03</pdfrwt>
<totfact> 0.18681065E+03</totfact>
</mgrwt>
</event>
<event>
 4    1  0.6207184E-004  0.1775523E+03  0.7818608E-02  0.1170193E+00
         -2   -1    0    0    0  501 -0.00000000000E+00  0.00000000000E+00  0.49606838247E+02  0.49606838312E+02  0.25500000000E-02 0. -1.
          2   -1    0    0  501    0  0.00000000000E+00 -0.00000000000E+00 -0.15887341466E+03  0.15887341468E+03  0.25500000000E-02 0.  1.
    5000001    1    1    2    0    0 -0.31601026523E+02  0.13589463397E+02 -0.22073908271E+02  0.87175431281E+02  0.77000000000E+02 0.  0.
   -5000001    1    1    2    0    0  0.31601026523E+02 -0.13589463397E+02 -0.87192668144E+02  0.12130482171E+03  0.77000000000E+02 0.  0.
<mgrwt>
<rscale>  0 0.17755233E+03</rscale>
<asrwt>0</asrwt>
<pdfrwt beam="1">  1        2 0.24442064E-01 0.17755233E+03</pdfrwt>
<pdfrwt beam="2">  1       -2 0.76318213E-02 0.17755233E+03</pdfrwt>
<totfact> 0.21391999E+04</totfact>
</mgrwt>
</event>
<event>
 4    1  0.6207184E-004  0.1766524E+03  0.7818608E-02  0.1171083E+00
         -2   -1    0    0    0  501 -0.00000000000E+00  0.00000000000E+00  0.38892393991E+01  0.38892402351E+01  0.25500000000E-02 0. -1.
          2   -1    0    0  501    0  0.00000000000E+00 -0.00000000000E+00 -0.20059228590E+04  0.20059228590E+04  0.25500000000E-02 0.  1.
    5000001    1    1    2    0    0 -0.13834896592E+02 -0.74914729314E+01 -0.54238820889E+03  0.54805245704E+03  0.77000000000E+02 0.  0.
   -5000001    1    1    2    0    0  0.13834896592E+02  0.74914729314E+01 -0.14596454107E+04  0.14617596422E+04  0.77000000000E+02 0.  0.
<mgrwt>
<rscale>  0 0.17665237E+03</rscale>
<asrwt>0</asrwt>
<pdfrwt beam="1">  1        2 0.30860269E+00 0.17665237E+03</pdfrwt>
<pdfrwt beam="2">  1       -2 0.59834619E-03 0.17665237E+03</pdfrwt>
<totfact> 0.32390630E+04</totfact>
</mgrwt>
</event>
<event>
 4    1  0.6207184E-004  0.1973452E+03  0.7818608E-02  0.1151998E+00
          2   -1    0    0  501    0  0.00000000000E+00  0.00000000000E+00  0.22548495799E+02  0.22548495944E+02  0.25500000000E-02 0.  1.
         -2   -1    0    0    0  501 -0.00000000000E+00 -0.00000000000E+00 -0.43179317462E+03  0.43179317462E+03  0.25500000000E-02 0. -1.
    5000001    1    1    2    0    0 -0.20863644505E+02  0.57722742479E+02 -0.21919770726E+03  0.24029948299E+03  0.77000000000E+02 0.  0.
   -5000001    1    1    2    0    0  0.20863644505E+02 -0.57722742479E+02 -0.19004697156E+03  0.21404218757E+03  0.77000000000E+02 0.  0.
<mgrwt>
<rscale>  0 0.19734525E+03</rscale>
<asrwt>0</asrwt>
<pdfrwt beam="1">  1        2 0.34689997E-02 0.19734525E+03</pdfrwt>
<pdfrwt beam="2">  1       -2 0.66429713E-01 0.19734525E+03</pdfrwt>
<totfact> 0.53464136E+03</totfact>
</mgrwt>
</event>
<event>
 4    1  0.6207184E-004  0.2240874E+03  0.7818608E-02  0.1130872E+00
          2   -1    0    0  501    0  0.00000000000E+00  0.00000000000E+00  0.16051373693E+02  0.16051373896E+02  0.25500000000E-02 0.  1.
         -2   -1    0    0    0  501 -0.00000000000E+00 -0.00000000000E+00 -0.78210041099E+03  0.78210041100E+03  0.25500000000E-02 0. -1.
    5000001    1    1    2    0    0  0.23606859904E+02  0.77877609742E+02 -0.38874572151E+03  0.40456698076E+03  0.77000000000E+02 0.  0.
   -5000001    1    1    2    0    0 -0.23606859904E+02 -0.77877609742E+02 -0.37730331579E+03  0.39358480413E+03  0.77000000000E+02 0.  0.
<mgrwt>
<rscale>  0 0.22408736E+03</rscale>
<asrwt>0</asrwt>
<pdfrwt beam="1">  1        2 0.24694427E-02 0.22408736E+03</pdfrwt>
<pdfrwt beam="2">  1       -2 0.12032311E+00 0.22408736E+03</pdfrwt>
<totfact> 0.22329803E+03</totfact>
</mgrwt>
</event>
<event>
 4    1  0.6207184E-004  0.2871812E+03  0.7818608E-02  0.1091830E+00
          2   -1    0    0  501    0  0.00000000000E+00  0.00000000000E+00  0.14511276730E+04  0.14511276730E+04  0.25500000000E-02 0.  1.
         -2   -1    0    0    0  501 -0.00000000000E+00 -0.00000000000E+00 -0.14208437040E+02  0.14208437269E+02  0.25500000000E-02 0. -1.
    5000001    1    1    2    0    0 -0.11011896928E+03  0.41652230693E+02  0.57162157778E+03  0.58867760608E+03  0.77000000000E+02 0.  0.
   -5000001    1    1    2    0    0  0.11011896928E+03 -0.41652230693E+02  0.86529765818E+03  0.87665850419E+03  0.77000000000E+02 0.  0.
<mgrwt>
<rscale>  0 0.28718117E+03</rscale>
<asrwt>0</asrwt>
<pdfrwt beam="1">  1        2 0.22325038E+00 0.28718117E+03</pdfrwt>
<pdfrwt beam="2">  1       -2 0.21859137E-02 0.28718117E+03</pdfrwt>
<totfact> 0.98381498E+03</totfact>
</mgrwt>
</event>
<event>
 4    1  0.6207184E-004  0.2435375E+03  0.7818608E-02  0.1117458E+00
         -2   -1    0    0    0  501 -0.00000000000E+00  0.00000000000E+00  0.50504649409E+02  0.50504649473E+02  0.25500000000E-02 0. -1.
          2   -1    0    0  501    0  0.00000000000E+00 -0.00000000000E+00 -0.29358930122E+03  0.29358930123E+03  0.25500000000E-02 0.  1.
    5000001    1    1    2    0    0  0.68378392913E+02 -0.50371089448E+02 -0.63531258517E+02  0.13106514441E+03  0.77000000000E+02 0.  0.
   -5000001    1    1    2    0    0 -0.68378392913E+02  0.50371089448E+02 -0.17955339330E+03  0.21302880630E+03  0.77000000000E+02 0.  0.
<mgrwt>
<rscale>  0 0.24353747E+03</rscale>
<asrwt>0</asrwt>
<pdfrwt beam="1">  1        2 0.45167584E-01 0.24353747E+03</pdfrwt>
<pdfrwt beam="2">  1       -2 0.77699463E-02 0.24353747E+03</pdfrwt>
<totfact> 0.10905177E+04</totfact>
</mgrwt>
</event>
<event>
 4    1  0.6207184E-004  0.2068867E+03  0.7818608E-02  0.1144055E+00
          2   -1    0    0  501    0  0.00000000000E+00  0.00000000000E+00  0.48257635096E+03  0.48257635097E+03  0.25500000000E-02 0.  1.
         -2   -1    0    0    0  501 -0.00000000000E+00 -0.00000000000E+00 -0.22173748908E+02  0.22173749055E+02  0.25500000000E-02 0. -1.
    5000001    1    1    2    0    0  0.57522370132E+02 -0.36950899616E+02  0.25427140495E+03  0.27433034726E+03  0.77000000000E+02 0.  0.
   -5000001    1    1    2    0    0 -0.57522370132E+02  0.36950899616E+02  0.20613119710E+03  0.23041975277E+03  0.77000000000E+02 0.  0.
<mgrwt>
<rscale>  0 0.20688670E+03</rscale>
<asrwt>0</asrwt>
<pdfrwt beam="1">  1        2 0.74242507E-01 0.20688670E+03</pdfrwt>
<pdfrwt beam="2">  1       -2 0.34113464E-02 0.20688670E+03</pdfrwt>
<totfact> 0.22018441E+04</totfact>
</mgrwt>
</event>
<event>
 4    1  0.6207184E-004  0.1555946E+03  0.7818608E-02  0.1193762E+00
         -2   -1    0    0    0  501 -0.00000000000E+00  0.00000000000E+00  0.14964028515E+02  0.14964028732E+02  0.25500000000E-02 0. -1.
          2   -1    0    0  501    0  0.00000000000E+00 -0.00000000000E+00 -0.40446476953E+03  0.40446476954E+03  0.25500000000E-02 0.  1.
    5000001    1    1    2    0    0  0.15733026260E+00  0.39480685664E+01 -0.16676094711E+03  0.18372214205E+03  0.77000000000E+02 0.  0.
   -5000001    1    1    2    0    0 -0.15733026260E+00 -0.39480685664E+01 -0.22273979391E+03  0.23570665622E+03  0.77000000000E+02 0.  0.
<mgrwt>
<rscale>  0 0.15559463E+03</rscale>
<asrwt>0</asrwt>
<pdfrwt beam="1">  1        2 0.62225341E-01 0.15559463E+03</pdfrwt>
<pdfrwt beam="2">  1       -2 0.23021586E-02 0.15559463E+03</pdfrwt>
<totfact> 0.46483941E+04</totfact>
</mgrwt>
</event>
<event>
 4    1  0.6207184E-004  0.2940314E+03  0.7818608E-02  0.1088263E+00
         -2   -1    0    0    0  501 -0.00000000000E+00  0.00000000000E+00  0.15566078880E+02  0.15566079089E+02  0.25500000000E-02 0. -1.
          2   -1    0    0  501    0  0.00000000000E+00 -0.00000000000E+00 -0.13885077217E+04  0.13885077217E+04  0.25500000000E-02 0.  1.
    5000001    1    1    2    0    0 -0.51112386702E+02  0.10753040870E+03 -0.50095027343E+03  0.52062985058E+03  0.77000000000E+02 0.  0.
   -5000001    1    1    2    0    0  0.51112386702E+02 -0.10753040870E+03 -0.87199136935E+03  0.88344395017E+03  0.77000000000E+02 0.  0.
<mgrwt>
<rscale>  0 0.29403143E+03</rscale>
<asrwt>0</asrwt>
<pdfrwt beam="1">  1        2 0.21361647E+00 0.29403143E+03</pdfrwt>
<pdfrwt beam="2">  1       -2 0.23947825E-02 0.29403143E+03</pdfrwt>
<totfact> 0.92997703E+03</totfact>
</mgrwt>
</event>
<event>
 4    1  0.6207184E-004  0.2497426E+03  0.7818608E-02  0.1113468E+00
          2   -1    0    0  501    0  0.00000000000E+00  0.00000000000E+00  0.21781357626E+03  0.21781357628E+03  0.25500000000E-02 0.  1.
         -2   -1    0    0    0  501 -0.00000000000E+00 -0.00000000000E+00 -0.71588014483E+02  0.71588014529E+02  0.25500000000E-02 0. -1.
    5000001    1    1    2    0    0  0.71257041793E+02  0.45364850485E+01 -0.51872207128E+01  0.10513825641E+03  0.77000000000E+02 0.  0.
   -5000001    1    1    2    0    0 -0.71257041793E+02 -0.45364850485E+01  0.15141278249E+03  0.18426333440E+03  0.77000000000E+02 0.  0.
<mgrwt>
<rscale>  0 0.24974260E+03</rscale>
<asrwt>0</asrwt>
<pdfrwt beam="1">  1        2 0.33509780E-01 0.24974260E+03</pdfrwt>
<pdfrwt beam="2">  1       -2 0.11013541E-01 0.24974260E+03</pdfrwt>
<totfact> 0.86895231E+03</totfact>
</mgrwt>
</event>
<event>
 4    1  0.6207184E-004  0.3207303E+03  0.7818608E-02  0.1075314E+00
         -2   -1    0    0    0  501 -0.00000000000E+00  0.00000000000E+00  0.17271176646E+02  0.17271176835E+02  0.25500000000E-02 0.  1.
          2   -1    0    0  501    0  0.00000000000E+00 -0.00000000000E+00 -0.14890115285E+04  0.14890115285E+04  0.25500000000E-02 0. -1.
    5000001    1    1    2    0    0 -0.96384838248E+02  0.34068966244E+02 -0.28205816306E+03  0.30973624078E+03  0.77000000000E+02 0.  0.
   -5000001    1    1    2    0    0  0.96384838248E+02 -0.34068966244E+02 -0.11896821888E+04  0.11965464646E+04  0.77000000000E+02 0.  0.
<mgrwt>
<rscale>  0 0.32073030E+03</rscale>
<asrwt>0</asrwt>
<pdfrwt beam="1">  1        2 0.22907860E+00 0.32073030E+03</pdfrwt>
<pdfrwt beam="2">  1       -2 0.26571053E-02 0.32073030E+03</pdfrwt>
<totfact> 0.70380954E+03</totfact>
</mgrwt>
</event>
<event>
 4    1  0.6207184E-004  0.1792970E+03  0.7818608E-02  0.1168485E+00
          2   -1    0    0  501    0  0.00000000000E+00  0.00000000000E+00  0.28565532582E+03  0.28565532583E+03  0.25500000000E-02 0.  1.
         -2   -1    0    0    0  501 -0.00000000000E+00 -0.00000000000E+00 -0.28134808443E+02  0.28134808559E+02  0.25500000000E-02 0. -1.
    5000001    1    1    2    0    0  0.13605455132E+02  0.42890219231E+02  0.14472169205E+03  0.16999425715E+03  0.77000000000E+02 0.  0.
   -5000001    1    1    2    0    0 -0.13605455132E+02 -0.42890219231E+02  0.11279882532E+03  0.14379587723E+03  0.77000000000E+02 0.  0.
<mgrwt>
<rscale>  0 0.17929705E+03</rscale>
<asrwt>0</asrwt>
<pdfrwt beam="1">  1        2 0.43946973E-01 0.17929705E+03</pdfrwt>
<pdfrwt beam="2">  1       -2 0.43284321E-02 0.17929705E+03</pdfrwt>
<totfact> 0.26850699E+04</totfact>
</mgrwt>
</event>
<event>
 4    1  0.6207184E-004  0.4475578E+03  0.7818608E-02  0.1028453E+00
          2   -1    0    0  501    0  0.00000000000E+00  0.00000000000E+00  0.89753888007E+03  0.89753888007E+03  0.25500000000E-02 0.  1.
         -2   -1    0    0    0  501 -0.00000000000E+00 -0.00000000000E+00 -0.55793685051E+02  0.55793685109E+02  0.25500000000E-02 0. -1.
    5000001    1    1    2    0    0 -0.54765204495E+02 -0.18645642131E+03  0.59104930159E+03  0.62692384034E+03  0.77000000000E+02 0.  0.
   -5000001    1    1    2    0    0  0.54765204495E+02  0.18645642131E+03  0.25069589342E+03  0.32640872484E+03  0.77000000000E+02 0.  0.
<mgrwt>
<rscale>  0 0.44755782E+03</rscale>
<asrwt>0</asrwt>
<pdfrwt beam="1">  1        2 0.13808291E+00 0.44755782E+03</pdfrwt>
<pdfrwt beam="2">  1       -2 0.85836435E-02 0.44755782E+03</pdfrwt>
<totfact> 0.25889741E+03</totfact>
</mgrwt>
</event>
<event>
 4    1  0.6207184E-004  0.2878428E+03  0.7818608E-02  0.1091481E+00
         -2   -1    0    0    0  501 -0.00000000000E+00  0.00000000000E+00  0.11248915812E+02  0.11248916101E+02  0.25500000000E-02 0. -1.
          2   -1    0    0  501    0  0.00000000000E+00 -0.00000000000E+00 -0.18413655933E+04  0.18413655933E+04  0.25500000000E-02 0.  1.
    5000001    1    1    2    0    0 -0.54500351768E+02  0.99196963165E+02 -0.12010199909E+04  0.12087962378E+04  0.77000000000E+02 0.  0.
   -5000001    1    1    2    0    0  0.54500351768E+02 -0.99196963165E+02 -0.62909668652E+03  0.64381827159E+03  0.77000000000E+02 0.  0.
<mgrwt>
<rscale>  0 0.28784278E+03</rscale>
<asrwt>0</asrwt>
<pdfrwt beam="1">  1        2 0.28328677E+00 0.28784278E+03</pdfrwt>
<pdfrwt beam="2">  1       -2 0.17306039E-02 0.28784278E+03</pdfrwt>
<totfact> 0.86163754E+03</totfact>
</mgrwt>
</event>
<event>
 4    1  0.6207184E-004  0.2731043E+03  0.7818608E-02  0.1099516E+00
         -2   -1    0    0    0  501 -0.00000000000E+00  0.00000000000E+00  0.50256514442E+02  0.50256514507E+02  0.25500000000E-02 0. -1.
          2   -1    0    0  501    0  0.00000000000E+00 -0.00000000000E+00 -0.37102631144E+03  0.37102631145E+03  0.25500000000E-02 0.  1.
    5000001    1    1    2    0    0  0.10932359908E+03  0.24452027525E+02 -0.14039456650E+03  0.19542053441E+03  0.77000000000E+02 0.  0.
   -5000001    1    1    2    0    0 -0.10932359908E+03 -0.24452027525E+02 -0.18037523050E+03  0.22586229155E+03  0.77000000000E+02 0.  0.
<mgrwt>
<rscale>  0 0.27310430E+03</rscale>
<asrwt>0</asrwt>
<pdfrwt beam="1">  1        2 0.57080969E-01 0.27310430E+03</pdfrwt>
<pdfrwt beam="2">  1       -2 0.77317717E-02 0.27310430E+03</pdfrwt>
<totfact> 0.85852308E+03</totfact>
</mgrwt>
</event>
<event>
 4    1  0.6207184E-004  0.3641961E+03  0.7818608E-02  0.1056935E+00
         -2   -1    0    0    0  501 -0.00000000000E+00  0.00000000000E+00  0.46881973883E+03  0.46881973884E+03  0.25500000000E-02 0. -1.
          2   -1    0    0  501    0  0.00000000000E+00 -0.00000000000E+00 -0.70730164972E+02  0.70730165018E+02  0.25500000000E-02 0.  1.
    5000001    1    1    2    0    0  0.14744880352E+03  0.27150205738E+02  0.96914751112E+02  0.19442158397E+03  0.77000000000E+02 0.  0.
   -5000001    1    1    2    0    0 -0.14744880352E+03 -0.27150205738E+02  0.30117482274E+03  0.34512831988E+03  0.77000000000E+02 0.  0.
<mgrwt>
<rscale>  0 0.36419609E+03</rscale>
<asrwt>0</asrwt>
<pdfrwt beam="1">  1        2 0.10881563E-01 0.36419609E+03</pdfrwt>
<pdfrwt beam="2">  1       -2 0.72126117E-01 0.36419609E+03</pdfrwt>
<totfact> 0.10371666E+03</totfact>
</mgrwt>
</event>
<event>
 4    1  0.6207184E-004  0.5028797E+03  0.7818608E-02  0.1013030E+00
         -2   -1    0    0    0  501 -0.00000000000E+00  0.00000000000E+00  0.24510311408E+02  0.24510311541E+02  0.25500000000E-02 0. -1.
          2   -1    0    0  501    0  0.00000000000E+00 -0.00000000000E+00 -0.25794042921E+04  0.25794042921E+04  0.25500000000E-02 0.  1.
    5000001    1    1    2    0    0 -0.79433179449E+01 -0.22940156605E+03 -0.92607323908E+03  0.95719842193E+03  0.77000000000E+02 0.  0.
   -5000001    1    1    2    0    0  0.79433179449E+01  0.22940156605E+03 -0.16288207417E+04  0.16467161818E+04  0.77000000000E+02 0.  0.
<mgrwt>
<rscale>  0 0.50287972E+03</rscale>
<asrwt>0</asrwt>
<pdfrwt beam="1">  1        2 0.39683121E+00 0.50287972E+03</pdfrwt>
<pdfrwt beam="2">  1       -2 0.37708192E-02 0.50287972E+03</pdfrwt>
<totfact> 0.10603336E+03</totfact>
</mgrwt>
</event>
<event>
 4    1  0.6207184E-004  0.2252751E+03  0.7818608E-02  0.1130010E+00
         -2   -1    0    0    0  501 -0.00000000000E+00  0.00000000000E+00  0.15191986558E+02  0.15191986772E+02  0.25500000000E-02 0. -1.
          2   -1    0    0  501    0  0.00000000000E+00 -0.00000000000E+00 -0.83512549713E+03  0.83512549714E+03  0.25500000000E-02 0.  1.
    5000001    1    1    2    0    0  0.20215017988E+02 -0.79577398290E+02 -0.42553253700E+03  0.44016831931E+03  0.77000000000E+02 0.  0.
   -5000001    1    1    2    0    0 -0.20215017988E+02  0.79577398290E+02 -0.39440097357E+03  0.41014916461E+03  0.77000000000E+02 0.  0.
<mgrwt>
<rscale>  0 0.22527508E+03</rscale>
<asrwt>0</asrwt>
<pdfrwt beam="1">  1        2 0.12848081E+00 0.22527508E+03</pdfrwt>
<pdfrwt beam="2">  1       -2 0.23372294E-02 0.22527508E+03</pdfrwt>
<totfact> 0.20285001E+04</totfact>
</mgrwt>
</event>
<event>
 4    1  0.6207184E-004  0.3127373E+03  0.7818608E-02  0.1079041E+00
          2   -1    0    0  501    0  0.00000000000E+00  0.00000000000E+00  0.97099481690E+02  0.97099481723E+02  0.25500000000E-02 0.  1.
         -2   -1    0    0    0  501 -0.00000000000E+00 -0.00000000000E+00 -0.25181546254E+03  0.25181546255E+03  0.25500000000E-02 0. -1.
    5000001    1    1    2    0    0 -0.11406225099E+03  0.74213873199E+02 -0.75056650171E+02  0.17343701107E+03  0.77000000000E+02 0.  0.
   -5000001    1    1    2    0    0  0.11406225099E+03 -0.74213873199E+02 -0.79659330675E+02  0.17547793320E+03  0.77000000000E+02 0.  0.
<mgrwt>
<rscale>  0 0.31273728E+03</rscale>
<asrwt>0</asrwt>
<pdfrwt beam="1">  1        2 0.14938382E-01 0.31273728E+03</pdfrwt>
<pdfrwt beam="2">  1       -2 0.38740840E-01 0.31273728E+03</pdfrwt>
<totfact> 0.24844184E+03</totfact>
</mgrwt>
</event>
<event>
 4    1  0.6207184E-004  0.3020418E+03  0.7818608E-02  0.1084224E+00
         -2   -1    0    0    0  501 -0.00000000000E+00  0.00000000000E+00  0.82828101930E+01  0.82828105856E+01  0.25500000000E-02 0. -1.
          2   -1    0    0  501    0  0.00000000000E+00 -0.00000000000E+00 -0.27535711886E+04  0.27535711886E+04  0.25500000000E-02 0.  1.
    5000001    1    1    2    0    0  0.30191033618E+02  0.12611605619E+03 -0.13009064927E+04  0.13096195863E+04  0.77000000000E+02 0.  0.
   -5000001    1    1    2    0    0 -0.30191033618E+02 -0.12611605619E+03 -0.14443818857E+04  0.14522344129E+04  0.77000000000E+02 0.  0.
<mgrwt>
<rscale>  0 0.30204177E+03</rscale>
<asrwt>0</asrwt>
<pdfrwt beam="1">  1        2 0.42362561E+00 0.30204177E+03</pdfrwt>
<pdfrwt beam="2">  1       -2 0.12742807E-02 0.30204177E+03</pdfrwt>
<totfact> 0.43308623E+03</totfact>
</mgrwt>
</event>
<event>
 4    1  0.6207184E-004  0.2611611E+03  0.7818608E-02  0.1106448E+00
         -2   -1    0    0    0  501 -0.00000000000E+00  0.00000000000E+00  0.52266238322E+01  0.52266244543E+01  0.25500000000E-02 0. -1.
          2   -1    0    0  501    0  0.00000000000E+00 -0.00000000000E+00 -0.32623890767E+04  0.32623890767E+04  0.25500000000E-02 0.  1.
    5000001    1    1    2    0    0  0.82876391284E+02 -0.51064742086E+02 -0.11209354424E+04  0.11277860481E+04  0.77000000000E+02 0.  0.
   -5000001    1    1    2    0    0 -0.82876391284E+02  0.51064742086E+02 -0.21362270105E+04  0.21398296531E+04  0.77000000000E+02 0.  0.
<mgrwt>
<rscale>  0 0.26116111E+03</rscale>
<asrwt>0</asrwt>
<pdfrwt beam="1">  1        2 0.50190438E+00 0.26116111E+03</pdfrwt>
<pdfrwt beam="2">  1       -2 0.80409863E-03 0.26116111E+03</pdfrwt>
<totfact> 0.42249606E+03</totfact>
</mgrwt>
</event>
<event>
 4    1  0.6207184E-004  0.2271004E+03  0.7818608E-02  0.1128697E+00
         -2   -1    0    0    0  501 -0.00000000000E+00  0.00000000000E+00  0.99774845465E+02  0.99774845498E+02  0.25500000000E-02 0. -1.
          2   -1    0    0  501    0  0.00000000000E+00 -0.00000000000E+00 -0.12922741001E+03  0.12922741003E+03  0.25500000000E-02 0.  1.
    5000001    1    1    2    0    0 -0.76603599921E+02 -0.32584824935E+02 -0.87809296284E+01  0.11373648079E+03  0.77000000000E+02 0.  0.
   -5000001    1    1    2    0    0  0.76603599921E+02  0.32584824935E+02 -0.20671634913E+02  0.11526577474E+03  0.77000000000E+02 0.  0.
<mgrwt>
<rscale>  0 0.22710037E+03</rscale>
<asrwt>0</asrwt>
<pdfrwt beam="1">  1        2 0.19881140E-01 0.22710037E+03</pdfrwt>
<pdfrwt beam="2">  1       -2 0.15349976E-01 0.22710037E+03</pdfrwt>
<totfact> 0.90116635E+03</totfact>
</mgrwt>
</event>
<event>
 4    1  0.6207184E-004  0.2538410E+03  0.7818608E-02  0.1110901E+00
         -2   -1    0    0    0  501 -0.00000000000E+00  0.00000000000E+00  0.97714222542E+01  0.97714225869E+01  0.25500000000E-02 0. -1.
          2   -1    0    0  501    0  0.00000000000E+00 -0.00000000000E+00 -0.16485633803E+04  0.16485633803E+04  0.25500000000E-02 0.  1.
    5000001    1    1    2    0    0 -0.84877404490E+02 -0.48260058100E+02 -0.98551871790E+03  0.99333244703E+03  0.77000000000E+02 0.  0.
   -5000001    1    1    2    0    0  0.84877404490E+02  0.48260058100E+02 -0.65327324014E+03  0.66500235585E+03  0.77000000000E+02 0.  0.
<mgrwt>
<rscale>  0 0.25384097E+03</rscale>
<asrwt>0</asrwt>
<pdfrwt beam="1">  1        2 0.25362491E+00 0.25384097E+03</pdfrwt>
<pdfrwt beam="2">  1       -2 0.15032971E-02 0.25384097E+03</pdfrwt>
<totfact> 0.13343345E+04</totfact>
</mgrwt>
</event>
<event>
 4    1  0.6207184E-004  0.1632660E+03  0.7818608E-02  0.1185058E+00
          2   -1    0    0  501    0  0.00000000000E+00  0.00000000000E+00  0.78945248372E+03  0.78945248373E+03  0.25500000000E-02 0.  1.
         -2   -1    0    0    0  501 -0.00000000000E+00 -0.00000000000E+00 -0.84412250576E+01  0.84412254428E+01  0.25500000000E-02 0. -1.
    5000001    1    1    2    0    0 -0.23585944900E+02  0.11510543083E+02  0.35730339160E+03  0.36644713541E+03  0.77000000000E+02 0.  0.
   -5000001    1    1    2    0    0  0.23585944900E+02 -0.11510543083E+02  0.42370786706E+03  0.43144657376E+03  0.77000000000E+02 0.  0.
<mgrwt>
<rscale>  0 0.16326599E+03</rscale>
<asrwt>0</asrwt>
<pdfrwt beam="1">  1        2 0.12145420E+00 0.16326599E+03</pdfrwt>
<pdfrwt beam="2">  1       -2 0.12986503E-02 0.16326599E+03</pdfrwt>
<totfact> 0.50057856E+04</totfact>
</mgrwt>
</event>
<event>
 4    1  0.6207184E-004  0.2510508E+03  0.7818608E-02  0.1112643E+00
          2   -1    0    0  501    0  0.00000000000E+00  0.00000000000E+00  0.54403810774E+03  0.54403810774E+03  0.25500000000E-02 0.  1.
         -2   -1    0    0    0  501 -0.00000000000E+00 -0.00000000000E+00 -0.28962366659E+02  0.28962366771E+02  0.25500000000E-02 0. -1.
    5000001    1    1    2    0    0  0.49754100741E+02  0.85117045122E+02  0.23390097232E+03  0.26525279785E+03  0.77000000000E+02 0.  0.
   -5000001    1    1    2    0    0 -0.49754100741E+02 -0.85117045122E+02  0.28117476876E+03  0.30774767667E+03  0.77000000000E+02 0.  0.
<mgrwt>
<rscale>  0 0.25105084E+03</rscale>
<asrwt>0</asrwt>
<pdfrwt beam="1">  1        2 0.83698171E-01 0.25105084E+03</pdfrwt>
<pdfrwt beam="2">  1       -2 0.44557487E-02 0.25105084E+03</pdfrwt>
<totfact> 0.13051804E+04</totfact>
</mgrwt>
</event>
<event>
 4    1  0.6207184E-004  0.2339051E+03  0.7818608E-02  0.1123921E+00
         -2   -1    0    0    0  501 -0.00000000000E+00  0.00000000000E+00  0.57319817248E+01  0.57319822920E+01  0.25500000000E-02 0. -1.
          2   -1    0    0  501    0  0.00000000000E+00 -0.00000000000E+00 -0.23862419300E+04  0.23862419300E+04  0.25500000000E-02 0.  1.
    5000001    1    1    2    0    0 -0.31902112396E+02  0.52445224804E+02 -0.18354540898E+04  0.18380938393E+04  0.77000000000E+02 0.  0.
   -5000001    1    1    2    0    0  0.31902112396E+02 -0.52445224804E+02 -0.54505585850E+03  0.55388007300E+03  0.77000000000E+02 0.  0.
<mgrwt>
<rscale>  0 0.23390507E+03</rscale>
<asrwt>0</asrwt>
<pdfrwt beam="1">  1        2 0.36711335E+00 0.23390507E+03</pdfrwt>
<pdfrwt beam="2">  1       -2 0.88184529E-03 0.23390507E+03</pdfrwt>
<totfact> 0.11810307E+04</totfact>
</mgrwt>
</event>
<event>
 4    1  0.6207184E-004  0.2020005E+03  0.7818608E-02  0.1148062E+00
         -2   -1    0    0    0  501 -0.00000000000E+00  0.00000000000E+00  0.50435659125E+03  0.50435659125E+03  0.25500000000E-02 0. -1.
          2   -1    0    0  501    0  0.00000000000E+00 -0.00000000000E+00 -0.20225872236E+02  0.20225872397E+02  0.25500000000E-02 0.  1.
    5000001    1    1    2    0    0  0.33273441499E+01 -0.37140036907E+02  0.38147025438E+03  0.39094629879E+03  0.77000000000E+02 0.  0.
   -5000001    1    1    2    0    0 -0.33273441499E+01  0.37140036907E+02  0.10266046463E+03  0.13363616486E+03  0.77000000000E+02 0.  0.
<mgrwt>
<rscale>  0 0.20200052E+03</rscale>
<asrwt>0</asrwt>
<pdfrwt beam="1">  1        2 0.31116730E-02 0.20200052E+03</pdfrwt>
<pdfrwt beam="2">  1       -2 0.77593313E-01 0.20200052E+03</pdfrwt>
<totfact> 0.44419502E+03</totfact>
</mgrwt>
</event>
<event>
 4    1  0.6207184E-004  0.2399210E+03  0.7818608E-02  0.1119845E+00
         -2   -1    0    0    0  501 -0.00000000000E+00  0.00000000000E+00  0.55920749972E+02  0.55920750030E+02  0.25500000000E-02 0. -1.
          2   -1    0    0  501    0  0.00000000000E+00 -0.00000000000E+00 -0.25733783347E+03  0.25733783348E+03  0.25500000000E-02 0.  1.
    5000001    1    1    2    0    0 -0.23638227585E+02  0.68305126546E+02 -0.17499631243E+03  0.20439438711E+03  0.77000000000E+02 0.  0.
   -5000001    1    1    2    0    0  0.23638227585E+02 -0.68305126546E+02 -0.26420771067E+02  0.10886419641E+03  0.77000000000E+02 0.  0.
<mgrwt>
<rscale>  0 0.23992103E+03</rscale>
<asrwt>0</asrwt>
<pdfrwt beam="1">  1        2 0.39590435E-01 0.23992103E+03</pdfrwt>
<pdfrwt beam="2">  1       -2 0.86031924E-02 0.23992103E+03</pdfrwt>
<totfact> 0.10707050E+04</totfact>
</mgrwt>
</event>
<event>
 4    1  0.6207184E-004  0.2762798E+03  0.7818608E-02  0.1097738E+00
          2   -1    0    0  501    0  0.00000000000E+00  0.00000000000E+00  0.76057682127E+03  0.76057682128E+03  0.25500000000E-02 0.  1.
         -2   -1    0    0    0  501 -0.00000000000E+00 -0.00000000000E+00 -0.25089680225E+02  0.25089680355E+02  0.25500000000E-02 0. -1.
    5000001    1    1    2    0    0  0.95993979469E+02  0.53748769427E+02  0.45988475475E+03  0.47908951352E+03  0.77000000000E+02 0.  0.
   -5000001    1    1    2    0    0 -0.95993979469E+02 -0.53748769427E+02  0.27560238629E+03  0.30657698811E+03  0.77000000000E+02 0.  0.
<mgrwt>
<rscale>  0 0.27627978E+03</rscale>
<asrwt>0</asrwt>
<pdfrwt beam="1">  1        2 0.11701179E+00 0.27627978E+03</pdfrwt>
<pdfrwt beam="2">  1       -2 0.38599516E-02 0.27627978E+03</pdfrwt>
<totfact> 0.10935508E+04</totfact>
</mgrwt>
</event>
<event>
 4    1  0.6207184E-004  0.2684027E+03  0.7818608E-02  0.1102197E+00
         -2   -1    0    0    0  501 -0.00000000000E+00  0.00000000000E+00  0.10690055497E+02  0.10690055801E+02  0.25500000000E-02 0. -1.
          2   -1    0    0  501    0  0.00000000000E+00 -0.00000000000E+00 -0.16847440712E+04  0.16847440712E+04  0.25500000000E-02 0.  1.
    5000001    1    1    2    0    0 -0.99369325521E+02  0.21907801643E+02 -0.10995178431E+04  0.11068977830E+04  0.77000000000E+02 0.  0.
   -5000001    1    1    2    0    0  0.99369325521E+02 -0.21907801643E+02 -0.57453617252E+03  0.58853634396E+03  0.77000000000E+02 0.  0.
<mgrwt>
<rscale>  0 0.26840274E+03</rscale>
<asrwt>0</asrwt>
<pdfrwt beam="1">  1        2 0.25919118E+00 0.26840274E+03</pdfrwt>
<pdfrwt beam="2">  1       -2 0.16446253E-02 0.26840274E+03</pdfrwt>
<totfact> 0.11212464E+04</totfact>
</mgrwt>
</event>
<event>
 4    1  0.6207184E-004  0.3956973E+03  0.7818608E-02  0.1045280E+00
         -2   -1    0    0    0  501 -0.00000000000E+00  0.00000000000E+00  0.41529040723E+03  0.41529040724E+03  0.25500000000E-02 0. -1.
          2   -1    0    0  501    0  0.00000000000E+00 -0.00000000000E+00 -0.94257168141E+02  0.94257168175E+02  0.25500000000E-02 0.  1.
    5000001    1    1    2    0    0  0.17028224740E+03  0.57071977569E+02  0.20045346645E+03  0.27993543294E+03  0.77000000000E+02 0.  0.
   -5000001    1    1    2    0    0 -0.17028224740E+03 -0.57071977569E+02  0.12057977264E+03  0.22961214247E+03  0.77000000000E+02 0.  0.
<mgrwt>
<rscale>  0 0.39569735E+03</rscale>
<asrwt>0</asrwt>
<pdfrwt beam="1">  1        2 0.14501103E-01 0.39569735E+03</pdfrwt>
<pdfrwt beam="2">  1       -2 0.63890832E-01 0.39569735E+03</pdfrwt>
<totfact> 0.94713926E+02</totfact>
</mgrwt>
</event>
<event>
 4    1  0.6207184E-004  0.2209938E+03  0.7818608E-02  0.1133144E+00
         -2   -1    0    0    0  501 -0.00000000000E+00  0.00000000000E+00  0.98004062599E+01  0.98004065917E+01  0.25500000000E-02 0. -1.
          2   -1    0    0  501    0  0.00000000000E+00 -0.00000000000E+00 -0.12458227512E+04  0.12458227512E+04  0.25500000000E-02 0.  1.
    5000001    1    1    2    0    0 -0.50878976877E+01 -0.70560688230E+02 -0.82095819354E+03  0.82759051044E+03  0.77000000000E+02 0.  0.
   -5000001    1    1    2    0    0  0.50878976877E+01  0.70560688230E+02 -0.41506415143E+03  0.42803264739E+03  0.77000000000E+02 0.  0.
<mgrwt>
<rscale>  0 0.22099384E+03</rscale>
<asrwt>0</asrwt>
<pdfrwt beam="1">  1        2 0.19166491E+00 0.22099384E+03</pdfrwt>
<pdfrwt beam="2">  1       -2 0.15077558E-02 0.22099384E+03</pdfrwt>
<totfact> 0.21768710E+04</totfact>
</mgrwt>
</event>
<event>
 4    1  0.6207184E-004  0.2352446E+03  0.7818608E-02  0.1123002E+00
         -2   -1    0    0    0  501 -0.00000000000E+00  0.00000000000E+00  0.15079211861E+03  0.15079211863E+03  0.25500000000E-02 0. -1.
          2   -1    0    0  501    0  0.00000000000E+00 -0.00000000000E+00 -0.91748840134E+02  0.91748840170E+02  0.25500000000E-02 0.  1.
    5000001    1    1    2    0    0 -0.19054696333E+02  0.73352138673E+02 -0.18422101946E+02  0.10959923148E+03  0.77000000000E+02 0.  0.
   -5000001    1    1    2    0    0  0.19054696333E+02 -0.73352138673E+02  0.77465380422E+02  0.13294172732E+03  0.77000000000E+02 0.  0.
<mgrwt>
<rscale>  0 0.23524457E+03</rscale>
<asrwt>0</asrwt>
<pdfrwt beam="1">  1        2 0.14115206E-01 0.23524457E+03</pdfrwt>
<pdfrwt beam="2">  1       -2 0.23198788E-01 0.23524457E+03</pdfrwt>
<totfact> 0.66873480E+03</totfact>
</mgrwt>
</event>
<event>
 4    1  0.6207184E-004  0.2059234E+03  0.7818608E-02  0.1144836E+00
          2   -1    0    0  501    0  0.00000000000E+00  0.00000000000E+00  0.15528984321E+03  0.15528984323E+03  0.25500000000E-02 0.  1.
         -2   -1    0    0    0  501 -0.00000000000E+00 -0.00000000000E+00 -0.68266604309E+02  0.68266604356E+02  0.25500000000E-02 0. -1.
    5000001    1    1    2    0    0 -0.55728847265E+02  0.38068915229E+02  0.31760538637E+02  0.10720391102E+03  0.77000000000E+02 0.  0.
   -5000001    1    1    2    0    0  0.55728847265E+02 -0.38068915229E+02  0.55262700264E+02  0.11635253656E+03  0.77000000000E+02 0.  0.
<mgrwt>
<rscale>  0 0.20592339E+03</rscale>
<asrwt>0</asrwt>
<pdfrwt beam="1">  1        2 0.23890745E-01 0.20592339E+03</pdfrwt>
<pdfrwt beam="2">  1       -2 0.10502555E-01 0.20592339E+03</pdfrwt>
<totfact> 0.13454960E+04</totfact>
</mgrwt>
</event>
<event>
 4    1  0.6207184E-004  0.2264462E+03  0.7818608E-02  0.1129166E+00
          2   -1    0    0  501    0  0.00000000000E+00  0.00000000000E+00  0.15730325488E+03  0.15730325490E+03  0.25500000000E-02 0.  1.
         -2   -1    0    0    0  501 -0.00000000000E+00 -0.00000000000E+00 -0.81495297570E+02  0.81495297610E+02  0.25500000000E-02 0. -1.
    5000001    1    1    2    0    0  0.76128758410E+02 -0.24112024867E+02  0.61800568582E+02  0.12698538450E+03  0.77000000000E+02 0.  0.
   -5000001    1    1    2    0    0 -0.76128758410E+02  0.24112024867E+02  0.14007388724E+02  0.11181316800E+03  0.77000000000E+02 0.  0.
<mgrwt>
<rscale>  0 0.22644625E+03</rscale>
<asrwt>0</asrwt>
<pdfrwt beam="1">  1        2 0.24200501E-01 0.22644625E+03</pdfrwt>
<pdfrwt beam="2">  1       -2 0.12537738E-01 0.22644625E+03</pdfrwt>
<totfact> 0.10043791E+04</totfact>
</mgrwt>
</event>
<event>
 4    1  0.6207184E-004  0.2089821E+03  0.7818608E-02  0.1142375E+00
          2   -1    0    0  501    0  0.00000000000E+00  0.00000000000E+00  0.57721596372E+03  0.57721596372E+03  0.25500000000E-02 0.  1.
         -2   -1    0    0    0  501 -0.00000000000E+00 -0.00000000000E+00 -0.18915593205E+02  0.18915593377E+02  0.25500000000E-02 0. -1.
    5000001    1    1    2    0    0 -0.42387738812E+02  0.54009157902E+02  0.23178819064E+03  0.25370942998E+03  0.77000000000E+02 0.  0.
   -5000001    1    1    2    0    0  0.42387738812E+02 -0.54009157902E+02  0.32651217987E+03  0.34242212712E+03  0.77000000000E+02 0.  0.
<mgrwt>
<rscale>  0 0.20898213E+03</rscale>
<asrwt>0</asrwt>
<pdfrwt beam="1">  1        2 0.88802449E-01 0.20898213E+03</pdfrwt>
<pdfrwt beam="2">  1       -2 0.29100915E-02 0.20898213E+03</pdfrwt>
<totfact> 0.22814304E+04</totfact>
</mgrwt>
</event>
<event>
 4    1  0.6207184E-004  0.2899603E+03  0.7818608E-02  0.1090370E+00
          2   -1    0    0  501    0  0.00000000000E+00  0.00000000000E+00  0.31420481540E+02  0.31420481644E+02  0.25500000000E-02 0.  1.
         -2   -1    0    0    0  501 -0.00000000000E+00 -0.00000000000E+00 -0.66896642612E+03  0.66896642613E+03  0.25500000000E-02 0. -1.
    5000001    1    1    2    0    0  0.12157103364E+03  0.96956753283E+01 -0.35433232856E+03  0.38256231049E+03  0.77000000000E+02 0.  0.
   -5000001    1    1    2    0    0 -0.12157103364E+03 -0.96956753283E+01 -0.28321361602E+03  0.31782459729E+03  0.77000000000E+02 0.  0.
<mgrwt>
<rscale>  0 0.28996032E+03</rscale>
<asrwt>0</asrwt>
<pdfrwt beam="1">  1        2 0.48339207E-02 0.28996032E+03</pdfrwt>
<pdfrwt beam="2">  1       -2 0.10291790E+00 0.28996032E+03</pdfrwt>
<totfact> 0.13197858E+03</totfact>
</mgrwt>
</event>
<event>
 4    1  0.6207184E-004  0.2227164E+03  0.7818608E-02  0.1131874E+00
         -2   -1    0    0    0  501 -0.00000000000E+00  0.00000000000E+00  0.25061787959E+03  0.25061787961E+03  0.25500000000E-02 0. -1.
          2   -1    0    0  501    0  0.00000000000E+00 -0.00000000000E+00 -0.49480298235E+02  0.49480298301E+02  0.25500000000E-02 0.  1.
    5000001    1    1    2    0    0  0.68344020526E+02  0.40510846406E+02  0.83545396515E+02  0.13863934181E+03  0.77000000000E+02 0.  0.
   -5000001    1    1    2    0    0 -0.68344020526E+02 -0.40510846406E+02  0.11759218484E+03  0.16145883610E+03  0.77000000000E+02 0.  0.
<mgrwt>
<rscale>  0 0.22271639E+03</rscale>
<asrwt>0</asrwt>
<pdfrwt beam="1">  1        2 0.76123534E-02 0.22271639E+03</pdfrwt>
<pdfrwt beam="2">  1       -2 0.38556598E-01 0.22271639E+03</pdfrwt>
<totfact> 0.56865494E+03</totfact>
</mgrwt>
</event>
<event>
 4    1  0.6207184E-004  0.4057458E+03  0.7818608E-02  0.1041808E+00
         -2   -1    0    0    0  501 -0.00000000000E+00  0.00000000000E+00  0.65329183449E+02  0.65329183498E+02  0.25500000000E-02 0. -1.
          2   -1    0    0  501    0  0.00000000000E+00 -0.00000000000E+00 -0.63000050885E+03  0.63000050886E+03  0.25500000000E-02 0.  1.
    5000001    1    1    2    0    0 -0.17689725292E+03  0.59813971811E+02 -0.24990764574E+03  0.32133032959E+03  0.77000000000E+02 0.  0.
   -5000001    1    1    2    0    0  0.17689725292E+03 -0.59813971811E+02 -0.31476367967E+03  0.37399936277E+03  0.77000000000E+02 0.  0.
<mgrwt>
<rscale>  0 0.40574583E+03</rscale>
<asrwt>0</asrwt>
<pdfrwt beam="1">  1        2 0.96923151E-01 0.40574583E+03</pdfrwt>
<pdfrwt beam="2">  1       -2 0.10050644E-01 0.40574583E+03</pdfrwt>
<totfact> 0.31531075E+03</totfact>
</mgrwt>
</event>
<event>
 4    1  0.6207184E-004  0.2076550E+03  0.7818608E-02  0.1143437E+00
          2   -1    0    0  501    0  0.00000000000E+00  0.00000000000E+00  0.39420285419E+03  0.39420285420E+03  0.25500000000E-02 0.  1.
         -2   -1    0    0    0  501 -0.00000000000E+00 -0.00000000000E+00 -0.27346715809E+02  0.27346715928E+02  0.25500000000E-02 0. -1.
    5000001    1    1    2    0    0 -0.93823723833E+01 -0.46819850634E+02  0.28636220639E+03  0.30035385893E+03  0.77000000000E+02 0.  0.
   -5000001    1    1    2    0    0  0.93823723833E+01  0.46819850634E+02  0.80493931984E+02  0.12119571119E+03  0.77000000000E+02 0.  0.
<mgrwt>
<rscale>  0 0.20765504E+03</rscale>
<asrwt>0</asrwt>
<pdfrwt beam="1">  1        2 0.60646591E-01 0.20765504E+03</pdfrwt>
<pdfrwt beam="2">  1       -2 0.42071872E-02 0.20765504E+03</pdfrwt>
<totfact> 0.20074513E+04</totfact>
</mgrwt>
</event>
<event>
 4    1  0.6207184E-004  0.2475029E+03  0.7818608E-02  0.1114893E+00
         -2   -1    0    0    0  501 -0.00000000000E+00  0.00000000000E+00  0.28819868806E+02  0.28819868919E+02  0.25500000000E-02 0. -1.
          2   -1    0    0  501    0  0.00000000000E+00 -0.00000000000E+00 -0.53138410076E+03  0.53138410076E+03  0.25500000000E-02 0.  1.
    5000001    1    1    2    0    0  0.82994463498E+02  0.45626370625E+02 -0.20514081907E+03  0.23870819491E+03  0.77000000000E+02 0.  0.
   -5000001    1    1    2    0    0 -0.82994463498E+02 -0.45626370625E+02 -0.29742341288E+03  0.32149577477E+03  0.77000000000E+02 0.  0.
<mgrwt>
<rscale>  0 0.24750289E+03</rscale>
<asrwt>0</asrwt>
<pdfrwt beam="1">  1        2 0.81751393E-01 0.24750289E+03</pdfrwt>
<pdfrwt beam="2">  1       -2 0.44338264E-02 0.24750289E+03</pdfrwt>
<totfact> 0.13494789E+04</totfact>
</mgrwt>
</event>
<event>
 4    1  0.6207184E-004  0.2570536E+03  0.7818608E-02  0.1108927E+00
         -2   -1    0    0    0  501 -0.00000000000E+00  0.00000000000E+00  0.95768632326E+01  0.95768635721E+01  0.25500000000E-02 0. -1.
          2   -1    0    0  501    0  0.00000000000E+00 -0.00000000000E+00 -0.17249003182E+04  0.17249003182E+04  0.25500000000E-02 0.  1.
    5000001    1    1    2    0    0  0.13201649384E+02 -0.73052920142E+02 -0.13385445585E+04  0.13428110618E+04  0.77000000000E+02 0.  0.
   -5000001    1    1    2    0    0 -0.13201649384E+02  0.73052920142E+02 -0.37677889648E+03  0.39166611996E+03  0.77000000000E+02 0.  0.
<mgrwt>
<rscale>  0 0.25705357E+03</rscale>
<asrwt>0</asrwt>
<pdfrwt beam="1">  1        2 0.26536903E+00 0.25705357E+03</pdfrwt>
<pdfrwt beam="2">  1       -2 0.14733650E-02 0.25705357E+03</pdfrwt>
<totfact> 0.12532108E+04</totfact>
</mgrwt>
</event>
<event>
 4    1  0.6207184E-004  0.2958757E+03  0.7818608E-02  0.1087321E+00
          2   -1    0    0  501    0  0.00000000000E+00  0.00000000000E+00  0.32952886682E+02  0.32952886781E+02  0.25500000000E-02 0.  1.
         -2   -1    0    0    0  501 -0.00000000000E+00 -0.00000000000E+00 -0.66414826772E+03  0.66414826772E+03  0.25500000000E-02 0. -1.
    5000001    1    1    2    0    0 -0.54389649067E+02  0.10522990625E+03 -0.21222497424E+03  0.25495098899E+03  0.77000000000E+02 0.  0.
   -5000001    1    1    2    0    0  0.54389649067E+02 -0.10522990625E+03 -0.41897040679E+03  0.44215016551E+03  0.77000000000E+02 0.  0.
<mgrwt>
<rscale>  0 0.29587567E+03</rscale>
<asrwt>0</asrwt>
<pdfrwt beam="1">  1        2 0.50696754E-02 0.29587567E+03</pdfrwt>
<pdfrwt beam="2">  1       -2 0.10217665E+00 0.29587567E+03</pdfrwt>
<totfact> 0.12607531E+03</totfact>
</mgrwt>
</event>
<event>
 4    1  0.6207184E-004  0.4225576E+03  0.7818608E-02  0.1036237E+00
          2   -1    0    0  501    0  0.00000000000E+00  0.00000000000E+00  0.61279871523E+03  0.61279871523E+03  0.25500000000E-02 0.  1.
         -2   -1    0    0    0  501 -0.00000000000E+00 -0.00000000000E+00 -0.72844044860E+02  0.72844044904E+02  0.25500000000E-02 0. -1.
    5000001    1    1    2    0    0 -0.97903087493E+02 -0.13708468266E+03  0.43491312933E+03  0.47271096330E+03  0.77000000000E+02 0.  0.
   -5000001    1    1    2    0    0  0.97903087493E+02  0.13708468266E+03  0.10504154104E+03  0.21293179684E+03  0.77000000000E+02 0.  0.
<mgrwt>
<rscale>  0 0.42255763E+03</rscale>
<asrwt>0</asrwt>
<pdfrwt beam="1">  1        2 0.94276722E-01 0.42255763E+03</pdfrwt>
<pdfrwt beam="2">  1       -2 0.11206777E-01 0.42255763E+03</pdfrwt>
<totfact> 0.27345809E+03</totfact>
</mgrwt>
</event>
<event>
 4    1  0.6207184E-004  0.1868983E+03  0.7818608E-02  0.1161289E+00
         -2   -1    0    0    0  501 -0.00000000000E+00  0.00000000000E+00  0.18936747612E+02  0.18936747783E+02  0.25500000000E-02 0. -1.
          2   -1    0    0  501    0  0.00000000000E+00 -0.00000000000E+00 -0.46115338272E+03  0.46115338273E+03  0.25500000000E-02 0.  1.
    5000001    1    1    2    0    0 -0.91019847174E+01 -0.51713810763E+02 -0.23863991062E+03  0.25619362071E+03  0.77000000000E+02 0.  0.
   -5000001    1    1    2    0    0  0.91019847174E+01  0.51713810763E+02 -0.20357672449E+03  0.22389650980E+03  0.77000000000E+02 0.  0.
<mgrwt>
<rscale>  0 0.18689832E+03</rscale>
<asrwt>0</asrwt>
<pdfrwt beam="1">  1        2 0.70946666E-01 0.18689832E+03</pdfrwt>
<pdfrwt beam="2">  1       -2 0.29133462E-02 0.18689832E+03</pdfrwt>
<totfact> 0.29022739E+04</totfact>
</mgrwt>
</event>
<event>
 4    1  0.6207184E-004  0.1842999E+03  0.7818608E-02  0.1163705E+00
          2   -1    0    0  501    0  0.00000000000E+00  0.00000000000E+00  0.41217734194E+02  0.41217734273E+02  0.25500000000E-02 0.  1.
         -2   -1    0    0    0  501 -0.00000000000E+00 -0.00000000000E+00 -0.20601843424E+03  0.20601843425E+03  0.25500000000E-02 0. -1.
    5000001    1    1    2    0    0 -0.20715237759E+02 -0.46028308149E+02 -0.87576278543E+02  0.12706821314E+03  0.77000000000E+02 0.  0.
   -5000001    1    1    2    0    0  0.20715237759E+02  0.46028308149E+02 -0.77224421501E+02  0.12016795539E+03  0.77000000000E+02 0.  0.
<mgrwt>
<rscale>  0 0.18429990E+03</rscale>
<asrwt>0</asrwt>
<pdfrwt beam="1">  1        2 0.63411900E-02 0.18429990E+03</pdfrwt>
<pdfrwt beam="2">  1       -2 0.31695143E-01 0.18429990E+03</pdfrwt>
<totfact> 0.10217546E+04</totfact>
</mgrwt>
</event>
<event>
 4    1  0.6207184E-004  0.2095589E+03  0.7818608E-02  0.1141916E+00
          2   -1    0    0  501    0  0.00000000000E+00  0.00000000000E+00  0.15290542303E+02  0.15290542515E+02  0.25500000000E-02 0.  1.
         -2   -1    0    0    0  501 -0.00000000000E+00 -0.00000000000E+00 -0.71800812527E+03  0.71800812528E+03  0.25500000000E-02 0. -1.
    5000001    1    1    2    0    0 -0.14523582665E+02  0.63600062232E+02 -0.25276742392E+03  0.27216956657E+03  0.77000000000E+02 0.  0.
   -5000001    1    1    2    0    0  0.14523582665E+02 -0.63600062232E+02 -0.44995015905E+03  0.46112910123E+03  0.77000000000E+02 0.  0.
<mgrwt>
<rscale>  0 0.20955891E+03</rscale>
<asrwt>0</asrwt>
<pdfrwt beam="1">  1        2 0.23523917E-02 0.20955891E+03</pdfrwt>
<pdfrwt beam="2">  1       -2 0.11046276E+00 0.20955891E+03</pdfrwt>
<totfact> 0.29173611E+03</totfact>
</mgrwt>
</event>
<event>
 4    1  0.6207184E-004  0.2021158E+03  0.7818608E-02  0.1147966E+00
         -2   -1    0    0    0  501 -0.00000000000E+00  0.00000000000E+00  0.62659088682E+02  0.62659088733E+02  0.25500000000E-02 0. -1.
          2   -1    0    0  501    0  0.00000000000E+00 -0.00000000000E+00 -0.16298829410E+03  0.16298829412E+03  0.25500000000E-02 0.  1.
    5000001    1    1    2    0    0 -0.52369851061E+02  0.31655602742E+02 -0.24244763808E+02  0.10129899830E+03  0.77000000000E+02 0.  0.
   -5000001    1    1    2    0    0  0.52369851061E+02 -0.31655602742E+02 -0.76084441610E+02  0.12434838455E+03  0.77000000000E+02 0.  0.
<mgrwt>
<rscale>  0 0.20211579E+03</rscale>
<asrwt>0</asrwt>
<pdfrwt beam="1">  1        2 0.25075122E-01 0.20211579E+03</pdfrwt>
<pdfrwt beam="2">  1       -2 0.96398599E-02 0.20211579E+03</pdfrwt>
<totfact> 0.14583062E+04</totfact>
</mgrwt>
</event>
<event>
 4    1  0.6207184E-004  0.2586818E+03  0.7818608E-02  0.1107938E+00
         -2   -1    0    0    0  501 -0.00000000000E+00  0.00000000000E+00  0.73128338955E+02  0.73128338999E+02  0.25500000000E-02 0. -1.
          2   -1    0    0  501    0  0.00000000000E+00 -0.00000000000E+00 -0.22876307412E+03  0.22876307413E+03  0.25500000000E-02 0.  1.
    5000001    1    1    2    0    0 -0.98673231016E+02 -0.31942107637E+02 -0.70132720185E+02  0.14698402362E+03  0.77000000000E+02 0.  0.
   -5000001    1    1    2    0    0  0.98673231016E+02  0.31942107637E+02 -0.85502014978E+02  0.15490738951E+03  0.77000000000E+02 0.  0.
<mgrwt>
<rscale>  0 0.25868176E+03</rscale>
<asrwt>0</asrwt>
<pdfrwt beam="1">  1        2 0.35194319E-01 0.25868176E+03</pdfrwt>
<pdfrwt beam="2">  1       -2 0.11250514E-01 0.25868176E+03</pdfrwt>
<totfact> 0.79751509E+03</totfact>
</mgrwt>
</event>
<event>
 4    1  0.6207184E-004  0.2421533E+03  0.7818608E-02  0.1118367E+00
         -2   -1    0    0    0  501 -0.00000000000E+00  0.00000000000E+00  0.89242380098E+02  0.89242380135E+02  0.25500000000E-02 0.  1.
          2   -1    0    0  501    0  0.00000000000E+00 -0.00000000000E+00 -0.16426668122E+03  0.16426668124E+03  0.25500000000E-02 0. -1.
    5000001    1    1    2    0    0  0.19333937345E+02 -0.91376914189E+02 -0.34740738180E+02  0.12593434984E+03  0.77000000000E+02 0.  0.
   -5000001    1    1    2    0    0 -0.19333937345E+02  0.91376914189E+02 -0.40283562941E+02  0.12757471153E+03  0.77000000000E+02 0.  0.
<mgrwt>
<rscale>  0 0.24215325E+03</rscale>
<asrwt>0</asrwt>
<pdfrwt beam="1">  1        2 0.25271797E-01 0.24215325E+03</pdfrwt>
<pdfrwt beam="2">  1       -2 0.13729597E-01 0.24215325E+03</pdfrwt>
<totfact> 0.82855326E+03</totfact>
</mgrwt>
</event>
<event>
 4    1  0.6207184E-004  0.2896743E+03  0.7818608E-02  0.1090519E+00
         -2   -1    0    0    0  501 -0.00000000000E+00  0.00000000000E+00  0.41973495274E+02  0.41973495352E+02  0.25500000000E-02 0. -1.
          2   -1    0    0  501    0  0.00000000000E+00 -0.00000000000E+00 -0.49978676363E+03  0.49978676363E+03  0.25500000000E-02 0.  1.
    5000001    1    1    2    0    0 -0.81042908390E+02  0.43592523676E+02 -0.77191869243E+02  0.14267391422E+03  0.77000000000E+02 0.  0.
   -5000001    1    1    2    0    0  0.81042908390E+02 -0.43592523676E+02 -0.38062139911E+03  0.39908634477E+03  0.77000000000E+02 0.  0.
<mgrwt>
<rscale>  0 0.28967428E+03</rscale>
<asrwt>0</asrwt>
<pdfrwt beam="1">  1        2 0.76890267E-01 0.28967428E+03</pdfrwt>
<pdfrwt beam="2">  1       -2 0.64574612E-02 0.28967428E+03</pdfrwt>
<totfact> 0.82022580E+03</totfact>
</mgrwt>
</event>
<event>
 4    1  0.6207184E-004  0.3272523E+03  0.7818608E-02  0.1072359E+00
         -2   -1    0    0    0  501 -0.00000000000E+00  0.00000000000E+00  0.22186045600E+02  0.22186045746E+02  0.25500000000E-02 0. -1.
          2   -1    0    0  501    0  0.00000000000E+00 -0.00000000000E+00 -0.12067728777E+04  0.12067728777E+04  0.25500000000E-02 0.  1.
    5000001    1    1    2    0    0  0.13811763150E+03  0.33993770042E+02 -0.49935524947E+03  0.52489686768E+03  0.77000000000E+02 0.  0.
   -5000001    1    1    2    0    0 -0.13811763150E+03 -0.33993770042E+02 -0.68523158264E+03  0.70406205577E+03  0.77000000000E+02 0.  0.
<mgrwt>
<rscale>  0 0.32725231E+03</rscale>
<asrwt>0</asrwt>
<pdfrwt beam="1">  1        2 0.18565731E+00 0.32725231E+03</pdfrwt>
<pdfrwt beam="2">  1       -2 0.34132387E-02 0.32725231E+03</pdfrwt>
<totfact> 0.69348059E+03</totfact>
</mgrwt>
</event>
<event>
 4    1  0.6207184E-004  0.1981781E+03  0.7818608E-02  0.1151285E+00
          2   -1    0    0  501    0  0.00000000000E+00  0.00000000000E+00  0.27309159864E+03  0.27309159866E+03  0.25500000000E-02 0.  1.
         -2   -1    0    0    0  501 -0.00000000000E+00 -0.00000000000E+00 -0.35953638528E+02  0.35953638618E+02  0.25500000000E-02 0. -1.
    5000001    1    1    2    0    0 -0.38874350582E+02 -0.48761263785E+02  0.11720890917E+03  0.15347900302E+03  0.77000000000E+02 0.  0.
   -5000001    1    1    2    0    0  0.38874350582E+02  0.48761263785E+02  0.11992905095E+03  0.15556623425E+03  0.77000000000E+02 0.  0.
<mgrwt>
<rscale>  0 0.19817807E+03</rscale>
<asrwt>0</asrwt>
<pdfrwt beam="1">  1        2 0.42014089E-01 0.19817807E+03</pdfrwt>
<pdfrwt beam="2">  1       -2 0.55313294E-02 0.19817807E+03</pdfrwt>
<totfact> 0.19616470E+04</totfact>
</mgrwt>
</event>
<event>
 4    1  0.6207184E-004  0.2578638E+03  0.7818608E-02  0.1108434E+00
          2   -1    0    0  501    0  0.00000000000E+00  0.00000000000E+00  0.42583482126E+02  0.42583482202E+02  0.25500000000E-02 0.  1.
         -2   -1    0    0    0  501 -0.00000000000E+00 -0.00000000000E+00 -0.39037270309E+03  0.39037270310E+03  0.25500000000E-02 0. -1.
    5000001    1    1    2    0    0  0.66786858963E+02  0.60704290241E+02 -0.25866280084E+03  0.28457150230E+03  0.77000000000E+02 0.  0.
   -5000001    1    1    2    0    0 -0.66786858963E+02 -0.60704290241E+02 -0.89126420119E+02  0.14838468299E+03  0.77000000000E+02 0.  0.
<mgrwt>
<rscale>  0 0.25786376E+03</rscale>
<asrwt>0</asrwt>
<pdfrwt beam="1">  1        2 0.65513052E-02 0.25786376E+03</pdfrwt>
<pdfrwt beam="2">  1       -2 0.60057337E-01 0.25786376E+03</pdfrwt>
<totfact> 0.28877453E+03</totfact>
</mgrwt>
</event>
<event>
 4    1  0.6207184E-004  0.1599409E+03  0.7818608E-02  0.1188763E+00
         -2   -1    0    0    0  501 -0.00000000000E+00  0.00000000000E+00  0.21981010269E+01  0.21981025060E+01  0.25500000000E-02 0. -1.
          2   -1    0    0  501    0  0.00000000000E+00 -0.00000000000E+00 -0.29094538763E+04  0.29094538763E+04  0.25500000000E-02 0.  1.
    5000001    1    1    2    0    0  0.21152650833E+02  0.42270243092E+01 -0.14356676808E+04  0.14378929001E+04  0.77000000000E+02 0.  0.
   -5000001    1    1    2    0    0 -0.21152650833E+02 -0.42270243092E+01 -0.14715880944E+04  0.14737590787E+04  0.77000000000E+02 0.  0.
<mgrwt>
<rscale>  0 0.15994094E+03</rscale>
<asrwt>0</asrwt>
<pdfrwt beam="1">  1        2 0.44760521E+00 0.15994094E+03</pdfrwt>
<pdfrwt beam="2">  1       -2 0.33817183E-03 0.15994094E+03</pdfrwt>
<totfact> 0.23658593E+04</totfact>
</mgrwt>
</event>
<event>
 4    1  0.6207184E-004  0.3308228E+03  0.7818608E-02  0.1070773E+00
         -2   -1    0    0    0  501 -0.00000000000E+00  0.00000000000E+00  0.16724042333E+02  0.16724042527E+02  0.25500000000E-02 0. -1.
          2   -1    0    0  501    0  0.00000000000E+00 -0.00000000000E+00 -0.16360238194E+04  0.16360238194E+04  0.25500000000E-02 0.  1.
    5000001    1    1    2    0    0 -0.14513753042E+00  0.10273915587E+03 -0.13306733471E+04  0.13368529881E+04  0.77000000000E+02 0.  0.
   -5000001    1    1    2    0    0  0.14513753042E+00 -0.10273915587E+03 -0.28862643003E+03  0.31589487386E+03  0.77000000000E+02 0.  0.
<mgrwt>
<rscale>  0 0.33082280E+03</rscale>
<asrwt>0</asrwt>
<pdfrwt beam="1">  1        2 0.25169584E+00 0.33082280E+03</pdfrwt>
<pdfrwt beam="2">  1       -2 0.25729309E-02 0.33082280E+03</pdfrwt>
<totfact> 0.61606876E+03</totfact>
</mgrwt>
</event>
<event>
 4    1  0.6207184E-004  0.1819886E+03  0.7818608E-02  0.1165892E+00
          2   -1    0    0  501    0  0.00000000000E+00  0.00000000000E+00  0.22726117564E+04  0.22726117564E+04  0.25500000000E-02 0.  1.
         -2   -1    0    0    0  501 -0.00000000000E+00 -0.00000000000E+00 -0.36433675847E+01  0.36433684770E+01  0.25500000000E-02 0. -1.
    5000001    1    1    2    0    0 -0.47290529354E+02  0.10616337814E+02  0.11174249466E+04  0.11211229246E+04  0.77000000000E+02 0.  0.
   -5000001    1    1    2    0    0  0.47290529354E+02 -0.10616337814E+02  0.11515434422E+04  0.11551322003E+04  0.77000000000E+02 0.  0.
<mgrwt>
<rscale>  0 0.18198858E+03</rscale>
<asrwt>0</asrwt>
<pdfrwt beam="1">  1        2 0.34963214E+00 0.18198858E+03</pdfrwt>
<pdfrwt beam="2">  1       -2 0.56051885E-03 0.18198858E+03</pdfrwt>
<totfact> 0.25845078E+04</totfact>
</mgrwt>
</event>
<event>
 4    1  0.6207184E-004  0.3391909E+03  0.7818608E-02  0.1067141E+00
         -2   -1    0    0    0  501 -0.00000000000E+00  0.00000000000E+00  0.13079239914E+04  0.13079239914E+04  0.25500000000E-02 0. -1.
          2   -1    0    0  501    0  0.00000000000E+00 -0.00000000000E+00 -0.21991039881E+02  0.21991040029E+02  0.25500000000E-02 0.  1.
    5000001    1    1    2    0    0 -0.31188057451E+02 -0.14656593910E+03  0.56660159190E+03  0.59111812134E+03  0.77000000000E+02 0.  0.
   -5000001    1    1    2    0    0  0.31188057451E+02  0.14656593910E+03  0.71933135959E+03  0.73879691006E+03  0.77000000000E+02 0.  0.
<mgrwt>
<rscale>  0 0.33919085E+03</rscale>
<asrwt>0</asrwt>
<pdfrwt beam="1">  1        2 0.33832357E-02 0.33919085E+03</pdfrwt>
<pdfrwt beam="2">  1       -2 0.20121915E+00 0.33919085E+03</pdfrwt>
<totfact> 0.37735136E+02</totfact>
</mgrwt>
</event>
<event>
 4    1  0.6207184E-004  0.5111063E+03  0.7818608E-02  0.1010920E+00
          2   -1    0    0  501    0  0.00000000000E+00  0.00000000000E+00  0.72399617505E+02  0.72399617550E+02  0.25500000000E-02 0.  1.
         -2   -1    0    0    0  501 -0.00000000000E+00 -0.00000000000E+00 -0.90204090192E+03  0.90204090193E+03  0.25500000000E-02 0. -1.
    5000001    1    1    2    0    0  0.14707478038E+03  0.13728677228E+03 -0.15271744553E+03  0.26406489171E+03  0.77000000000E+02 0.  0.
   -5000001    1    1    2    0    0 -0.14707478038E+03 -0.13728677228E+03 -0.67692383889E+03  0.71037562777E+03  0.77000000000E+02 0.  0.
<mgrwt>
<rscale>  0 0.51110631E+03</rscale>
<asrwt>0</asrwt>
<pdfrwt beam="1">  1        2 0.11138403E-01 0.51110631E+03</pdfrwt>
<pdfrwt beam="2">  1       -2 0.13877552E+00 0.51110631E+03</pdfrwt>
<totfact> 0.21646155E+02</totfact>
</mgrwt>
</event>
<event>
 4    1  0.6207184E-004  0.4098434E+03  0.7818608E-02  0.1040424E+00
          2   -1    0    0  501    0  0.00000000000E+00  0.00000000000E+00  0.27545500419E+03  0.27545500420E+03  0.25500000000E-02 0.  1.
         -2   -1    0    0    0  501 -0.00000000000E+00 -0.00000000000E+00 -0.15244921643E+03  0.15244921645E+03  0.25500000000E-02 0. -1.
    5000001    1    1    2    0    0  0.17165456730E+03  0.51893428261E+02  0.12675237130E+03  0.23270879227E+03  0.77000000000E+02 0.  0.
   -5000001    1    1    2    0    0 -0.17165456730E+03 -0.51893428261E+02 -0.37465835339E+01  0.19519542838E+03  0.77000000000E+02 0.  0.
<mgrwt>
<rscale>  0 0.40984338E+03</rscale>
<asrwt>0</asrwt>
<pdfrwt beam="1">  1        2 0.42377693E-01 0.40984338E+03</pdfrwt>
<pdfrwt beam="2">  1       -2 0.23453726E-01 0.40984338E+03</pdfrwt>
<totfact> 0.19230466E+03</totfact>
</mgrwt>
</event>
<event>
 4    1  0.6207184E-004  0.1979359E+03  0.7818608E-02  0.1151492E+00
          2   -1    0    0  501    0  0.00000000000E+00  0.00000000000E+00  0.10860452461E+03  0.10860452464E+03  0.25500000000E-02 0.  1.
         -2   -1    0    0    0  501 -0.00000000000E+00 -0.00000000000E+00 -0.90186473319E+02  0.90186473355E+02  0.25500000000E-02 0. -1.
    5000001    1    1    2    0    0  0.10448491720E+02 -0.61146155030E+02  0.13426668509E+02  0.99786264994E+02  0.77000000000E+02 0.  0.
   -5000001    1    1    2    0    0 -0.10448491720E+02  0.61146155030E+02  0.49913827784E+01  0.99004732999E+02  0.77000000000E+02 0.  0.
<mgrwt>
<rscale>  0 0.19793594E+03</rscale>
<asrwt>0</asrwt>
<pdfrwt beam="1">  1        2 0.16708388E-01 0.19793594E+03</pdfrwt>
<pdfrwt beam="2">  1       -2 0.13874842E-01 0.19793594E+03</pdfrwt>
<totfact> 0.12888076E+04</totfact>
</mgrwt>
</event>
<event>
 4    1  0.6207184E-004  0.3276256E+03  0.7818608E-02  0.1072192E+00
          2   -1    0    0  501    0  0.00000000000E+00  0.00000000000E+00  0.14803730165E+03  0.14803730167E+03  0.25500000000E-02 0.  1.
         -2   -1    0    0    0  501 -0.00000000000E+00 -0.00000000000E+00 -0.18126944979E+03  0.18126944981E+03  0.25500000000E-02 0. -1.
    5000001    1    1    2    0    0  0.65797027460E+01  0.14266792430E+03 -0.39275287478E+02  0.16694004109E+03  0.77000000000E+02 0.  0.
   -5000001    1    1    2    0    0 -0.65797027460E+01 -0.14266792430E+03  0.60431393389E+01  0.16236671039E+03  0.77000000000E+02 0.  0.
<mgrwt>
<rscale>  0 0.32762564E+03</rscale>
<asrwt>0</asrwt>
<pdfrwt beam="1">  1        2 0.22774970E-01 0.32762564E+03</pdfrwt>
<pdfrwt beam="2">  1       -2 0.27887608E-01 0.32762564E+03</pdfrwt>
<totfact> 0.27998806E+03</totfact>
</mgrwt>
</event>
<event>
 4    1  0.6207184E-004  0.2321326E+03  0.7818608E-02  0.1125148E+00
          2   -1    0    0  501    0  0.00000000000E+00  0.00000000000E+00  0.53395916292E+03  0.53395916293E+03  0.25500000000E-02 0.  1.
         -2   -1    0    0    0  501 -0.00000000000E+00 -0.00000000000E+00 -0.25229249074E+02  0.25229249203E+02  0.25500000000E-02 0. -1.
    5000001    1    1    2    0    0  0.75761869031E+02  0.24356194580E+02  0.17059473209E+03  0.20338300723E+03  0.77000000000E+02 0.  0.
   -5000001    1    1    2    0    0 -0.75761869031E+02 -0.24356194580E+02  0.33813518176E+03  0.35580540490E+03  0.77000000000E+02 0.  0.
<mgrwt>
<rscale>  0 0.23213262E+03</rscale>
<asrwt>0</asrwt>
<pdfrwt beam="1">  1        2 0.82147560E-01 0.23213262E+03</pdfrwt>
<pdfrwt beam="2">  1       -2 0.38814231E-02 0.23213262E+03</pdfrwt>
<totfact> 0.16338947E+04</totfact>
</mgrwt>
</event>
<event>
 4    1  0.6207184E-004  0.2502492E+03  0.7818608E-02  0.1113147E+00
         -2   -1    0    0    0  501 -0.00000000000E+00  0.00000000000E+00  0.12275731184E+03  0.12275731187E+03  0.25500000000E-02 0. -1.
          2   -1    0    0  501    0  0.00000000000E+00 -0.00000000000E+00 -0.12753757945E+03  0.12753757948E+03  0.25500000000E-02 0.  1.
    5000001    1    1    2    0    0 -0.73409531913E+02 -0.61920668787E+02  0.20064837544E+02  0.12471858845E+03  0.77000000000E+02 0.  0.
   -5000001    1    1    2    0    0  0.73409531913E+02  0.61920668787E+02 -0.24845105153E+02  0.12557630289E+03  0.77000000000E+02 0.  0.
<mgrwt>
<rscale>  0 0.25024924E+03</rscale>
<asrwt>0</asrwt>
<pdfrwt beam="1">  1        2 0.19621166E-01 0.25024924E+03</pdfrwt>
<pdfrwt beam="2">  1       -2 0.18885740E-01 0.25024924E+03</pdfrwt>
<totfact> 0.64982619E+03</totfact>
</mgrwt>
</event>
<event>
 4    1  0.6207184E-004  0.1678691E+03  0.7818608E-02  0.1180088E+00
         -2   -1    0    0    0  501 -0.00000000000E+00  0.00000000000E+00  0.10164741213E+02  0.10164741533E+02  0.25500000000E-02 0. -1.
          2   -1    0    0  501    0  0.00000000000E+00 -0.00000000000E+00 -0.69308267661E+03  0.69308267661E+03  0.25500000000E-02 0.  1.
    5000001    1    1    2    0    0 -0.10755077241E+02  0.31463840994E+02 -0.32797424034E+03  0.33852879834E+03  0.77000000000E+02 0.  0.
   -5000001    1    1    2    0    0  0.10755077241E+02 -0.31463840994E+02 -0.35494369505E+03  0.36471861980E+03  0.77000000000E+02 0.  0.
<mgrwt>
<rscale>  0 0.16786907E+03</rscale>
<asrwt>0</asrwt>
<pdfrwt beam="1">  1        2 0.10662807E+00 0.16786907E+03</pdfrwt>
<pdfrwt beam="2">  1       -2 0.15638069E-02 0.16786907E+03</pdfrwt>
<totfact> 0.44953095E+04</totfact>
</mgrwt>
</event>
<event>
 4    1  0.6207184E-004  0.2729943E+03  0.7818608E-02  0.1099578E+00
          2   -1    0    0  501    0  0.00000000000E+00  0.00000000000E+00  0.28953560110E+04  0.28953560110E+04  0.25500000000E-02 0.  1.
         -2   -1    0    0    0  501 -0.00000000000E+00 -0.00000000000E+00 -0.64349506056E+01  0.64349511109E+01  0.25500000000E-02 0. -1.
    5000001    1    1    2    0    0 -0.54557940119E+02 -0.90653952078E+02  0.10317177664E+04  0.10399832967E+04  0.77000000000E+02 0.  0.
   -5000001    1    1    2    0    0  0.54557940119E+02  0.90653952078E+02  0.18572032939E+04  0.18618076654E+04  0.77000000000E+02 0.  0.
<mgrwt>
<rscale>  0 0.27299431E+03</rscale>
<asrwt>0</asrwt>
<pdfrwt beam="1">  1        2 0.44543900E+00 0.27299431E+03</pdfrwt>
<pdfrwt beam="2">  1       -2 0.98999330E-03 0.27299431E+03</pdfrwt>
<totfact> 0.51936626E+03</totfact>
</mgrwt>
</event>
<event>
 4    1  0.6207184E-004  0.2089895E+03  0.7818608E-02  0.1142369E+00
          2   -1    0    0  501    0  0.00000000000E+00  0.00000000000E+00  0.18502712419E+04  0.18502712419E+04  0.25500000000E-02 0.  1.
         -2   -1    0    0    0  501 -0.00000000000E+00 -0.00000000000E+00 -0.59013773325E+01  0.59013778835E+01  0.25500000000E-02 0. -1.
    5000001    1    1    2    0    0  0.66555903200E+02  0.17388469392E+02  0.10648736992E+04  0.10698677686E+04  0.77000000000E+02 0.  0.
   -5000001    1    1    2    0    0 -0.66555903200E+02 -0.17388469392E+02  0.77949616543E+03  0.78630485121E+03  0.77000000000E+02 0.  0.
<mgrwt>
<rscale>  0 0.20898947E+03</rscale>
<asrwt>0</asrwt>
<pdfrwt beam="1">  1        2 0.28465726E+00 0.20898947E+03</pdfrwt>
<pdfrwt beam="2">  1       -2 0.90790380E-03 0.20898947E+03</pdfrwt>
<totfact> 0.21613003E+04</totfact>
</mgrwt>
</event>
<event>
 4    1  0.6207184E-004  0.1634834E+03  0.7818608E-02  0.1184819E+00
          2   -1    0    0  501    0  0.00000000000E+00  0.00000000000E+00  0.24189932916E+04  0.24189932916E+04  0.25500000000E-02 0.  1.
         -2   -1    0    0    0  501 -0.00000000000E+00 -0.00000000000E+00 -0.27621833475E+01  0.27621845245E+01  0.25500000000E-02 0. -1.
    5000001    1    1    2    0    0 -0.22651333646E+02 -0.89151030270E+01  0.10206550066E+04  0.10238448146E+04  0.77000000000E+02 0.  0.
   -5000001    1    1    2    0    0  0.22651333646E+02  0.89151030270E+01  0.13955761017E+04  0.13979106615E+04  0.77000000000E+02 0.  0.
<mgrwt>
<rscale>  0 0.16348339E+03</rscale>
<asrwt>0</asrwt>
<pdfrwt beam="1">  1        2 0.37215184E+00 0.16348339E+03</pdfrwt>
<pdfrwt beam="2">  1       -2 0.42495248E-03 0.16348339E+03</pdfrwt>
<totfact> 0.31910103E+04</totfact>
</mgrwt>
</event>
<event>
 4    1  0.6207184E-004  0.1994828E+03  0.7818608E-02  0.1150176E+00
         -2   -1    0    0    0  501 -0.00000000000E+00  0.00000000000E+00  0.64896248836E+01  0.64896253846E+01  0.25500000000E-02 0. -1.
          2   -1    0    0  501    0  0.00000000000E+00 -0.00000000000E+00 -0.15329616745E+04  0.15329616745E+04  0.25500000000E-02 0.  1.
    5000001    1    1    2    0    0 -0.42688705635E+02 -0.45247252155E+02 -0.66881214369E+03  0.67609786493E+03  0.77000000000E+02 0.  0.
   -5000001    1    1    2    0    0  0.42688705635E+02  0.45247252155E+02 -0.85765990588E+03  0.86335343491E+03  0.77000000000E+02 0.  0.
<mgrwt>
<rscale>  0 0.19948280E+03</rscale>
<asrwt>0</asrwt>
<pdfrwt beam="1">  1        2 0.23583997E+00 0.19948280E+03</pdfrwt>
<pdfrwt beam="2">  1       -2 0.99840509E-03 0.19948280E+03</pdfrwt>
<totfact> 0.27533461E+04</totfact>
</mgrwt>
</event>
<event>
 4    1  0.6207184E-004  0.3071159E+03  0.7818608E-02  0.1081737E+00
          2   -1    0    0  501    0  0.00000000000E+00  0.00000000000E+00  0.18364712645E+04  0.18364712645E+04  0.25500000000E-02 0.  1.
         -2   -1    0    0    0  501 -0.00000000000E+00 -0.00000000000E+00 -0.12839863153E+02  0.12839863407E+02  0.25500000000E-02 0. -1.
    5000001    1    1    2    0    0 -0.42705835723E+01  0.68404185646E+02  0.15971526143E+04  0.16004758180E+04  0.77000000000E+02 0.  0.
   -5000001    1    1    2    0    0  0.42705835723E+01 -0.68404185646E+02  0.22647878707E+03  0.24883530998E+03  0.77000000000E+02 0.  0.
<mgrwt>
<rscale>  0 0.30711587E+03</rscale>
<asrwt>0</asrwt>
<pdfrwt beam="1">  1        2 0.28253380E+00 0.30711587E+03</pdfrwt>
<pdfrwt beam="2">  1       -2 0.19753653E-02 0.30711587E+03</pdfrwt>
<totfact> 0.71373539E+03</totfact>
</mgrwt>
</event>
<event>
 4    1  0.6207184E-004  0.3531543E+03  0.7818608E-02  0.1061328E+00
          2   -1    0    0  501    0  0.00000000000E+00  0.00000000000E+00  0.11356437010E+03  0.11356437013E+03  0.25500000000E-02 0.  1.
         -2   -1    0    0    0  501 -0.00000000000E+00 -0.00000000000E+00 -0.27455347957E+03  0.27455347958E+03  0.25500000000E-02 0. -1.
    5000001    1    1    2    0    0  0.11580268940E+03  0.10670078817E+03 -0.57047579733E+02  0.18433325099E+03  0.77000000000E+02 0.  0.
   -5000001    1    1    2    0    0 -0.11580268940E+03 -0.10670078817E+03 -0.10394152973E+03  0.20378459871E+03  0.77000000000E+02 0.  0.
<mgrwt>
<rscale>  0 0.35315432E+03</rscale>
<asrwt>0</asrwt>
<pdfrwt beam="1">  1        2 0.17471442E-01 0.35315432E+03</pdfrwt>
<pdfrwt beam="2">  1       -2 0.42238997E-01 0.35315432E+03</pdfrwt>
<totfact> 0.17524309E+03</totfact>
</mgrwt>
</event>
<event>
 4    1  0.6207184E-004  0.1757546E+03  0.7818608E-02  0.1171976E+00
          2   -1    0    0  501    0  0.00000000000E+00  0.00000000000E+00  0.25283243497E+03  0.25283243498E+03  0.25500000000E-02 0.  1.
         -2   -1    0    0    0  501 -0.00000000000E+00 -0.00000000000E+00 -0.30543641488E+02  0.30543641594E+02  0.25500000000E-02 0. -1.
    5000001    1    1    2    0    0 -0.38502299625E+02 -0.91168750845E+00  0.82748682778E+02  0.11941357859E+03  0.77000000000E+02 0.  0.
   -5000001    1    1    2    0    0  0.38502299625E+02  0.91168750845E+00  0.13954011070E+03  0.16396249799E+03  0.77000000000E+02 0.  0.
<mgrwt>
<rscale>  0 0.17575464E+03</rscale>
<asrwt>0</asrwt>
<pdfrwt beam="1">  1        2 0.38897296E-01 0.17575464E+03</pdfrwt>
<pdfrwt beam="2">  1       -2 0.46990219E-02 0.17575464E+03</pdfrwt>
<totfact> 0.26992388E+04</totfact>
</mgrwt>
</event>
<event>
 4    1  0.6207184E-004  0.9859328E+03  0.7818608E-02  0.9324109E-01
         -2   -1    0    0    0  501 -0.00000000000E+00  0.00000000000E+00  0.10420882058E+03  0.10420882061E+03  0.25500000000E-02 0. -1.
          2   -1    0    0  501    0  0.00000000000E+00 -0.00000000000E+00 -0.23320086095E+04  0.23320086095E+04  0.25500000000E-02 0.  1.
    5000001    1    1    2    0    0 -0.39042635738E+03  0.27143214534E+03 -0.13728073317E+04  0.14548667018E+04  0.77000000000E+02 0.  0.
   -5000001    1    1    2    0    0  0.39042635738E+03 -0.27143214534E+03 -0.85499245727E+03  0.98135072836E+03  0.77000000000E+02 0.  0.
<mgrwt>
<rscale>  0 0.98593279E+03</rscale>
<asrwt>0</asrwt>
<pdfrwt beam="1">  1        2 0.35877052E+00 0.98593279E+03</pdfrwt>
<pdfrwt beam="2">  1       -2 0.16032128E-01 0.98593279E+03</pdfrwt>
<totfact> 0.13750670E+02</totfact>
</mgrwt>
</event>
<event>
 4    1  0.6207184E-004  0.4108916E+03  0.7818608E-02  0.1040072E+00
          2   -1    0    0  501    0  0.00000000000E+00  0.00000000000E+00  0.13133009065E+04  0.13133009065E+04  0.25500000000E-02 0.  1.
         -2   -1    0    0    0  501 -0.00000000000E+00 -0.00000000000E+00 -0.32138839670E+02  0.32138839771E+02  0.25500000000E-02 0. -1.
    5000001    1    1    2    0    0  0.73952499792E+02 -0.14847513198E+03  0.33402051140E+03  0.38080511956E+03  0.77000000000E+02 0.  0.
   -5000001    1    1    2    0    0 -0.73952499792E+02  0.14847513198E+03  0.94714155545E+03  0.96463462674E+03  0.77000000000E+02 0.  0.
<mgrwt>
<rscale>  0 0.41089155E+03</rscale>
<asrwt>0</asrwt>
<pdfrwt beam="1">  1        2 0.20204629E+00 0.41089155E+03</pdfrwt>
<pdfrwt beam="2">  1       -2 0.49444370E-02 0.41089155E+03</pdfrwt>
<totfact> 0.34429180E+03</totfact>
</mgrwt>
</event>
<event>
 4    1  0.6207184E-004  0.2792843E+03  0.7818608E-02  0.1096080E+00
         -2   -1    0    0    0  501 -0.00000000000E+00  0.00000000000E+00  0.61331088758E+03  0.61331088759E+03  0.25500000000E-02 0. -1.
          2   -1    0    0  501    0  0.00000000000E+00 -0.00000000000E+00 -0.31794525287E+02  0.31794525389E+02  0.25500000000E-02 0.  1.
    5000001    1    1    2    0    0  0.80131306409E+02 -0.77670924995E+02  0.21355486064E+03  0.25295943817E+03  0.77000000000E+02 0.  0.
   -5000001    1    1    2    0    0 -0.80131306409E+02  0.77670924995E+02  0.36796150165E+03  0.39214597480E+03  0.77000000000E+02 0.  0.
<mgrwt>
<rscale>  0 0.27928429E+03</rscale>
<asrwt>0</asrwt>
<pdfrwt beam="1">  1        2 0.48914655E-02 0.27928429E+03</pdfrwt>
<pdfrwt beam="2">  1       -2 0.94355520E-01 0.27928429E+03</pdfrwt>
<totfact> 0.15874736E+03</totfact>
</mgrwt>
</event>
<event>
 4    1  0.6207184E-004  0.2594624E+03  0.7818608E-02  0.1107467E+00
          2   -1    0    0  501    0  0.00000000000E+00  0.00000000000E+00  0.40323947456E+03  0.40323947456E+03  0.25500000000E-02 0.  1.
         -2   -1    0    0    0  501 -0.00000000000E+00 -0.00000000000E+00 -0.41737435053E+02  0.41737435131E+02  0.25500000000E-02 0. -1.
    5000001    1    1    2    0    0 -0.68142433875E+02 -0.62331767477E+02  0.26428629972E+03  0.29035304157E+03  0.77000000000E+02 0.  0.
   -5000001    1    1    2    0    0  0.68142433875E+02  0.62331767477E+02  0.97215739783E+02  0.15462386812E+03  0.77000000000E+02 0.  0.
<mgrwt>
<rscale>  0 0.25946238E+03</rscale>
<asrwt>0</asrwt>
<pdfrwt beam="1">  1        2 0.62036844E-01 0.25946238E+03</pdfrwt>
<pdfrwt beam="2">  1       -2 0.64211437E-02 0.25946238E+03</pdfrwt>
<totfact> 0.10436775E+04</totfact>
</mgrwt>
</event>
<event>
 4    1  0.6207184E-004  0.2030227E+03  0.7818608E-02  0.1147214E+00
         -2   -1    0    0    0  501 -0.00000000000E+00  0.00000000000E+00  0.95603635847E+01  0.95603639248E+01  0.25500000000E-02 0. -1.
          2   -1    0    0  501    0  0.00000000000E+00 -0.00000000000E+00 -0.10778412929E+04  0.10778412929E+04  0.25500000000E-02 0.  1.
    5000001    1    1    2    0    0  0.41862450774E+02 -0.51197020683E+02 -0.52665131852E+03  0.53634337044E+03  0.77000000000E+02 0.  0.
   -5000001    1    1    2    0    0 -0.41862450774E+02  0.51197020683E+02 -0.54162961083E+03  0.55105828642E+03  0.77000000000E+02 0.  0.
<mgrwt>
<rscale>  0 0.20302271E+03</rscale>
<asrwt>0</asrwt>
<pdfrwt beam="1">  1        2 0.16582164E+00 0.20302271E+03</pdfrwt>
<pdfrwt beam="2">  1       -2 0.14708260E-02 0.20302271E+03</pdfrwt>
<totfact> 0.28005745E+04</totfact>
</mgrwt>
</event>
<event>
 4    1  0.6207184E-004  0.3104554E+03  0.7818608E-02  0.1080128E+00
          2   -1    0    0  501    0  0.00000000000E+00  0.00000000000E+00  0.12164145599E+04  0.12164145599E+04  0.25500000000E-02 0.  1.
         -2   -1    0    0    0  501 -0.00000000000E+00 -0.00000000000E+00 -0.19808738639E+02  0.19808738803E+02  0.25500000000E-02 0. -1.
    5000001    1    1    2    0    0 -0.10394047720E+03 -0.78200751032E+02  0.73895477016E+03  0.75425601264E+03  0.77000000000E+02 0.  0.
   -5000001    1    1    2    0    0  0.10394047720E+03  0.78200751032E+02  0.45765105107E+03  0.48196728604E+03  0.77000000000E+02 0.  0.
<mgrwt>
<rscale>  0 0.31045540E+03</rscale>
<asrwt>0</asrwt>
<pdfrwt beam="1">  1        2 0.18714077E+00 0.31045540E+03</pdfrwt>
<pdfrwt beam="2">  1       -2 0.30474971E-02 0.31045540E+03</pdfrwt>
<totfact> 0.81080278E+03</totfact>
</mgrwt>
</event>
<event>
 4    1  0.6207184E-004  0.3181305E+03  0.7818608E-02  0.1076513E+00
         -2   -1    0    0    0  501 -0.00000000000E+00  0.00000000000E+00  0.11875787832E+03  0.11875787835E+03  0.25500000000E-02 0. -1.
          2   -1    0    0  501    0  0.00000000000E+00 -0.00000000000E+00 -0.21305328008E+03  0.21305328010E+03  0.25500000000E-02 0.  1.
    5000001    1    1    2    0    0 -0.67145483799E+02  0.78941950390E+02  0.49758516726E+02  0.13836638867E+03  0.77000000000E+02 0.  0.
   -5000001    1    1    2    0    0  0.67145483799E+02 -0.78941950390E+02 -0.14405391848E+03  0.19344476978E+03  0.77000000000E+02 0.  0.
<mgrwt>
<rscale>  0 0.31813051E+03</rscale>
<asrwt>0</asrwt>
<pdfrwt beam="1">  1        2 0.32777428E-01 0.31813051E+03</pdfrwt>
<pdfrwt beam="2">  1       -2 0.18270443E-01 0.31813051E+03</pdfrwt>
<totfact> 0.39042110E+03</totfact>
</mgrwt>
</event>
<event>
 4    1  0.6207184E-004  0.1183548E+04  0.7818608E-02  0.9127380E-01
         -2   -1    0    0    0  501 -0.00000000000E+00  0.00000000000E+00  0.12011248071E+03  0.12011248074E+03  0.25500000000E-02 0. -1.
          2   -1    0    0  501    0  0.00000000000E+00 -0.00000000000E+00 -0.29155687252E+04  0.29155687252E+04  0.25500000000E-02 0.  1.
    5000001    1    1    2    0    0 -0.54714396619E+03  0.88054210097E+02 -0.18920764637E+04  0.19730692862E+04  0.77000000000E+02 0.  0.
   -5000001    1    1    2    0    0  0.54714396619E+03 -0.88054210097E+02 -0.90337978079E+03  0.10626119198E+04  0.77000000000E+02 0.  0.
<mgrwt>
<rscale>  0 0.11835475E+04</rscale>
<asrwt>0</asrwt>
<pdfrwt beam="1">  1        2 0.44854898E+00 0.11835475E+04</pdfrwt>
<pdfrwt beam="2">  1       -2 0.18478845E-01 0.11835475E+04</pdfrwt>
<totfact> 0.48299113E+01</totfact>
</mgrwt>
</event>
<event>
 4    1  0.6207184E-004  0.2726081E+03  0.7818608E-02  0.1099796E+00
          2   -1    0    0  501    0  0.00000000000E+00  0.00000000000E+00  0.58026923579E+03  0.58026923579E+03  0.25500000000E-02 0.  1.
         -2   -1    0    0    0  501 -0.00000000000E+00 -0.00000000000E+00 -0.32017532697E+02  0.32017532799E+02  0.25500000000E-02 0. -1.
    5000001    1    1    2    0    0 -0.66610507056E+02  0.47586901321E+02  0.10089979995E+03  0.15103391162E+03  0.77000000000E+02 0.  0.
   -5000001    1    1    2    0    0  0.66610507056E+02 -0.47586901321E+02  0.44735190314E+03  0.46125285698E+03  0.77000000000E+02 0.  0.
<mgrwt>
<rscale>  0 0.27260806E+03</rscale>
<asrwt>0</asrwt>
<pdfrwt beam="1">  1        2 0.89272195E-01 0.27260806E+03</pdfrwt>
<pdfrwt beam="2">  1       -2 0.49257740E-02 0.27260806E+03</pdfrwt>
<totfact> 0.10454155E+04</totfact>
</mgrwt>
</event>
<event>
 4    1  0.6207184E-004  0.1906090E+03  0.7818608E-02  0.1157913E+00
         -2   -1    0    0    0  501 -0.00000000000E+00  0.00000000000E+00  0.93330119029E+02  0.93330119064E+02  0.25500000000E-02 0. -1.
          2   -1    0    0  501    0  0.00000000000E+00 -0.00000000000E+00 -0.97320632660E+02  0.97320632693E+02  0.25500000000E-02 0.  1.
    5000001    1    1    2    0    0  0.15401580952E+02 -0.43946944197E+02  0.29402761248E+02  0.94668183510E+02  0.77000000000E+02 0.  0.
   -5000001    1    1    2    0    0 -0.15401580952E+02  0.43946944197E+02 -0.33393274879E+02  0.95982568247E+02  0.77000000000E+02 0.  0.
<mgrwt>
<rscale>  0 0.19060898E+03</rscale>
<asrwt>0</asrwt>
<pdfrwt beam="1">  1        2 0.14972405E-01 0.19060898E+03</pdfrwt>
<pdfrwt beam="2">  1       -2 0.14358480E-01 0.19060898E+03</pdfrwt>
<totfact> 0.13820641E+04</totfact>
</mgrwt>
</event>
<event>
 4    1  0.6207184E-004  0.3217388E+03  0.7818608E-02  0.1074852E+00
          2   -1    0    0  501    0  0.00000000000E+00  0.00000000000E+00  0.23067138484E+04  0.23067138484E+04  0.25500000000E-02 0.  1.
         -2   -1    0    0    0  501 -0.00000000000E+00 -0.00000000000E+00 -0.11218971203E+02  0.11218971493E+02  0.25500000000E-02 0. -1.
    5000001    1    1    2    0    0 -0.10005082842E+03  0.95524660128E+02  0.13533982079E+04  0.13626264485E+04  0.77000000000E+02 0.  0.
   -5000001    1    1    2    0    0  0.10005082842E+03 -0.95524660128E+02  0.94209666935E+03  0.95530637147E+03  0.77000000000E+02 0.  0.
<mgrwt>
<rscale>  0 0.32173875E+03</rscale>
<asrwt>0</asrwt>
<pdfrwt beam="1">  1        2 0.35487976E+00 0.32173875E+03</pdfrwt>
<pdfrwt beam="2">  1       -2 0.17259921E-02 0.32173875E+03</pdfrwt>
<totfact> 0.48979371E+03</totfact>
</mgrwt>
</event>
<event>
 4    1  0.6207184E-004  0.1919214E+03  0.7818608E-02  0.1156740E+00
         -2   -1    0    0    0  501 -0.00000000000E+00  0.00000000000E+00  0.22201502778E+03  0.22201502779E+03  0.25500000000E-02 0. -1.
          2   -1    0    0  501    0  0.00000000000E+00 -0.00000000000E+00 -0.41476743356E+02  0.41476743435E+02  0.25500000000E-02 0.  1.
    5000001    1    1    2    0    0  0.12355886612E+02 -0.45497087238E+02  0.13490064244E+03  0.16232632630E+03  0.77000000000E+02 0.  0.
   -5000001    1    1    2    0    0 -0.12355886612E+02  0.45497087238E+02  0.45637641988E+02  0.10116544493E+03  0.77000000000E+02 0.  0.
<mgrwt>
<rscale>  0 0.19192145E+03</rscale>
<asrwt>0</asrwt>
<pdfrwt beam="1">  1        2 0.63810375E-02 0.19192145E+03</pdfrwt>
<pdfrwt beam="2">  1       -2 0.34156158E-01 0.19192145E+03</pdfrwt>
<totfact> 0.88619894E+03</totfact>
</mgrwt>
</event>
<event>
 4    1  0.6207184E-004  0.2373859E+03  0.7818608E-02  0.1121547E+00
         -2   -1    0    0    0  501 -0.00000000000E+00  0.00000000000E+00  0.13434486302E+03  0.13434486304E+03  0.25500000000E-02 0. -1.
          2   -1    0    0  501    0  0.00000000000E+00 -0.00000000000E+00 -0.10486459492E+03  0.10486459495E+03  0.25500000000E-02 0.  1.
    5000001    1    1    2    0    0 -0.35565869598E+02  0.70917897050E+02  0.58254491225E+02  0.12496745556E+03  0.77000000000E+02 0.  0.
   -5000001    1    1    2    0    0  0.35565869598E+02 -0.70917897050E+02 -0.28774223133E+02  0.11424200243E+03  0.77000000000E+02 0.  0.
<mgrwt>
<rscale>  0 0.23738593E+03</rscale>
<asrwt>0</asrwt>
<pdfrwt beam="1">  1        2 0.16133015E-01 0.23738593E+03</pdfrwt>
<pdfrwt beam="2">  1       -2 0.20668440E-01 0.23738593E+03</pdfrwt>
<totfact> 0.69746831E+03</totfact>
</mgrwt>
</event>
<event>
 4    1  0.6207184E-004  0.2394340E+03  0.7818608E-02  0.1120170E+00
         -2   -1    0    0    0  501 -0.00000000000E+00  0.00000000000E+00  0.87998394146E+01  0.87998397841E+01  0.25500000000E-02 0. -1.
          2   -1    0    0  501    0  0.00000000000E+00 -0.00000000000E+00 -0.16286837694E+04  0.16286837694E+04  0.25500000000E-02 0.  1.
    5000001    1    1    2    0    0 -0.80472048291E+02 -0.57071605925E+00 -0.50972098572E+03  0.52174760139E+03  0.77000000000E+02 0.  0.
   -5000001    1    1    2    0    0  0.80472048291E+02  0.57071605925E+00 -0.11101629443E+04  0.11157360078E+04  0.77000000000E+02 0.  0.
<mgrwt>
<rscale>  0 0.23943397E+03</rscale>
<asrwt>0</asrwt>
<pdfrwt beam="1">  1        2 0.25056649E+00 0.23943397E+03</pdfrwt>
<pdfrwt beam="2">  1       -2 0.13538228E-02 0.23943397E+03</pdfrwt>
<totfact> 0.15896028E+04</totfact>
</mgrwt>
</event>
<event>
 4    1  0.6207184E-004  0.1866269E+03  0.7818608E-02  0.1161539E+00
          2   -1    0    0  501    0  0.00000000000E+00  0.00000000000E+00  0.52506556861E+03  0.52506556861E+03  0.25500000000E-02 0.  1.
         -2   -1    0    0    0  501 -0.00000000000E+00 -0.00000000000E+00 -0.16583452493E+02  0.16583452689E+02  0.25500000000E-02 0. -1.
    5000001    1    1    2    0    0  0.15225214454E+02 -0.49050125111E+02  0.28866470450E+03  0.30314028692E+03  0.77000000000E+02 0.  0.
   -5000001    1    1    2    0    0 -0.15225214454E+02  0.49050125111E+02  0.21981741161E+03  0.23850873438E+03  0.77000000000E+02 0.  0.
<mgrwt>
<rscale>  0 0.18662690E+03</rscale>
<asrwt>0</asrwt>
<pdfrwt beam="1">  1        2 0.80779309E-01 0.18662690E+03</pdfrwt>
<pdfrwt beam="2">  1       -2 0.25513007E-02 0.18662690E+03</pdfrwt>
<totfact> 0.30569702E+04</totfact>
</mgrwt>
</event>
<event>
 4    1  0.6207184E-004  0.5302990E+03  0.7818608E-02  0.1006160E+00
         -2   -1    0    0    0  501 -0.00000000000E+00  0.00000000000E+00  0.20012842650E+02  0.20012842812E+02  0.25500000000E-02 0. -1.
          2   -1    0    0  501    0  0.00000000000E+00 -0.00000000000E+00 -0.35129567360E+04  0.35129567360E+04  0.25500000000E-02 0.  1.
    5000001    1    1    2    0    0 -0.18045769885E+03  0.46985050135E+02 -0.60020812217E+03  0.63320720616E+03  0.77000000000E+02 0.  0.
   -5000001    1    1    2    0    0  0.18045769885E+03 -0.46985050135E+02 -0.28927357712E+04  0.28997623727E+04  0.77000000000E+02 0.  0.
<mgrwt>
<rscale>  0 0.53029897E+03</rscale>
<asrwt>0</asrwt>
<pdfrwt beam="1">  1        2 0.54045439E+00 0.53029897E+03</pdfrwt>
<pdfrwt beam="2">  1       -2 0.30789017E-02 0.53029897E+03</pdfrwt>
<totfact> 0.38427583E+02</totfact>
</mgrwt>
</event>
<event>
 4    1  0.6207184E-004  0.2466754E+03  0.7818608E-02  0.1115424E+00
          2   -1    0    0  501    0  0.00000000000E+00  0.00000000000E+00  0.74686951579E+02  0.74686951623E+02  0.25500000000E-02 0.  1.
         -2   -1    0    0    0  501 -0.00000000000E+00 -0.00000000000E+00 -0.20367939781E+03  0.20367939783E+03  0.25500000000E-02 0. -1.
    5000001    1    1    2    0    0 -0.30903839109E+02  0.88751202548E+02 -0.40521300387E+02  0.12807341258E+03  0.77000000000E+02 0.  0.
   -5000001    1    1    2    0    0  0.30903839109E+02 -0.88751202548E+02 -0.88471145846E+02  0.15029293687E+03  0.77000000000E+02 0.  0.
<mgrwt>
<rscale>  0 0.24667544E+03</rscale>
<asrwt>0</asrwt>
<pdfrwt beam="1">  1        2 0.11490300E-01 0.24667544E+03</pdfrwt>
<pdfrwt beam="2">  1       -2 0.31335292E-01 0.24667544E+03</pdfrwt>
<totfact> 0.50257356E+03</totfact>
</mgrwt>
</event>
<event>
 4    1  0.6207184E-004  0.2250581E+03  0.7818608E-02  0.1130167E+00
         -2   -1    0    0    0  501 -0.00000000000E+00  0.00000000000E+00  0.25825177038E+02  0.25825177164E+02  0.25500000000E-02 0. -1.
          2   -1    0    0  501    0  0.00000000000E+00 -0.00000000000E+00 -0.49032742797E+03  0.49032742797E+03  0.25500000000E-02 0.  1.
    5000001    1    1    2    0    0 -0.49407695045E+02 -0.48900789224E+02 -0.33225536898E+03  0.34807332235E+03  0.77000000000E+02 0.  0.
   -5000001    1    1    2    0    0  0.49407695045E+02  0.48900789224E+02 -0.13224688195E+03  0.16807928278E+03  0.77000000000E+02 0.  0.
<mgrwt>
<rscale>  0 0.22505815E+03</rscale>
<asrwt>0</asrwt>
<pdfrwt beam="1">  1        2 0.75434982E-01 0.22505815E+03</pdfrwt>
<pdfrwt beam="2">  1       -2 0.39731045E-02 0.22505815E+03</pdfrwt>
<totfact> 0.17323800E+04</totfact>
</mgrwt>
</event>
<event>
 4    1  0.6207184E-004  0.7665092E+03  0.7818608E-02  0.9609800E-01
          2   -1    0    0  501    0  0.00000000000E+00  0.00000000000E+00  0.10976461394E+04  0.10976461394E+04  0.25500000000E-02 0.  1.
         -2   -1    0    0    0  501 -0.00000000000E+00 -0.00000000000E+00 -0.13381733189E+03  0.13381733192E+03  0.25500000000E-02 0. -1.
    5000001    1    1    2    0    0 -0.35305127874E+03 -0.75567743047E+02  0.31651094600E+03  0.48627550642E+03  0.77000000000E+02 0.  0.
   -5000001    1    1    2    0    0  0.35305127874E+03  0.75567743047E+02  0.64731786155E+03  0.74518796494E+03  0.77000000000E+02 0.  0.
<mgrwt>
<rscale>  0 0.76650917E+03</rscale>
<asrwt>0</asrwt>
<pdfrwt beam="1">  1        2 0.16886864E+00 0.76650917E+03</pdfrwt>
<pdfrwt beam="2">  1       -2 0.20587282E-01 0.76650917E+03</pdfrwt>
<totfact> 0.44608635E+02</totfact>
</mgrwt>
</event>
<event>
 4    1  0.6207184E-004  0.2806352E+03  0.7818608E-02  0.1095343E+00
          2   -1    0    0  501    0  0.00000000000E+00  0.00000000000E+00  0.23618169126E+04  0.23618169127E+04  0.25500000000E-02 0.  1.
         -2   -1    0    0    0  501 -0.00000000000E+00 -0.00000000000E+00 -0.83363894480E+01  0.83363898380E+01  0.25500000000E-02 0. -1.
    5000001    1    1    2    0    0  0.33779033767E+02  0.10767222671E+03  0.90625516329E+03  0.91649427304E+03  0.77000000000E+02 0.  0.
   -5000001    1    1    2    0    0 -0.33779033767E+02 -0.10767222671E+03  0.14472253599E+04  0.14536590295E+04  0.77000000000E+02 0.  0.
<mgrwt>
<rscale>  0 0.28063518E+03</rscale>
<asrwt>0</asrwt>
<pdfrwt beam="1">  1        2 0.36335662E+00 0.28063518E+03</pdfrwt>
<pdfrwt beam="2">  1       -2 0.12825209E-02 0.28063518E+03</pdfrwt>
<totfact> 0.70750123E+03</totfact>
</mgrwt>
</event>
<event>
 4    1  0.6207184E-004  0.2031313E+03  0.7818608E-02  0.1147124E+00
          2   -1    0    0  501    0  0.00000000000E+00  0.00000000000E+00  0.23977397635E+04  0.23977397635E+04  0.25500000000E-02 0.  1.
         -2   -1    0    0    0  501 -0.00000000000E+00 -0.00000000000E+00 -0.43022088281E+01  0.43022095838E+01  0.25500000000E-02 0. -1.
    5000001    1    1    2    0    0  0.56086728383E+02  0.33049001517E+02  0.10525593169E+04  0.10573779235E+04  0.77000000000E+02 0.  0.
   -5000001    1    1    2    0    0 -0.56086728383E+02 -0.33049001517E+02  0.13408782377E+04  0.13446640495E+04  0.77000000000E+02 0.  0.
<mgrwt>
<rscale>  0 0.20313127E+03</rscale>
<asrwt>0</asrwt>
<pdfrwt beam="1">  1        2 0.36888427E+00 0.20313127E+03</pdfrwt>
<pdfrwt beam="2">  1       -2 0.66187614E-03 0.20313127E+03</pdfrwt>
<totfact> 0.17547678E+04</totfact>
</mgrwt>
</event>
<event>
 4    1  0.6207184E-004  0.3754799E+03  0.7818608E-02  0.1052617E+00
         -2   -1    0    0    0  501 -0.00000000000E+00  0.00000000000E+00  0.48177887028E+02  0.48177887096E+02  0.25500000000E-02 0. -1.
          2   -1    0    0  501    0  0.00000000000E+00 -0.00000000000E+00 -0.73158653685E+03  0.73158653685E+03  0.25500000000E-02 0.  1.
    5000001    1    1    2    0    0  0.11097581805E+02 -0.16242908423E+03 -0.23160068000E+03  0.29338411461E+03  0.77000000000E+02 0.  0.
   -5000001    1    1    2    0    0 -0.11097581805E+02  0.16242908423E+03 -0.45180796982E+03  0.48638030934E+03  0.77000000000E+02 0.  0.
<mgrwt>
<rscale>  0 0.37547993E+03</rscale>
<asrwt>0</asrwt>
<pdfrwt beam="1">  1        2 0.11255177E+00 0.37547993E+03</pdfrwt>
<pdfrwt beam="2">  1       -2 0.74119832E-02 0.37547993E+03</pdfrwt>
<totfact> 0.42544992E+03</totfact>
</mgrwt>
</event>
<event>
 4    1  0.6207184E-004  0.2588790E+03  0.7818608E-02  0.1107819E+00
          2   -1    0    0  501    0  0.00000000000E+00  0.00000000000E+00  0.29679677911E+04  0.29679677911E+04  0.25500000000E-02 0.  1.
         -2   -1    0    0    0  501 -0.00000000000E+00 -0.00000000000E+00 -0.56451374379E+01  0.56451380138E+01  0.25500000000E-02 0. -1.
    5000001    1    1    2    0    0  0.39310318686E+02 -0.91727792028E+02  0.11430799683E+04  0.11500087404E+04  0.77000000000E+02 0.  0.
   -5000001    1    1    2    0    0 -0.39310318686E+02  0.91727792028E+02  0.18192426853E+04  0.18236041887E+04  0.77000000000E+02 0.  0.
<mgrwt>
<rscale>  0 0.25887902E+03</rscale>
<asrwt>0</asrwt>
<pdfrwt beam="1">  1        2 0.45661061E+00 0.25887902E+03</pdfrwt>
<pdfrwt beam="2">  1       -2 0.86848238E-03 0.25887902E+03</pdfrwt>
<totfact> 0.56993524E+03</totfact>
</mgrwt>
</event>
<event>
 4    1  0.6207184E-004  0.3044657E+03  0.7818608E-02  0.1083029E+00
          2   -1    0    0  501    0  0.00000000000E+00  0.00000000000E+00  0.60840149182E+03  0.60840149182E+03  0.25500000000E-02 0.  1.
         -2   -1    0    0    0  501 -0.00000000000E+00 -0.00000000000E+00 -0.38091370004E+02  0.38091370089E+02  0.25500000000E-02 0. -1.
    5000001    1    1    2    0    0  0.10129237591E+03 -0.79909940665E+02  0.33717118201E+03  0.36913297064E+03  0.77000000000E+02 0.  0.
   -5000001    1    1    2    0    0 -0.10129237591E+03  0.79909940665E+02  0.23313893980E+03  0.27735989127E+03  0.77000000000E+02 0.  0.
<mgrwt>
<rscale>  0 0.30446574E+03</rscale>
<asrwt>0</asrwt>
<pdfrwt beam="1">  1        2 0.93600232E-01 0.30446574E+03</pdfrwt>
<pdfrwt beam="2">  1       -2 0.58602106E-02 0.30446574E+03</pdfrwt>
<totfact> 0.76175511E+03</totfact>
</mgrwt>
</event>
<event>
 4    1  0.6207184E-004  0.2723214E+03  0.7818608E-02  0.1099958E+00
         -2   -1    0    0    0  501 -0.00000000000E+00  0.00000000000E+00  0.12768038094E+02  0.12768038348E+02  0.25500000000E-02 0. -1.
          2   -1    0    0  501    0  0.00000000000E+00 -0.00000000000E+00 -0.14520426052E+04  0.14520426052E+04  0.25500000000E-02 0.  1.
    5000001    1    1    2    0    0  0.81644948845E+02  0.49691314221E+02 -0.40252335892E+03  0.42081965123E+03  0.77000000000E+02 0.  0.
   -5000001    1    1    2    0    0 -0.81644948845E+02 -0.49691314221E+02 -0.10367512082E+04  0.10439909923E+04  0.77000000000E+02 0.  0.
<mgrwt>
<rscale>  0 0.27232139E+03</rscale>
<asrwt>0</asrwt>
<pdfrwt beam="1">  1        2 0.22339104E+00 0.27232139E+03</pdfrwt>
<pdfrwt beam="2">  1       -2 0.19643147E-02 0.27232139E+03</pdfrwt>
<totfact> 0.11490535E+04</totfact>
</mgrwt>
</event>
<event>
 4    1  0.6207184E-004  0.4383051E+03  0.7818608E-02  0.1031268E+00
          2   -1    0    0  501    0  0.00000000000E+00  0.00000000000E+00  0.18645429017E+04  0.18645429017E+04  0.25500000000E-02 0.  1.
         -2   -1    0    0    0  501 -0.00000000000E+00 -0.00000000000E+00 -0.25758507164E+02  0.25758507290E+02  0.25500000000E-02 0. -1.
    5000001    1    1    2    0    0  0.20377810493E+03 -0.21693715835E-01  0.10226576555E+04  0.10456018348E+04  0.77000000000E+02 0.  0.
   -5000001    1    1    2    0    0 -0.20377810493E+03  0.21693715835E-01  0.81612673901E+03  0.84469957420E+03  0.77000000000E+02 0.  0.
<mgrwt>
<rscale>  0 0.43830511E+03</rscale>
<asrwt>0</asrwt>
<pdfrwt beam="1">  1        2 0.28685275E+00 0.43830511E+03</pdfrwt>
<pdfrwt beam="2">  1       -2 0.39628473E-02 0.43830511E+03</pdfrwt>
<totfact> 0.24238587E+03</totfact>
</mgrwt>
</event>
<event>
 4    1  0.6207184E-004  0.2953189E+03  0.7818608E-02  0.1087604E+00
         -2   -1    0    0    0  501 -0.00000000000E+00  0.00000000000E+00  0.34654819376E+03  0.34654819377E+03  0.25500000000E-02 0. -1.
          2   -1    0    0  501    0  0.00000000000E+00 -0.00000000000E+00 -0.62915682262E+02  0.62915682313E+02  0.25500000000E-02 0.  1.
    5000001    1    1    2    0    0 -0.11329986569E+03 -0.53177199996E+02  0.12174089489E+03  0.19082588832E+03  0.77000000000E+02 0.  0.
   -5000001    1    1    2    0    0  0.11329986569E+03  0.53177199996E+02  0.16189161660E+03  0.21863798776E+03  0.77000000000E+02 0.  0.
<mgrwt>
<rscale>  0 0.29531892E+03</rscale>
<asrwt>0</asrwt>
<pdfrwt beam="1">  1        2 0.96793357E-02 0.29531892E+03</pdfrwt>
<pdfrwt beam="2">  1       -2 0.53315107E-01 0.29531892E+03</pdfrwt>
<totfact> 0.22516610E+03</totfact>
</mgrwt>
</event>
<event>
 4    1  0.6207184E-004  0.1953725E+03  0.7818608E-02  0.1153703E+00
         -2   -1    0    0    0  501 -0.00000000000E+00  0.00000000000E+00  0.40117805060E+02  0.40117805141E+02  0.25500000000E-02 0. -1.
          2   -1    0    0  501    0  0.00000000000E+00 -0.00000000000E+00 -0.23786460974E+03  0.23786460976E+03  0.25500000000E-02 0.  1.
    5000001    1    1    2    0    0  0.51621819630E+02  0.23644653771E+02 -0.70784647616E+02  0.11900986620E+03  0.77000000000E+02 0.  0.
   -5000001    1    1    2    0    0 -0.51621819630E+02 -0.23644653771E+02 -0.12696215707E+03  0.15897254870E+03  0.77000000000E+02 0.  0.
<mgrwt>
<rscale>  0 0.19537253E+03</rscale>
<asrwt>0</asrwt>
<pdfrwt beam="1">  1        2 0.36594554E-01 0.19537253E+03</pdfrwt>
<pdfrwt beam="2">  1       -2 0.61719702E-02 0.19537253E+03</pdfrwt>
<totfact> 0.19230443E+04</totfact>
</mgrwt>
</event>
<event>
 4    1  0.6207184E-004  0.2262941E+03  0.7818608E-02  0.1129276E+00
          2   -1    0    0  501    0  0.00000000000E+00  0.00000000000E+00  0.16908582611E+04  0.16908582611E+04  0.25500000000E-02 0.  1.
         -2   -1    0    0    0  501 -0.00000000000E+00 -0.00000000000E+00 -0.75714504012E+01  0.75714508306E+01  0.25500000000E-02 0. -1.
    5000001    1    1    2    0    0  0.12754965570E+02 -0.81814592112E+02  0.87252814226E+03  0.87982422998E+03  0.77000000000E+02 0.  0.
   -5000001    1    1    2    0    0 -0.12754965570E+02  0.81814592112E+02  0.81075866841E+03  0.81860548192E+03  0.77000000000E+02 0.  0.
<mgrwt>
<rscale>  0 0.22629405E+03</rscale>
<asrwt>0</asrwt>
<pdfrwt beam="1">  1        2 0.26013232E+00 0.22629405E+03</pdfrwt>
<pdfrwt beam="2">  1       -2 0.11648373E-02 0.22629405E+03</pdfrwt>
<totfact> 0.18308771E+04</totfact>
</mgrwt>
</event>
<event>
 4    1  0.6207184E-004  0.3161180E+03  0.7818608E-02  0.1077450E+00
          2   -1    0    0  501    0  0.00000000000E+00  0.00000000000E+00  0.12455823782E+04  0.12455823782E+04  0.25500000000E-02 0.  1.
         -2   -1    0    0    0  501 -0.00000000000E+00 -0.00000000000E+00 -0.20057000553E+02  0.20057000715E+02  0.25500000000E-02 0. -1.
    5000001    1    1    2    0    0  0.64206683817E+02  0.21537057324E+02  0.13119808570E+03  0.16651810945E+03  0.77000000000E+02 0.  0.
   -5000001    1    1    2    0    0 -0.64206683817E+02 -0.21537057324E+02  0.10943272920E+04  0.10991212695E+04  0.77000000000E+02 0.  0.
<mgrwt>
<rscale>  0 0.31611799E+03</rscale>
<asrwt>0</asrwt>
<pdfrwt beam="1">  1        2 0.19162805E+00 0.31611799E+03</pdfrwt>
<pdfrwt beam="2">  1       -2 0.30856925E-02 0.31611799E+03</pdfrwt>
<totfact> 0.76637163E+03</totfact>
</mgrwt>
</event>
<event>
 4    1  0.6207184E-004  0.2150616E+03  0.7818608E-02  0.1137619E+00
          2   -1    0    0  501    0  0.00000000000E+00  0.00000000000E+00  0.23954896965E+02  0.23954897100E+02  0.25500000000E-02 0.  1.
         -2   -1    0    0    0  501 -0.00000000000E+00 -0.00000000000E+00 -0.48269355089E+03  0.48269355090E+03  0.25500000000E-02 0. -1.
    5000001    1    1    2    0    0  0.70477936491E+02 -0.10932204818E+01 -0.16859351279E+03  0.19829550478E+03  0.77000000000E+02 0.  0.
   -5000001    1    1    2    0    0 -0.70477936491E+02  0.10932204818E+01 -0.29014514114E+03  0.30835294321E+03  0.77000000000E+02 0.  0.
<mgrwt>
<rscale>  0 0.21506161E+03</rscale>
<asrwt>0</asrwt>
<pdfrwt beam="1">  1        2 0.36853691E-02 0.21506161E+03</pdfrwt>
<pdfrwt beam="2">  1       -2 0.74260539E-01 0.21506161E+03</pdfrwt>
<totfact> 0.39049045E+03</totfact>
</mgrwt>
</event>
<event>
 4    1  0.6207184E-004  0.2352515E+03  0.7818608E-02  0.1122997E+00
         -2   -1    0    0    0  501 -0.00000000000E+00  0.00000000000E+00  0.87359725806E+01  0.87359729527E+01  0.25500000000E-02 0. -1.
          2   -1    0    0  501    0  0.00000000000E+00 -0.00000000000E+00 -0.15837754293E+04  0.15837754293E+04  0.25500000000E-02 0.  1.
    5000001    1    1    2    0    0 -0.41980567410E+02  0.53240834070E+02 -0.11769728870E+04  0.11814360462E+04  0.77000000000E+02 0.  0.
   -5000001    1    1    2    0    0  0.41980567410E+02 -0.53240834070E+02 -0.39806656969E+03  0.41107535605E+03  0.77000000000E+02 0.  0.
<mgrwt>
<rscale>  0 0.23525152E+03</rscale>
<asrwt>0</asrwt>
<pdfrwt beam="1">  1        2 0.24365753E+00 0.23525152E+03</pdfrwt>
<pdfrwt beam="2">  1       -2 0.13439971E-02 0.23525152E+03</pdfrwt>
<totfact> 0.16954947E+04</totfact>
</mgrwt>
</event>
<event>
 4    1  0.6207184E-004  0.2218929E+03  0.7818608E-02  0.1132480E+00
         -2   -1    0    0    0  501 -0.00000000000E+00  0.00000000000E+00  0.90528898725E+01  0.90528902316E+01  0.25500000000E-02 0. -1.
          2   -1    0    0  501    0  0.00000000000E+00 -0.00000000000E+00 -0.13596892046E+04  0.13596892046E+04  0.25500000000E-02 0.  1.
    5000001    1    1    2    0    0 -0.35436783194E+02  0.62531439679E+02 -0.46037778948E+03  0.47227392009E+03  0.77000000000E+02 0.  0.
   -5000001    1    1    2    0    0  0.35436783194E+02 -0.62531439679E+02 -0.89025852525E+03  0.89646817474E+03  0.77000000000E+02 0.  0.
<mgrwt>
<rscale>  0 0.22189292E+03</rscale>
<asrwt>0</asrwt>
<pdfrwt beam="1">  1        2 0.20918279E+00 0.22189292E+03</pdfrwt>
<pdfrwt beam="2">  1       -2 0.13927534E-02 0.22189292E+03</pdfrwt>
<totfact> 0.21158000E+04</totfact>
</mgrwt>
</event>
<event>
 4    1  0.6207184E-004  0.2155584E+03  0.7818608E-02  0.1137238E+00
          2   -1    0    0  501    0  0.00000000000E+00  0.00000000000E+00  0.16884929322E+04  0.16884929322E+04  0.25500000000E-02 0.  1.
         -2   -1    0    0    0  501 -0.00000000000E+00 -0.00000000000E+00 -0.68797188318E+01  0.68797193043E+01  0.25500000000E-02 0. -1.
    5000001    1    1    2    0    0  0.15612493390E+02 -0.70339682337E+02  0.10159577962E+04  0.10214160095E+04  0.77000000000E+02 0.  0.
   -5000001    1    1    2    0    0 -0.15612493390E+02  0.70339682337E+02  0.66565541720E+03  0.67395664201E+03  0.77000000000E+02 0.  0.
<mgrwt>
<rscale>  0 0.21555841E+03</rscale>
<asrwt>0</asrwt>
<pdfrwt beam="1">  1        2 0.25976828E+00 0.21555841E+03</pdfrwt>
<pdfrwt beam="2">  1       -2 0.10584178E-02 0.21555841E+03</pdfrwt>
<totfact> 0.21052928E+04</totfact>
</mgrwt>
</event>
<event>
 4    1  0.6207184E-004  0.2013720E+03  0.7818608E-02  0.1148587E+00
          2   -1    0    0  501    0  0.00000000000E+00  0.00000000000E+00  0.18996936437E+04  0.18996936437E+04  0.25500000000E-02 0.  1.
         -2   -1    0    0    0  501 -0.00000000000E+00 -0.00000000000E+00 -0.53364778341E+01  0.53364784434E+01  0.25500000000E-02 0. -1.
    5000001    1    1    2    0    0  0.36062112068E+02 -0.13804451943E+02  0.14403503945E+04  0.14429238711E+04  0.77000000000E+02 0.  0.
   -5000001    1    1    2    0    0 -0.36062112068E+02  0.13804451943E+02  0.45400677140E+03  0.46210625109E+03  0.77000000000E+02 0.  0.
<mgrwt>
<rscale>  0 0.20137203E+03</rscale>
<asrwt>0</asrwt>
<pdfrwt beam="1">  1        2 0.29226051E+00 0.20137203E+03</pdfrwt>
<pdfrwt beam="2">  1       -2 0.82099678E-03 0.20137203E+03</pdfrwt>
<totfact> 0.23512425E+04</totfact>
</mgrwt>
</event>
<event>
 4    1  0.6207184E-004  0.5887589E+03  0.7818608E-02  0.9929006E-01
         -2   -1    0    0    0  501 -0.00000000000E+00  0.00000000000E+00  0.49396593600E+02  0.49396593666E+02  0.25500000000E-02 0. -1.
          2   -1    0    0  501    0  0.00000000000E+00 -0.00000000000E+00 -0.17543569225E+04  0.17543569225E+04  0.25500000000E-02 0.  1.
    5000001    1    1    2    0    0  0.17564456162E+02  0.12636811572E+03 -0.16302673144E+04  0.16370638128E+04  0.77000000000E+02 0.  0.
   -5000001    1    1    2    0    0 -0.17564456162E+02 -0.12636811572E+03 -0.74693014487E+02  0.16668970335E+03  0.77000000000E+02 0.  0.
<mgrwt>
<rscale>  0 0.58875888E+03</rscale>
<asrwt>0</asrwt>
<pdfrwt beam="1">  1        2 0.26990102E+00 0.58875888E+03</pdfrwt>
<pdfrwt beam="2">  1       -2 0.75994773E-02 0.58875888E+03</pdfrwt>
<totfact> 0.10024967E+03</totfact>
</mgrwt>
</event>
<event>
 4    1  0.6207184E-004  0.2000796E+03  0.7818608E-02  0.1149672E+00
         -2   -1    0    0    0  501 -0.00000000000E+00  0.00000000000E+00  0.55492280892E+01  0.55492286751E+01  0.25500000000E-02 0. -1.
          2   -1    0    0  501    0  0.00000000000E+00 -0.00000000000E+00 -0.18034879289E+04  0.18034879289E+04  0.25500000000E-02 0.  1.
    5000001    1    1    2    0    0 -0.60294866355E+02  0.82444492425E+01 -0.10741813077E+04  0.10786556094E+04  0.77000000000E+02 0.  0.
   -5000001    1    1    2    0    0  0.60294866355E+02 -0.82444492425E+01 -0.72375739309E+03  0.73038154817E+03  0.77000000000E+02 0.  0.
<mgrwt>
<rscale>  0 0.20007965E+03</rscale>
<asrwt>0</asrwt>
<pdfrwt beam="1">  1        2 0.27745921E+00 0.20007965E+03</pdfrwt>
<pdfrwt beam="2">  1       -2 0.85372889E-03 0.20007965E+03</pdfrwt>
<totfact> 0.24926657E+04</totfact>
</mgrwt>
</event>
<event>
 4    1  0.6207184E-004  0.1905086E+03  0.7818608E-02  0.1158003E+00
          2   -1    0    0  501    0  0.00000000000E+00  0.00000000000E+00  0.10778611010E+04  0.10778611010E+04  0.25500000000E-02 0.  1.
         -2   -1    0    0    0  501 -0.00000000000E+00 -0.00000000000E+00 -0.84179518684E+01  0.84179522546E+01  0.25500000000E-02 0. -1.
    5000001    1    1    2    0    0  0.35436837689E+02 -0.43359114795E+02  0.51799928672E+03  0.52667641237E+03  0.77000000000E+02 0.  0.
   -5000001    1    1    2    0    0 -0.35436837689E+02  0.43359114795E+02  0.55144386245E+03  0.55960264093E+03  0.77000000000E+02 0.  0.
<mgrwt>
<rscale>  0 0.19050861E+03</rscale>
<asrwt>0</asrwt>
<pdfrwt beam="1">  1        2 0.16582479E+00 0.19050861E+03</pdfrwt>
<pdfrwt beam="2">  1       -2 0.12950695E-02 0.19050861E+03</pdfrwt>
<totfact> 0.33538470E+04</totfact>
</mgrwt>
</event>
<event>
 4    1  0.6207184E-004  0.3126721E+03  0.7818608E-02  0.1079072E+00
          2   -1    0    0  501    0  0.00000000000E+00  0.00000000000E+00  0.22850267858E+03  0.22850267860E+03  0.25500000000E-02 0.  1.
         -2   -1    0    0    0  501 -0.00000000000E+00 -0.00000000000E+00 -0.10696136199E+03  0.10696136202E+03  0.25500000000E-02 0. -1.
    5000001    1    1    2    0    0 -0.12030077995E+03 -0.61646458718E+02  0.77370871963E+02  0.17374641106E+03  0.77000000000E+02 0.  0.
   -5000001    1    1    2    0    0  0.12030077995E+03  0.61646458718E+02  0.44170444628E+02  0.16171762955E+03  0.77000000000E+02 0.  0.
<mgrwt>
<rscale>  0 0.31267208E+03</rscale>
<asrwt>0</asrwt>
<pdfrwt beam="1">  1        2 0.35154258E-01 0.31267208E+03</pdfrwt>
<pdfrwt beam="2">  1       -2 0.16455594E-01 0.31267208E+03</pdfrwt>
<totfact> 0.43119548E+03</totfact>
</mgrwt>
</event>
<event>
 4    1  0.6207184E-004  0.2869174E+03  0.7818608E-02  0.1091970E+00
          2   -1    0    0  501    0  0.00000000000E+00  0.00000000000E+00  0.20240102391E+04  0.20240102391E+04  0.25500000000E-02 0.  1.
         -2   -1    0    0    0  501 -0.00000000000E+00 -0.00000000000E+00 -0.10168132798E+02  0.10168133117E+02  0.25500000000E-02 0. -1.
    5000001    1    1    2    0    0  0.25915570421E+02 -0.10795544923E+03  0.66503468159E+03  0.67862075088E+03  0.77000000000E+02 0.  0.
   -5000001    1    1    2    0    0 -0.25915570421E+02  0.10795544923E+03  0.13488074247E+04  0.13555576213E+04  0.77000000000E+02 0.  0.
<mgrwt>
<rscale>  0 0.28691745E+03</rscale>
<asrwt>0</asrwt>
<pdfrwt beam="1">  1        2 0.31138604E+00 0.28691745E+03</pdfrwt>
<pdfrwt beam="2">  1       -2 0.15643289E-02 0.28691745E+03</pdfrwt>
<totfact> 0.80087159E+03</totfact>
</mgrwt>
</event>
<event>
 4    1  0.6207184E-004  0.2063409E+03  0.7818608E-02  0.1144497E+00
          2   -1    0    0  501    0  0.00000000000E+00  0.00000000000E+00  0.46814894009E+03  0.46814894009E+03  0.25500000000E-02 0.  1.
         -2   -1    0    0    0  501 -0.00000000000E+00 -0.00000000000E+00 -0.22736652449E+02  0.22736652592E+02  0.25500000000E-02 0. -1.
    5000001    1    1    2    0    0 -0.20497618463E+02 -0.44328336427E+02  0.33754045302E+03  0.34963940167E+03  0.77000000000E+02 0.  0.
   -5000001    1    1    2    0    0  0.20497618463E+02  0.44328336427E+02  0.10787183461E+03  0.14124619101E+03  0.77000000000E+02 0.  0.
<mgrwt>
<rscale>  0 0.20634088E+03</rscale>
<asrwt>0</asrwt>
<pdfrwt beam="1">  1        2 0.72022902E-01 0.20634088E+03</pdfrwt>
<pdfrwt beam="2">  1       -2 0.34979471E-02 0.20634088E+03</pdfrwt>
<totfact> 0.21929598E+04</totfact>
</mgrwt>
</event>
<event>
 4    1  0.6207184E-004  0.2251095E+03  0.7818608E-02  0.1130130E+00
         -2   -1    0    0    0  501 -0.00000000000E+00  0.00000000000E+00  0.17975709835E+02  0.17975710016E+02  0.25500000000E-02 0. -1.
          2   -1    0    0  501    0  0.00000000000E+00 -0.00000000000E+00 -0.70476087547E+03  0.70476087547E+03  0.25500000000E-02 0.  1.
    5000001    1    1    2    0    0 -0.64977428137E+00 -0.80121466992E+02 -0.40079908725E+03  0.41591919891E+03  0.77000000000E+02 0.  0.
   -5000001    1    1    2    0    0  0.64977428137E+00  0.80121466992E+02 -0.28598607838E+03  0.30681738658E+03  0.77000000000E+02 0.  0.
<mgrwt>
<rscale>  0 0.22510955E+03</rscale>
<asrwt>0</asrwt>
<pdfrwt beam="1">  1        2 0.10842473E+00 0.22510955E+03</pdfrwt>
<pdfrwt beam="2">  1       -2 0.27654944E-02 0.22510955E+03</pdfrwt>
<totfact> 0.19553266E+04</totfact>
</mgrwt>
</event>
<event>
 4    1  0.6207184E-004  0.2041950E+03  0.7818608E-02  0.1146247E+00
          2   -1    0    0  501    0  0.00000000000E+00  0.00000000000E+00  0.94067946275E+03  0.94067946275E+03  0.25500000000E-02 0.  1.
         -2   -1    0    0    0  501 -0.00000000000E+00 -0.00000000000E+00 -0.11081243843E+02  0.11081244136E+02  0.25500000000E-02 0. -1.
    5000001    1    1    2    0    0  0.54030607449E+02 -0.74522179818E+01  0.64652322268E+03  0.65337287941E+03  0.77000000000E+02 0.  0.
   -5000001    1    1    2    0    0 -0.54030607449E+02  0.74522179818E+01  0.28307499623E+03  0.29838782748E+03  0.77000000000E+02 0.  0.
<mgrwt>
<rscale>  0 0.20419499E+03</rscale>
<asrwt>0</asrwt>
<pdfrwt beam="1">  1        2 0.14471995E+00 0.20419499E+03</pdfrwt>
<pdfrwt beam="2">  1       -2 0.17048064E-02 0.20419499E+03</pdfrwt>
<totfact> 0.27354969E+04</totfact>
</mgrwt>
</event>
<event>
 4    1  0.6207184E-004  0.1814420E+03  0.7818608E-02  0.1166415E+00
          2   -1    0    0  501    0  0.00000000000E+00  0.00000000000E+00  0.68242931789E+03  0.68242931790E+03  0.25500000000E-02 0.  1.
         -2   -1    0    0    0  501 -0.00000000000E+00 -0.00000000000E+00 -0.12060291797E+02  0.12060292067E+02  0.25500000000E-02 0. -1.
    5000001    1    1    2    0    0 -0.35961319988E+02 -0.47541502736E+01  0.45534219621E+03  0.46322924576E+03  0.77000000000E+02 0.  0.
   -5000001    1    1    2    0    0  0.35961319988E+02  0.47541502736E+01  0.21502682988E+03  0.23126036420E+03  0.77000000000E+02 0.  0.
<mgrwt>
<rscale>  0 0.18144197E+03</rscale>
<asrwt>0</asrwt>
<pdfrwt beam="1">  1        2 0.10498911E+00 0.18144197E+03</pdfrwt>
<pdfrwt beam="2">  1       -2 0.18554298E-02 0.18144197E+03</pdfrwt>
<totfact> 0.35958996E+04</totfact>
</mgrwt>
</event>
<event>
 4    1  0.6207184E-004  0.2342920E+03  0.7818608E-02  0.1123655E+00
          2   -1    0    0  501    0  0.00000000000E+00  0.00000000000E+00  0.61038358279E+02  0.61038358332E+02  0.25500000000E-02 0.  1.
         -2   -1    0    0    0  501 -0.00000000000E+00 -0.00000000000E+00 -0.22482888687E+03  0.22482888688E+03  0.25500000000E-02 0. -1.
    5000001    1    1    2    0    0 -0.58398038622E+02  0.10110186763E+02 -0.16173369023E+03  0.18867785600E+03  0.77000000000E+02 0.  0.
   -5000001    1    1    2    0    0  0.58398038622E+02 -0.10110186763E+02 -0.20568383611E+01  0.97189389212E+02  0.77000000000E+02 0.  0.
<mgrwt>
<rscale>  0 0.23429201E+03</rscale>
<asrwt>0</asrwt>
<pdfrwt beam="1">  1        2 0.93905168E-02 0.23429201E+03</pdfrwt>
<pdfrwt beam="2">  1       -2 0.34589059E-01 0.23429201E+03</pdfrwt>
<totfact> 0.53631676E+03</totfact>
</mgrwt>
</event>
<event>
 4    1  0.6207184E-004  0.4076997E+03  0.7818608E-02  0.1041146E+00
          2   -1    0    0  501    0  0.00000000000E+00  0.00000000000E+00  0.46902414248E+03  0.46902414249E+03  0.25500000000E-02 0.  1.
         -2   -1    0    0    0  501 -0.00000000000E+00 -0.00000000000E+00 -0.88598362347E+02  0.88598362384E+02  0.25500000000E-02 0. -1.
    5000001    1    1    2    0    0 -0.93886414971E+02  0.14647851847E+03  0.29030178632E+03  0.34709471680E+03  0.77000000000E+02 0.  0.
   -5000001    1    1    2    0    0  0.93886414971E+02 -0.14647851847E+03  0.90123993814E+02  0.21052778807E+03  0.77000000000E+02 0.  0.
<mgrwt>
<rscale>  0 0.40769975E+03</rscale>
<asrwt>0</asrwt>
<pdfrwt beam="1">  1        2 0.72157559E-01 0.40769975E+03</pdfrwt>
<pdfrwt beam="2">  1       -2 0.13630518E-01 0.40769975E+03</pdfrwt>
<totfact> 0.27007621E+03</totfact>
</mgrwt>
</event>
<event>
 4    1  0.6207184E-004  0.3018023E+03  0.7818608E-02  0.1084343E+00
         -2   -1    0    0    0  501 -0.00000000000E+00  0.00000000000E+00  0.50048395263E+02  0.50048395328E+02  0.25500000000E-02 0. -1.
          2   -1    0    0  501    0  0.00000000000E+00 -0.00000000000E+00 -0.45498272450E+03  0.45498272451E+03  0.25500000000E-02 0.  1.
    5000001    1    1    2    0    0  0.10572935343E+03 -0.10997115475E+01 -0.32838583270E+03  0.35347724207E+03  0.77000000000E+02 0.  0.
   -5000001    1    1    2    0    0 -0.10572935343E+03  0.10997115475E+01 -0.76548496533E+02  0.15155387776E+03  0.77000000000E+02 0.  0.
<mgrwt>
<rscale>  0 0.30180229E+03</rscale>
<asrwt>0</asrwt>
<pdfrwt beam="1">  1        2 0.69997340E-01 0.30180229E+03</pdfrwt>
<pdfrwt beam="2">  1       -2 0.76997534E-02 0.30180229E+03</pdfrwt>
<totfact> 0.69388992E+03</totfact>
</mgrwt>
</event>
<event>
 4    1  0.6207184E-004  0.2075553E+03  0.7818608E-02  0.1143517E+00
          2   -1    0    0  501    0  0.00000000000E+00  0.00000000000E+00  0.87064328629E+02  0.87064328666E+02  0.25500000000E-02 0.  1.
         -2   -1    0    0    0  501 -0.00000000000E+00 -0.00000000000E+00 -0.12369933058E+03  0.12369933061E+03  0.25500000000E-02 0. -1.
    5000001    1    1    2    0    0 -0.39072098142E+02 -0.54927652405E+02 -0.35821218826E+02  0.10842433108E+03  0.77000000000E+02 0.  0.
   -5000001    1    1    2    0    0  0.39072098142E+02  0.54927652405E+02 -0.81378312558E+00  0.10233932819E+03  0.77000000000E+02 0.  0.
<mgrwt>
<rscale>  0 0.20755529E+03</rscale>
<asrwt>0</asrwt>
<pdfrwt beam="1">  1        2 0.13394512E-01 0.20755529E+03</pdfrwt>
<pdfrwt beam="2">  1       -2 0.19030666E-01 0.20755529E+03</pdfrwt>
<totfact> 0.99315806E+03</totfact>
</mgrwt>
</event>
<event>
 4    1  0.6207184E-004  0.1751170E+03  0.7818608E-02  0.1172614E+00
          2   -1    0    0  501    0  0.00000000000E+00  0.00000000000E+00  0.83675525317E+03  0.83675525317E+03  0.25500000000E-02 0.  1.
         -2   -1    0    0    0  501 -0.00000000000E+00 -0.00000000000E+00 -0.91621685853E+01  0.91621689402E+01  0.25500000000E-02 0. -1.
    5000001    1    1    2    0    0 -0.35682978499E+02  0.20187484953E+02  0.45016520506E+03  0.45853955265E+03  0.77000000000E+02 0.  0.
   -5000001    1    1    2    0    0  0.35682978499E+02 -0.20187484953E+02  0.37742787952E+03  0.38737786946E+03  0.77000000000E+02 0.  0.
<mgrwt>
<rscale>  0 0.17511702E+03</rscale>
<asrwt>0</asrwt>
<pdfrwt beam="1">  1        2 0.12873161E+00 0.17511702E+03</pdfrwt>
<pdfrwt beam="2">  1       -2 0.14095641E-02 0.17511702E+03</pdfrwt>
<totfact> 0.41576665E+04</totfact>
</mgrwt>
</event>
<event>
 4    1  0.6207184E-004  0.2183901E+03  0.7818608E-02  0.1135089E+00
         -2   -1    0    0    0  501 -0.00000000000E+00  0.00000000000E+00  0.14281024082E+03  0.14281024085E+03  0.25500000000E-02 0. -1.
          2   -1    0    0  501    0  0.00000000000E+00 -0.00000000000E+00 -0.83492356907E+02  0.83492356946E+02  0.25500000000E-02 0.  1.
    5000001    1    1    2    0    0  0.62236242257E+02  0.19040187285E+02 -0.13797137240E+02  0.10176069761E+03  0.77000000000E+02 0.  0.
   -5000001    1    1    2    0    0 -0.62236242257E+02 -0.19040187285E+02  0.73115021156E+02  0.12454190018E+03  0.77000000000E+02 0.  0.
<mgrwt>
<rscale>  0 0.21839014E+03</rscale>
<asrwt>0</asrwt>
<pdfrwt beam="1">  1        2 0.12844978E-01 0.21839014E+03</pdfrwt>
<pdfrwt beam="2">  1       -2 0.21970806E-01 0.21839014E+03</pdfrwt>
<totfact> 0.81943037E+03</totfact>
</mgrwt>
</event>
<event>
 4    1  0.6207184E-004  0.2325740E+03  0.7818608E-02  0.1124841E+00
         -2   -1    0    0    0  501 -0.00000000000E+00  0.00000000000E+00  0.74383293727E+01  0.74383298098E+01  0.25500000000E-02 0. -1.
          2   -1    0    0  501    0  0.00000000000E+00 -0.00000000000E+00 -0.18179708737E+04  0.18179708737E+04  0.25500000000E-02 0.  1.
    5000001    1    1    2    0    0 -0.81720892941E+02 -0.25568030986E+02 -0.77831136885E+03  0.78678435129E+03  0.77000000000E+02 0.  0.
   -5000001    1    1    2    0    0  0.81720892941E+02  0.25568030986E+02 -0.10322211755E+04  0.10386248522E+04  0.77000000000E+02 0.  0.
<mgrwt>
<rscale>  0 0.23257400E+03</rscale>
<asrwt>0</asrwt>
<pdfrwt beam="1">  1        2 0.27968747E+00 0.23257400E+03</pdfrwt>
<pdfrwt beam="2">  1       -2 0.11443598E-02 0.23257400E+03</pdfrwt>
<totfact> 0.16137580E+04</totfact>
</mgrwt>
</event>
<event>
 4    1  0.6207184E-004  0.4139624E+03  0.7818608E-02  0.1039049E+00
          2   -1    0    0  501    0  0.00000000000E+00  0.00000000000E+00  0.10843200792E+04  0.10843200792E+04  0.25500000000E-02 0.  1.
         -2   -1    0    0    0  501 -0.00000000000E+00 -0.00000000000E+00 -0.39509758822E+02  0.39509758904E+02  0.25500000000E-02 0. -1.
    5000001    1    1    2    0    0  0.17416878722E+03 -0.20848340511E+02  0.73518133254E+03  0.75973022282E+03  0.77000000000E+02 0.  0.
   -5000001    1    1    2    0    0 -0.17416878722E+03  0.20848340511E+02  0.30962898784E+03  0.36409961529E+03  0.77000000000E+02 0.  0.
<mgrwt>
<rscale>  0 0.41396244E+03</rscale>
<asrwt>0</asrwt>
<pdfrwt beam="1">  1        2 0.16681849E+00 0.41396244E+03</pdfrwt>
<pdfrwt beam="2">  1       -2 0.60784237E-02 0.41396244E+03</pdfrwt>
<totfact> 0.33974750E+03</totfact>
</mgrwt>
</event>
<event>
 4    1  0.6207184E-004  0.2045951E+03  0.7818608E-02  0.1145919E+00
         -2   -1    0    0    0  501 -0.00000000000E+00  0.00000000000E+00  0.21925346111E+02  0.21925346259E+02  0.25500000000E-02 0. -1.
          2   -1    0    0  501    0  0.00000000000E+00 -0.00000000000E+00 -0.47729168507E+03  0.47729168508E+03  0.25500000000E-02 0.  1.
    5000001    1    1    2    0    0 -0.62127845072E+02  0.24757367859E+02 -0.24704857986E+03  0.26727288903E+03  0.77000000000E+02 0.  0.
   -5000001    1    1    2    0    0  0.62127845072E+02 -0.24757367859E+02 -0.20831775910E+03  0.23194414231E+03  0.77000000000E+02 0.  0.
<mgrwt>
<rscale>  0 0.20459507E+03</rscale>
<asrwt>0</asrwt>
<pdfrwt beam="1">  1        2 0.73429482E-01 0.20459507E+03</pdfrwt>
<pdfrwt beam="2">  1       -2 0.33731305E-02 0.20459507E+03</pdfrwt>
<totfact> 0.22646656E+04</totfact>
</mgrwt>
</event>
<event>
 4    1  0.6207184E-004  0.2327475E+03  0.7818608E-02  0.1124721E+00
         -2   -1    0    0    0  501 -0.00000000000E+00  0.00000000000E+00  0.10726259706E+03  0.10726259709E+03  0.25500000000E-02 0. -1.
          2   -1    0    0  501    0  0.00000000000E+00 -0.00000000000E+00 -0.12625886797E+03  0.12625886799E+03  0.25500000000E-02 0.  1.
    5000001    1    1    2    0    0  0.46919147655E+02 -0.14456958990E+02 -0.81872898379E+02  0.12264820247E+03  0.77000000000E+02 0.  0.
   -5000001    1    1    2    0    0 -0.46919147655E+02  0.14456958990E+02  0.62876627468E+02  0.11087326261E+03  0.77000000000E+02 0.  0.
<mgrwt>
<rscale>  0 0.23274754E+03</rscale>
<asrwt>0</asrwt>
<pdfrwt beam="1">  1        2 0.19424441E-01 0.23274754E+03</pdfrwt>
<pdfrwt beam="2">  1       -2 0.16501938E-01 0.23274754E+03</pdfrwt>
<totfact> 0.82187325E+03</totfact>
</mgrwt>
</event>
<event>
 4    1  0.6207184E-004  0.2112129E+03  0.7818608E-02  0.1140609E+00
          2   -1    0    0  501    0  0.00000000000E+00  0.00000000000E+00  0.20427175231E+02  0.20427175390E+02  0.25500000000E-02 0.  1.
         -2   -1    0    0    0  501 -0.00000000000E+00 -0.00000000000E+00 -0.54597458639E+03  0.54597458640E+03  0.25500000000E-02 0. -1.
    5000001    1    1    2    0    0 -0.70390434676E+02  0.16354496406E+02 -0.26598694666E+03  0.28618235208E+03  0.77000000000E+02 0.  0.
   -5000001    1    1    2    0    0  0.70390434676E+02 -0.16354496406E+02 -0.25956046450E+03  0.28021940971E+03  0.77000000000E+02 0.  0.
<mgrwt>
<rscale>  0 0.21121287E+03</rscale>
<asrwt>0</asrwt>
<pdfrwt beam="1">  1        2 0.31426428E-02 0.21121287E+03</pdfrwt>
<pdfrwt beam="2">  1       -2 0.83996079E-01 0.21121287E+03</pdfrwt>
<totfact> 0.36900955E+03</totfact>
</mgrwt>
</event>
<event>
 4    1  0.6207184E-004  0.1771122E+03  0.7818608E-02  0.1170627E+00
          2   -1    0    0  501    0  0.00000000000E+00  0.00000000000E+00  0.17240031165E+03  0.17240031167E+03  0.25500000000E-02 0.  1.
         -2   -1    0    0    0  501 -0.00000000000E+00 -0.00000000000E+00 -0.45488231017E+02  0.45488231089E+02  0.25500000000E-02 0. -1.
    5000001    1    1    2    0    0 -0.17074881973E+02  0.39664011594E+02  0.54897343342E+02  0.10395914446E+03  0.77000000000E+02 0.  0.
   -5000001    1    1    2    0    0  0.17074881973E+02 -0.39664011594E+02  0.72014737288E+02  0.11392939830E+03  0.77000000000E+02 0.  0.
<mgrwt>
<rscale>  0 0.17711223E+03</rscale>
<asrwt>0</asrwt>
<pdfrwt beam="1">  1        2 0.26523125E-01 0.17711223E+03</pdfrwt>
<pdfrwt beam="2">  1       -2 0.69981894E-02 0.17711223E+03</pdfrwt>
<totfact> 0.22331888E+04</totfact>
</mgrwt>
</event>
<event>
 4    1  0.6207184E-004  0.1833283E+03  0.7818608E-02  0.1164620E+00
          2   -1    0    0  501    0  0.00000000000E+00  0.00000000000E+00  0.51486962080E+02  0.51486962143E+02  0.25500000000E-02 0.  1.
         -2   -1    0    0    0  501 -0.00000000000E+00 -0.00000000000E+00 -0.16319313140E+03  0.16319313142E+03  0.25500000000E-02 0. -1.
    5000001    1    1    2    0    0 -0.34146822362E+02  0.33458619183E+02 -0.71902129807E+02  0.11569097176E+03  0.77000000000E+02 0.  0.
   -5000001    1    1    2    0    0  0.34146822362E+02 -0.33458619183E+02 -0.39804039518E+02  0.98989121811E+02  0.77000000000E+02 0.  0.
<mgrwt>
<rscale>  0 0.18332832E+03</rscale>
<asrwt>0</asrwt>
<pdfrwt beam="1">  1        2 0.79210712E-02 0.18332832E+03</pdfrwt>
<pdfrwt beam="2">  1       -2 0.25106635E-01 0.18332832E+03</pdfrwt>
<totfact> 0.11662686E+04</totfact>
</mgrwt>
</event>
<event>
 4    1  0.6207184E-004  0.3176567E+03  0.7818608E-02  0.1076733E+00
          2   -1    0    0  501    0  0.00000000000E+00  0.00000000000E+00  0.49824566198E+03  0.49824566198E+03  0.25500000000E-02 0. -1.
         -2   -1    0    0    0  501 -0.00000000000E+00 -0.00000000000E+00 -0.50630532145E+02  0.50630532209E+02  0.25500000000E-02 0.  1.
    5000001    1    1    2    0    0  0.84268051515E+02 -0.97595671629E+02  0.31311502801E+03  0.34726940607E+03  0.77000000000E+02 0.  0.
   -5000001    1    1    2    0    0 -0.84268051515E+02  0.97595671629E+02  0.13450010182E+03  0.20160678812E+03  0.77000000000E+02 0.  0.
<mgrwt>
<rscale>  0 0.31765669E+03</rscale>
<asrwt>0</asrwt>
<pdfrwt beam="1">  1        2 0.76653180E-01 0.31765669E+03</pdfrwt>
<pdfrwt beam="2">  1       -2 0.77893125E-02 0.31765669E+03</pdfrwt>
<totfact> 0.61672326E+03</totfact>
</mgrwt>
</event>
<event>
 4    1  0.6207184E-004  0.3582971E+03  0.7818608E-02  0.1059260E+00
          2   -1    0    0  501    0  0.00000000000E+00  0.00000000000E+00  0.41965636147E+03  0.41965636148E+03  0.25500000000E-02 0.  1.
         -2   -1    0    0    0  501 -0.00000000000E+00 -0.00000000000E+00 -0.76477333221E+02  0.76477333264E+02  0.25500000000E-02 0. -1.
    5000001    1    1    2    0    0 -0.11070234124E+03 -0.36014968612E+02  0.32710247809E+03  0.35563621510E+03  0.77000000000E+02 0.  0.
   -5000001    1    1    2    0    0  0.11070234124E+03  0.36014968612E+02  0.16076550158E+02  0.14049747964E+03  0.77000000000E+02 0.  0.
<mgrwt>
<rscale>  0 0.35829708E+03</rscale>
<asrwt>0</asrwt>
<pdfrwt beam="1">  1        2 0.64562518E-01 0.35829708E+03</pdfrwt>
<pdfrwt beam="2">  1       -2 0.11765743E-01 0.35829708E+03</pdfrwt>
<totfact> 0.38812430E+03</totfact>
</mgrwt>
</event>
<event>
 4    1  0.6207184E-004  0.1872126E+03  0.7818608E-02  0.1161000E+00
         -2   -1    0    0    0  501 -0.00000000000E+00  0.00000000000E+00  0.15090044744E+03  0.15090044746E+03  0.25500000000E-02 0. -1.
          2   -1    0    0  501    0  0.00000000000E+00 -0.00000000000E+00 -0.58065696154E+02  0.58065696210E+02  0.25500000000E-02 0.  1.
    5000001    1    1    2    0    0 -0.17111883622E+02  0.35528822067E+02  0.86320845055E+02  0.12221048257E+03  0.77000000000E+02 0.  0.
   -5000001    1    1    2    0    0  0.17111883622E+02 -0.35528822067E+02  0.65139062265E+01  0.86755661100E+02  0.77000000000E+02 0.  0.
<mgrwt>
<rscale>  0 0.18721260E+03</rscale>
<asrwt>0</asrwt>
<pdfrwt beam="1">  1        2 0.89331842E-02 0.18721260E+03</pdfrwt>
<pdfrwt beam="2">  1       -2 0.23215453E-01 0.18721260E+03</pdfrwt>
<totfact> 0.11514163E+04</totfact>
</mgrwt>
</event>
<event>
 4    1  0.6207184E-004  0.2265236E+03  0.7818608E-02  0.1129111E+00
         -2   -1    0    0    0  501 -0.00000000000E+00  0.00000000000E+00  0.13039295510E+02  0.13039295759E+02  0.25500000000E-02 0. -1.
          2   -1    0    0  501    0  0.00000000000E+00 -0.00000000000E+00 -0.98381351772E+03  0.98381351772E+03  0.25500000000E-02 0.  1.
    5000001    1    1    2    0    0 -0.25179757615E+02  0.77626997762E+02 -0.55345723919E+03  0.56471575734E+03  0.77000000000E+02 0.  0.
   -5000001    1    1    2    0    0  0.25179757615E+02 -0.77626997762E+02 -0.41731698302E+03  0.43213705614E+03  0.77000000000E+02 0.  0.
<mgrwt>
<rscale>  0 0.22652360E+03</rscale>
<asrwt>0</asrwt>
<pdfrwt beam="1">  1        2 0.15135587E+00 0.22652360E+03</pdfrwt>
<pdfrwt beam="2">  1       -2 0.20060462E-02 0.22652360E+03</pdfrwt>
<totfact> 0.20403014E+04</totfact>
</mgrwt>
</event>
<event>
 4    1  0.6207184E-004  0.1834826E+03  0.7818608E-02  0.1164474E+00
         -2   -1    0    0    0  501 -0.00000000000E+00  0.00000000000E+00  0.61985496400E+01  0.61985501646E+01  0.25500000000E-02 0. -1.
          2   -1    0    0  501    0  0.00000000000E+00 -0.00000000000E+00 -0.13578125467E+04  0.13578125467E+04  0.25500000000E-02 0.  1.
    5000001    1    1    2    0    0  0.30157984738E+02 -0.35748537958E+02 -0.80456923570E+03  0.80959750311E+03  0.77000000000E+02 0.  0.
   -5000001    1    1    2    0    0 -0.30157984738E+02  0.35748537958E+02 -0.54704476137E+03  0.55441359376E+03  0.77000000000E+02 0.  0.
<mgrwt>
<rscale>  0 0.18348263E+03</rscale>
<asrwt>0</asrwt>
<pdfrwt beam="1">  1        2 0.20889400E+00 0.18348263E+03</pdfrwt>
<pdfrwt beam="2">  1       -2 0.95362414E-03 0.18348263E+03</pdfrwt>
<totfact> 0.36277471E+04</totfact>
</mgrwt>
</event>
<event>
 4    1  0.6207184E-004  0.3462738E+03  0.7818608E-02  0.1064155E+00
          2   -1    0    0  501    0  0.00000000000E+00  0.00000000000E+00  0.16420021165E+02  0.16420021363E+02  0.25500000000E-02 0.  1.
         -2   -1    0    0    0  501 -0.00000000000E+00 -0.00000000000E+00 -0.18255993839E+04  0.18255993839E+04  0.25500000000E-02 0. -1.
    5000001    1    1    2    0    0  0.12653094576E+02 -0.14847684996E+03 -0.11328908910E+04  0.11452406937E+04  0.77000000000E+02 0.  0.
   -5000001    1    1    2    0    0 -0.12653094576E+02  0.14847684996E+03 -0.67628847174E+03  0.69677871149E+03  0.77000000000E+02 0.  0.
<mgrwt>
<rscale>  0 0.34627377E+03</rscale>
<asrwt>0</asrwt>
<pdfrwt beam="1">  1        2 0.25261586E-02 0.34627377E+03</pdfrwt>
<pdfrwt beam="2">  1       -2 0.28086128E+00 0.34627377E+03</pdfrwt>
<totfact> 0.18706978E+02</totfact>
</mgrwt>
</event>
<event>
 4    1  0.6207184E-004  0.2031087E+03  0.7818608E-02  0.1147142E+00
         -2   -1    0    0    0  501 -0.00000000000E+00  0.00000000000E+00  0.13040460605E+03  0.13040460607E+03  0.25500000000E-02 0. -1.
          2   -1    0    0  501    0  0.00000000000E+00 -0.00000000000E+00 -0.79086838741E+02  0.79086838782E+02  0.25500000000E-02 0.  1.
    5000001    1    1    2    0    0  0.17925670769E+02  0.53240716790E+01  0.91173566813E+02  0.12079443157E+03  0.77000000000E+02 0.  0.
   -5000001    1    1    2    0    0 -0.17925670769E+02 -0.53240716790E+01 -0.39855799508E+02  0.88697013288E+02  0.77000000000E+02 0.  0.
<mgrwt>
<rscale>  0 0.20310872E+03</rscale>
<asrwt>0</asrwt>
<pdfrwt beam="1">  1        2 0.12167206E-01 0.20310872E+03</pdfrwt>
<pdfrwt beam="2">  1       -2 0.20062247E-01 0.20310872E+03</pdfrwt>
<totfact> 0.10178677E+04</totfact>
</mgrwt>
</event>
<event>
 4    1  0.6207184E-004  0.2333533E+03  0.7818608E-02  0.1124302E+00
         -2   -1    0    0    0  501 -0.00000000000E+00  0.00000000000E+00  0.46242294397E+02  0.46242294467E+02  0.25500000000E-02 0. -1.
          2   -1    0    0  501    0  0.00000000000E+00 -0.00000000000E+00 -0.29439363461E+03  0.29439363462E+03  0.25500000000E-02 0.  1.
    5000001    1    1    2    0    0  0.59761517548E+02  0.50588382725E+02 -0.66534851697E+02  0.12839980505E+03  0.77000000000E+02 0.  0.
   -5000001    1    1    2    0    0 -0.59761517548E+02 -0.50588382725E+02 -0.18161648852E+03  0.21223612404E+03  0.77000000000E+02 0.  0.
<mgrwt>
<rscale>  0 0.23335327E+03</rscale>
<asrwt>0</asrwt>
<pdfrwt beam="1">  1        2 0.45291327E-01 0.23335327E+03</pdfrwt>
<pdfrwt beam="2">  1       -2 0.71141993E-02 0.23335327E+03</pdfrwt>
<totfact> 0.12439407E+04</totfact>
</mgrwt>
</event>
<event>
 4    1  0.6207184E-004  0.2157731E+03  0.7818608E-02  0.1137074E+00
         -2   -1    0    0    0  501 -0.00000000000E+00  0.00000000000E+00  0.21819477026E+02  0.21819477175E+02  0.25500000000E-02 0. -1.
          2   -1    0    0  501    0  0.00000000000E+00 -0.00000000000E+00 -0.53344597938E+03  0.53344597939E+03  0.25500000000E-02 0.  1.
    5000001    1    1    2    0    0  0.41785250369E+02  0.61854418278E+02 -0.28610224086E+03  0.30554127124E+03  0.77000000000E+02 0.  0.
   -5000001    1    1    2    0    0 -0.41785250369E+02 -0.61854418278E+02 -0.22552426150E+03  0.24972418532E+03  0.77000000000E+02 0.  0.
<mgrwt>
<rscale>  0 0.21577314E+03</rscale>
<asrwt>0</asrwt>
<pdfrwt beam="1">  1        2 0.82068602E-01 0.21577314E+03</pdfrwt>
<pdfrwt beam="2">  1       -2 0.33568430E-02 0.21577314E+03</pdfrwt>
<totfact> 0.20225731E+04</totfact>
</mgrwt>
</event>
<event>
 4    1  0.6207184E-004  0.2945194E+03  0.7818608E-02  0.1088013E+00
          2   -1    0    0  501    0  0.00000000000E+00  0.00000000000E+00  0.19955889320E+04  0.19955889320E+04  0.25500000000E-02 0.  1.
         -2   -1    0    0    0  501 -0.00000000000E+00 -0.00000000000E+00 -0.10866674159E+02  0.10866674459E+02  0.25500000000E-02 0. -1.
    5000001    1    1    2    0    0 -0.26490034263E+02  0.12135855905E+03  0.86920608467E+03  0.88140673891E+03  0.77000000000E+02 0.  0.
   -5000001    1    1    2    0    0  0.26490034263E+02 -0.12135855905E+03  0.11155161731E+04  0.11250488675E+04  0.77000000000E+02 0.  0.
<mgrwt>
<rscale>  0 0.29451937E+03</rscale>
<asrwt>0</asrwt>
<pdfrwt beam="1">  1        2 0.30701394E+00 0.29451937E+03</pdfrwt>
<pdfrwt beam="2">  1       -2 0.16717946E-02 0.29451937E+03</pdfrwt>
<totfact> 0.75209979E+03</totfact>
</mgrwt>
</event>
<event>
 4    1  0.6207184E-004  0.3364260E+03  0.7818608E-02  0.1068328E+00
          2   -1    0    0  501    0  0.00000000000E+00  0.00000000000E+00  0.10735622087E+04  0.10735622087E+04  0.25500000000E-02 0.  1.
         -2   -1    0    0    0  501 -0.00000000000E+00 -0.00000000000E+00 -0.26356748087E+02  0.26356748210E+02  0.25500000000E-02 0. -1.
    5000001    1    1    2    0    0 -0.41157067019E+01  0.14399139034E+03  0.65503799377E+03  0.67509572122E+03  0.77000000000E+02 0.  0.
   -5000001    1    1    2    0    0  0.41157067019E+01 -0.14399139034E+03  0.39216746687E+03  0.42482323571E+03  0.77000000000E+02 0.  0.
<mgrwt>
<rscale>  0 0.33642597E+03</rscale>
<asrwt>0</asrwt>
<pdfrwt beam="1">  1        2 0.16516346E+00 0.33642597E+03</pdfrwt>
<pdfrwt beam="2">  1       -2 0.40548834E-02 0.33642597E+03</pdfrwt>
<totfact> 0.64006936E+03</totfact>
</mgrwt>
</event>
<event>
 4    1  0.6207184E-004  0.3813297E+03  0.7818608E-02  0.1050443E+00
         -2   -1    0    0    0  501 -0.00000000000E+00  0.00000000000E+00  0.14718968037E+02  0.14718968257E+02  0.25500000000E-02 0. -1.
          2   -1    0    0  501    0  0.00000000000E+00 -0.00000000000E+00 -0.24698118990E+04  0.24698118990E+04  0.25500000000E-02 0.  1.
    5000001    1    1    2    0    0  0.10312960763E+02  0.13774500577E+03 -0.53359734047E+03  0.55653855709E+03  0.77000000000E+02 0.  0.
   -5000001    1    1    2    0    0 -0.10312960763E+02 -0.13774500577E+03 -0.19214955905E+04  0.19279923101E+04  0.77000000000E+02 0.  0.
<mgrwt>
<rscale>  0 0.38132969E+03</rscale>
<asrwt>0</asrwt>
<pdfrwt beam="1">  1        2 0.37997073E+00 0.38132969E+03</pdfrwt>
<pdfrwt beam="2">  1       -2 0.22644586E-02 0.38132969E+03</pdfrwt>
<totfact> 0.26600983E+03</totfact>
</mgrwt>
</event>
<event>
 4    1  0.6207184E-004  0.3900452E+03  0.7818608E-02  0.1047282E+00
         -2   -1    0    0    0  501 -0.00000000000E+00  0.00000000000E+00  0.13134149417E+03  0.13134149419E+03  0.25500000000E-02 0. -1.
          2   -1    0    0  501    0  0.00000000000E+00 -0.00000000000E+00 -0.28957961749E+03  0.28957961750E+03  0.25500000000E-02 0.  1.
    5000001    1    1    2    0    0 -0.65420148688E+02  0.59737889091E+02 -0.24719246326E+03  0.27364488876E+03  0.77000000000E+02 0.  0.
   -5000001    1    1    2    0    0  0.65420148688E+02 -0.59737889091E+02  0.88954339943E+02  0.14727622294E+03  0.77000000000E+02 0.  0.
<mgrwt>
<rscale>  0 0.39004523E+03</rscale>
<asrwt>0</asrwt>
<pdfrwt beam="1">  1        2 0.44550710E-01 0.39004523E+03</pdfrwt>
<pdfrwt beam="2">  1       -2 0.20206384E-01 0.39004523E+03</pdfrwt>
<totfact> 0.23606687E+03</totfact>
</mgrwt>
</event>
<event>
 4    1  0.6207184E-004  0.3370027E+03  0.7818608E-02  0.1068080E+00
          2   -1    0    0  501    0  0.00000000000E+00  0.00000000000E+00  0.39694411178E+03  0.39694411179E+03  0.25500000000E-02 0.  1.
         -2   -1    0    0    0  501 -0.00000000000E+00 -0.00000000000E+00 -0.71528224515E+02  0.71528224561E+02  0.25500000000E-02 0. -1.
    5000001    1    1    2    0    0 -0.14031987330E+03 -0.11569229136E+02  0.23413593568E+03  0.28385233888E+03  0.77000000000E+02 0.  0.
   -5000001    1    1    2    0    0  0.14031987330E+03  0.11569229136E+02  0.91279951584E+02  0.18461999748E+03  0.77000000000E+02 0.  0.
<mgrwt>
<rscale>  0 0.33700272E+03</rscale>
<asrwt>0</asrwt>
<pdfrwt beam="1">  1        2 0.61068324E-01 0.33700272E+03</pdfrwt>
<pdfrwt beam="2">  1       -2 0.11004342E-01 0.33700272E+03</pdfrwt>
<totfact> 0.45913226E+03</totfact>
</mgrwt>
</event>
<event>
 4    1  0.6207184E-004  0.3280935E+03  0.7818608E-02  0.1071984E+00
         -2   -1    0    0    0  501 -0.00000000000E+00  0.00000000000E+00  0.75959728148E+02  0.75959728191E+02  0.25500000000E-02 0. -1.
          2   -1    0    0  501    0  0.00000000000E+00 -0.00000000000E+00 -0.35428418966E+03  0.35428418967E+03  0.25500000000E-02 0.  1.
    5000001    1    1    2    0    0 -0.48982730311E+02  0.13626799845E+03 -0.14407854845E+03  0.21830232109E+03  0.77000000000E+02 0.  0.
   -5000001    1    1    2    0    0  0.48982730311E+02 -0.13626799845E+03 -0.13424591307E+03  0.21194159678E+03  0.77000000000E+02 0.  0.
<mgrwt>
<rscale>  0 0.32809347E+03</rscale>
<asrwt>0</asrwt>
<pdfrwt beam="1">  1        2 0.54505259E-01 0.32809347E+03</pdfrwt>
<pdfrwt beam="2">  1       -2 0.11686112E-01 0.32809347E+03</pdfrwt>
<totfact> 0.47134003E+03</totfact>
</mgrwt>
</event>
<event>
 4    1  0.6207184E-004  0.4074092E+03  0.7818608E-02  0.1041244E+00
         -2   -1    0    0    0  501 -0.00000000000E+00  0.00000000000E+00  0.21623693563E+02  0.21623693713E+02  0.25500000000E-02 0. -1.
          2   -1    0    0  501    0  0.00000000000E+00 -0.00000000000E+00 -0.19189862497E+04  0.19189862497E+04  0.25500000000E-02 0.  1.
    5000001    1    1    2    0    0  0.16117565916E+02 -0.18699701043E+03 -0.10363715568E+04  0.10560410322E+04  0.77000000000E+02 0.  0.
   -5000001    1    1    2    0    0 -0.16117565916E+02  0.18699701043E+03 -0.86099099933E+03  0.88456891125E+03  0.77000000000E+02 0.  0.
<mgrwt>
<rscale>  0 0.40740923E+03</rscale>
<asrwt>0</asrwt>
<pdfrwt beam="1">  1        2 0.29522852E+00 0.40740923E+03</pdfrwt>
<pdfrwt beam="2">  1       -2 0.33267236E-02 0.40740923E+03</pdfrwt>
<totfact> 0.29597995E+03</totfact>
</mgrwt>
</event>
<event>
 4    1  0.6207184E-004  0.1978631E+03  0.7818608E-02  0.1151554E+00
          2   -1    0    0  501    0  0.00000000000E+00  0.00000000000E+00  0.20728699837E+04  0.20728699837E+04  0.25500000000E-02 0.  1.
         -2   -1    0    0    0  501 -0.00000000000E+00 -0.00000000000E+00 -0.47216927848E+01  0.47216934734E+01  0.25500000000E-02 0. -1.
    5000001    1    1    2    0    0  0.54390094618E+02  0.24416283866E+02  0.85099224771E+03  0.85654611258E+03  0.77000000000E+02 0.  0.
   -5000001    1    1    2    0    0 -0.54390094618E+02 -0.24416283866E+02  0.12171560432E+04  0.12210455646E+04  0.77000000000E+02 0.  0.
<mgrwt>
<rscale>  0 0.19786314E+03</rscale>
<asrwt>0</asrwt>
<pdfrwt beam="1">  1        2 0.31890305E+00 0.19786314E+03</pdfrwt>
<pdfrwt beam="2">  1       -2 0.72641438E-03 0.19786314E+03</pdfrwt>
<totfact> 0.22767599E+04</totfact>
</mgrwt>
</event>
<event>
 4    1  0.6207184E-004  0.2729833E+03  0.7818608E-02  0.1099584E+00
         -2   -1    0    0    0  501 -0.00000000000E+00  0.00000000000E+00  0.37781363282E+03  0.37781363283E+03  0.25500000000E-02 0. -1.
          2   -1    0    0  501    0  0.00000000000E+00 -0.00000000000E+00 -0.49309957507E+02  0.49309957573E+02  0.25500000000E-02 0.  1.
    5000001    1    1    2    0    0 -0.74374809306E+02  0.66333273937E+02  0.81914048618E+02  0.15023523838E+03  0.77000000000E+02 0.  0.
   -5000001    1    1    2    0    0  0.74374809306E+02 -0.66333273937E+02  0.24658962669E+03  0.27688835202E+03  0.77000000000E+02 0.  0.
<mgrwt>
<rscale>  0 0.27298333E+03</rscale>
<asrwt>0</asrwt>
<pdfrwt beam="1">  1        2 0.75861474E-02 0.27298333E+03</pdfrwt>
<pdfrwt beam="2">  1       -2 0.58125174E-01 0.27298333E+03</pdfrwt>
<totfact> 0.25632054E+03</totfact>
</mgrwt>
</event>
<event>
 4    1  0.6207184E-004  0.2289825E+03  0.7818608E-02  0.1127358E+00
         -2   -1    0    0    0  501 -0.00000000000E+00  0.00000000000E+00  0.57800508952E+01  0.57800514577E+01  0.25500000000E-02 0. -1.
          2   -1    0    0  501    0  0.00000000000E+00 -0.00000000000E+00 -0.22678420960E+04  0.22678420960E+04  0.25500000000E-02 0.  1.
    5000001    1    1    2    0    0  0.39394175369E+02  0.74749728221E+02 -0.11936879597E+04  0.11991494352E+04  0.77000000000E+02 0.  0.
   -5000001    1    1    2    0    0 -0.39394175369E+02 -0.74749728221E+02 -0.10683740854E+04  0.10744727122E+04  0.77000000000E+02 0.  0.
<mgrwt>
<rscale>  0 0.22898247E+03</rscale>
<asrwt>0</asrwt>
<pdfrwt beam="1">  1        2 0.34889807E+00 0.22898247E+03</pdfrwt>
<pdfrwt beam="2">  1       -2 0.88924046E-03 0.22898247E+03</pdfrwt>
<totfact> 0.13494770E+04</totfact>
</mgrwt>
</event>
<event>
 4    1  0.6207184E-004  0.3180243E+03  0.7818608E-02  0.1076562E+00
         -2   -1    0    0    0  501 -0.00000000000E+00  0.00000000000E+00  0.21151868119E+02  0.21151868273E+02  0.25500000000E-02 0. -1.
          2   -1    0    0  501    0  0.00000000000E+00 -0.00000000000E+00 -0.11953960865E+04  0.11953960865E+04  0.25500000000E-02 0.  1.
    5000001    1    1    2    0    0  0.13442979958E+03  0.52565636376E+01 -0.72273846245E+03  0.73917446356E+03  0.77000000000E+02 0.  0.
   -5000001    1    1    2    0    0 -0.13442979958E+03 -0.52565636376E+01 -0.45150575593E+03  0.47737349121E+03  0.77000000000E+02 0.  0.
<mgrwt>
<rscale>  0 0.31802428E+03</rscale>
<asrwt>0</asrwt>
<pdfrwt beam="1">  1        2 0.18390704E+00 0.31802428E+03</pdfrwt>
<pdfrwt beam="2">  1       -2 0.32541345E-02 0.31802428E+03</pdfrwt>
<totfact> 0.75587849E+03</totfact>
</mgrwt>
</event>
<event>
 4    1  0.6207184E-004  0.2235121E+03  0.7818608E-02  0.1131291E+00
         -2   -1    0    0    0  501 -0.00000000000E+00  0.00000000000E+00  0.62393507470E+01  0.62393512681E+01  0.25500000000E-02 0. -1.
          2   -1    0    0  501    0  0.00000000000E+00 -0.00000000000E+00 -0.20017163683E+04  0.20017163683E+04  0.25500000000E-02 0.  1.
    5000001    1    1    2    0    0  0.65836517247E+02  0.23596350173E+02 -0.13647707880E+04  0.13687291692E+04  0.77000000000E+02 0.  0.
   -5000001    1    1    2    0    0 -0.65836517247E+02 -0.23596350173E+02 -0.63070622951E+03  0.63922655036E+03  0.77000000000E+02 0.  0.
<mgrwt>
<rscale>  0 0.22351207E+03</rscale>
<asrwt>0</asrwt>
<pdfrwt beam="1">  1        2 0.30795585E+00 0.22351207E+03</pdfrwt>
<pdfrwt beam="2">  1       -2 0.95990176E-03 0.22351207E+03</pdfrwt>
<totfact> 0.16671713E+04</totfact>
</mgrwt>
</event>
<event>
 4    1  0.6207184E-004  0.3263593E+03  0.7818608E-02  0.1072759E+00
         -2   -1    0    0    0  501 -0.00000000000E+00  0.00000000000E+00  0.12172121689E+03  0.12172121691E+03  0.25500000000E-02 0. -1.
          2   -1    0    0  501    0  0.00000000000E+00 -0.00000000000E+00 -0.21875882595E+03  0.21875882597E+03  0.25500000000E-02 0.  1.
    5000001    1    1    2    0    0  0.20151873580E+02 -0.12256536335E+03  0.27218575263E+02  0.14865469095E+03  0.77000000000E+02 0.  0.
   -5000001    1    1    2    0    0 -0.20151873580E+02  0.12256536335E+03 -0.12425618433E+03  0.19182535193E+03  0.77000000000E+02 0.  0.
<mgrwt>
<rscale>  0 0.32635925E+03</rscale>
<asrwt>0</asrwt>
<pdfrwt beam="1">  1        2 0.33655204E-01 0.32635925E+03</pdfrwt>
<pdfrwt beam="2">  1       -2 0.18726341E-01 0.32635925E+03</pdfrwt>
<totfact> 0.36396127E+03</totfact>
</mgrwt>
</event>
<event>
 4    1  0.6207184E-004  0.4634493E+03  0.7818608E-02  0.1023786E+00
          2   -1    0    0  501    0  0.00000000000E+00  0.00000000000E+00  0.64606436769E+02  0.64606436820E+02  0.25500000000E-02 0.  1.
         -2   -1    0    0    0  501 -0.00000000000E+00 -0.00000000000E+00 -0.83112953525E+03  0.83112953525E+03  0.25500000000E-02 0. -1.
    5000001    1    1    2    0    0  0.13150318062E+03  0.82836312890E+02 -0.68025550944E+03  0.70201958618E+03  0.77000000000E+02 0.  0.
   -5000001    1    1    2    0    0 -0.13150318062E+03 -0.82836312890E+02 -0.86267589038E+02  0.19371638590E+03  0.77000000000E+02 0.  0.
<mgrwt>
<rscale>  0 0.46344932E+03</rscale>
<asrwt>0</asrwt>
<pdfrwt beam="1">  1        2 0.99394524E-02 0.46344932E+03</pdfrwt>
<pdfrwt beam="2">  1       -2 0.12786608E+00 0.46344932E+03</pdfrwt>
<totfact> 0.30744348E+02</totfact>
</mgrwt>
</event>
<event>
 4    1  0.6207184E-004  0.5380988E+03  0.7818608E-02  0.1004287E+00
          2   -1    0    0  501    0  0.00000000000E+00  0.00000000000E+00  0.12618639869E+04  0.12618639869E+04  0.25500000000E-02 0. -1.
         -2   -1    0    0    0  501 -0.00000000000E+00 -0.00000000000E+00 -0.57365588801E+02  0.57365588857E+02  0.25500000000E-02 0.  1.
    5000001    1    1    2    0    0 -0.22630277584E+03  0.10589280620E+03  0.44656775894E+03  0.51747270081E+03  0.77000000000E+02 0.  0.
   -5000001    1    1    2    0    0  0.22630277584E+03 -0.10589280620E+03  0.75793063920E+03  0.80175687499E+03  0.77000000000E+02 0.  0.
<mgrwt>
<rscale>  0 0.53809877E+03</rscale>
<asrwt>0</asrwt>
<pdfrwt beam="1">  1        2 0.19413293E+00 0.53809877E+03</pdfrwt>
<pdfrwt beam="2">  1       -2 0.88254750E-02 0.53809877E+03</pdfrwt>
<totfact> 0.14821371E+03</totfact>
</mgrwt>
</event>
<event>
 4    1  0.6207184E-004  0.2752933E+03  0.7818608E-02  0.1098288E+00
         -2   -1    0    0    0  501 -0.00000000000E+00  0.00000000000E+00  0.29884538717E+03  0.29884538719E+03  0.25500000000E-02 0. -1.
          2   -1    0    0  501    0  0.00000000000E+00 -0.00000000000E+00 -0.63399318281E+02  0.63399318333E+02  0.25500000000E-02 0.  1.
    5000001    1    1    2    0    0  0.84469799744E+02 -0.45262275501E+02  0.19919715584E+03  0.23407761009E+03  0.77000000000E+02 0.  0.
   -5000001    1    1    2    0    0 -0.84469799744E+02  0.45262275501E+02  0.36248913055E+02  0.12816709543E+03  0.77000000000E+02 0.  0.
<mgrwt>
<rscale>  0 0.27529325E+03</rscale>
<asrwt>0</asrwt>
<pdfrwt beam="1">  1        2 0.97537413E-02 0.27529325E+03</pdfrwt>
<pdfrwt beam="2">  1       -2 0.45976213E-01 0.27529325E+03</pdfrwt>
<totfact> 0.29904124E+03</totfact>
</mgrwt>
</event>
<event>
 4    1  0.6207184E-004  0.2042112E+03  0.7818608E-02  0.1146234E+00
          2   -1    0    0  501    0  0.00000000000E+00  0.00000000000E+00  0.66093307389E+03  0.66093307389E+03  0.25500000000E-02 0.  1.
         -2   -1    0    0    0  501 -0.00000000000E+00 -0.00000000000E+00 -0.15773985410E+02  0.15773985617E+02  0.25500000000E-02 0. -1.
    5000001    1    1    2    0    0 -0.56330141743E+02 -0.24844859294E+02  0.41064064974E+03  0.42230924110E+03  0.77000000000E+02 0.  0.
   -5000001    1    1    2    0    0  0.56330141743E+02  0.24844859294E+02  0.23451843874E+03  0.25439781841E+03  0.77000000000E+02 0.  0.
<mgrwt>
<rscale>  0 0.20421115E+03</rscale>
<asrwt>0</asrwt>
<pdfrwt beam="1">  1        2 0.10168200E+00 0.20421115E+03</pdfrwt>
<pdfrwt beam="2">  1       -2 0.24267673E-02 0.20421115E+03</pdfrwt>
<totfact> 0.25441974E+04</totfact>
</mgrwt>
</event>
<event>
 4    1  0.6207184E-004  0.2885473E+03  0.7818608E-02  0.1091110E+00
         -2   -1    0    0    0  501 -0.00000000000E+00  0.00000000000E+00  0.19901389953E+03  0.19901389954E+03  0.25500000000E-02 0. -1.
          2   -1    0    0  501    0  0.00000000000E+00 -0.00000000000E+00 -0.10459009099E+03  0.10459009103E+03  0.25500000000E-02 0.  1.
    5000001    1    1    2    0    0 -0.44002305630E+02  0.10579893862E+03  0.91306498360E+02  0.16551584503E+03  0.77000000000E+02 0.  0.
   -5000001    1    1    2    0    0  0.44002305630E+02 -0.10579893862E+03  0.31173101720E+01  0.13808814553E+03  0.77000000000E+02 0.  0.
<mgrwt>
<rscale>  0 0.28854727E+03</rscale>
<asrwt>0</asrwt>
<pdfrwt beam="1">  1        2 0.16090783E-01 0.28854727E+03</pdfrwt>
<pdfrwt beam="2">  1       -2 0.30617523E-01 0.28854727E+03</pdfrwt>
<totfact> 0.35202136E+03</totfact>
</mgrwt>
</event>
<event>
 4    1  0.6207184E-004  0.1859708E+03  0.7818608E-02  0.1162146E+00
         -2   -1    0    0    0  501 -0.00000000000E+00  0.00000000000E+00  0.29835663374E+01  0.29835674272E+01  0.25500000000E-02 0. -1.
          2   -1    0    0  501    0  0.00000000000E+00 -0.00000000000E+00 -0.28979679079E+04  0.28979679079E+04  0.25500000000E-02 0.  1.
    5000001    1    1    2    0    0  0.47403620093E+02  0.99413607314E+01 -0.17480900326E+04  0.17504552824E+04  0.77000000000E+02 0.  0.
   -5000001    1    1    2    0    0 -0.47403620093E+02 -0.99413607314E+01 -0.11468943090E+04  0.11504961929E+04  0.77000000000E+02 0.  0.
<mgrwt>
<rscale>  0 0.18597076E+03</rscale>
<asrwt>0</asrwt>
<pdfrwt beam="1">  1        2 0.44583897E+00 0.18597076E+03</pdfrwt>
<pdfrwt beam="2">  1       -2 0.45901261E-03 0.18597076E+03</pdfrwt>
<totfact> 0.15626599E+04</totfact>
</mgrwt>
</event>
<event>
 4    1  0.6207184E-004  0.1829687E+03  0.7818608E-02  0.1164960E+00
         -2   -1    0    0    0  501 -0.00000000000E+00  0.00000000000E+00  0.22499616131E+01  0.22499630581E+01  0.25500000000E-02 0. -1.
          2   -1    0    0  501    0  0.00000000000E+00 -0.00000000000E+00 -0.37197903465E+04  0.37197903465E+04  0.25500000000E-02 0.  1.
    5000001    1    1    2    0    0  0.31413512145E+02 -0.36540602880E+02 -0.16374537785E+04  0.16399713110E+04  0.77000000000E+02 0.  0.
   -5000001    1    1    2    0    0 -0.31413512145E+02  0.36540602880E+02 -0.20800866064E+04  0.20820689985E+04  0.77000000000E+02 0.  0.
<mgrwt>
<rscale>  0 0.18296872E+03</rscale>
<asrwt>0</asrwt>
<pdfrwt beam="1">  1        2 0.57227051E+00 0.18296872E+03</pdfrwt>
<pdfrwt beam="2">  1       -2 0.34615103E-03 0.18296872E+03</pdfrwt>
<totfact> 0.71184680E+03</totfact>
</mgrwt>
</event>
<event>
 4    1  0.6207184E-004  0.2062672E+03  0.7818608E-02  0.1144556E+00
         -2   -1    0    0    0  501 -0.00000000000E+00  0.00000000000E+00  0.37343967827E+02  0.37343967914E+02  0.25500000000E-02 0. -1.
          2   -1    0    0  501    0  0.00000000000E+00 -0.00000000000E+00 -0.28482629183E+03  0.28482629184E+03  0.25500000000E-02 0.  1.
    5000001    1    1    2    0    0  0.43272504006E+02 -0.46753033910E+02 -0.16353725731E+03  0.19165539468E+03  0.77000000000E+02 0.  0.
   -5000001    1    1    2    0    0 -0.43272504006E+02  0.46753033910E+02 -0.83945066690E+02  0.13051486507E+03  0.77000000000E+02 0.  0.
<mgrwt>
<rscale>  0 0.20626724E+03</rscale>
<asrwt>0</asrwt>
<pdfrwt beam="1">  1        2 0.43819428E-01 0.20626724E+03</pdfrwt>
<pdfrwt beam="2">  1       -2 0.57452260E-02 0.20626724E+03</pdfrwt>
<totfact> 0.17751728E+04</totfact>
</mgrwt>
</event>
<event>
 4    1  0.6207184E-004  0.4086766E+03  0.7818608E-02  0.1040816E+00
         -2   -1    0    0    0  501 -0.00000000000E+00  0.00000000000E+00  0.17253099779E+02  0.17253099968E+02  0.25500000000E-02 0. -1.
          2   -1    0    0  501    0  0.00000000000E+00 -0.00000000000E+00 -0.24200952153E+04  0.24200952153E+04  0.25500000000E-02 0.  1.
    5000001    1    1    2    0    0  0.16360175673E+03 -0.17182430008E+02 -0.64308168812E+03  0.66823934956E+03  0.77000000000E+02 0.  0.
   -5000001    1    1    2    0    0 -0.16360175673E+03  0.17182430008E+02 -0.17597604274E+04  0.17691089657E+04  0.77000000000E+02 0.  0.
<mgrwt>
<rscale>  0 0.40867662E+03</rscale>
<asrwt>0</asrwt>
<pdfrwt beam="1">  1        2 0.37232207E+00 0.40867662E+03</pdfrwt>
<pdfrwt beam="2">  1       -2 0.26543250E-02 0.40867662E+03</pdfrwt>
<totfact> 0.22301637E+03</totfact>
</mgrwt>
</event>
<event>
 4    1  0.6207184E-004  0.2045034E+03  0.7818608E-02  0.1145994E+00
          2   -1    0    0  501    0  0.00000000000E+00  0.00000000000E+00  0.59549844761E+03  0.59549844762E+03  0.25500000000E-02 0.  1.
         -2   -1    0    0    0  501 -0.00000000000E+00 -0.00000000000E+00 -0.17557413772E+02  0.17557413958E+02  0.25500000000E-02 0. -1.
    5000001    1    1    2    0    0  0.63476030934E+02  0.12038482292E+02  0.23270476035E+03  0.25348498387E+03  0.77000000000E+02 0.  0.
   -5000001    1    1    2    0    0 -0.63476030934E+02 -0.12038482292E+02  0.34523627349E+03  0.35957087771E+03  0.77000000000E+02 0.  0.
<mgrwt>
<rscale>  0 0.20450342E+03</rscale>
<asrwt>0</asrwt>
<pdfrwt beam="1">  1        2 0.91615123E-01 0.20450342E+03</pdfrwt>
<pdfrwt beam="2">  1       -2 0.27011413E-02 0.20450342E+03</pdfrwt>
<totfact> 0.24538634E+04</totfact>
</mgrwt>
</event>
<event>
 4    1  0.6207184E-004  0.6318792E+03  0.7818608E-02  0.9841389E-01
         -2   -1    0    0    0  501 -0.00000000000E+00  0.00000000000E+00  0.51537308133E+02  0.51537308196E+02  0.25500000000E-02 0. -1.
          2   -1    0    0  501    0  0.00000000000E+00 -0.00000000000E+00 -0.19368072032E+04  0.19368072032E+04  0.25500000000E-02 0.  1.
    5000001    1    1    2    0    0 -0.18847413576E+03  0.23753695221E+03 -0.80394626664E+03  0.86267311489E+03  0.77000000000E+02 0.  0.
   -5000001    1    1    2    0    0  0.18847413576E+03 -0.23753695221E+03 -0.10813236284E+04  0.11256713965E+04  0.77000000000E+02 0.  0.
<mgrwt>
<rscale>  0 0.63187920E+03</rscale>
<asrwt>0</asrwt>
<pdfrwt beam="1">  1        2 0.29797028E+00 0.63187920E+03</pdfrwt>
<pdfrwt beam="2">  1       -2 0.79288181E-02 0.63187920E+03</pdfrwt>
<totfact> 0.74446366E+02</totfact>
</mgrwt>
</event>
<event>
 4    1  0.6207184E-004  0.2435999E+03  0.7818608E-02  0.1117418E+00
          2   -1    0    0  501    0  0.00000000000E+00  0.00000000000E+00  0.88193990295E+02  0.88193990332E+02  0.25500000000E-02 0.  1.
         -2   -1    0    0    0  501 -0.00000000000E+00 -0.00000000000E+00 -0.16821135047E+03  0.16821135049E+03  0.25500000000E-02 0. -1.
    5000001    1    1    2    0    0 -0.36920163034E+02 -0.79207318241E+02 -0.77509229386E+02  0.13990560511E+03  0.77000000000E+02 0.  0.
   -5000001    1    1    2    0    0  0.36920163034E+02  0.79207318241E+02 -0.25081307926E+01  0.11649973571E+03  0.77000000000E+02 0.  0.
<mgrwt>
<rscale>  0 0.24359992E+03</rscale>
<asrwt>0</asrwt>
<pdfrwt beam="1">  1        2 0.13568306E-01 0.24359992E+03</pdfrwt>
<pdfrwt beam="2">  1       -2 0.25878669E-01 0.24359992E+03</pdfrwt>
<totfact> 0.57952249E+03</totfact>
</mgrwt>
</event>
<event>
 4    1  0.6207184E-004  0.2453744E+03  0.7818608E-02  0.1116263E+00
         -2   -1    0    0    0  501 -0.00000000000E+00  0.00000000000E+00  0.21124688216E+02  0.21124688370E+02  0.25500000000E-02 0. -1.
          2   -1    0    0  501    0  0.00000000000E+00 -0.00000000000E+00 -0.71253808048E+03  0.71253808049E+03  0.25500000000E-02 0.  1.
    5000001    1    1    2    0    0 -0.71402853843E+02 -0.13925030072E+02 -0.53076818244E+03  0.54123575038E+03  0.77000000000E+02 0.  0.
   -5000001    1    1    2    0    0  0.71402853843E+02  0.13925030072E+02 -0.16064520983E+03  0.19242701848E+03  0.77000000000E+02 0.  0.
<mgrwt>
<rscale>  0 0.24537437E+03</rscale>
<asrwt>0</asrwt>
<pdfrwt beam="1">  1        2 0.10962122E+00 0.24537437E+03</pdfrwt>
<pdfrwt beam="2">  1       -2 0.32499526E-02 0.24537437E+03</pdfrwt>
<totfact> 0.15253233E+04</totfact>
</mgrwt>
</event>
<event>
 4    1  0.6207184E-004  0.3955591E+03  0.7818608E-02  0.1045328E+00
         -2   -1    0    0    0  501 -0.00000000000E+00  0.00000000000E+00  0.14063342111E+02  0.14063342342E+02  0.25500000000E-02 0. -1.
          2   -1    0    0  501    0  0.00000000000E+00 -0.00000000000E+00 -0.27814690854E+04  0.27814690854E+04  0.25500000000E-02 0.  1.
    5000001    1    1    2    0    0 -0.98465827452E+02 -0.61595238899E+02 -0.23756009964E+04  0.23796845562E+04  0.77000000000E+02 0.  0.
   -5000001    1    1    2    0    0  0.98465827452E+02  0.61595238899E+02 -0.39180474684E+03  0.41584787155E+03  0.77000000000E+02 0.  0.
<mgrwt>
<rscale>  0 0.39555911E+03</rscale>
<asrwt>0</asrwt>
<pdfrwt beam="1">  1        2 0.42791788E+00 0.39555911E+03</pdfrwt>
<pdfrwt beam="2">  1       -2 0.21635933E-02 0.39555911E+03</pdfrwt>
<totfact> 0.18966877E+03</totfact>
</mgrwt>
</event>
<event>
 4    1  0.6207184E-004  0.3729922E+03  0.7818608E-02  0.1053555E+00
         -2   -1    0    0    0  501 -0.00000000000E+00  0.00000000000E+00  0.70220472679E+03  0.70220472680E+03  0.25500000000E-02 0. -1.
          2   -1    0    0  501    0  0.00000000000E+00 -0.00000000000E+00 -0.49530841488E+02  0.49530841553E+02  0.25500000000E-02 0.  1.
    5000001    1    1    2    0    0  0.12438547838E+03  0.98089679677E+02  0.20277911657E+03  0.26859207473E+03  0.77000000000E+02 0.  0.
   -5000001    1    1    2    0    0 -0.12438547838E+03 -0.98089679677E+02  0.44989476874E+03  0.48314349362E+03  0.77000000000E+02 0.  0.
<mgrwt>
<rscale>  0 0.37299218E+03</rscale>
<asrwt>0</asrwt>
<pdfrwt beam="1">  1        2 0.76201296E-02 0.37299218E+03</pdfrwt>
<pdfrwt beam="2">  1       -2 0.10803149E+00 0.37299218E+03</pdfrwt>
<totfact> 0.65071675E+02</totfact>
</mgrwt>
</event>
<event>
 4    1  0.6207184E-004  0.5835702E+03  0.7818608E-02  0.9940091E-01
          2   -1    0    0  501    0  0.00000000000E+00  0.00000000000E+00  0.28366740096E+03  0.28366740098E+03  0.25500000000E-02 0.  1.
         -2   -1    0    0    0  501 -0.00000000000E+00 -0.00000000000E+00 -0.30013509204E+03  0.30013509205E+03  0.25500000000E-02 0. -1.
    5000001    1    1    2    0    0 -0.16967687951E+03  0.19701651053E+03 -0.11599762795E+03  0.29494100859E+03  0.77000000000E+02 0.  0.
   -5000001    1    1    2    0    0  0.16967687951E+03 -0.19701651053E+03  0.99529936867E+02  0.28886148444E+03  0.77000000000E+02 0.  0.
<mgrwt>
<rscale>  0 0.58357019E+03</rscale>
<asrwt>0</asrwt>
<pdfrwt beam="1">  1        2 0.43641139E-01 0.58357019E+03</pdfrwt>
<pdfrwt beam="2">  1       -2 0.46174630E-01 0.58357019E+03</pdfrwt>
<totfact> 0.52390811E+02</totfact>
</mgrwt>
</event>
<event>
 4    1  0.6207184E-004  0.2950630E+03  0.7818608E-02  0.1087735E+00
         -2   -1    0    0    0  501 -0.00000000000E+00  0.00000000000E+00  0.92466563099E+01  0.92466566615E+01  0.25500000000E-02 0. -1.
          2   -1    0    0  501    0  0.00000000000E+00 -0.00000000000E+00 -0.23538824607E+04  0.23538824607E+04  0.25500000000E-02 0.  1.
    5000001    1    1    2    0    0 -0.39499621787E+02  0.74375313651E+02 -0.42338389062E+03  0.43849153497E+03  0.77000000000E+02 0.  0.
   -5000001    1    1    2    0    0  0.39499621787E+02 -0.74375313651E+02 -0.19212519138E+04  0.19246375824E+04  0.77000000000E+02 0.  0.
<mgrwt>
<rscale>  0 0.29506299E+03</rscale>
<asrwt>0</asrwt>
<pdfrwt beam="1">  1        2 0.36213529E+00 0.29506299E+03</pdfrwt>
<pdfrwt beam="2">  1       -2 0.14225644E-02 0.29506299E+03</pdfrwt>
<totfact> 0.61399560E+03</totfact>
</mgrwt>
</event>
<event>
 4    1  0.6207184E-004  0.3964246E+03  0.7818608E-02  0.1045025E+00
          2   -1    0    0  501    0  0.00000000000E+00  0.00000000000E+00  0.67366919260E+03  0.67366919260E+03  0.25500000000E-02 0.  1.
         -2   -1    0    0    0  501 -0.00000000000E+00 -0.00000000000E+00 -0.58319583332E+02  0.58319583387E+02  0.25500000000E-02 0. -1.
    5000001    1    1    2    0    0 -0.52657935261E+02 -0.73365363332E+02  0.60081585990E+03  0.61242471553E+03  0.77000000000E+02 0.  0.
   -5000001    1    1    2    0    0  0.52657935261E+02  0.73365363332E+02  0.14533749364E+02  0.11956406046E+03  0.77000000000E+02 0.  0.
<mgrwt>
<rscale>  0 0.39642455E+03</rscale>
<asrwt>0</asrwt>
<pdfrwt beam="1">  1        2 0.10364141E+00 0.39642455E+03</pdfrwt>
<pdfrwt beam="2">  1       -2 0.89722438E-02 0.39642455E+03</pdfrwt>
<totfact> 0.34858872E+03</totfact>
</mgrwt>
</event>
<event>
 4    1  0.6207184E-004  0.4121681E+03  0.7818608E-02  0.1039646E+00
          2   -1    0    0  501    0  0.00000000000E+00  0.00000000000E+00  0.22062844156E+03  0.22062844157E+03  0.25500000000E-02 0.  1.
         -2   -1    0    0    0  501 -0.00000000000E+00 -0.00000000000E+00 -0.19249843426E+03  0.19249843428E+03  0.25500000000E-02 0. -1.
    5000001    1    1    2    0    0 -0.17201173557E+03 -0.12497160319E+02  0.96703221829E+02  0.21219031387E+03  0.77000000000E+02 0.  0.
   -5000001    1    1    2    0    0  0.17201173557E+03  0.12497160319E+02 -0.68573214533E+02  0.20093656198E+03  0.77000000000E+02 0.  0.
<mgrwt>
<rscale>  0 0.41216807E+03</rscale>
<asrwt>0</asrwt>
<pdfrwt beam="1">  1        2 0.33942837E-01 0.41216807E+03</pdfrwt>
<pdfrwt beam="2">  1       -2 0.29615144E-01 0.41216807E+03</pdfrwt>
<totfact> 0.16134194E+03</totfact>
</mgrwt>
</event>
<event>
 4    1  0.6207184E-004  0.4423766E+03  0.7818608E-02  0.1030020E+00
         -2   -1    0    0    0  501 -0.00000000000E+00  0.00000000000E+00  0.66661659747E+02  0.66661659796E+02  0.25500000000E-02 0. -1.
          2   -1    0    0  501    0  0.00000000000E+00 -0.00000000000E+00 -0.73391923644E+03  0.73391923645E+03  0.25500000000E-02 0.  1.
    5000001    1    1    2    0    0 -0.33004505613E+02 -0.20064475318E+03 -0.40708809737E+03  0.46151634141E+03  0.77000000000E+02 0.  0.
   -5000001    1    1    2    0    0  0.33004505613E+02  0.20064475318E+03 -0.26016947933E+03  0.33906455483E+03  0.77000000000E+02 0.  0.
<mgrwt>
<rscale>  0 0.44237665E+03</rscale>
<asrwt>0</asrwt>
<pdfrwt beam="1">  1        2 0.11291065E+00 0.44237665E+03</pdfrwt>
<pdfrwt beam="2">  1       -2 0.10255640E-01 0.44237665E+03</pdfrwt>
<totfact> 0.25332109E+03</totfact>
</mgrwt>
</event>
<event>
 4    1  0.6207184E-004  0.1818638E+03  0.7818608E-02  0.1166011E+00
          2   -1    0    0  501    0  0.00000000000E+00  0.00000000000E+00  0.19140524765E+04  0.19140524765E+04  0.25500000000E-02 0.  1.
         -2   -1    0    0    0  501 -0.00000000000E+00 -0.00000000000E+00 -0.43199479924E+01  0.43199487450E+01  0.25500000000E-02 0. -1.
    5000001    1    1    2    0    0  0.88542717295E+00 -0.47331661981E+02  0.85015633353E+03  0.85494787072E+03  0.77000000000E+02 0.  0.
   -5000001    1    1    2    0    0 -0.88542717295E+00  0.47331661981E+02  0.10595761950E+04  0.10634245545E+04  0.77000000000E+02 0.  0.
<mgrwt>
<rscale>  0 0.18186377E+03</rscale>
<asrwt>0</asrwt>
<pdfrwt beam="1">  1        2 0.29447032E+00 0.18186377E+03</pdfrwt>
<pdfrwt beam="2">  1       -2 0.66460585E-03 0.18186377E+03</pdfrwt>
<totfact> 0.31146056E+04</totfact>
</mgrwt>
</event>
<event>
 4    1  0.6207184E-004  0.1971874E+03  0.7818608E-02  0.1152134E+00
         -2   -1    0    0    0  501 -0.00000000000E+00  0.00000000000E+00  0.48527829367E+01  0.48527836067E+01  0.25500000000E-02 0. -1.
          2   -1    0    0  501    0  0.00000000000E+00 -0.00000000000E+00 -0.20031222533E+04  0.20031222533E+04  0.25500000000E-02 0.  1.
    5000001    1    1    2    0    0  0.37655946811E+02  0.45260302945E+02 -0.11827842004E+04  0.11867493122E+04  0.77000000000E+02 0.  0.
   -5000001    1    1    2    0    0 -0.37655946811E+02 -0.45260302945E+02 -0.81548526995E+03  0.82122572467E+03  0.77000000000E+02 0.  0.
<mgrwt>
<rscale>  0 0.19718740E+03</rscale>
<asrwt>0</asrwt>
<pdfrwt beam="1">  1        2 0.30817199E+00 0.19718740E+03</pdfrwt>
<pdfrwt beam="2">  1       -2 0.74658364E-03 0.19718740E+03</pdfrwt>
<totfact> 0.23795430E+04</totfact>
</mgrwt>
</event>
<event>
 4    1  0.6207184E-004  0.2087317E+03  0.7818608E-02  0.1142574E+00
          2   -1    0    0  501    0  0.00000000000E+00  0.00000000000E+00  0.21473614282E+03  0.21473614284E+03  0.25500000000E-02 0.  1.
         -2   -1    0    0    0  501 -0.00000000000E+00 -0.00000000000E+00 -0.50723788162E+02  0.50723788226E+02  0.25500000000E-02 0. -1.
    5000001    1    1    2    0    0  0.49251430496E+01 -0.66930679473E+02  0.10926071442E+03  0.14956896939E+03  0.77000000000E+02 0.  0.
   -5000001    1    1    2    0    0 -0.49251430496E+01  0.66930679473E+02  0.54751640243E+02  0.11589096168E+03  0.77000000000E+02 0.  0.
<mgrwt>
<rscale>  0 0.20873170E+03</rscale>
<asrwt>0</asrwt>
<pdfrwt beam="1">  1        2 0.33036330E-01 0.20873170E+03</pdfrwt>
<pdfrwt beam="2">  1       -2 0.78036598E-02 0.20873170E+03</pdfrwt>
<totfact> 0.15033512E+04</totfact>
</mgrwt>
</event>
<event>
 4    1  0.6207184E-004  0.2281182E+03  0.7818608E-02  0.1127971E+00
          2   -1    0    0  501    0  0.00000000000E+00  0.00000000000E+00  0.51228941073E+03  0.51228941074E+03  0.25500000000E-02 0.  1.
         -2   -1    0    0    0  501 -0.00000000000E+00 -0.00000000000E+00 -0.25394774146E+02  0.25394774274E+02  0.25500000000E-02 0. -1.
    5000001    1    1    2    0    0 -0.12015787053E+02  0.28299866307E+02  0.42806878593E+03  0.43602425054E+03  0.77000000000E+02 0.  0.
   -5000001    1    1    2    0    0  0.12015787053E+02 -0.28299866307E+02  0.58825850654E+02  0.10165993447E+03  0.77000000000E+02 0.  0.
<mgrwt>
<rscale>  0 0.22811816E+03</rscale>
<asrwt>0</asrwt>
<pdfrwt beam="1">  1        2 0.78813752E-01 0.22811816E+03</pdfrwt>
<pdfrwt beam="2">  1       -2 0.39068885E-02 0.22811816E+03</pdfrwt>
<totfact> 0.16932937E+04</totfact>
</mgrwt>
</event>
<event>
 4    1  0.6207184E-004  0.1889223E+03  0.7818608E-02  0.1159437E+00
          2   -1    0    0  501    0  0.00000000000E+00  0.00000000000E+00  0.86105984521E+01  0.86105988297E+01  0.25500000000E-02 0.  1.
         -2   -1    0    0    0  501 -0.00000000000E+00 -0.00000000000E+00 -0.10362703158E+04  0.10362703158E+04  0.25500000000E-02 0. -1.
    5000001    1    1    2    0    0  0.51496309090E+02 -0.17026395468E+02 -0.47389352334E+03  0.48316233241E+03  0.77000000000E+02 0.  0.
   -5000001    1    1    2    0    0 -0.51496309090E+02  0.17026395468E+02 -0.55376619400E+03  0.56171858222E+03  0.77000000000E+02 0.  0.
<mgrwt>
<rscale>  0 0.18892229E+03</rscale>
<asrwt>0</asrwt>
<pdfrwt beam="1">  1        2 0.13247083E-02 0.18892229E+03</pdfrwt>
<pdfrwt beam="2">  1       -2 0.15942610E+00 0.18892229E+03</pdfrwt>
<totfact> 0.25710152E+03</totfact>
</mgrwt>
</event>
<event>
 4    1  0.6207184E-004  0.2127163E+03  0.7818608E-02  0.1139433E+00
          2   -1    0    0  501    0  0.00000000000E+00  0.00000000000E+00  0.10590584413E+04  0.10590584413E+04  0.25500000000E-02 0.  1.
         -2   -1    0    0    0  501 -0.00000000000E+00 -0.00000000000E+00 -0.10681241497E+02  0.10681241801E+02  0.25500000000E-02 0. -1.
    5000001    1    1    2    0    0  0.31109599360E+01 -0.68504480553E+02  0.65537742213E+03  0.66343884976E+03  0.77000000000E+02 0.  0.
   -5000001    1    1    2    0    0 -0.31109599360E+01  0.68504480553E+02  0.39299977763E+03  0.40630083331E+03  0.77000000000E+02 0.  0.
<mgrwt>
<rscale>  0 0.21271633E+03</rscale>
<asrwt>0</asrwt>
<pdfrwt beam="1">  1        2 0.16293209E+00 0.21271633E+03</pdfrwt>
<pdfrwt beam="2">  1       -2 0.16432677E-02 0.21271633E+03</pdfrwt>
<totfact> 0.24517413E+04</totfact>
</mgrwt>
</event>
<event>
 4    1  0.6207184E-004  0.3013903E+03  0.7818608E-02  0.1084548E+00
         -2   -1    0    0    0  501 -0.00000000000E+00  0.00000000000E+00  0.15915199725E+02  0.15915199929E+02  0.25500000000E-02 0. -1.
          2   -1    0    0  501    0  0.00000000000E+00 -0.00000000000E+00 -0.14268768130E+04  0.14268768130E+04  0.25500000000E-02 0.  1.
    5000001    1    1    2    0    0 -0.92649456450E+02  0.90196944381E+02 -0.66820912199E+03  0.68494659738E+03  0.77000000000E+02 0.  0.
   -5000001    1    1    2    0    0  0.92649456450E+02 -0.90196944381E+02 -0.74275249127E+03  0.75784541553E+03  0.77000000000E+02 0.  0.
<mgrwt>
<rscale>  0 0.30139031E+03</rscale>
<asrwt>0</asrwt>
<pdfrwt beam="1">  1        2 0.21951941E+00 0.30139031E+03</pdfrwt>
<pdfrwt beam="2">  1       -2 0.24484934E-02 0.30139031E+03</pdfrwt>
<totfact> 0.85802018E+03</totfact>
</mgrwt>
</event>
<event>
 4    1  0.6207184E-004  0.5262075E+03  0.7818608E-02  0.1007156E+00
         -2   -1    0    0    0  501 -0.00000000000E+00  0.00000000000E+00  0.43809726910E+02  0.43809726984E+02  0.25500000000E-02 0. -1.
          2   -1    0    0  501    0  0.00000000000E+00 -0.00000000000E+00 -0.15800960264E+04  0.15800960264E+04  0.25500000000E-02 0.  1.
    5000001    1    1    2    0    0  0.24950457529E+03 -0.27775097338E+02 -0.81890725678E+03  0.85997795572E+03  0.77000000000E+02 0.  0.
   -5000001    1    1    2    0    0 -0.24950457529E+03  0.27775097338E+02 -0.71737904273E+03  0.76392779768E+03  0.77000000000E+02 0.  0.
<mgrwt>
<rscale>  0 0.52620747E+03</rscale>
<asrwt>0</asrwt>
<pdfrwt beam="1">  1        2 0.24309165E+00 0.52620747E+03</pdfrwt>
<pdfrwt beam="2">  1       -2 0.67399592E-02 0.52620747E+03</pdfrwt>
<totfact> 0.15114439E+03</totfact>
</mgrwt>
</event>
<event>
 4    1  0.6207184E-004  0.2016332E+03  0.7818608E-02  0.1148368E+00
         -2   -1    0    0    0  501 -0.00000000000E+00  0.00000000000E+00  0.25868533558E+03  0.25868533559E+03  0.25500000000E-02 0. -1.
          2   -1    0    0  501    0  0.00000000000E+00 -0.00000000000E+00 -0.39290934415E+02  0.39290934497E+02  0.25500000000E-02 0.  1.
    5000001    1    1    2    0    0 -0.55313596962E+02  0.22720446911E+02  0.14763920274E+03  0.17692412753E+03  0.77000000000E+02 0.  0.
   -5000001    1    1    2    0    0  0.55313596962E+02 -0.22720446911E+02  0.71755198421E+02  0.12105214256E+03  0.77000000000E+02 0.  0.
<mgrwt>
<rscale>  0 0.20163322E+03</rscale>
<asrwt>0</asrwt>
<pdfrwt beam="1">  1        2 0.60447590E-02 0.20163322E+03</pdfrwt>
<pdfrwt beam="2">  1       -2 0.39797745E-01 0.20163322E+03</pdfrwt>
<totfact> 0.71606303E+03</totfact>
</mgrwt>
</event>
<event>
 4    1  0.6207184E-004  0.2548216E+03  0.7818608E-02  0.1110295E+00
         -2   -1    0    0    0  501 -0.00000000000E+00  0.00000000000E+00  0.11349584377E+02  0.11349584663E+02  0.25500000000E-02 0. -1.
          2   -1    0    0  501    0  0.00000000000E+00 -0.00000000000E+00 -0.14303182553E+04  0.14303182553E+04  0.25500000000E-02 0.  1.
    5000001    1    1    2    0    0 -0.12468894629E+02  0.98135414797E+02 -0.58066027770E+03  0.59403820674E+03  0.77000000000E+02 0.  0.
   -5000001    1    1    2    0    0  0.12468894629E+02 -0.98135414797E+02 -0.83830839322E+03  0.84762963322E+03  0.77000000000E+02 0.  0.
<mgrwt>
<rscale>  0 0.25482165E+03</rscale>
<asrwt>0</asrwt>
<pdfrwt beam="1">  1        2 0.22004882E+00 0.25482165E+03</pdfrwt>
<pdfrwt beam="2">  1       -2 0.17460911E-02 0.25482165E+03</pdfrwt>
<totfact> 0.14006207E+04</totfact>
</mgrwt>
</event>
<event>
 4    1  0.6207184E-004  0.3094372E+03  0.7818608E-02  0.1080616E+00
          2   -1    0    0  501    0  0.00000000000E+00  0.00000000000E+00  0.15815185531E+03  0.15815185534E+03  0.25500000000E-02 0.  1.
         -2   -1    0    0    0  501 -0.00000000000E+00 -0.00000000000E+00 -0.15135992017E+03  0.15135992019E+03  0.25500000000E-02 0. -1.
    5000001    1    1    2    0    0  0.12845752631E+03 -0.37731618741E+02  0.12554650598E+02  0.15495686616E+03  0.77000000000E+02 0.  0.
   -5000001    1    1    2    0    0 -0.12845752631E+03  0.37731618741E+02 -0.57627154497E+01  0.15455490936E+03  0.77000000000E+02 0.  0.
<mgrwt>
<rscale>  0 0.30943725E+03</rscale>
<asrwt>0</asrwt>
<pdfrwt beam="1">  1        2 0.24331055E-01 0.30943725E+03</pdfrwt>
<pdfrwt beam="2">  1       -2 0.23286142E-01 0.30943725E+03</pdfrwt>
<totfact> 0.35743486E+03</totfact>
</mgrwt>
</event>
<event>
 4    1  0.6207184E-004  0.2785163E+03  0.7818608E-02  0.1096502E+00
          2   -1    0    0  501    0  0.00000000000E+00  0.00000000000E+00  0.51776453295E+02  0.51776453358E+02  0.25500000000E-02 0.  1.
         -2   -1    0    0    0  501 -0.00000000000E+00 -0.00000000000E+00 -0.37454917375E+03  0.37454917376E+03  0.25500000000E-02 0. -1.
    5000001    1    1    2    0    0 -0.92042108660E+02 -0.62622527422E+02 -0.11130413435E+03  0.17524537378E+03  0.77000000000E+02 0.  0.
   -5000001    1    1    2    0    0  0.92042108660E+02  0.62622527422E+02 -0.21146858611E+03  0.25108025334E+03  0.77000000000E+02 0.  0.
<mgrwt>
<rscale>  0 0.27851627E+03</rscale>
<asrwt>0</asrwt>
<pdfrwt beam="1">  1        2 0.79656084E-02 0.27851627E+03</pdfrwt>
<pdfrwt beam="2">  1       -2 0.57622948E-01 0.27851627E+03</pdfrwt>
<totfact> 0.24533478E+03</totfact>
</mgrwt>
</event>
<event>
 4    1  0.6207184E-004  0.1783897E+03  0.7818608E-02  0.1169371E+00
         -2   -1    0    0    0  501 -0.00000000000E+00  0.00000000000E+00  0.10353418297E+02  0.10353418611E+02  0.25500000000E-02 0. -1.
          2   -1    0    0  501    0  0.00000000000E+00 -0.00000000000E+00 -0.76841533919E+03  0.76841533919E+03  0.25500000000E-02 0.  1.
    5000001    1    1    2    0    0  0.34338986934E+02 -0.32516977144E+01 -0.50532932409E+03  0.51232457031E+03  0.77000000000E+02 0.  0.
   -5000001    1    1    2    0    0 -0.34338986934E+02  0.32516977144E+01 -0.25273259680E+03  0.26644418749E+03  0.77000000000E+02 0.  0.
<mgrwt>
<rscale>  0 0.17838975E+03</rscale>
<asrwt>0</asrwt>
<pdfrwt beam="1">  1        2 0.11821770E+00 0.17838975E+03</pdfrwt>
<pdfrwt beam="2">  1       -2 0.15928342E-02 0.17838975E+03</pdfrwt>
<totfact> 0.38823462E+04</totfact>
</mgrwt>
</event>
<event>
 4    1  0.6207184E-004  0.2847135E+03  0.7818608E-02  0.1093142E+00
          2   -1    0    0  501    0  0.00000000000E+00  0.00000000000E+00  0.79056386211E+03  0.79056386212E+03  0.25500000000E-02 0.  1.
         -2   -1    0    0    0  501 -0.00000000000E+00 -0.00000000000E+00 -0.25634161452E+02  0.25634161578E+02  0.25500000000E-02 0. -1.
    5000001    1    1    2    0    0  0.24431169374E+02 -0.11440023647E+03  0.30925664045E+03  0.33948927200E+03  0.77000000000E+02 0.  0.
   -5000001    1    1    2    0    0 -0.24431169374E+02  0.11440023647E+03  0.45567306021E+03  0.47670875170E+03  0.77000000000E+02 0.  0.
<mgrwt>
<rscale>  0 0.28471348E+03</rscale>
<asrwt>0</asrwt>
<pdfrwt beam="1">  1        2 0.12162521E+00 0.28471348E+03</pdfrwt>
<pdfrwt beam="2">  1       -2 0.39437171E-02 0.28471348E+03</pdfrwt>
<totfact> 0.10095243E+04</totfact>
</mgrwt>
</event>
<event>
 4    1  0.6207184E-004  0.2253698E+03  0.7818608E-02  0.1129942E+00
         -2   -1    0    0    0  501 -0.00000000000E+00  0.00000000000E+00  0.15944525030E+02  0.15944525234E+02  0.25500000000E-02 0. -1.
          2   -1    0    0  501    0  0.00000000000E+00 -0.00000000000E+00 -0.79637878417E+03  0.79637878418E+03  0.25500000000E-02 0.  1.
    5000001    1    1    2    0    0 -0.52727441662E+02  0.54929417401E+02 -0.50255991724E+03  0.51409424663E+03  0.77000000000E+02 0.  0.
   -5000001    1    1    2    0    0  0.52727441662E+02 -0.54929417401E+02 -0.27787434190E+03  0.29822906278E+03  0.77000000000E+02 0.  0.
<mgrwt>
<rscale>  0 0.22536975E+03</rscale>
<asrwt>0</asrwt>
<pdfrwt beam="1">  1        2 0.12251978E+00 0.22536975E+03</pdfrwt>
<pdfrwt beam="2">  1       -2 0.24530045E-02 0.22536975E+03</pdfrwt>
<totfact> 0.20071108E+04</totfact>
</mgrwt>
</event>
<event>
 4    1  0.6207184E-004  0.2632028E+03  0.7818608E-02  0.1105234E+00
          2   -1    0    0  501    0  0.00000000000E+00  0.00000000000E+00  0.11750991577E+04  0.11750991577E+04  0.25500000000E-02 0.  1.
         -2   -1    0    0    0  501 -0.00000000000E+00 -0.00000000000E+00 -0.14738268311E+02  0.14738268532E+02  0.25500000000E-02 0. -1.
    5000001    1    1    2    0    0 -0.64717609895E+02 -0.80675208094E+02  0.46116995377E+03  0.47885653853E+03  0.77000000000E+02 0.  0.
   -5000001    1    1    2    0    0  0.64717609895E+02  0.80675208094E+02  0.69919093565E+03  0.71098088773E+03  0.77000000000E+02 0.  0.
<mgrwt>
<rscale>  0 0.26320279E+03</rscale>
<asrwt>0</asrwt>
<pdfrwt beam="1">  1        2 0.18078445E+00 0.26320279E+03</pdfrwt>
<pdfrwt beam="2">  1       -2 0.22674263E-02 0.26320279E+03</pdfrwt>
<totfact> 0.13220624E+04</totfact>
</mgrwt>
</event>
<event>
 4    1  0.6207184E-004  0.1817665E+03  0.7818608E-02  0.1166104E+00
         -2   -1    0    0    0  501 -0.00000000000E+00  0.00000000000E+00  0.20325651301E+03  0.20325651303E+03  0.25500000000E-02 0. -1.
          2   -1    0    0  501    0  0.00000000000E+00 -0.00000000000E+00 -0.40637136895E+02  0.40637136975E+02  0.25500000000E-02 0.  1.
    5000001    1    1    2    0    0  0.96696233109E+01 -0.14042312097E+02  0.20704509309E+02  0.81537505786E+02  0.77000000000E+02 0.  0.
   -5000001    1    1    2    0    0 -0.96696233109E+01  0.14042312097E+02  0.14191486681E+03  0.16235614422E+03  0.77000000000E+02 0.  0.
<mgrwt>
<rscale>  0 0.18176647E+03</rscale>
<asrwt>0</asrwt>
<pdfrwt beam="1">  1        2 0.62518672E-02 0.18176647E+03</pdfrwt>
<pdfrwt beam="2">  1       -2 0.31270233E-01 0.18176647E+03</pdfrwt>
<totfact> 0.10653917E+04</totfact>
</mgrwt>
</event>
<event>
 4    1  0.6207184E-004  0.4538212E+03  0.7818608E-02  0.1026589E+00
         -2   -1    0    0    0  501 -0.00000000000E+00  0.00000000000E+00  0.20728718349E+03  0.20728718351E+03  0.25500000000E-02 0. -1.
          2   -1    0    0  501    0  0.00000000000E+00 -0.00000000000E+00 -0.24839171193E+03  0.24839171194E+03  0.25500000000E-02 0.  1.
    5000001    1    1    2    0    0 -0.19358789634E+03  0.83846147050E+02 -0.53134569644E+02  0.23077853556E+03  0.77000000000E+02 0.  0.
   -5000001    1    1    2    0    0  0.19358789634E+03 -0.83846147050E+02  0.12030041211E+02  0.22490035989E+03  0.77000000000E+02 0.  0.
<mgrwt>
<rscale>  0 0.45382119E+03</rscale>
<asrwt>0</asrwt>
<pdfrwt beam="1">  1        2 0.38214109E-01 0.45382119E+03</pdfrwt>
<pdfrwt beam="2">  1       -2 0.31890336E-01 0.45382119E+03</pdfrwt>
<totfact> 0.12362529E+03</totfact>
</mgrwt>
</event>
<event>
 4    1  0.6207184E-004  0.2174290E+03  0.7818608E-02  0.1135814E+00
          2   -1    0    0  501    0  0.00000000000E+00  0.00000000000E+00  0.32335162317E+03  0.32335162318E+03  0.25500000000E-02 0.  1.
         -2   -1    0    0    0  501 -0.00000000000E+00 -0.00000000000E+00 -0.36551069958E+02  0.36551070047E+02  0.25500000000E-02 0. -1.
    5000001    1    1    2    0    0  0.93662445530E+01  0.42413600788E+02  0.38670158103E+02  0.96493632933E+02  0.77000000000E+02 0.  0.
   -5000001    1    1    2    0    0 -0.93662445530E+01 -0.42413600788E+02  0.24813039511E+03  0.26340906030E+03  0.77000000000E+02 0.  0.
<mgrwt>
<rscale>  0 0.21742905E+03</rscale>
<asrwt>0</asrwt>
<pdfrwt beam="1">  1        2 0.49746402E-01 0.21742905E+03</pdfrwt>
<pdfrwt beam="2">  1       -2 0.56232418E-02 0.21742905E+03</pdfrwt>
<totfact> 0.16069504E+04</totfact>
</mgrwt>
</event>
<event>
 4    1  0.6207184E-004  0.3956355E+03  0.7818608E-02  0.1045302E+00
          2   -1    0    0  501    0  0.00000000000E+00  0.00000000000E+00  0.40317689818E+04  0.40317689818E+04  0.25500000000E-02 0.  1.
         -2   -1    0    0    0  501 -0.00000000000E+00 -0.00000000000E+00 -0.97058783918E+01  0.97058787268E+01  0.25500000000E-02 0. -1.
    5000001    1    1    2    0    0  0.92059696041E+02  0.13375026915E+03  0.11662729507E+04  0.11800363205E+04  0.77000000000E+02 0.  0.
   -5000001    1    1    2    0    0 -0.92059696041E+02 -0.13375026915E+03  0.28557901527E+04  0.28614385400E+04  0.77000000000E+02 0.  0.
<mgrwt>
<rscale>  0 0.39563549E+03</rscale>
<asrwt>0</asrwt>
<pdfrwt beam="1">  1        2 0.62027289E+00 0.39563549E+03</pdfrwt>
<pdfrwt beam="2">  1       -2 0.14932103E-02 0.39563549E+03</pdfrwt>
<totfact> 0.48732563E+02</totfact>
</mgrwt>
</event>
<event>
 4    1  0.6207184E-004  0.3260408E+03  0.7818608E-02  0.1072902E+00
         -2   -1    0    0    0  501 -0.00000000000E+00  0.00000000000E+00  0.15699791908E+02  0.15699792116E+02  0.25500000000E-02 0. -1.
          2   -1    0    0  501    0  0.00000000000E+00 -0.00000000000E+00 -0.16927388276E+04  0.16927388276E+04  0.25500000000E-02 0.  1.
    5000001    1    1    2    0    0  0.13588767878E+03 -0.29920864615E+02 -0.10264234237E+04  0.10386697089E+04  0.77000000000E+02 0.  0.
   -5000001    1    1    2    0    0 -0.13588767878E+03  0.29920864615E+02 -0.65061561191E+03  0.66976891078E+03  0.77000000000E+02 0.  0.
<mgrwt>
<rscale>  0 0.32604078E+03</rscale>
<asrwt>0</asrwt>
<pdfrwt beam="1">  1        2 0.26042121E+00 0.32604078E+03</pdfrwt>
<pdfrwt beam="2">  1       -2 0.24153540E-02 0.32604078E+03</pdfrwt>
<totfact> 0.63137920E+03</totfact>
</mgrwt>
</event>
<event>
 4    1  0.6207184E-004  0.3884634E+03  0.7818608E-02  0.1047849E+00
          2   -1    0    0  501    0  0.00000000000E+00  0.00000000000E+00  0.86948752906E+02  0.86948752944E+02  0.25500000000E-02 0.  1.
         -2   -1    0    0    0  501 -0.00000000000E+00 -0.00000000000E+00 -0.43388724528E+03  0.43388724529E+03  0.25500000000E-02 0. -1.
    5000001    1    1    2    0    0 -0.15638300040E+03  0.25225323743E+02 -0.63682450363E+02  0.18728698368E+03  0.77000000000E+02 0.  0.
   -5000001    1    1    2    0    0  0.15638300040E+03 -0.25225323743E+02 -0.28325604201E+03  0.33354901455E+03  0.77000000000E+02 0.  0.
<mgrwt>
<rscale>  0 0.38846341E+03</rscale>
<asrwt>0</asrwt>
<pdfrwt beam="1">  1        2 0.13376731E-01 0.38846341E+03</pdfrwt>
<pdfrwt beam="2">  1       -2 0.66751883E-01 0.38846341E+03</pdfrwt>
<totfact> 0.95129234E+02</totfact>
</mgrwt>
</event>
<event>
 4    1  0.6207184E-004  0.2349233E+03  0.7818608E-02  0.1123222E+00
         -2   -1    0    0    0  501 -0.00000000000E+00  0.00000000000E+00  0.16998461772E+02  0.16998461963E+02  0.25500000000E-02 0. -1.
          2   -1    0    0  501    0  0.00000000000E+00 -0.00000000000E+00 -0.81167597951E+03  0.81167597952E+03  0.25500000000E-02 0.  1.
    5000001    1    1    2    0    0 -0.54343466471E+02 -0.68615501715E+02 -0.34659484474E+03  0.36567510966E+03  0.77000000000E+02 0.  0.
   -5000001    1    1    2    0    0  0.54343466471E+02  0.68615501715E+02 -0.44808267300E+03  0.46299933182E+03  0.77000000000E+02 0.  0.
<mgrwt>
<rscale>  0 0.23492333E+03</rscale>
<asrwt>0</asrwt>
<pdfrwt beam="1">  1        2 0.12487320E+00 0.23492333E+03</pdfrwt>
<pdfrwt beam="2">  1       -2 0.26151486E-02 0.23492333E+03</pdfrwt>
<totfact> 0.17866808E+04</totfact>
</mgrwt>
</event>
<event>
 4    1  0.6207184E-004  0.2878969E+03  0.7818608E-02  0.1091452E+00
          2   -1    0    0  501    0  0.00000000000E+00  0.00000000000E+00  0.30970063124E+04  0.30970063124E+04  0.25500000000E-02 0.  1.
         -2   -1    0    0    0  501 -0.00000000000E+00 -0.00000000000E+00 -0.66907053052E+01  0.66907057911E+01  0.25500000000E-02 0. -1.
    5000001    1    1    2    0    0  0.87044376514E+02 -0.83790243636E+02  0.13947584418E+04  0.14020975855E+04  0.77000000000E+02 0.  0.
   -5000001    1    1    2    0    0 -0.87044376514E+02  0.83790243636E+02  0.16955571653E+04  0.17015994326E+04  0.77000000000E+02 0.  0.
<mgrwt>
<rscale>  0 0.28789691E+03</rscale>
<asrwt>0</asrwt>
<pdfrwt beam="1">  1        2 0.47646331E+00 0.28789691E+03</pdfrwt>
<pdfrwt beam="2">  1       -2 0.10293376E-02 0.28789691E+03</pdfrwt>
<totfact> 0.37222110E+03</totfact>
</mgrwt>
</event>
<event>
 4    1  0.6207184E-004  0.2096183E+03  0.7818608E-02  0.1141869E+00
         -2   -1    0    0    0  501 -0.00000000000E+00  0.00000000000E+00  0.46543354220E+02  0.46543354290E+02  0.25500000000E-02 0. -1.
          2   -1    0    0  501    0  0.00000000000E+00 -0.00000000000E+00 -0.23601569348E+03  0.23601569349E+03  0.25500000000E-02 0.  1.
    5000001    1    1    2    0    0  0.68087021907E+02 -0.89914867086E+01 -0.69907447518E+02  0.12463041605E+03  0.77000000000E+02 0.  0.
   -5000001    1    1    2    0    0 -0.68087021907E+02  0.89914867086E+01 -0.11956489174E+03  0.15792863174E+03  0.77000000000E+02 0.  0.
<mgrwt>
<rscale>  0 0.20961834E+03</rscale>
<asrwt>0</asrwt>
<pdfrwt beam="1">  1        2 0.36310106E-01 0.20961834E+03</pdfrwt>
<pdfrwt beam="2">  1       -2 0.71605162E-02 0.20961834E+03</pdfrwt>
<totfact> 0.15511577E+04</totfact>
</mgrwt>
</event>
<event>
 4    1  0.6207184E-004  0.2295010E+03  0.7818608E-02  0.1126991E+00
         -2   -1    0    0    0  501 -0.00000000000E+00  0.00000000000E+00  0.63277136466E+01  0.63277141604E+01  0.25500000000E-02 0. -1.
          2   -1    0    0  501    0  0.00000000000E+00 -0.00000000000E+00 -0.20809531421E+04  0.20809531421E+04  0.25500000000E-02 0.  1.
    5000001    1    1    2    0    0  0.62900466333E+02  0.54914578013E+02 -0.11858117457E+04  0.11912390926E+04  0.77000000000E+02 0.  0.
   -5000001    1    1    2    0    0 -0.62900466333E+02 -0.54914578013E+02 -0.88881368278E+03  0.89604176367E+03  0.77000000000E+02 0.  0.
<mgrwt>
<rscale>  0 0.22950099E+03</rscale>
<asrwt>0</asrwt>
<pdfrwt beam="1">  1        2 0.32014609E+00 0.22950099E+03</pdfrwt>
<pdfrwt beam="2">  1       -2 0.97349611E-03 0.22950099E+03</pdfrwt>
<totfact> 0.14859015E+04</totfact>
</mgrwt>
</event>
<event>
 4    1  0.6207184E-004  0.2897972E+03  0.7818608E-02  0.1090455E+00
          2   -1    0    0  501    0  0.00000000000E+00  0.00000000000E+00  0.10372495481E+04  0.10372495481E+04  0.25500000000E-02 0.  1.
         -2   -1    0    0    0  501 -0.00000000000E+00 -0.00000000000E+00 -0.20241610581E+02  0.20241610742E+02  0.25500000000E-02 0. -1.
    5000001    1    1    2    0    0  0.11289678043E+03  0.27276758189E+02  0.36359867726E+03  0.38938759954E+03  0.77000000000E+02 0.  0.
   -5000001    1    1    2    0    0 -0.11289678043E+03 -0.27276758189E+02  0.65340926030E+03  0.66810355935E+03  0.77000000000E+02 0.  0.
<mgrwt>
<rscale>  0 0.28979718E+03</rscale>
<asrwt>0</asrwt>
<pdfrwt beam="1">  1        2 0.15957681E+00 0.28979718E+03</pdfrwt>
<pdfrwt beam="2">  1       -2 0.31140949E-02 0.28979718E+03</pdfrwt>
<totfact> 0.99765496E+03</totfact>
</mgrwt>
</event>
<event>
 4    1  0.6207184E-004  0.1977599E+03  0.7818608E-02  0.1151643E+00
         -2   -1    0    0    0  501 -0.00000000000E+00  0.00000000000E+00  0.19887750505E+02  0.19887750668E+02  0.25500000000E-02 0. -1.
          2   -1    0    0  501    0  0.00000000000E+00 -0.00000000000E+00 -0.49162149135E+03  0.49162149136E+03  0.25500000000E-02 0.  1.
    5000001    1    1    2    0    0 -0.32663111090E+02 -0.37407001512E+02 -0.13970956334E+03  0.16707460811E+03  0.77000000000E+02 0.  0.
   -5000001    1    1    2    0    0  0.32663111090E+02  0.37407001512E+02 -0.33202417751E+03  0.34443463392E+03  0.77000000000E+02 0.  0.
<mgrwt>
<rscale>  0 0.19775991E+03</rscale>
<asrwt>0</asrwt>
<pdfrwt beam="1">  1        2 0.75634066E-01 0.19775991E+03</pdfrwt>
<pdfrwt beam="2">  1       -2 0.30596543E-02 0.19775991E+03</pdfrwt>
<totfact> 0.25270166E+04</totfact>
</mgrwt>
</event>
<event>
 4    1  0.6207184E-004  0.3197789E+03  0.7818608E-02  0.1075751E+00
          2   -1    0    0  501    0  0.00000000000E+00  0.00000000000E+00  0.72973190145E+02  0.72973190190E+02  0.25500000000E-02 0.  1.
         -2   -1    0    0    0  501 -0.00000000000E+00 -0.00000000000E+00 -0.35032915823E+03  0.35032915824E+03  0.25500000000E-02 0. -1.
    5000001    1    1    2    0    0 -0.13120325303E+03  0.38672608616E+02 -0.17895459311E+03  0.23804119529E+03  0.77000000000E+02 0.  0.
   -5000001    1    1    2    0    0  0.13120325303E+03 -0.38672608616E+02 -0.98401374976E+02  0.18526115313E+03  0.77000000000E+02 0.  0.
<mgrwt>
<rscale>  0 0.31977890E+03</rscale>
<asrwt>0</asrwt>
<pdfrwt beam="1">  1        2 0.11226645E-01 0.31977890E+03</pdfrwt>
<pdfrwt beam="2">  1       -2 0.53896793E-01 0.31977890E+03</pdfrwt>
<totfact> 0.18355217E+03</totfact>
</mgrwt>
</event>
<event>
 4    1  0.6207184E-004  0.1949336E+03  0.7818608E-02  0.1154085E+00
          2   -1    0    0  501    0  0.00000000000E+00  0.00000000000E+00  0.11650371721E+04  0.11650371721E+04  0.25500000000E-02 0.  1.
         -2   -1    0    0    0  501 -0.00000000000E+00 -0.00000000000E+00 -0.81540507733E+01  0.81540511720E+01  0.25500000000E-02 0. -1.
    5000001    1    1    2    0    0  0.51789751307E+02 -0.22766624054E+02  0.69425111483E+03  0.70079533956E+03  0.77000000000E+02 0.  0.
   -5000001    1    1    2    0    0 -0.51789751307E+02  0.22766624054E+02  0.46263200645E+03  0.47239588367E+03  0.77000000000E+02 0.  0.
<mgrwt>
<rscale>  0 0.19493355E+03</rscale>
<asrwt>0</asrwt>
<pdfrwt beam="1">  1        2 0.17923646E+00 0.19493355E+03</pdfrwt>
<pdfrwt beam="2">  1       -2 0.12544695E-02 0.19493355E+03</pdfrwt>
<totfact> 0.31334868E+04</totfact>
</mgrwt>
</event>
<event>
 4    1  0.6207184E-004  0.3518163E+03  0.7818608E-02  0.1061872E+00
          2   -1    0    0  501    0  0.00000000000E+00  0.00000000000E+00  0.59301770694E+03  0.59301770695E+03  0.25500000000E-02 0.  1.
         -2   -1    0    0    0  501 -0.00000000000E+00 -0.00000000000E+00 -0.52180016764E+02  0.52180016827E+02  0.25500000000E-02 0. -1.
    5000001    1    1    2    0    0  0.73043687700E+02  0.11412351156E+03  0.42002682662E+03  0.44800791431E+03  0.77000000000E+02 0.  0.
   -5000001    1    1    2    0    0 -0.73043687700E+02 -0.11412351156E+03  0.12081086355E+03  0.19718980946E+03  0.77000000000E+02 0.  0.
<mgrwt>
<rscale>  0 0.35181628E+03</rscale>
<asrwt>0</asrwt>
<pdfrwt beam="1">  1        2 0.91233504E-01 0.35181628E+03</pdfrwt>
<pdfrwt beam="2">  1       -2 0.80276940E-02 0.35181628E+03</pdfrwt>
<totfact> 0.48301641E+03</totfact>
</mgrwt>
</event>
<event>
 4    1  0.6207184E-004  0.2079778E+03  0.7818608E-02  0.1143177E+00
          2   -1    0    0  501    0  0.00000000000E+00  0.00000000000E+00  0.67737076348E+02  0.67737076396E+02  0.25500000000E-02 0.  1.
         -2   -1    0    0    0  501 -0.00000000000E+00 -0.00000000000E+00 -0.15964207193E+03  0.15964207195E+03  0.25500000000E-02 0. -1.
    5000001    1    1    2    0    0  0.19031652700E+02 -0.25076872513E+02  0.22267436097E+02  0.86115573794E+02  0.77000000000E+02 0.  0.
   -5000001    1    1    2    0    0 -0.19031652700E+02  0.25076872513E+02 -0.11417243168E+03  0.14126357455E+03  0.77000000000E+02 0.  0.
<mgrwt>
<rscale>  0 0.20797776E+03</rscale>
<asrwt>0</asrwt>
<pdfrwt beam="1">  1        2 0.10421089E-01 0.20797776E+03</pdfrwt>
<pdfrwt beam="2">  1       -2 0.24560319E-01 0.20797776E+03</pdfrwt>
<totfact> 0.86825844E+03</totfact>
</mgrwt>
</event>
<event>
 4    1  0.6207184E-004  0.1959323E+03  0.7818608E-02  0.1153217E+00
         -2   -1    0    0    0  501 -0.00000000000E+00  0.00000000000E+00  0.21763143288E+02  0.21763143438E+02  0.25500000000E-02 0. -1.
          2   -1    0    0  501    0  0.00000000000E+00 -0.00000000000E+00 -0.44099171662E+03  0.44099171662E+03  0.25500000000E-02 0.  1.
    5000001    1    1    2    0    0  0.62586089780E+01 -0.28352178967E+02 -0.33515398223E+03  0.34510897995E+03  0.77000000000E+02 0.  0.
   -5000001    1    1    2    0    0 -0.62586089780E+01  0.28352178967E+02 -0.84074591096E+02  0.11764588011E+03  0.77000000000E+02 0.  0.
<mgrwt>
<rscale>  0 0.19593229E+03</rscale>
<asrwt>0</asrwt>
<pdfrwt beam="1">  1        2 0.67844873E-01 0.19593229E+03</pdfrwt>
<pdfrwt beam="2">  1       -2 0.33481762E-02 0.19593229E+03</pdfrwt>
<totfact> 0.24893291E+04</totfact>
</mgrwt>
</event>
<event>
 4    1  0.6207184E-004  0.6720203E+03  0.7818608E-02  0.9766315E-01
          2   -1    0    0  501    0  0.00000000000E+00  0.00000000000E+00  0.45215402511E+03  0.45215402512E+03  0.25500000000E-02 0.  1.
         -2   -1    0    0    0  501 -0.00000000000E+00 -0.00000000000E+00 -0.24969995038E+03  0.24969995039E+03  0.25500000000E-02 0. -1.
    5000001    1    1    2    0    0  0.21950329841E+03 -0.23974836181E+03  0.63385045780E+02  0.34001123368E+03  0.77000000000E+02 0.  0.
   -5000001    1    1    2    0    0 -0.21950329841E+03  0.23974836181E+03  0.13906902895E+03  0.36184274183E+03  0.77000000000E+02 0.  0.
<mgrwt>
<rscale>  0 0.67202035E+03</rscale>
<asrwt>0</asrwt>
<pdfrwt beam="1">  1        2 0.69562157E-01 0.67202035E+03</pdfrwt>
<pdfrwt beam="2">  1       -2 0.38415377E-01 0.67202035E+03</pdfrwt>
<totfact> 0.44617233E+02</totfact>
</mgrwt>
</event>
<event>
 4    1  0.6207184E-004  0.1813290E+03  0.7818608E-02  0.1166523E+00
         -2   -1    0    0    0  501 -0.00000000000E+00  0.00000000000E+00  0.15167196870E+02  0.15167197084E+02  0.25500000000E-02 0. -1.
          2   -1    0    0  501    0  0.00000000000E+00 -0.00000000000E+00 -0.54196224558E+03  0.54196224559E+03  0.25500000000E-02 0.  1.
    5000001    1    1    2    0    0 -0.11267038327E+02  0.18791626629E+02 -0.13264641816E+03  0.15493270679E+03  0.77000000000E+02 0.  0.
   -5000001    1    1    2    0    0  0.11267038327E+02 -0.18791626629E+02 -0.39414863056E+03  0.40219673588E+03  0.77000000000E+02 0.  0.
<mgrwt>
<rscale>  0 0.18132896E+03</rscale>
<asrwt>0</asrwt>
<pdfrwt beam="1">  1        2 0.83378792E-01 0.18132896E+03</pdfrwt>
<pdfrwt beam="2">  1       -2 0.23334153E-02 0.18132896E+03</pdfrwt>
<totfact> 0.33554891E+04</totfact>
</mgrwt>
</event>
<event>
 4    1  0.6207184E-004  0.2208388E+03  0.7818608E-02  0.1133259E+00
          2   -1    0    0  501    0  0.00000000000E+00  0.00000000000E+00  0.70335267678E+03  0.70335267678E+03  0.25500000000E-02 0.  1.
         -2   -1    0    0    0  501 -0.00000000000E+00 -0.00000000000E+00 -0.17334751371E+02  0.17334751558E+02  0.25500000000E-02 0. -1.
    5000001    1    1    2    0    0  0.42259181375E+02 -0.12327098622E-01  0.56137971578E+03  0.56820948941E+03  0.77000000000E+02 0.  0.
   -5000001    1    1    2    0    0 -0.42259181375E+02  0.12327098622E-01  0.12463820962E+03  0.15247793893E+03  0.77000000000E+02 0.  0.
<mgrwt>
<rscale>  0 0.22083880E+03</rscale>
<asrwt>0</asrwt>
<pdfrwt beam="1">  1        2 0.10820811E+00 0.22083880E+03</pdfrwt>
<pdfrwt beam="2">  1       -2 0.26668848E-02 0.22083880E+03</pdfrwt>
<totfact> 0.20657578E+04</totfact>
</mgrwt>
</event>
<event>
 4    1  0.6207184E-004  0.6162596E+03  0.7818608E-02  0.9872235E-01
         -2   -1    0    0    0  501 -0.00000000000E+00  0.00000000000E+00  0.19549877327E+04  0.19549877327E+04  0.25500000000E-02 0. -1.
          2   -1    0    0  501    0  0.00000000000E+00 -0.00000000000E+00 -0.48564999604E+02  0.48564999671E+02  0.25500000000E-02 0.  1.
    5000001    1    1    2    0    0 -0.23356672532E+03  0.12418022020E+03  0.50458987219E+03  0.57490354094E+03  0.77000000000E+02 0.  0.
   -5000001    1    1    2    0    0  0.23356672532E+03 -0.12418022020E+03  0.14018328609E+04  0.14286491914E+04  0.77000000000E+02 0.  0.
<mgrwt>
<rscale>  0 0.61625962E+03</rscale>
<asrwt>0</asrwt>
<pdfrwt beam="1">  1        2 0.74715394E-02 0.61625962E+03</pdfrwt>
<pdfrwt beam="2">  1       -2 0.30076730E+00 0.61625962E+03</pdfrwt>
<totfact> 0.32126933E+01</totfact>
</mgrwt>
</event>
<event>
 4    1  0.6207184E-004  0.2545673E+03  0.7818608E-02  0.1110452E+00
         -2   -1    0    0    0  501 -0.00000000000E+00  0.00000000000E+00  0.54706822385E+01  0.54706828328E+01  0.25500000000E-02 0. -1.
          2   -1    0    0  501    0  0.00000000000E+00 -0.00000000000E+00 -0.29614457990E+04  0.29614457990E+04  0.25500000000E-02 0.  1.
    5000001    1    1    2    0    0  0.45955189620E+02 -0.72087667907E+02 -0.84351356843E+03  0.85132405784E+03  0.77000000000E+02 0.  0.
   -5000001    1    1    2    0    0 -0.45955189620E+02  0.72087667907E+02 -0.21124615484E+04  0.21155924240E+04  0.77000000000E+02 0.  0.
<mgrwt>
<rscale>  0 0.25456732E+03</rscale>
<asrwt>0</asrwt>
<pdfrwt beam="1">  1        2 0.45560577E+00 0.25456732E+03</pdfrwt>
<pdfrwt beam="2">  1       -2 0.84164583E-03 0.25456732E+03</pdfrwt>
<totfact> 0.60183981E+03</totfact>
</mgrwt>
</event>
<event>
 4    1  0.6207184E-004  0.5221396E+03  0.7818608E-02  0.1008156E+00
          2   -1    0    0  501    0  0.00000000000E+00  0.00000000000E+00  0.23697868687E+04  0.23697868687E+04  0.25500000000E-02 0.  1.
         -2   -1    0    0    0  501 -0.00000000000E+00 -0.00000000000E+00 -0.28760998933E+02  0.28760999046E+02  0.25500000000E-02 0. -1.
    5000001    1    1    2    0    0 -0.24019828158E+03  0.63243631573E+02  0.12766129084E+04  0.13028294168E+04  0.77000000000E+02 0.  0.
   -5000001    1    1    2    0    0  0.24019828158E+03 -0.63243631573E+02  0.10644129614E+04  0.10957184510E+04  0.77000000000E+02 0.  0.
<mgrwt>
<rscale>  0 0.52213959E+03</rscale>
<asrwt>0</asrwt>
<pdfrwt beam="1">  1        2 0.36458280E+00 0.52213959E+03</pdfrwt>
<pdfrwt beam="2">  1       -2 0.44247666E-02 0.52213959E+03</pdfrwt>
<totfact> 0.10850314E+03</totfact>
</mgrwt>
</event>
<event>
 4    1  0.6207184E-004  0.5582555E+03  0.7818608E-02  0.9996010E-01
          2   -1    0    0  501    0  0.00000000000E+00  0.00000000000E+00  0.12477943944E+04  0.12477943944E+04  0.25500000000E-02 0.  1.
         -2   -1    0    0    0  501 -0.00000000000E+00 -0.00000000000E+00 -0.62440005428E+02  0.62440005480E+02  0.25500000000E-02 0. -1.
    5000001    1    1    2    0    0  0.32676711717E+02  0.23195506566E+03  0.28565407037E+03  0.37735681774E+03  0.77000000000E+02 0.  0.
   -5000001    1    1    2    0    0 -0.32676711717E+02 -0.23195506566E+03  0.89970031862E+03  0.93287758217E+03  0.77000000000E+02 0.  0.
<mgrwt>
<rscale>  0 0.55825546E+03</rscale>
<asrwt>0</asrwt>
<pdfrwt beam="1">  1        2 0.19196835E+00 0.55825546E+03</pdfrwt>
<pdfrwt beam="2">  1       -2 0.96061556E-02 0.55825546E+03</pdfrwt>
<totfact> 0.13168696E+03</totfact>
</mgrwt>
</event>
<event>
 4    1  0.6207184E-004  0.2209336E+03  0.7818608E-02  0.1133189E+00
          2   -1    0    0  501    0  0.00000000000E+00  0.00000000000E+00  0.72632338789E+03  0.72632338789E+03  0.25500000000E-02 0.  1.
         -2   -1    0    0    0  501 -0.00000000000E+00 -0.00000000000E+00 -0.16800929969E+02  0.16800930162E+02  0.25500000000E-02 0. -1.
    5000001    1    1    2    0    0 -0.50689810416E+02  0.58932141695E+02  0.30358923090E+03  0.32270400574E+03  0.77000000000E+02 0.  0.
   -5000001    1    1    2    0    0  0.50689810416E+02 -0.58932141695E+02  0.40593322702E+03  0.42042031231E+03  0.77000000000E+02 0.  0.
<mgrwt>
<rscale>  0 0.22093355E+03</rscale>
<asrwt>0</asrwt>
<pdfrwt beam="1">  1        2 0.11174205E+00 0.22093355E+03</pdfrwt>
<pdfrwt beam="2">  1       -2 0.25847587E-02 0.22093355E+03</pdfrwt>
<totfact> 0.20806425E+04</totfact>
</mgrwt>
</event>
<event>
 4    1  0.6207184E-004  0.2487029E+03  0.7818608E-02  0.1114127E+00
          2   -1    0    0  501    0  0.00000000000E+00  0.00000000000E+00  0.42586223552E+03  0.42586223553E+03  0.25500000000E-02 0.  1.
         -2   -1    0    0    0  501 -0.00000000000E+00 -0.00000000000E+00 -0.36310532646E+02  0.36310532735E+02  0.25500000000E-02 0. -1.
    5000001    1    1    2    0    0  0.35912390953E+01  0.86096738809E+02  0.28011236927E+03  0.30301400108E+03  0.77000000000E+02 0.  0.
   -5000001    1    1    2    0    0 -0.35912390953E+01 -0.86096738809E+02  0.10943933360E+03  0.15915876718E+03  0.77000000000E+02 0.  0.
<mgrwt>
<rscale>  0 0.24870291E+03</rscale>
<asrwt>0</asrwt>
<pdfrwt beam="1">  1        2 0.65517264E-01 0.24870291E+03</pdfrwt>
<pdfrwt beam="2">  1       -2 0.55862361E-02 0.24870291E+03</pdfrwt>
<totfact> 0.12150462E+04</totfact>
</mgrwt>
</event>
<event>
 4    1  0.6207184E-004  0.4026054E+03  0.7818608E-02  0.1042881E+00
          2   -1    0    0  501    0  0.00000000000E+00  0.00000000000E+00  0.20347271210E+03  0.20347271211E+03  0.25500000000E-02 0.  1.
         -2   -1    0    0    0  501 -0.00000000000E+00 -0.00000000000E+00 -0.19915587455E+03  0.19915587456E+03  0.25500000000E-02 0. -1.
    5000001    1    1    2    0    0  0.17720107152E+03 -0.53865518883E+02 -0.14932679390E+02  0.20113104879E+03  0.77000000000E+02 0.  0.
   -5000001    1    1    2    0    0 -0.17720107152E+03  0.53865518883E+02  0.19249516941E+02  0.20149753789E+03  0.77000000000E+02 0.  0.
<mgrwt>
<rscale>  0 0.40260544E+03</rscale>
<asrwt>0</asrwt>
<pdfrwt beam="1">  1        2 0.31303494E-01 0.40260544E+03</pdfrwt>
<pdfrwt beam="2">  1       -2 0.30639365E-01 0.40260544E+03</pdfrwt>
<totfact> 0.16573585E+03</totfact>
</mgrwt>
</event>
<event>
 4    1  0.6207184E-004  0.2229879E+03  0.7818608E-02  0.1131675E+00
          2   -1    0    0  501    0  0.00000000000E+00  0.00000000000E+00  0.91710754993E+03  0.91710754994E+03  0.25500000000E-02 0.  1.
         -2   -1    0    0    0  501 -0.00000000000E+00 -0.00000000000E+00 -0.13554459936E+02  0.13554460175E+02  0.25500000000E-02 0. -1.
    5000001    1    1    2    0    0  0.71718082518E+02  0.25744753159E+02  0.56185374989E+03  0.57220181050E+03  0.77000000000E+02 0.  0.
   -5000001    1    1    2    0    0 -0.71718082518E+02 -0.25744753159E+02  0.34169934011E+03  0.35846019961E+03  0.77000000000E+02 0.  0.
<mgrwt>
<rscale>  0 0.22298787E+03</rscale>
<asrwt>0</asrwt>
<pdfrwt beam="1">  1        2 0.14109346E+00 0.22298787E+03</pdfrwt>
<pdfrwt beam="2">  1       -2 0.20853017E-02 0.22298787E+03</pdfrwt>
<totfact> 0.21196998E+04</totfact>
</mgrwt>
</event>
<event>
 4    1  0.6207184E-004  0.3369640E+03  0.7818608E-02  0.1068096E+00
          2   -1    0    0  501    0  0.00000000000E+00  0.00000000000E+00  0.12812753042E+04  0.12812753042E+04  0.25500000000E-02 0.  1.
         -2   -1    0    0    0  501 -0.00000000000E+00 -0.00000000000E+00 -0.22154636202E+02  0.22154636349E+02  0.25500000000E-02 0. -1.
    5000001    1    1    2    0    0 -0.74052576013E+02  0.12858293959E+03  0.54843667073E+03  0.57334905439E+03  0.77000000000E+02 0.  0.
   -5000001    1    1    2    0    0  0.74052576013E+02 -0.12858293959E+03  0.71068399728E+03  0.73008088618E+03  0.77000000000E+02 0.  0.
<mgrwt>
<rscale>  0 0.33696402E+03</rscale>
<asrwt>0</asrwt>
<pdfrwt beam="1">  1        2 0.19711931E+00 0.33696402E+03</pdfrwt>
<pdfrwt beam="2">  1       -2 0.34084051E-02 0.33696402E+03</pdfrwt>
<totfact> 0.63089286E+03</totfact>
</mgrwt>
</event>
<event>
 4    1  0.6207184E-004  0.2501070E+03  0.7818608E-02  0.1113237E+00
         -2   -1    0    0    0  501 -0.00000000000E+00  0.00000000000E+00  0.22240595925E+02  0.22240596071E+02  0.25500000000E-02 0. -1.
          2   -1    0    0  501    0  0.00000000000E+00 -0.00000000000E+00 -0.70314552776E+03  0.70314552776E+03  0.25500000000E-02 0.  1.
    5000001    1    1    2    0    0 -0.57245936341E+02 -0.74322020189E+02 -0.25303269854E+03  0.28063393672E+03  0.77000000000E+02 0.  0.
   -5000001    1    1    2    0    0  0.57245936341E+02  0.74322020189E+02 -0.42787223329E+03  0.44475218711E+03  0.77000000000E+02 0.  0.
<mgrwt>
<rscale>  0 0.25010698E+03</rscale>
<asrwt>0</asrwt>
<pdfrwt beam="1">  1        2 0.10817622E+00 0.25010698E+03</pdfrwt>
<pdfrwt beam="2">  1       -2 0.34216307E-02 0.25010698E+03</pdfrwt>
<totfact> 0.14368490E+04</totfact>
</mgrwt>
</event>
<event>
 4    1  0.6207184E-004  0.3648189E+03  0.7818608E-02  0.1056692E+00
          2   -1    0    0  501    0  0.00000000000E+00  0.00000000000E+00  0.12391079434E+03  0.12391079437E+03  0.25500000000E-02 0.  1.
         -2   -1    0    0    0  501 -0.00000000000E+00 -0.00000000000E+00 -0.26852544433E+03  0.26852544434E+03  0.25500000000E-02 0. -1.
    5000001    1    1    2    0    0  0.13347456100E+03  0.92629354232E+02 -0.39177367330E+02  0.18400956989E+03  0.77000000000E+02 0.  0.
   -5000001    1    1    2    0    0 -0.13347456100E+03 -0.92629354232E+02 -0.10543728266E+03  0.20842666882E+03  0.77000000000E+02 0.  0.
<mgrwt>
<rscale>  0 0.36481887E+03</rscale>
<asrwt>0</asrwt>
<pdfrwt beam="1">  1        2 0.19063199E-01 0.36481887E+03</pdfrwt>
<pdfrwt beam="2">  1       -2 0.41311607E-01 0.36481887E+03</pdfrwt>
<totfact> 0.16530962E+03</totfact>
</mgrwt>
</event>
<event>
 4    1  0.6207184E-004  0.2065207E+03  0.7818608E-02  0.1144351E+00
          2   -1    0    0  501    0  0.00000000000E+00  0.00000000000E+00  0.62136903828E+03  0.62136903828E+03  0.25500000000E-02 0.  1.
         -2   -1    0    0    0  501 -0.00000000000E+00 -0.00000000000E+00 -0.17160012211E+02  0.17160012400E+02  0.25500000000E-02 0. -1.
    5000001    1    1    2    0    0 -0.50677915958E+02  0.13683419221E+02  0.16458839226E+03  0.18913969967E+03  0.77000000000E+02 0.  0.
   -5000001    1    1    2    0    0  0.50677915958E+02 -0.13683419221E+02  0.43962063381E+03  0.44938935101E+03  0.77000000000E+02 0.  0.
<mgrwt>
<rscale>  0 0.20652070E+03</rscale>
<asrwt>0</asrwt>
<pdfrwt beam="1">  1        2 0.95595241E-01 0.20652070E+03</pdfrwt>
<pdfrwt beam="2">  1       -2 0.26400018E-02 0.20652070E+03</pdfrwt>
<totfact> 0.24179790E+04</totfact>
</mgrwt>
</event>
<event>
 4    1  0.6207184E-004  0.1969424E+03  0.7818608E-02  0.1152345E+00
          2   -1    0    0  501    0  0.00000000000E+00  0.00000000000E+00  0.11252808442E+03  0.11252808445E+03  0.25500000000E-02 0.  1.
         -2   -1    0    0    0  501 -0.00000000000E+00 -0.00000000000E+00 -0.86170266060E+02  0.86170266097E+02  0.25500000000E-02 0. -1.
    5000001    1    1    2    0    0 -0.52515629064E+02  0.20920772307E+02  0.37308779477E+02  0.10255006112E+03  0.77000000000E+02 0.  0.
   -5000001    1    1    2    0    0  0.52515629064E+02 -0.20920772307E+02 -0.10950961117E+02  0.96148289425E+02  0.77000000000E+02 0.  0.
<mgrwt>
<rscale>  0 0.19694238E+03</rscale>
<asrwt>0</asrwt>
<pdfrwt beam="1">  1        2 0.17312013E-01 0.19694238E+03</pdfrwt>
<pdfrwt beam="2">  1       -2 0.13256964E-01 0.19694238E+03</pdfrwt>
<totfact> 0.13314340E+04</totfact>
</mgrwt>
</event>
<event>
 4    1  0.6207184E-004  0.3606288E+03  0.7818608E-02  0.1058335E+00
          2   -1    0    0  501    0  0.00000000000E+00  0.00000000000E+00  0.17878030571E+04  0.17878030571E+04  0.25500000000E-02 0.  1.
         -2   -1    0    0    0  501 -0.00000000000E+00 -0.00000000000E+00 -0.18186170765E+02  0.18186170944E+02  0.25500000000E-02 0. -1.
    5000001    1    1    2    0    0  0.13391392290E+03 -0.73390686794E+02  0.59864975531E+03  0.62259911756E+03  0.77000000000E+02 0.  0.
   -5000001    1    1    2    0    0 -0.13391392290E+03  0.73390686794E+02  0.11709671310E+04  0.11833901105E+04  0.77000000000E+02 0.  0.
<mgrwt>
<rscale>  0 0.36062885E+03</rscale>
<asrwt>0</asrwt>
<pdfrwt beam="1">  1        2 0.27504662E+00 0.36062885E+03</pdfrwt>
<pdfrwt beam="2">  1       -2 0.27978725E-02 0.36062885E+03</pdfrwt>
<totfact> 0.45147220E+03</totfact>
</mgrwt>
</event>
<event>
 4    1  0.6207184E-004  0.1765873E+03  0.7818608E-02  0.1171147E+00
          2   -1    0    0  501    0  0.00000000000E+00  0.00000000000E+00  0.46206283586E+03  0.46206283587E+03  0.25500000000E-02 0.  1.
         -2   -1    0    0    0  501 -0.00000000000E+00 -0.00000000000E+00 -0.16871657597E+02  0.16871657790E+02  0.25500000000E-02 0. -1.
    5000001    1    1    2    0    0  0.26903754368E+02 -0.31009857702E+02  0.18607255936E+03  0.20551744602E+03  0.77000000000E+02 0.  0.
   -5000001    1    1    2    0    0 -0.26903754368E+02  0.31009857702E+02  0.25911861891E+03  0.27341704764E+03  0.77000000000E+02 0.  0.
<mgrwt>
<rscale>  0 0.17658727E+03</rscale>
<asrwt>0</asrwt>
<pdfrwt beam="1">  1        2 0.71086597E-01 0.17658727E+03</pdfrwt>
<pdfrwt beam="2">  1       -2 0.25956394E-02 0.17658727E+03</pdfrwt>
<totfact> 0.34164634E+04</totfact>
</mgrwt>
</event>
<event>
 4    1  0.6207184E-004  0.3739651E+03  0.7818608E-02  0.1053187E+00
          2   -1    0    0  501    0  0.00000000000E+00  0.00000000000E+00  0.44359944566E+03  0.44359944567E+03  0.25500000000E-02 0.  1.
         -2   -1    0    0    0  501 -0.00000000000E+00 -0.00000000000E+00 -0.78815414608E+02  0.78815414649E+02  0.25500000000E-02 0. -1.
    5000001    1    1    2    0    0 -0.88541597030E+02 -0.14026388919E+03  0.23685383290E+03  0.29923621301E+03  0.77000000000E+02 0.  0.
   -5000001    1    1    2    0    0  0.88541597030E+02  0.14026388919E+03  0.12793019816E+03  0.22317864731E+03  0.77000000000E+02 0.  0.
<mgrwt>
<rscale>  0 0.37396510E+03</rscale>
<asrwt>0</asrwt>
<pdfrwt beam="1">  1        2 0.68246069E-01 0.37396510E+03</pdfrwt>
<pdfrwt beam="2">  1       -2 0.12125448E-01 0.37396510E+03</pdfrwt>
<totfact> 0.34781889E+03</totfact>
</mgrwt>
</event>
<event>
 4    1  0.6207184E-004  0.2070908E+03  0.7818608E-02  0.1143891E+00
          2   -1    0    0  501    0  0.00000000000E+00  0.00000000000E+00  0.60914279958E+03  0.60914279959E+03  0.25500000000E-02 0.  1.
         -2   -1    0    0    0  501 -0.00000000000E+00 -0.00000000000E+00 -0.17601202804E+02  0.17601202988E+02  0.25500000000E-02 0. -1.
    5000001    1    1    2    0    0 -0.54345262935E+02  0.15684860847E+02  0.17497055277E+03  0.19935675759E+03  0.77000000000E+02 0.  0.
   -5000001    1    1    2    0    0  0.54345262935E+02 -0.15684860847E+02  0.41657104401E+03  0.42738724498E+03  0.77000000000E+02 0.  0.
<mgrwt>
<rscale>  0 0.20709076E+03</rscale>
<asrwt>0</asrwt>
<pdfrwt beam="1">  1        2 0.93714274E-01 0.20709076E+03</pdfrwt>
<pdfrwt beam="2">  1       -2 0.27078774E-02 0.20709076E+03</pdfrwt>
<totfact> 0.23838574E+04</totfact>
</mgrwt>
</event>
<event>
 4    1  0.6207184E-004  0.4880149E+03  0.7818608E-02  0.1016955E+00
         -2   -1    0    0    0  501 -0.00000000000E+00  0.00000000000E+00  0.41037037538E+03  0.41037037539E+03  0.25500000000E-02 0. -1.
          2   -1    0    0  501    0  0.00000000000E+00 -0.00000000000E+00 -0.14508754938E+03  0.14508754941E+03  0.25500000000E-02 0.  1.
    5000001    1    1    2    0    0  0.14885568478E+02  0.11296566214E+03  0.36206063923E+03  0.38729798276E+03  0.77000000000E+02 0.  0.
   -5000001    1    1    2    0    0 -0.14885568478E+02 -0.11296566214E+03 -0.96777813232E+02  0.16815994203E+03  0.77000000000E+02 0.  0.
<mgrwt>
<rscale>  0 0.48801489E+03</rscale>
<asrwt>0</asrwt>
<pdfrwt beam="1">  1        2 0.22321162E-01 0.48801489E+03</pdfrwt>
<pdfrwt beam="2">  1       -2 0.63133903E-01 0.48801489E+03</pdfrwt>
<totfact> 0.58488252E+02</totfact>
</mgrwt>
</event>
<event>
 4    1  0.6207184E-004  0.3484355E+03  0.7818608E-02  0.1063259E+00
          2   -1    0    0  501    0  0.00000000000E+00  0.00000000000E+00  0.13168702354E+04  0.13168702354E+04  0.25500000000E-02 0.  1.
         -2   -1    0    0    0  501 -0.00000000000E+00 -0.00000000000E+00 -0.23048458218E+02  0.23048458359E+02  0.25500000000E-02 0. -1.
    5000001    1    1    2    0    0 -0.76722881220E+02  0.13211937872E+03  0.77334037316E+03  0.79203930679E+03  0.77000000000E+02 0.  0.
   -5000001    1    1    2    0    0  0.76722881220E+02 -0.13211937872E+03  0.52048140400E+03  0.54787938695E+03  0.77000000000E+02 0.  0.
<mgrwt>
<rscale>  0 0.34843552E+03</rscale>
<asrwt>0</asrwt>
<pdfrwt beam="1">  1        2 0.20259546E+00 0.34843552E+03</pdfrwt>
<pdfrwt beam="2">  1       -2 0.35459160E-02 0.34843552E+03</pdfrwt>
<totfact> 0.56797713E+03</totfact>
</mgrwt>
</event>
<event>
 4    1  0.6207184E-004  0.2813605E+03  0.7818608E-02  0.1094948E+00
          2   -1    0    0  501    0  0.00000000000E+00  0.00000000000E+00  0.26421219461E+03  0.26421219462E+03  0.25500000000E-02 0.  1.
         -2   -1    0    0    0  501 -0.00000000000E+00 -0.00000000000E+00 -0.74905438025E+02  0.74905438068E+02  0.25500000000E-02 0. -1.
    5000001    1    1    2    0    0 -0.96500479240E+02  0.64012839663E+02  0.69030400164E+02  0.15525521660E+03  0.77000000000E+02 0.  0.
   -5000001    1    1    2    0    0  0.96500479240E+02 -0.64012839663E+02  0.12027635642E+03  0.18386241608E+03  0.77000000000E+02 0.  0.
<mgrwt>
<rscale>  0 0.28136048E+03</rscale>
<asrwt>0</asrwt>
<pdfrwt beam="1">  1        2 0.40648030E-01 0.28136048E+03</pdfrwt>
<pdfrwt beam="2">  1       -2 0.11523914E-01 0.28136048E+03</pdfrwt>
<totfact> 0.65883618E+03</totfact>
</mgrwt>
</event>
<event>
 4    1  0.6207184E-004  0.1634114E+03  0.7818608E-02  0.1184898E+00
          2   -1    0    0  501    0  0.00000000000E+00  0.00000000000E+00  0.33757607061E+02  0.33757607157E+02  0.25500000000E-02 0.  1.
         -2   -1    0    0    0  501 -0.00000000000E+00 -0.00000000000E+00 -0.19775758661E+03  0.19775758663E+03  0.25500000000E-02 0. -1.
    5000001    1    1    2    0    0  0.12084803319E+01  0.20922634739E+02 -0.10684815870E+03  0.13335946193E+03  0.77000000000E+02 0.  0.
   -5000001    1    1    2    0    0 -0.12084803319E+01 -0.20922634739E+02 -0.57151820852E+02  0.98155731854E+02  0.77000000000E+02 0.  0.
<mgrwt>
<rscale>  0 0.16341142E+03</rscale>
<asrwt>0</asrwt>
<pdfrwt beam="1">  1        2 0.51934781E-02 0.16341142E+03</pdfrwt>
<pdfrwt beam="2">  1       -2 0.30424243E-01 0.16341142E+03</pdfrwt>
<totfact> 0.14123294E+04</totfact>
</mgrwt>
</event>
<event>
 4    1  0.6207184E-004  0.1996022E+03  0.7818608E-02  0.1150075E+00
          2   -1    0    0  501    0  0.00000000000E+00  0.00000000000E+00  0.22319101819E+03  0.22319101820E+03  0.25500000000E-02 0.  1.
         -2   -1    0    0    0  501 -0.00000000000E+00 -0.00000000000E+00 -0.44626616632E+02  0.44626616705E+02  0.25500000000E-02 0. -1.
    5000001    1    1    2    0    0 -0.51349177563E+02 -0.34392754379E+02  0.69761577972E+02  0.12089366134E+03  0.77000000000E+02 0.  0.
   -5000001    1    1    2    0    0  0.51349177563E+02  0.34392754379E+02  0.10880282358E+03  0.14692397357E+03  0.77000000000E+02 0.  0.
<mgrwt>
<rscale>  0 0.19960220E+03</rscale>
<asrwt>0</asrwt>
<pdfrwt beam="1">  1        2 0.34337079E-01 0.19960220E+03</pdfrwt>
<pdfrwt beam="2">  1       -2 0.68656335E-02 0.19960220E+03</pdfrwt>
<totfact> 0.17520440E+04</totfact>
</mgrwt>
</event>
<event>
 4    1  0.6207184E-004  0.1979460E+03  0.7818608E-02  0.1151484E+00
         -2   -1    0    0    0  501 -0.00000000000E+00  0.00000000000E+00  0.16109480255E+02  0.16109480456E+02  0.25500000000E-02 0. -1.
          2   -1    0    0  501    0  0.00000000000E+00 -0.00000000000E+00 -0.60806768611E+03  0.60806768612E+03  0.25500000000E-02 0.  1.
    5000001    1    1    2    0    0 -0.25079395051E+02 -0.52503920276E+02 -0.36513691609E+03  0.37767658809E+03  0.77000000000E+02 0.  0.
   -5000001    1    1    2    0    0  0.25079395051E+02  0.52503920276E+02 -0.22682128977E+03  0.24650057848E+03  0.77000000000E+02 0.  0.
<mgrwt>
<rscale>  0 0.19794600E+03</rscale>
<asrwt>0</asrwt>
<pdfrwt beam="1">  1        2 0.93548857E-01 0.19794600E+03</pdfrwt>
<pdfrwt beam="2">  1       -2 0.24783821E-02 0.19794600E+03</pdfrwt>
<totfact> 0.27130127E+04</totfact>
</mgrwt>
</event>
<event>
 4    1  0.6207184E-004  0.2893905E+03  0.7818608E-02  0.1090668E+00
         -2   -1    0    0    0  501 -0.00000000000E+00  0.00000000000E+00  0.64297130808E+02  0.64297130858E+02  0.25500000000E-02 0. -1.
          2   -1    0    0  501    0  0.00000000000E+00 -0.00000000000E+00 -0.32562434103E+03  0.32562434104E+03  0.25500000000E-02 0.  1.
    5000001    1    1    2    0    0 -0.56219081344E+02  0.85648186416E+02 -0.40162459118E+02  0.13430644090E+03  0.77000000000E+02 0.  0.
   -5000001    1    1    2    0    0  0.56219081344E+02 -0.85648186416E+02 -0.22116475110E+03  0.25561503100E+03  0.77000000000E+02 0.  0.
<mgrwt>
<rscale>  0 0.28939047E+03</rscale>
<asrwt>0</asrwt>
<pdfrwt beam="1">  1        2 0.50096052E-01 0.28939047E+03</pdfrwt>
<pdfrwt beam="2">  1       -2 0.98918665E-02 0.28939047E+03</pdfrwt>
<totfact> 0.67220735E+03</totfact>
</mgrwt>
</event>
<event>
 4    1  0.6207184E-004  0.2886622E+03  0.7818608E-02  0.1091050E+00
         -2   -1    0    0    0  501 -0.00000000000E+00  0.00000000000E+00  0.25140582363E+02  0.25140582492E+02  0.25500000000E-02 0. -1.
          2   -1    0    0  501    0  0.00000000000E+00 -0.00000000000E+00 -0.82859928602E+03  0.82859928602E+03  0.25500000000E-02 0.  1.
    5000001    1    1    2    0    0 -0.49792301044E+02  0.76664011985E+02 -0.16244306697E+03  0.20167645868E+03  0.77000000000E+02 0.  0.
   -5000001    1    1    2    0    0  0.49792301044E+02 -0.76664011985E+02 -0.64101563668E+03  0.65206340984E+03  0.77000000000E+02 0.  0.
<mgrwt>
<rscale>  0 0.28866222E+03</rscale>
<asrwt>0</asrwt>
<pdfrwt beam="1">  1        2 0.12747679E+00 0.28866222E+03</pdfrwt>
<pdfrwt beam="2">  1       -2 0.38677825E-02 0.28866222E+03</pdfrwt>
<totfact> 0.97916456E+03</totfact>
</mgrwt>
</event>
<event>
 4    1  0.6207184E-004  0.3345664E+03  0.7818608E-02  0.1069134E+00
          2   -1    0    0  501    0  0.00000000000E+00  0.00000000000E+00  0.11803062302E+03  0.11803062305E+03  0.25500000000E-02 0.  1.
         -2   -1    0    0    0  501 -0.00000000000E+00 -0.00000000000E+00 -0.23708822588E+03  0.23708822589E+03  0.25500000000E-02 0. -1.
    5000001    1    1    2    0    0 -0.61635604526E+02 -0.90756703404E+02 -0.16577229947E+03  0.21317875651E+03  0.77000000000E+02 0.  0.
   -5000001    1    1    2    0    0  0.61635604526E+02  0.90756703404E+02  0.46714696608E+02  0.14194009242E+03  0.77000000000E+02 0.  0.
<mgrwt>
<rscale>  0 0.33456641E+03</rscale>
<asrwt>0</asrwt>
<pdfrwt beam="1">  1        2 0.18158557E-01 0.33456641E+03</pdfrwt>
<pdfrwt beam="2">  1       -2 0.36475112E-01 0.33456641E+03</pdfrwt>
<totfact> 0.22159107E+03</totfact>
</mgrwt>
</event>
<event>
 4    1  0.6207184E-004  0.2809036E+03  0.7818608E-02  0.1095196E+00
          2   -1    0    0  501    0  0.00000000000E+00  0.00000000000E+00  0.16530984238E+03  0.16530984240E+03  0.25500000000E-02 0.  1.
         -2   -1    0    0    0  501 -0.00000000000E+00 -0.00000000000E+00 -0.11933170730E+03  0.11933170733E+03  0.25500000000E-02 0. -1.
    5000001    1    1    2    0    0  0.94125195564E+02 -0.68808919372E+02  0.37443737673E+02  0.14465563700E+03  0.77000000000E+02 0.  0.
   -5000001    1    1    2    0    0 -0.94125195564E+02  0.68808919372E+02  0.85343974063E+01  0.13998591274E+03  0.77000000000E+02 0.  0.
<mgrwt>
<rscale>  0 0.28090358E+03</rscale>
<asrwt>0</asrwt>
<pdfrwt beam="1">  1        2 0.25432283E-01 0.28090358E+03</pdfrwt>
<pdfrwt beam="2">  1       -2 0.18358724E-01 0.28090358E+03</pdfrwt>
<totfact> 0.51072007E+03</totfact>
</mgrwt>
</event>
<event>
 4    1  0.6207184E-004  0.2663749E+03  0.7818608E-02  0.1103372E+00
         -2   -1    0    0    0  501 -0.00000000000E+00  0.00000000000E+00  0.23430704705E+03  0.23430704707E+03  0.25500000000E-02 0. -1.
          2   -1    0    0  501    0  0.00000000000E+00 -0.00000000000E+00 -0.75707938310E+02  0.75707938353E+02  0.25500000000E-02 0.  1.
    5000001    1    1    2    0    0 -0.45442718662E+02  0.98688147027E+02  0.82032058572E+02  0.15640540169E+03  0.77000000000E+02 0.  0.
   -5000001    1    1    2    0    0  0.45442718662E+02 -0.98688147027E+02  0.76567050173E+02  0.15360958374E+03  0.77000000000E+02 0.  0.
<mgrwt>
<rscale>  0 0.26637495E+03</rscale>
<asrwt>0</asrwt>
<pdfrwt beam="1">  1        2 0.11647375E-01 0.26637495E+03</pdfrwt>
<pdfrwt beam="2">  1       -2 0.36047238E-01 0.26637495E+03</pdfrwt>
<totfact> 0.38258742E+03</totfact>
</mgrwt>
</event>
<event>
 4    1  0.6207184E-004  0.2945809E+03  0.7818608E-02  0.1087981E+00
          2   -1    0    0  501    0  0.00000000000E+00  0.00000000000E+00  0.10637100300E+04  0.10637100300E+04  0.25500000000E-02 0.  1.
         -2   -1    0    0    0  501 -0.00000000000E+00 -0.00000000000E+00 -0.20395109063E+02  0.20395109222E+02  0.25500000000E-02 0. -1.
    5000001    1    1    2    0    0 -0.71740434024E+02  0.87838354520E+02  0.32336490031E+03  0.35122090648E+03  0.77000000000E+02 0.  0.
   -5000001    1    1    2    0    0  0.71740434024E+02 -0.87838354520E+02  0.71995002058E+03  0.73288423270E+03  0.77000000000E+02 0.  0.
<mgrwt>
<rscale>  0 0.29458094E+03</rscale>
<asrwt>0</asrwt>
<pdfrwt beam="1">  1        2 0.16364765E+00 0.29458094E+03</pdfrwt>
<pdfrwt beam="2">  1       -2 0.31377099E-02 0.29458094E+03</pdfrwt>
<totfact> 0.95141622E+03</totfact>
</mgrwt>
</event>
<event>
 4    1  0.6207184E-004  0.3462729E+03  0.7818608E-02  0.1064155E+00
          2   -1    0    0  501    0  0.00000000000E+00  0.00000000000E+00  0.33185264795E+04  0.33185264795E+04  0.25500000000E-02 0.  1.
         -2   -1    0    0    0  501 -0.00000000000E+00 -0.00000000000E+00 -0.90329921146E+01  0.90329924746E+01  0.25500000000E-02 0. -1.
    5000001    1    1    2    0    0  0.64085378519E+02 -0.13517289219E+03  0.20472837189E+04  0.20541855496E+04  0.77000000000E+02 0.  0.
   -5000001    1    1    2    0    0 -0.64085378519E+02  0.13517289219E+03  0.12622097686E+04  0.12733739224E+04  0.77000000000E+02 0.  0.
<mgrwt>
<rscale>  0 0.34627286E+03</rscale>
<asrwt>0</asrwt>
<pdfrwt beam="1">  1        2 0.51054363E+00 0.34627286E+03</pdfrwt>
<pdfrwt beam="2">  1       -2 0.13896881E-02 0.34627286E+03</pdfrwt>
<totfact> 0.17361292E+03</totfact>
</mgrwt>
</event>
<event>
 4    1  0.6207184E-004  0.3363239E+03  0.7818608E-02  0.1068373E+00
         -2   -1    0    0    0  501 -0.00000000000E+00  0.00000000000E+00  0.31999046966E+02  0.31999047067E+02  0.25500000000E-02 0. -1.
          2   -1    0    0  501    0  0.00000000000E+00 -0.00000000000E+00 -0.88372764546E+03  0.88372764547E+03  0.25500000000E-02 0.  1.
    5000001    1    1    2    0    0  0.12530807105E+03  0.62170544173E+02 -0.56947892119E+03  0.59144106293E+03  0.77000000000E+02 0.  0.
   -5000001    1    1    2    0    0 -0.12530807105E+03 -0.62170544173E+02 -0.28224967730E+03  0.32428562961E+03  0.77000000000E+02 0.  0.
<mgrwt>
<rscale>  0 0.33632391E+03</rscale>
<asrwt>0</asrwt>
<pdfrwt beam="1">  1        2 0.13595808E+00 0.33632391E+03</pdfrwt>
<pdfrwt beam="2">  1       -2 0.49229310E-02 0.33632391E+03</pdfrwt>
<totfact> 0.62650911E+03</totfact>
</mgrwt>
</event>
<event>
 4    1  0.6207184E-004  0.2573748E+03  0.7818608E-02  0.1108731E+00
          2   -1    0    0  501    0  0.00000000000E+00  0.00000000000E+00  0.16804692018E+04  0.16804692018E+04  0.25500000000E-02 0.  1.
         -2   -1    0    0    0  501 -0.00000000000E+00 -0.00000000000E+00 -0.98546551850E+01  0.98546555149E+01  0.25500000000E-02 0. -1.
    5000001    1    1    2    0    0 -0.61960107017E+01 -0.92146043272E+02  0.53418913876E+03  0.54755485552E+03  0.77000000000E+02 0.  0.
   -5000001    1    1    2    0    0  0.61960107017E+01  0.92146043272E+02  0.11364254079E+04  0.11427690018E+04  0.77000000000E+02 0.  0.
<mgrwt>
<rscale>  0 0.25737478E+03</rscale>
<asrwt>0</asrwt>
<pdfrwt beam="1">  1        2 0.25853348E+00 0.25737478E+03</pdfrwt>
<pdfrwt beam="2">  1       -2 0.15161022E-02 0.25737478E+03</pdfrwt>
<totfact> 0.12683639E+04</totfact>
</mgrwt>
</event>
<event>
 4    1  0.6207184E-004  0.1676695E+03  0.7818608E-02  0.1180300E+00
         -2   -1    0    0    0  501 -0.00000000000E+00  0.00000000000E+00  0.17922645452E+01  0.17922663593E+01  0.25500000000E-02 0. -1.
          2   -1    0    0  501    0  0.00000000000E+00 -0.00000000000E+00 -0.39214410037E+04  0.39214410037E+04  0.25500000000E-02 0.  1.
    5000001    1    1    2    0    0  0.18326438786E+02 -0.80532574685E+01 -0.25782519511E+04  0.25794791793E+04  0.77000000000E+02 0.  0.
   -5000001    1    1    2    0    0 -0.18326438786E+02  0.80532574685E+01 -0.13413967881E+04  0.13437540907E+04  0.77000000000E+02 0.  0.
<mgrwt>
<rscale>  0 0.16766948E+03</rscale>
<asrwt>0</asrwt>
<pdfrwt beam="1">  1        2 0.60329175E+00 0.16766948E+03</pdfrwt>
<pdfrwt beam="2">  1       -2 0.27573629E-03 0.16766948E+03</pdfrwt>
<totfact> 0.70578027E+03</totfact>
</mgrwt>
</event>
<event>
 4    1  0.6207184E-004  0.3043988E+03  0.7818608E-02  0.1083062E+00
          2   -1    0    0  501    0  0.00000000000E+00  0.00000000000E+00  0.19760641807E+03  0.19760641809E+03  0.25500000000E-02 0.  1.
         -2   -1    0    0    0  501 -0.00000000000E+00 -0.00000000000E+00 -0.11722625943E+03  0.11722625945E+03  0.25500000000E-02 0. -1.
    5000001    1    1    2    0    0  0.33143207025E+01 -0.97809410139E+02  0.13069962659E+03  0.18052439676E+03  0.77000000000E+02 0.  0.
   -5000001    1    1    2    0    0 -0.33143207025E+01  0.97809410139E+02 -0.50319467945E+02  0.13430828079E+03  0.77000000000E+02 0.  0.
<mgrwt>
<rscale>  0 0.30439883E+03</rscale>
<asrwt>0</asrwt>
<pdfrwt beam="1">  1        2 0.30400987E-01 0.30439883E+03</pdfrwt>
<pdfrwt beam="2">  1       -2 0.18034809E-01 0.30439883E+03</pdfrwt>
<totfact> 0.43296266E+03</totfact>
</mgrwt>
</event>
<event>
 4    1  0.6207184E-004  0.3640957E+03  0.7818608E-02  0.1056974E+00
          2   -1    0    0  501    0  0.00000000000E+00  0.00000000000E+00  0.68691136387E+02  0.68691136435E+02  0.25500000000E-02 0.  1.
         -2   -1    0    0    0  501 -0.00000000000E+00 -0.00000000000E+00 -0.48247019237E+03  0.48247019238E+03  0.25500000000E-02 0. -1.
    5000001    1    1    2    0    0  0.10648816840E+03  0.10873246670E+03 -0.30322534626E+03  0.34790385157E+03  0.77000000000E+02 0.  0.
   -5000001    1    1    2    0    0 -0.10648816840E+03 -0.10873246670E+03 -0.11055370973E+03  0.20325747725E+03  0.77000000000E+02 0.  0.
<mgrwt>
<rscale>  0 0.36409573E+03</rscale>
<asrwt>0</asrwt>
<pdfrwt beam="1">  1        2 0.10567867E-01 0.36409573E+03</pdfrwt>
<pdfrwt beam="2">  1       -2 0.74226181E-01 0.36409573E+03</pdfrwt>
<totfact> 0.10104984E+03</totfact>
</mgrwt>
</event>
<event>
 4    1  0.6207184E-004  0.9370862E+03  0.7818608E-02  0.9380373E-01
          2   -1    0    0  501    0  0.00000000000E+00  0.00000000000E+00  0.44674365668E+03  0.44674365668E+03  0.25500000000E-02 0.  1.
         -2   -1    0    0    0  501 -0.00000000000E+00 -0.00000000000E+00 -0.49140630546E+03  0.49140630547E+03  0.25500000000E-02 0. -1.
    5000001    1    1    2    0    0 -0.37793036235E+03  0.20081227671E+03 -0.19701928337E+03  0.47739137747E+03  0.77000000000E+02 0.  0.
   -5000001    1    1    2    0    0  0.37793036235E+03 -0.20081227671E+03  0.15235663458E+03  0.46075858469E+03  0.77000000000E+02 0.  0.
<mgrwt>
<rscale>  0 0.93708623E+03</rscale>
<asrwt>0</asrwt>
<pdfrwt beam="1">  1        2 0.68729793E-01 0.93708623E+03</pdfrwt>
<pdfrwt beam="2">  1       -2 0.75600970E-01 0.93708623E+03</pdfrwt>
<totfact> 0.11027094E+02</totfact>
</mgrwt>
</event>
<event>
 4    1  0.6207184E-004  0.1816943E+03  0.7818608E-02  0.1166173E+00
         -2   -1    0    0    0  501 -0.00000000000E+00  0.00000000000E+00  0.11184419559E+02  0.11184419849E+02  0.25500000000E-02 0. -1.
          2   -1    0    0  501    0  0.00000000000E+00 -0.00000000000E+00 -0.73791957684E+03  0.73791957685E+03  0.25500000000E-02 0.  1.
    5000001    1    1    2    0    0  0.85019967582E+01  0.36181283946E+02 -0.23677208047E+03  0.25173674215E+03  0.77000000000E+02 0.  0.
   -5000001    1    1    2    0    0 -0.85019967582E+01 -0.36181283946E+02 -0.48996307681E+03  0.49736725455E+03  0.77000000000E+02 0.  0.
<mgrwt>
<rscale>  0 0.18169427E+03</rscale>
<asrwt>0</asrwt>
<pdfrwt beam="1">  1        2 0.11352605E+00 0.18169427E+03</pdfrwt>
<pdfrwt beam="2">  1       -2 0.17206805E-02 0.18169427E+03</pdfrwt>
<totfact> 0.36528988E+04</totfact>
</mgrwt>
</event>
<event>
 4    1  0.6207184E-004  0.2381136E+03  0.7818608E-02  0.1121056E+00
          2   -1    0    0  501    0  0.00000000000E+00  0.00000000000E+00  0.60425233596E+03  0.60425233597E+03  0.25500000000E-02 0.  1.
         -2   -1    0    0    0  501 -0.00000000000E+00 -0.00000000000E+00 -0.23457945560E+02  0.23457945699E+02  0.25500000000E-02 0. -1.
    5000001    1    1    2    0    0  0.55655847919E+02  0.45272115286E+02  0.14365923643E+03  0.17808456991E+03  0.77000000000E+02 0.  0.
   -5000001    1    1    2    0    0 -0.55655847919E+02 -0.45272115286E+02  0.43713515397E+03  0.44962571175E+03  0.77000000000E+02 0.  0.
<mgrwt>
<rscale>  0 0.23811357E+03</rscale>
<asrwt>0</asrwt>
<pdfrwt beam="1">  1        2 0.92961910E-01 0.23811357E+03</pdfrwt>
<pdfrwt beam="2">  1       -2 0.36089142E-02 0.23811357E+03</pdfrwt>
<totfact> 0.15840356E+04</totfact>
</mgrwt>
</event>
<event>
 4    1  0.6207184E-004  0.2677349E+03  0.7818608E-02  0.1102583E+00
         -2   -1    0    0    0  501 -0.00000000000E+00  0.00000000000E+00  0.16146395120E+02  0.16146395321E+02  0.25500000000E-02 0. -1.
          2   -1    0    0  501    0  0.00000000000E+00 -0.00000000000E+00 -0.11098761350E+04  0.11098761350E+04  0.25500000000E-02 0.  1.
    5000001    1    1    2    0    0  0.18870212212E+02  0.10505111318E+03 -0.64985625359E+03  0.66304899640E+03  0.77000000000E+02 0.  0.
   -5000001    1    1    2    0    0 -0.18870212212E+02 -0.10505111318E+03 -0.44387348631E+03  0.46297353395E+03  0.77000000000E+02 0.  0.
<mgrwt>
<rscale>  0 0.26773493E+03</rscale>
<asrwt>0</asrwt>
<pdfrwt beam="1">  1        2 0.17075011E+00 0.26773493E+03</pdfrwt>
<pdfrwt beam="2">  1       -2 0.24840617E-02 0.26773493E+03</pdfrwt>
<totfact> 0.12608592E+04</totfact>
</mgrwt>
</event>
<event>
 4    1  0.6207184E-004  0.2146024E+03  0.7818608E-02  0.1137972E+00
          2   -1    0    0  501    0  0.00000000000E+00  0.00000000000E+00  0.45138130736E+03  0.45138130737E+03  0.25500000000E-02 0.  1.
         -2   -1    0    0    0  501 -0.00000000000E+00 -0.00000000000E+00 -0.25507370644E+02  0.25507370771E+02  0.25500000000E-02 0. -1.
    5000001    1    1    2    0    0  0.80052766869E+01  0.45892238213E+02  0.83088278915E+02  0.12248609748E+03  0.77000000000E+02 0.  0.
   -5000001    1    1    2    0    0 -0.80052766869E+01 -0.45892238213E+02  0.34278565781E+03  0.35440258066E+03  0.77000000000E+02 0.  0.
<mgrwt>
<rscale>  0 0.21460243E+03</rscale>
<asrwt>0</asrwt>
<pdfrwt beam="1">  1        2 0.69443280E-01 0.21460243E+03</pdfrwt>
<pdfrwt beam="2">  1       -2 0.39242108E-02 0.21460243E+03</pdfrwt>
<totfact> 0.19275765E+04</totfact>
</mgrwt>
</event>
<event>
 4    1  0.6207184E-004  0.2406484E+03  0.7818608E-02  0.1119362E+00
          2   -1    0    0  501    0  0.00000000000E+00  0.00000000000E+00  0.71654743417E+02  0.71654743462E+02  0.25500000000E-02 0.  1.
         -2   -1    0    0    0  501 -0.00000000000E+00 -0.00000000000E+00 -0.20205095227E+03  0.20205095229E+03  0.25500000000E-02 0. -1.
    5000001    1    1    2    0    0 -0.69153671406E+02  0.45972724417E+02 -0.18953403926E+02  0.11482139687E+03  0.77000000000E+02 0.  0.
   -5000001    1    1    2    0    0  0.69153671406E+02 -0.45972724417E+02 -0.11144280493E+03  0.15888429888E+03  0.77000000000E+02 0.  0.
<mgrwt>
<rscale>  0 0.24064837E+03</rscale>
<asrwt>0</asrwt>
<pdfrwt beam="1">  1        2 0.11023807E-01 0.24064837E+03</pdfrwt>
<pdfrwt beam="2">  1       -2 0.31084762E-01 0.24064837E+03</pdfrwt>
<totfact> 0.53596590E+03</totfact>
</mgrwt>
</event>
<event>
 4    1  0.6207184E-004  0.3622272E+03  0.7818608E-02  0.1057705E+00
          2   -1    0    0  501    0  0.00000000000E+00  0.00000000000E+00  0.78032396486E+03  0.78032396487E+03  0.25500000000E-02 0.  1.
         -2   -1    0    0    0  501 -0.00000000000E+00 -0.00000000000E+00 -0.42036564387E+02  0.42036564464E+02  0.25500000000E-02 0. -1.
    5000001    1    1    2    0    0 -0.13623729366E+02  0.13166604000E+03  0.14959855890E+03  0.21408008061E+03  0.77000000000E+02 0.  0.
   -5000001    1    1    2    0    0  0.13623729366E+02 -0.13166604000E+03  0.58868884158E+03  0.60828044872E+03  0.77000000000E+02 0.  0.
<mgrwt>
<rscale>  0 0.36222721E+03</rscale>
<asrwt>0</asrwt>
<pdfrwt beam="1">  1        2 0.12004983E+00 0.36222721E+03</pdfrwt>
<pdfrwt beam="2">  1       -2 0.64671642E-02 0.36222721E+03</pdfrwt>
<totfact> 0.48492175E+03</totfact>
</mgrwt>
</event>
<event>
 4    1  0.6207184E-004  0.3699002E+03  0.7818608E-02  0.1054731E+00
          2   -1    0    0  501    0  0.00000000000E+00  0.00000000000E+00  0.79924741975E+03  0.79924741976E+03  0.25500000000E-02 0.  1.
         -2   -1    0    0    0  501 -0.00000000000E+00 -0.00000000000E+00 -0.42798432694E+02  0.42798432770E+02  0.25500000000E-02 0. -1.
    5000001    1    1    2    0    0  0.37978183244E+02  0.88152350813E+02  0.69253744645E+03  0.70338488333E+03  0.77000000000E+02 0.  0.
   -5000001    1    1    2    0    0 -0.37978183244E+02 -0.88152350813E+02  0.63911540609E+02  0.13866096920E+03  0.77000000000E+02 0.  0.
<mgrwt>
<rscale>  0 0.36990019E+03</rscale>
<asrwt>0</asrwt>
<pdfrwt beam="1">  1        2 0.12296115E+00 0.36990019E+03</pdfrwt>
<pdfrwt beam="2">  1       -2 0.65843738E-02 0.36990019E+03</pdfrwt>
<totfact> 0.45744977E+03</totfact>
</mgrwt>
</event>
<event>
 4    1  0.6207184E-004  0.3237301E+03  0.7818608E-02  0.1073945E+00
          2   -1    0    0  501    0  0.00000000000E+00  0.00000000000E+00  0.45286864657E+04  0.45286864657E+04  0.25500000000E-02 0.  1.
         -2   -1    0    0    0  501 -0.00000000000E+00 -0.00000000000E+00 -0.57854056606E+01  0.57854062226E+01  0.25500000000E-02 0. -1.
    5000001    1    1    2    0    0  0.10581245165E+03  0.95257222347E+02  0.22469193375E+04  0.22527418233E+04  0.77000000000E+02 0.  0.
   -5000001    1    1    2    0    0 -0.10581245165E+03 -0.95257222347E+02  0.22759817226E+04  0.22817300486E+04  0.77000000000E+02 0.  0.
<mgrwt>
<rscale>  0 0.32373007E+03</rscale>
<asrwt>0</asrwt>
<pdfrwt beam="1">  1        2 0.69671846E+00 0.32373007E+03</pdfrwt>
<pdfrwt beam="2">  1       -2 0.89006569E-03 0.32373007E+03</pdfrwt>
<totfact> 0.39708675E+02</totfact>
</mgrwt>
</event>
<event>
 4    1  0.6207184E-004  0.4348878E+03  0.7818608E-02  0.1032327E+00
          2   -1    0    0  501    0  0.00000000000E+00  0.00000000000E+00  0.15783541336E+04  0.15783541336E+04  0.25500000000E-02 0.  1.
         -2   -1    0    0    0  501 -0.00000000000E+00 -0.00000000000E+00 -0.29956420052E+02  0.29956420160E+02  0.25500000000E-02 0. -1.
    5000001    1    1    2    0    0  0.84921370522E+02  0.15680445091E+03  0.41272619749E+03  0.45614820956E+03  0.77000000000E+02 0.  0.
   -5000001    1    1    2    0    0 -0.84921370522E+02 -0.15680445091E+03  0.11356715160E+04  0.11521623442E+04  0.77000000000E+02 0.  0.
<mgrwt>
<rscale>  0 0.43488775E+03</rscale>
<asrwt>0</asrwt>
<pdfrwt beam="1">  1        2 0.24282371E+00 0.43488775E+03</pdfrwt>
<pdfrwt beam="2">  1       -2 0.46086800E-02 0.43488775E+03</pdfrwt>
<totfact> 0.27410041E+03</totfact>
</mgrwt>
</event>
<event>
 4    1  0.6207184E-004  0.1666272E+03  0.7818608E-02  0.1181411E+00
         -2   -1    0    0    0  501 -0.00000000000E+00  0.00000000000E+00  0.96424280384E+01  0.96424283756E+01  0.25500000000E-02 0. -1.
          2   -1    0    0  501    0  0.00000000000E+00 -0.00000000000E+00 -0.71985600358E+03  0.71985600359E+03  0.25500000000E-02 0.  1.
    5000001    1    1    2    0    0  0.13634811477E+02  0.20562195391E+02 -0.26716970382E+03  0.27913681700E+03  0.77000000000E+02 0.  0.
   -5000001    1    1    2    0    0 -0.13634811477E+02 -0.20562195391E+02 -0.44304387172E+03  0.45036161497E+03  0.77000000000E+02 0.  0.
<mgrwt>
<rscale>  0 0.16662725E+03</rscale>
<asrwt>0</asrwt>
<pdfrwt beam="1">  1        2 0.11074704E+00 0.16662725E+03</pdfrwt>
<pdfrwt beam="2">  1       -2 0.14834511E-02 0.16662725E+03</pdfrwt>
<totfact> 0.46334726E+04</totfact>
</mgrwt>
</event>
<event>
 4    1  0.6207184E-004  0.3998072E+03  0.7818608E-02  0.1043846E+00
         -2   -1    0    0    0  501 -0.00000000000E+00  0.00000000000E+00  0.10559197293E+04  0.10559197293E+04  0.25500000000E-02 0. -1.
          2   -1    0    0  501    0  0.00000000000E+00 -0.00000000000E+00 -0.37845160301E+02  0.37845160387E+02  0.25500000000E-02 0.  1.
    5000001    1    1    2    0    0 -0.13199712317E+03  0.12781283662E+03  0.46382816514E+03  0.50480187055E+03  0.77000000000E+02 0.  0.
   -5000001    1    1    2    0    0  0.13199712317E+03 -0.12781283662E+03  0.55424640385E+03  0.58896301914E+03  0.77000000000E+02 0.  0.
<mgrwt>
<rscale>  0 0.39980721E+03</rscale>
<asrwt>0</asrwt>
<pdfrwt beam="1">  1        2 0.58223333E-02 0.39980721E+03</pdfrwt>
<pdfrwt beam="2">  1       -2 0.16244916E+00 0.39980721E+03</pdfrwt>
<totfact> 0.33127048E+02</totfact>
</mgrwt>
</event>
<event>
 4    1  0.6207184E-004  0.2259332E+03  0.7818608E-02  0.1129535E+00
         -2   -1    0    0    0  501 -0.00000000000E+00  0.00000000000E+00  0.18348146211E+02  0.18348146388E+02  0.25500000000E-02 0. -1.
          2   -1    0    0  501    0  0.00000000000E+00 -0.00000000000E+00 -0.69551748740E+03  0.69551748740E+03  0.25500000000E-02 0.  1.
    5000001    1    1    2    0    0 -0.62598697020E+01  0.58756013553E+02 -0.15595358874E+03  0.18368989340E+03  0.77000000000E+02 0.  0.
   -5000001    1    1    2    0    0  0.62598697020E+01 -0.58756013553E+02 -0.52121575244E+03  0.53017574038E+03  0.77000000000E+02 0.  0.
<mgrwt>
<rscale>  0 0.22593323E+03</rscale>
<asrwt>0</asrwt>
<pdfrwt beam="1">  1        2 0.10700267E+00 0.22593323E+03</pdfrwt>
<pdfrwt beam="2">  1       -2 0.28227923E-02 0.22593323E+03</pdfrwt>
<totfact> 0.19277655E+04</totfact>
</mgrwt>
</event>
<event>
 4    1  0.6207184E-004  0.3318809E+03  0.7818608E-02  0.1070308E+00
         -2   -1    0    0    0  501 -0.00000000000E+00  0.00000000000E+00  0.44234688727E+03  0.44234688727E+03  0.25500000000E-02 0. -1.
          2   -1    0    0  501    0  0.00000000000E+00 -0.00000000000E+00 -0.62250314908E+02  0.62250314960E+02  0.25500000000E-02 0.  1.
    5000001    1    1    2    0    0  0.11669345196E+03  0.79359025210E+02  0.25258929272E+03  0.29940869628E+03  0.77000000000E+02 0.  0.
   -5000001    1    1    2    0    0 -0.11669345196E+03 -0.79359025210E+02  0.12750727964E+03  0.20518850595E+03  0.77000000000E+02 0.  0.
<mgrwt>
<rscale>  0 0.33188090E+03</rscale>
<asrwt>0</asrwt>
<pdfrwt beam="1">  1        2 0.95769712E-02 0.33188090E+03</pdfrwt>
<pdfrwt beam="2">  1       -2 0.68053369E-01 0.33188090E+03</pdfrwt>
<totfact> 0.13769189E+03</totfact>
</mgrwt>
</event>
<event>
 4    1  0.6207184E-004  0.1886597E+03  0.7818608E-02  0.1159676E+00
         -2   -1    0    0    0  501 -0.00000000000E+00  0.00000000000E+00  0.14841056552E+02  0.14841056771E+02  0.25500000000E-02 0. -1.
          2   -1    0    0  501    0  0.00000000000E+00 -0.00000000000E+00 -0.59956113822E+03  0.59956113823E+03  0.25500000000E-02 0.  1.
    5000001    1    1    2    0    0 -0.40978179596E+02 -0.27178671725E+02 -0.21589906949E+03  0.23443399840E+03  0.77000000000E+02 0.  0.
   -5000001    1    1    2    0    0  0.40978179596E+02  0.27178671725E+02 -0.36882101218E+03  0.37996819660E+03  0.77000000000E+02 0.  0.
<mgrwt>
<rscale>  0 0.18865970E+03</rscale>
<asrwt>0</asrwt>
<pdfrwt beam="1">  1        2 0.92240156E-01 0.18865970E+03</pdfrwt>
<pdfrwt beam="2">  1       -2 0.22832399E-02 0.18865970E+03</pdfrwt>
<totfact> 0.30988994E+04</totfact>
</mgrwt>
</event>
<event>
 4    1  0.6207184E-004  0.2022201E+03  0.7818608E-02  0.1147879E+00
          2   -1    0    0  501    0  0.00000000000E+00  0.00000000000E+00  0.15268970286E+03  0.15268970288E+03  0.25500000000E-02 0.  1.
         -2   -1    0    0    0  501 -0.00000000000E+00 -0.00000000000E+00 -0.66954392108E+02  0.66954392156E+02  0.25500000000E-02 0. -1.
    5000001    1    1    2    0    0 -0.57814783546E+02 -0.82942660179E+01  0.10593757183E+02  0.97224337162E+02  0.77000000000E+02 0.  0.
   -5000001    1    1    2    0    0  0.57814783546E+02  0.82942660179E+01  0.75141553565E+02  0.12241975787E+03  0.77000000000E+02 0.  0.
<mgrwt>
<rscale>  0 0.20222014E+03</rscale>
<asrwt>0</asrwt>
<pdfrwt beam="1">  1        2 0.23490723E-01 0.20222014E+03</pdfrwt>
<pdfrwt beam="2">  1       -2 0.10300676E-01 0.20222014E+03</pdfrwt>
<totfact> 0.14123227E+04</totfact>
</mgrwt>
</event>
<event>
 4    1  0.6207184E-004  0.2042588E+03  0.7818608E-02  0.1146195E+00
          2   -1    0    0  501    0  0.00000000000E+00  0.00000000000E+00  0.30296390477E+04  0.30296390477E+04  0.25500000000E-02 0.  1.
         -2   -1    0    0    0  501 -0.00000000000E+00 -0.00000000000E+00 -0.34427909855E+01  0.34427919298E+01  0.25500000000E-02 0. -1.
    5000001    1    1    2    0    0 -0.55894527807E+02 -0.27489959316E+02  0.18832932160E+04  0.18858956051E+04  0.77000000000E+02 0.  0.
   -5000001    1    1    2    0    0  0.55894527807E+02  0.27489959316E+02  0.11429030407E+04  0.11471862345E+04  0.77000000000E+02 0.  0.
<mgrwt>
<rscale>  0 0.20425881E+03</rscale>
<asrwt>0</asrwt>
<pdfrwt beam="1">  1        2 0.46610032E+00 0.20425881E+03</pdfrwt>
<pdfrwt beam="2">  1       -2 0.52965795E-03 0.20425881E+03</pdfrwt>
<totfact> 0.10688721E+04</totfact>
</mgrwt>
</event>
<event>
 4    1  0.6207184E-004  0.2325571E+03  0.7818608E-02  0.1124853E+00
          2   -1    0    0  501    0  0.00000000000E+00  0.00000000000E+00  0.16045911424E+04  0.16045911424E+04  0.25500000000E-02 0.  1.
         -2   -1    0    0    0  501 -0.00000000000E+00 -0.00000000000E+00 -0.84262614817E+01  0.84262618675E+01  0.25500000000E-02 0. -1.
    5000001    1    1    2    0    0 -0.10887384253E+02 -0.63025420203E+02  0.12084786544E+04  0.12126171683E+04  0.77000000000E+02 0.  0.
   -5000001    1    1    2    0    0  0.10887384253E+02  0.63025420203E+02  0.38768622648E+03  0.40040023593E+03  0.77000000000E+02 0.  0.
<mgrwt>
<rscale>  0 0.23255713E+03</rscale>
<asrwt>0</asrwt>
<pdfrwt beam="1">  1        2 0.24686036E+00 0.23255713E+03</pdfrwt>
<pdfrwt beam="2">  1       -2 0.12963470E-02 0.23255713E+03</pdfrwt>
<totfact> 0.17415406E+04</totfact>
</mgrwt>
</event>
<event>
 4    1  0.6207184E-004  0.2451171E+04  0.7818608E-02  0.8420591E-01
          2   -1    0    0  501    0  0.00000000000E+00  0.00000000000E+00  0.28188398109E+04  0.28188398109E+04  0.25500000000E-02 0.  1.
         -2   -1    0    0    0  501 -0.00000000000E+00 -0.00000000000E+00 -0.53286436502E+03  0.53286436503E+03  0.25500000000E-02 0. -1.
    5000001    1    1    2    0    0  0.27597599887E+03  0.10205065443E+04  0.30169999706E+03  0.11020654459E+04  0.77000000000E+02 0.  0.
   -5000001    1    1    2    0    0 -0.27597599887E+03 -0.10205065443E+04  0.19842754489E+04  0.22496387301E+04  0.77000000000E+02 0.  0.
<mgrwt>
<rscale>  0 0.24511706E+04</rscale>
<asrwt>0</asrwt>
<pdfrwt beam="1">  1        2 0.43366766E+00 0.24511706E+04</pdfrwt>
<pdfrwt beam="2">  1       -2 0.81979133E-01 0.24511706E+04</pdfrwt>
<totfact> 0.26385020E+00</totfact>
</mgrwt>
</event>
<event>
 4    1  0.6207184E-004  0.3087050E+03  0.7818608E-02  0.1080968E+00
          2   -1    0    0  501    0  0.00000000000E+00  0.00000000000E+00  0.33493796101E+04  0.33493796101E+04  0.25500000000E-02 0.  1.
         -2   -1    0    0    0  501 -0.00000000000E+00 -0.00000000000E+00 -0.71131659063E+01  0.71131663634E+01  0.25500000000E-02 0. -1.
    5000001    1    1    2    0    0 -0.53349683376E+01 -0.12235003731E+03  0.10858463581E+04  0.10954402343E+04  0.77000000000E+02 0.  0.
   -5000001    1    1    2    0    0  0.53349683376E+01  0.12235003731E+03  0.22564200861E+04  0.22610525421E+04  0.77000000000E+02 0.  0.
<mgrwt>
<rscale>  0 0.30870500E+03</rscale>
<asrwt>0</asrwt>
<pdfrwt beam="1">  1        2 0.51528925E+00 0.30870500E+03</pdfrwt>
<pdfrwt beam="2">  1       -2 0.10943331E-02 0.30870500E+03</pdfrwt>
<totfact> 0.23659572E+03</totfact>
</mgrwt>
</event>
<event>
 4    1  0.6207184E-004  0.2741753E+03  0.7818608E-02  0.1098914E+00
          2   -1    0    0  501    0  0.00000000000E+00  0.00000000000E+00  0.11579988679E+04  0.11579988679E+04  0.25500000000E-02 0.  1.
         -2   -1    0    0    0  501 -0.00000000000E+00 -0.00000000000E+00 -0.16228873280E+02  0.16228873481E+02  0.25500000000E-02 0. -1.
    5000001    1    1    2    0    0  0.10691740324E+03  0.29332349637E+02  0.67334058265E+03  0.68673740112E+03  0.77000000000E+02 0.  0.
   -5000001    1    1    2    0    0 -0.10691740324E+03 -0.29332349637E+02  0.46842941193E+03  0.48749034022E+03  0.77000000000E+02 0.  0.
<mgrwt>
<rscale>  0 0.27417525E+03</rscale>
<asrwt>0</asrwt>
<pdfrwt beam="1">  1        2 0.17815367E+00 0.27417525E+03</pdfrwt>
<pdfrwt beam="2">  1       -2 0.24967498E-02 0.27417525E+03</pdfrwt>
<totfact> 0.11743409E+04</totfact>
</mgrwt>
</event>
<event>
 4    1  0.6207184E-004  0.3858231E+03  0.7818608E-02  0.1048802E+00
         -2   -1    0    0    0  501 -0.00000000000E+00  0.00000000000E+00  0.52242564589E+02  0.52242564651E+02  0.25500000000E-02 0. -1.
          2   -1    0    0  501    0  0.00000000000E+00 -0.00000000000E+00 -0.71234764112E+03  0.71234764112E+03  0.25500000000E-02 0.  1.
    5000001    1    1    2    0    0 -0.14298465809E+03  0.77253737832E+02 -0.46839128444E+03  0.50172915781E+03  0.77000000000E+02 0.  0.
   -5000001    1    1    2    0    0  0.14298465809E+03 -0.77253737832E+02 -0.19171379208E+03  0.26286104796E+03  0.77000000000E+02 0.  0.
<mgrwt>
<rscale>  0 0.38582311E+03</rscale>
<asrwt>0</asrwt>
<pdfrwt beam="1">  1        2 0.10959194E+00 0.38582311E+03</pdfrwt>
<pdfrwt beam="2">  1       -2 0.80373181E-02 0.38582311E+03</pdfrwt>
<totfact> 0.38733808E+03</totfact>
</mgrwt>
</event>
<event>
 4    1  0.6207184E-004  0.3327914E+03  0.7818608E-02  0.1069908E+00
          2   -1    0    0  501    0  0.00000000000E+00  0.00000000000E+00  0.97487783972E+03  0.97487783972E+03  0.25500000000E-02 0.  1.
         -2   -1    0    0    0  501 -0.00000000000E+00 -0.00000000000E+00 -0.28401018751E+02  0.28401018865E+02  0.25500000000E-02 0. -1.
    5000001    1    1    2    0    0  0.58504351292E+02 -0.11815355488E+03  0.67265604489E+03  0.68976675505E+03  0.77000000000E+02 0.  0.
   -5000001    1    1    2    0    0 -0.58504351292E+02  0.11815355488E+03  0.27382077608E+03  0.31351210354E+03  0.77000000000E+02 0.  0.
<mgrwt>
<rscale>  0 0.33279137E+03</rscale>
<asrwt>0</asrwt>
<pdfrwt beam="1">  1        2 0.14998122E+00 0.33279137E+03</pdfrwt>
<pdfrwt beam="2">  1       -2 0.43693872E-02 0.33279137E+03</pdfrwt>
<totfact> 0.65658329E+03</totfact>
</mgrwt>
</event>
<event>
 4    1  0.6207184E-004  0.5378977E+03  0.7818608E-02  0.1004335E+00
         -2   -1    0    0    0  501 -0.00000000000E+00  0.00000000000E+00  0.13775868750E+03  0.13775868753E+03  0.25500000000E-02 0. -1.
          2   -1    0    0  501    0  0.00000000000E+00 -0.00000000000E+00 -0.52507388908E+03  0.52507388909E+03  0.25500000000E-02 0.  1.
    5000001    1    1    2    0    0  0.25723281144E+03  0.24886777565E+01 -0.21232863356E+03  0.34232639605E+03  0.77000000000E+02 0.  0.
   -5000001    1    1    2    0    0 -0.25723281144E+03 -0.24886777565E+01 -0.17498656802E+03  0.32050618057E+03  0.77000000000E+02 0.  0.
<mgrwt>
<rscale>  0 0.53789772E+03</rscale>
<asrwt>0</asrwt>
<pdfrwt beam="1">  1        2 0.80780597E-01 0.53789772E+03</pdfrwt>
<pdfrwt beam="2">  1       -2 0.21193644E-01 0.53789772E+03</pdfrwt>
<totfact> 0.11226376E+03</totfact>
</mgrwt>
</event>
<event>
 4    1  0.6207184E-004  0.3016167E+03  0.7818608E-02  0.1084435E+00
         -2   -1    0    0    0  501 -0.00000000000E+00  0.00000000000E+00  0.80047757409E+01  0.80047761471E+01  0.25500000000E-02 0. -1.
          2   -1    0    0  501    0  0.00000000000E+00 -0.00000000000E+00 -0.28411977297E+04  0.28411977297E+04  0.25500000000E-02 0.  1.
    5000001    1    1    2    0    0  0.30557806031E+02 -0.11560077831E+03 -0.18905056307E+04  0.18958475306E+04  0.77000000000E+02 0.  0.
   -5000001    1    1    2    0    0 -0.30557806031E+02  0.11560077831E+03 -0.94268732321E+03  0.95335497523E+03  0.77000000000E+02 0.  0.
<mgrwt>
<rscale>  0 0.30161665E+03</rscale>
<asrwt>0</asrwt>
<pdfrwt beam="1">  1        2 0.43710654E+00 0.30161665E+03</pdfrwt>
<pdfrwt beam="2">  1       -2 0.12315063E-02 0.30161665E+03</pdfrwt>
<totfact> 0.40548870E+03</totfact>
</mgrwt>
</event>
<event>
 4    1  0.6207184E-004  0.3444127E+03  0.7818608E-02  0.1064932E+00
         -2   -1    0    0    0  501 -0.00000000000E+00  0.00000000000E+00  0.16233692029E+02  0.16233692230E+02  0.25500000000E-02 0. -1.
          2   -1    0    0  501    0  0.00000000000E+00 -0.00000000000E+00 -0.18267581477E+04  0.18267581477E+04  0.25500000000E-02 0.  1.
    5000001    1    1    2    0    0  0.13615686844E+03  0.63801411207E+02 -0.72644238914E+03  0.74582629187E+03  0.77000000000E+02 0.  0.
   -5000001    1    1    2    0    0 -0.13615686844E+03 -0.63801411207E+02 -0.10840820665E+04  0.10971655480E+04  0.77000000000E+02 0.  0.
<mgrwt>
<rscale>  0 0.34441271E+03</rscale>
<asrwt>0</asrwt>
<pdfrwt beam="1">  1        2 0.28103955E+00 0.34441271E+03</pdfrwt>
<pdfrwt beam="2">  1       -2 0.24974925E-02 0.34441271E+03</pdfrwt>
<totfact> 0.51014788E+03</totfact>
</mgrwt>
</event>
<event>
 4    1  0.6207184E-004  0.1073334E+04  0.7818608E-02  0.9231579E-01
         -2   -1    0    0    0  501 -0.00000000000E+00  0.00000000000E+00  0.11111236264E+03  0.11111236267E+03  0.25500000000E-02 0. -1.
          2   -1    0    0  501    0  0.00000000000E+00 -0.00000000000E+00 -0.25920763727E+04  0.25920763727E+04  0.25500000000E-02 0.  1.
    5000001    1    1    2    0    0 -0.48540893996E+03  0.89531777461E+02 -0.17342932164E+04  0.18048101669E+04  0.77000000000E+02 0.  0.
   -5000001    1    1    2    0    0  0.48540893996E+03 -0.89531777461E+02 -0.74667079368E+03  0.89837856848E+03  0.77000000000E+02 0.  0.
<mgrwt>
<rscale>  0 0.10733345E+04</rscale>
<asrwt>0</asrwt>
<pdfrwt beam="1">  1        2 0.39878094E+00 0.10733345E+04</pdfrwt>
<pdfrwt beam="2">  1       -2 0.17094212E-01 0.10733345E+04</pdfrwt>
<totfact> 0.86897046E+01</totfact>
</mgrwt>
</event>
<event>
 4    1  0.6207184E-004  0.2671174E+03  0.7818608E-02  0.1102941E+00
          2   -1    0    0  501    0  0.00000000000E+00  0.00000000000E+00  0.22768770490E+03  0.22768770491E+03  0.25500000000E-02 0.  1.
         -2   -1    0    0    0  501 -0.00000000000E+00 -0.00000000000E+00 -0.78343810011E+02  0.78343810052E+02  0.25500000000E-02 0. -1.
    5000001    1    1    2    0    0 -0.12953800962E+02  0.73996513948E+02  0.16535928399E+03  0.19727133050E+03  0.77000000000E+02 0.  0.
   -5000001    1    1    2    0    0  0.12953800962E+02 -0.73996513948E+02 -0.16015389106E+02  0.10876018446E+03  0.77000000000E+02 0.  0.
<mgrwt>
<rscale>  0 0.26711737E+03</rscale>
<asrwt>0</asrwt>
<pdfrwt beam="1">  1        2 0.35028878E-01 0.26711737E+03</pdfrwt>
<pdfrwt beam="2">  1       -2 0.12052894E-01 0.26711737E+03</pdfrwt>
<totfact> 0.71843571E+03</totfact>
</mgrwt>
</event>
<event>
 4    1  0.6207184E-004  0.2540298E+03  0.7818608E-02  0.1110784E+00
          2   -1    0    0  501    0  0.00000000000E+00  0.00000000000E+00  0.34831492910E+03  0.34831492911E+03  0.25500000000E-02 0.  1.
         -2   -1    0    0    0  501 -0.00000000000E+00 -0.00000000000E+00 -0.46316648501E+02  0.46316648571E+02  0.25500000000E-02 0. -1.
    5000001    1    1    2    0    0 -0.89362419189E+02  0.41485824526E+02  0.11636426505E+03  0.17081088309E+03  0.77000000000E+02 0.  0.
   -5000001    1    1    2    0    0  0.89362419189E+02 -0.41485824526E+02  0.18563401554E+03  0.22382069459E+03  0.77000000000E+02 0.  0.
<mgrwt>
<rscale>  0 0.25402976E+03</rscale>
<asrwt>0</asrwt>
<pdfrwt beam="1">  1        2 0.53586913E-01 0.25402976E+03</pdfrwt>
<pdfrwt beam="2">  1       -2 0.71256381E-02 0.25402976E+03</pdfrwt>
<totfact> 0.10401880E+04</totfact>
</mgrwt>
</event>
<event>
 4    1  0.6207184E-004  0.2847311E+03  0.7818608E-02  0.1093133E+00
         -2   -1    0    0    0  501 -0.00000000000E+00  0.00000000000E+00  0.13253473771E+03  0.13253473773E+03  0.25500000000E-02 0. -1.
          2   -1    0    0  501    0  0.00000000000E+00 -0.00000000000E+00 -0.15292560134E+03  0.15292560136E+03  0.25500000000E-02 0.  1.
    5000001    1    1    2    0    0 -0.10645040665E+03  0.33840533820E+02 -0.53457812717E+02  0.14582046683E+03  0.77000000000E+02 0.  0.
   -5000001    1    1    2    0    0  0.10645040665E+03 -0.33840533820E+02  0.33066949081E+02  0.13963987227E+03  0.77000000000E+02 0.  0.
<mgrwt>
<rscale>  0 0.28473113E+03</rscale>
<asrwt>0</asrwt>
<pdfrwt beam="1">  1        2 0.23527016E-01 0.28473113E+03</pdfrwt>
<pdfrwt beam="2">  1       -2 0.20389960E-01 0.28473113E+03</pdfrwt>
<totfact> 0.46623367E+03</totfact>
</mgrwt>
</event>
<event>
 4    1  0.6207184E-004  0.2056657E+03  0.7818608E-02  0.1145045E+00
          2   -1    0    0  501    0  0.00000000000E+00  0.00000000000E+00  0.18973466377E+04  0.18973466377E+04  0.25500000000E-02 0.  1.
         -2   -1    0    0    0  501 -0.00000000000E+00 -0.00000000000E+00 -0.55733610719E+01  0.55733616553E+01  0.25500000000E-02 0. -1.
    5000001    1    1    2    0    0 -0.40333710766E+02 -0.54942789633E+02  0.94326815883E+03  0.94885685845E+03  0.77000000000E+02 0.  0.
   -5000001    1    1    2    0    0  0.40333710766E+02  0.54942789633E+02  0.94850511783E+03  0.95406314094E+03  0.77000000000E+02 0.  0.
<mgrwt>
<rscale>  0 0.20566573E+03</rscale>
<asrwt>0</asrwt>
<pdfrwt beam="1">  1        2 0.29189933E+00 0.20566573E+03</pdfrwt>
<pdfrwt beam="2">  1       -2 0.85744065E-03 0.20566573E+03</pdfrwt>
<totfact> 0.22169650E+04</totfact>
</mgrwt>
</event>
<event>
 4    1  0.6207184E-004  0.4554835E+03  0.7818608E-02  0.1026099E+00
         -2   -1    0    0    0  501 -0.00000000000E+00  0.00000000000E+00  0.40957325347E+03  0.40957325347E+03  0.25500000000E-02 0. -1.
          2   -1    0    0  501    0  0.00000000000E+00 -0.00000000000E+00 -0.12663501259E+03  0.12663501262E+03  0.25500000000E-02 0.  1.
    5000001    1    1    2    0    0 -0.11893482597E+03 -0.17814922121E+03  0.15017394995E+03  0.27269736538E+03  0.77000000000E+02 0.  0.
   -5000001    1    1    2    0    0  0.11893482597E+03  0.17814922121E+03  0.13276429093E+03  0.26351090071E+03  0.77000000000E+02 0.  0.
<mgrwt>
<rscale>  0 0.45548354E+03</rscale>
<asrwt>0</asrwt>
<pdfrwt beam="1">  1        2 0.19482309E-01 0.45548354E+03</pdfrwt>
<pdfrwt beam="2">  1       -2 0.63011271E-01 0.45548354E+03</pdfrwt>
<totfact> 0.68762264E+02</totfact>
</mgrwt>
</event>
<event>
 4    1  0.6207184E-004  0.1859518E+03  0.7818608E-02  0.1162164E+00
         -2   -1    0    0    0  501 -0.00000000000E+00  0.00000000000E+00  0.11145873329E+02  0.11145873621E+02  0.25500000000E-02 0. -1.
          2   -1    0    0  501    0  0.00000000000E+00 -0.00000000000E+00 -0.77558032236E+03  0.77558032236E+03  0.25500000000E-02 0.  1.
    5000001    1    1    2    0    0 -0.25111168024E+02  0.40530719459E+02 -0.47118598329E+03  0.47981094280E+03  0.77000000000E+02 0.  0.
   -5000001    1    1    2    0    0  0.25111168024E+02 -0.40530719459E+02 -0.29324846573E+03  0.30691525318E+03  0.77000000000E+02 0.  0.
<mgrwt>
<rscale>  0 0.18595182E+03</rscale>
<asrwt>0</asrwt>
<pdfrwt beam="1">  1        2 0.11932001E+00 0.18595182E+03</pdfrwt>
<pdfrwt beam="2">  1       -2 0.17147504E-02 0.18595182E+03</pdfrwt>
<totfact> 0.34595188E+04</totfact>
</mgrwt>
</event>
<event>
 4    1  0.6207184E-004  0.2303486E+03  0.7818608E-02  0.1126395E+00
          2   -1    0    0  501    0  0.00000000000E+00  0.00000000000E+00  0.72109400554E+02  0.72109400599E+02  0.25500000000E-02 0.  1.
         -2   -1    0    0    0  501 -0.00000000000E+00 -0.00000000000E+00 -0.18395827268E+03  0.18395827270E+03  0.25500000000E-02 0. -1.
    5000001    1    1    2    0    0  0.36983112889E+02 -0.66517932811E+02 -0.99601707135E+02  0.14711181492E+03  0.77000000000E+02 0.  0.
   -5000001    1    1    2    0    0 -0.36983112889E+02  0.66517932811E+02 -0.12247164991E+02  0.10895585838E+03  0.77000000000E+02 0.  0.
<mgrwt>
<rscale>  0 0.23034861E+03</rscale>
<asrwt>0</asrwt>
<pdfrwt beam="1">  1        2 0.11093754E-01 0.23034861E+03</pdfrwt>
<pdfrwt beam="2">  1       -2 0.28301273E-01 0.23034861E+03</pdfrwt>
<totfact> 0.62891543E+03</totfact>
</mgrwt>
</event>
<event>
 4    1  0.6207184E-004  0.4839422E+03  0.7818608E-02  0.1018057E+00
          2   -1    0    0  501    0  0.00000000000E+00  0.00000000000E+00  0.95841466600E+03  0.95841466601E+03  0.25500000000E-02 0.  1.
         -2   -1    0    0    0  501 -0.00000000000E+00 -0.00000000000E+00 -0.61090473275E+02  0.61090473328E+02  0.25500000000E-02 0. -1.
    5000001    1    1    2    0    0 -0.36608870668E+02 -0.22633009424E+03  0.46435423617E+03  0.52356411033E+03  0.77000000000E+02 0.  0.
   -5000001    1    1    2    0    0  0.36608870668E+02  0.22633009424E+03  0.43296995656E+03  0.49594102901E+03  0.77000000000E+02 0.  0.
<mgrwt>
<rscale>  0 0.48394217E+03</rscale>
<asrwt>0</asrwt>
<pdfrwt beam="1">  1        2 0.14744840E+00 0.48394217E+03</pdfrwt>
<pdfrwt beam="2">  1       -2 0.93985351E-02 0.48394217E+03</pdfrwt>
<totfact> 0.20443783E+03</totfact>
</mgrwt>
</event>
<event>
 4    1  0.6207184E-004  0.5253189E+03  0.7818608E-02  0.1007374E+00
          2   -1    0    0  501    0  0.00000000000E+00  0.00000000000E+00  0.20566669883E+03  0.20566669885E+03  0.25500000000E-02 0.  1.
         -2   -1    0    0    0  501 -0.00000000000E+00 -0.00000000000E+00 -0.33544554472E+03  0.33544554473E+03  0.25500000000E-02 0. -1.
    5000001    1    1    2    0    0  0.29815258214E+02 -0.22212091174E+03 -0.18158407207E+03  0.29854383980E+03  0.77000000000E+02 0.  0.
   -5000001    1    1    2    0    0 -0.29815258214E+02  0.22212091174E+03  0.51805226182E+02  0.24256840378E+03  0.77000000000E+02 0.  0.
<mgrwt>
<rscale>  0 0.52531887E+03</rscale>
<asrwt>0</asrwt>
<pdfrwt beam="1">  1        2 0.31641031E-01 0.52531887E+03</pdfrwt>
<pdfrwt beam="2">  1       -2 0.51607007E-01 0.52531887E+03</pdfrwt>
<totfact> 0.59848592E+02</totfact>
</mgrwt>
</event>
<event>
 4    1  0.6207184E-004  0.2404554E+03  0.7818608E-02  0.1119490E+00
         -2   -1    0    0    0  501 -0.00000000000E+00  0.00000000000E+00  0.32665898400E+02  0.32665898500E+02  0.25500000000E-02 0. -1.
          2   -1    0    0  501    0  0.00000000000E+00 -0.00000000000E+00 -0.44250117230E+03  0.44250117230E+03  0.25500000000E-02 0.  1.
    5000001    1    1    2    0    0 -0.82271059811E+02 -0.37844005311E+02 -0.16929262090E+03  0.20685668350E+03  0.77000000000E+02 0.  0.
   -5000001    1    1    2    0    0  0.82271059811E+02  0.37844005311E+02 -0.24054265300E+03  0.26831038730E+03  0.77000000000E+02 0.  0.
<mgrwt>
<rscale>  0 0.24045539E+03</rscale>
<asrwt>0</asrwt>
<pdfrwt beam="1">  1        2 0.68077099E-01 0.24045539E+03</pdfrwt>
<pdfrwt beam="2">  1       -2 0.50255232E-02 0.24045539E+03</pdfrwt>
<totfact> 0.13662831E+04</totfact>
</mgrwt>
</event>
<event>
 4    1  0.6207184E-004  0.2282332E+03  0.7818608E-02  0.1127890E+00
          2   -1    0    0  501    0  0.00000000000E+00  0.00000000000E+00  0.56603456660E+03  0.56603456660E+03  0.25500000000E-02 0.  1.
         -2   -1    0    0    0  501 -0.00000000000E+00 -0.00000000000E+00 -0.23006725050E+02  0.23006725191E+02  0.25500000000E-02 0. -1.
    5000001    1    1    2    0    0 -0.66378334012E+02 -0.40042400504E+02  0.18653592784E+03  0.21618077953E+03  0.77000000000E+02 0.  0.
   -5000001    1    1    2    0    0  0.66378334012E+02  0.40042400504E+02  0.35649191371E+03  0.37286051226E+03  0.77000000000E+02 0.  0.
<mgrwt>
<rscale>  0 0.22823323E+03</rscale>
<asrwt>0</asrwt>
<pdfrwt beam="1">  1        2 0.87082234E-01 0.22823323E+03</pdfrwt>
<pdfrwt beam="2">  1       -2 0.35394964E-02 0.22823323E+03</pdfrwt>
<totfact> 0.17537259E+04</totfact>
</mgrwt>
</event>
<event>
 4    1  0.6207184E-004  0.2223818E+03  0.7818608E-02  0.1132120E+00
          2   -1    0    0  501    0  0.00000000000E+00  0.00000000000E+00  0.12219760450E+04  0.12219760450E+04  0.25500000000E-02 0.  1.
         -2   -1    0    0    0  501 -0.00000000000E+00 -0.00000000000E+00 -0.10117560213E+02  0.10117560534E+02  0.25500000000E-02 0. -1.
    5000001    1    1    2    0    0  0.31528616621E+01  0.79752138612E+02  0.56158068539E+03  0.57242659822E+03  0.77000000000E+02 0.  0.
   -5000001    1    1    2    0    0 -0.31528616621E+01 -0.79752138612E+02  0.65027779940E+03  0.65966700731E+03  0.77000000000E+02 0.  0.
<mgrwt>
<rscale>  0 0.22238180E+03</rscale>
<asrwt>0</asrwt>
<pdfrwt beam="1">  1        2 0.18799638E+00 0.22238180E+03</pdfrwt>
<pdfrwt beam="2">  1       -2 0.15565472E-02 0.22238180E+03</pdfrwt>
<totfact> 0.21436213E+04</totfact>
</mgrwt>
</event>
<event>
 4    1  0.6207184E-004  0.2580269E+03  0.7818608E-02  0.1108335E+00
         -2   -1    0    0    0  501 -0.00000000000E+00  0.00000000000E+00  0.10425195577E+04  0.10425195577E+04  0.25500000000E-02 0. -1.
          2   -1    0    0  501    0  0.00000000000E+00 -0.00000000000E+00 -0.15965616124E+02  0.15965616328E+02  0.25500000000E-02 0.  1.
    5000001    1    1    2    0    0  0.74845171725E+02  0.18963551663E+02  0.79612409024E+03  0.80355708141E+03  0.77000000000E+02 0.  0.
   -5000001    1    1    2    0    0 -0.74845171725E+02 -0.18963551663E+02  0.23042985136E+03  0.25492809265E+03  0.77000000000E+02 0.  0.
<mgrwt>
<rscale>  0 0.25802688E+03</rscale>
<asrwt>0</asrwt>
<pdfrwt beam="1">  1        2 0.24562490E-02 0.25802688E+03</pdfrwt>
<pdfrwt beam="2">  1       -2 0.16038760E+00 0.25802688E+03</pdfrwt>
<totfact> 0.10945282E+03</totfact>
</mgrwt>
</event>
<event>
 4    1  0.6207184E-004  0.1992997E+03  0.7818608E-02  0.1150331E+00
         -2   -1    0    0    0  501 -0.00000000000E+00  0.00000000000E+00  0.10029802177E+03  0.10029802180E+03  0.25500000000E-02 0. -1.
          2   -1    0    0  501    0  0.00000000000E+00 -0.00000000000E+00 -0.99005819964E+02  0.99005819997E+02  0.25500000000E-02 0.  1.
    5000001    1    1    2    0    0  0.56992556573E+02  0.26392430993E+02 -0.68624505030E+01  0.99603238629E+02  0.77000000000E+02 0.  0.
   -5000001    1    1    2    0    0 -0.56992556573E+02 -0.26392430993E+02  0.81546523098E+01  0.99700603171E+02  0.77000000000E+02 0.  0.
<mgrwt>
<rscale>  0 0.19929965E+03</rscale>
<asrwt>0</asrwt>
<pdfrwt beam="1">  1        2 0.15231665E-01 0.19929965E+03</pdfrwt>
<pdfrwt beam="2">  1       -2 0.15430465E-01 0.19929965E+03</pdfrwt>
<totfact> 0.12071158E+04</totfact>
</mgrwt>
</event>
<event>
 4    1  0.6207184E-004  0.1824583E+03  0.7818608E-02  0.1165445E+00
         -2   -1    0    0    0  501 -0.00000000000E+00  0.00000000000E+00  0.28380843300E+02  0.28380843415E+02  0.25500000000E-02 0. -1.
          2   -1    0    0  501    0  0.00000000000E+00 -0.00000000000E+00 -0.29325274936E+03  0.29325274937E+03  0.25500000000E-02 0.  1.
    5000001    1    1    2    0    0  0.16580232130E+02 -0.44872483945E+02 -0.15052625369E+03  0.17571453258E+03  0.77000000000E+02 0.  0.
   -5000001    1    1    2    0    0 -0.16580232130E+02  0.44872483945E+02 -0.11434565237E+03  0.14591906020E+03  0.77000000000E+02 0.  0.
<mgrwt>
<rscale>  0 0.18245833E+03</rscale>
<asrwt>0</asrwt>
<pdfrwt beam="1">  1        2 0.45115806E-01 0.18245833E+03</pdfrwt>
<pdfrwt beam="2">  1       -2 0.43662838E-02 0.18245833E+03</pdfrwt>
<totfact> 0.25809364E+04</totfact>
</mgrwt>
</event>
<event>
 4    1  0.6207184E-004  0.2262677E+03  0.7818608E-02  0.1129295E+00
         -2   -1    0    0    0  501 -0.00000000000E+00  0.00000000000E+00  0.46258678356E+02  0.46258678426E+02  0.25500000000E-02 0. -1.
          2   -1    0    0  501    0  0.00000000000E+00 -0.00000000000E+00 -0.27668900351E+03  0.27668900352E+03  0.25500000000E-02 0.  1.
    5000001    1    1    2    0    0 -0.16753365817E+02  0.71439967541E+02 -0.60196778949E+02  0.12221700546E+03  0.77000000000E+02 0.  0.
   -5000001    1    1    2    0    0  0.16753365817E+02 -0.71439967541E+02 -0.17023354620E+03  0.20073067648E+03  0.77000000000E+02 0.  0.
<mgrwt>
<rscale>  0 0.22626770E+03</rscale>
<asrwt>0</asrwt>
<pdfrwt beam="1">  1        2 0.42567538E-01 0.22626770E+03</pdfrwt>
<pdfrwt beam="2">  1       -2 0.71167200E-02 0.22626770E+03</pdfrwt>
<totfact> 0.13263399E+04</totfact>
</mgrwt>
</event>
<event>
 4    1  0.6207184E-004  0.2399548E+03  0.7818608E-02  0.1119823E+00
         -2   -1    0    0    0  501 -0.00000000000E+00  0.00000000000E+00  0.25594367026E+02  0.25594367153E+02  0.25500000000E-02 0. -1.
          2   -1    0    0  501    0  0.00000000000E+00 -0.00000000000E+00 -0.56241206097E+03  0.56241206097E+03  0.25500000000E-02 0.  1.
    5000001    1    1    2    0    0 -0.38877886282E+02 -0.56020964690E+02 -0.11703805548E+03  0.15580996424E+03  0.77000000000E+02 0.  0.
   -5000001    1    1    2    0    0  0.38877886282E+02  0.56020964690E+02 -0.41977963846E+03  0.43219646388E+03  0.77000000000E+02 0.  0.
<mgrwt>
<rscale>  0 0.23995484E+03</rscale>
<asrwt>0</asrwt>
<pdfrwt beam="1">  1        2 0.86524923E-01 0.23995484E+03</pdfrwt>
<pdfrwt beam="2">  1       -2 0.39375954E-02 0.23995484E+03</pdfrwt>
<totfact> 0.15103658E+04</totfact>
</mgrwt>
</event>
<event>
 4    1  0.6207184E-004  0.2325773E+03  0.7818608E-02  0.1124839E+00
         -2   -1    0    0    0  501 -0.00000000000E+00  0.00000000000E+00  0.13115874924E+02  0.13115875172E+02  0.25500000000E-02 0. -1.
          2   -1    0    0  501    0  0.00000000000E+00 -0.00000000000E+00 -0.10310448869E+04  0.10310448869E+04  0.25500000000E-02 0.  1.
    5000001    1    1    2    0    0  0.61315299301E+02 -0.59293844229E+02 -0.42881304657E+03  0.44394251295E+03  0.77000000000E+02 0.  0.
   -5000001    1    1    2    0    0 -0.61315299301E+02  0.59293844229E+02 -0.58911596542E+03  0.60021824914E+03  0.77000000000E+02 0.  0.
<mgrwt>
<rscale>  0 0.23257735E+03</rscale>
<asrwt>0</asrwt>
<pdfrwt beam="1">  1        2 0.15862223E+00 0.23257735E+03</pdfrwt>
<pdfrwt beam="2">  1       -2 0.20178277E-02 0.23257735E+03</pdfrwt>
<totfact> 0.18961972E+04</totfact>
</mgrwt>
</event>
<event>
 4    1  0.6207184E-004  0.2773939E+03  0.7818608E-02  0.1097121E+00
         -2   -1    0    0    0  501 -0.00000000000E+00  0.00000000000E+00  0.10203032105E+03  0.10203032108E+03  0.25500000000E-02 0. -1.
          2   -1    0    0  501    0  0.00000000000E+00 -0.00000000000E+00 -0.18854051599E+03  0.18854051601E+03  0.25500000000E-02 0.  1.
    5000001    1    1    2    0    0 -0.90009237090E+02  0.71226552766E+02 -0.55333886775E+02  0.14888157578E+03  0.77000000000E+02 0.  0.
   -5000001    1    1    2    0    0  0.90009237090E+02 -0.71226552766E+02 -0.31176308166E+02  0.14168926131E+03  0.77000000000E+02 0.  0.
<mgrwt>
<rscale>  0 0.27739394E+03</rscale>
<asrwt>0</asrwt>
<pdfrwt beam="1">  1        2 0.29006233E-01 0.27739394E+03</pdfrwt>
<pdfrwt beam="2">  1       -2 0.15696972E-01 0.27739394E+03</pdfrwt>
<totfact> 0.57373091E+03</totfact>
</mgrwt>
</event>
<event>
 4    1  0.6207184E-004  0.2260746E+03  0.7818608E-02  0.1129434E+00
          2   -1    0    0  501    0  0.00000000000E+00  0.00000000000E+00  0.37753264738E+02  0.37753264824E+02  0.25500000000E-02 0.  1.
         -2   -1    0    0    0  501 -0.00000000000E+00 -0.00000000000E+00 -0.33844565294E+03  0.33844565295E+03  0.25500000000E-02 0. -1.
    5000001    1    1    2    0    0 -0.27302763133E+02 -0.56015317352E+02 -0.59731617531E+02  0.11567204842E+03  0.77000000000E+02 0.  0.
   -5000001    1    1    2    0    0  0.27302763133E+02  0.56015317352E+02 -0.24096077067E+03  0.26052686935E+03  0.77000000000E+02 0.  0.
<mgrwt>
<rscale>  0 0.22607457E+03</rscale>
<asrwt>0</asrwt>
<pdfrwt beam="1">  1        2 0.58081948E-02 0.22607457E+03</pdfrwt>
<pdfrwt beam="2">  1       -2 0.52068560E-01 0.22607457E+03</pdfrwt>
<totfact> 0.44916304E+03</totfact>
</mgrwt>
</event>
<event>
 4    1  0.6207184E-004  0.1582769E+03  0.7818608E-02  0.1190656E+00
         -2   -1    0    0    0  501 -0.00000000000E+00  0.00000000000E+00  0.20382226287E+02  0.20382226447E+02  0.25500000000E-02 0. -1.
          2   -1    0    0  501    0  0.00000000000E+00 -0.00000000000E+00 -0.30727241681E+03  0.30727241682E+03  0.25500000000E-02 0.  1.
    5000001    1    1    2    0    0  0.63766176597E+01 -0.16640016454E+02 -0.15181432199E+03  0.17115530889E+03  0.77000000000E+02 0.  0.
   -5000001    1    1    2    0    0 -0.63766176597E+01  0.16640016454E+02 -0.13507586854E+03  0.15649933438E+03  0.77000000000E+02 0.  0.
<mgrwt>
<rscale>  0 0.15827692E+03</rscale>
<asrwt>0</asrwt>
<pdfrwt beam="1">  1        2 0.47272676E-01 0.15827692E+03</pdfrwt>
<pdfrwt beam="2">  1       -2 0.31357274E-02 0.15827692E+03</pdfrwt>
<totfact> 0.39660459E+04</totfact>
</mgrwt>
</event>
<event>
 4    1  0.6207184E-004  0.2116442E+03  0.7818608E-02  0.1140271E+00
          2   -1    0    0  501    0  0.00000000000E+00  0.00000000000E+00  0.24135637850E+04  0.24135637850E+04  0.25500000000E-02 0.  1.
         -2   -1    0    0    0  501 -0.00000000000E+00 -0.00000000000E+00 -0.46397439146E+01  0.46397446153E+01  0.25500000000E-02 0. -1.
    5000001    1    1    2    0    0 -0.23360464470E+02  0.67860949669E+02  0.13288400524E+04  0.13330025148E+04  0.77000000000E+02 0.  0.
   -5000001    1    1    2    0    0  0.23360464470E+02 -0.67860949669E+02  0.10800839887E+04  0.10852010147E+04  0.77000000000E+02 0.  0.
<mgrwt>
<rscale>  0 0.21164422E+03</rscale>
<asrwt>0</asrwt>
<pdfrwt beam="1">  1        2 0.37131808E+00 0.21164422E+03</pdfrwt>
<pdfrwt beam="2">  1       -2 0.71380571E-03 0.21164422E+03</pdfrwt>
<totfact> 0.15455379E+04</totfact>
</mgrwt>
</event>
<event>
 4    1  0.6207184E-004  0.3632373E+03  0.7818608E-02  0.1057309E+00
          2   -1    0    0  501    0  0.00000000000E+00  0.00000000000E+00  0.14423607512E+04  0.14423607512E+04  0.25500000000E-02 0.  1.
         -2   -1    0    0    0  501 -0.00000000000E+00 -0.00000000000E+00 -0.22868987060E+02  0.22868987202E+02  0.25500000000E-02 0. -1.
    5000001    1    1    2    0    0 -0.12951183128E+03 -0.10475166666E+01  0.30071850426E+03  0.33635551213E+03  0.77000000000E+02 0.  0.
   -5000001    1    1    2    0    0  0.12951183128E+03  0.10475166666E+01  0.11187732599E+04  0.11288742263E+04  0.77000000000E+02 0.  0.
<mgrwt>
<rscale>  0 0.36323727E+03</rscale>
<asrwt>0</asrwt>
<pdfrwt beam="1">  1        2 0.22190166E+00 0.36323727E+03</pdfrwt>
<pdfrwt beam="2">  1       -2 0.35183057E-02 0.36323727E+03</pdfrwt>
<totfact> 0.49020827E+03</totfact>
</mgrwt>
</event>
<event>
 4    1  0.6207184E-004  0.3553081E+03  0.7818608E-02  0.1060457E+00
          2   -1    0    0  501    0  0.00000000000E+00  0.00000000000E+00  0.16556600848E+04  0.16556600848E+04  0.25500000000E-02 0.  1.
         -2   -1    0    0    0  501 -0.00000000000E+00 -0.00000000000E+00 -0.19062465551E+02  0.19062465721E+02  0.25500000000E-02 0. -1.
    5000001    1    1    2    0    0  0.52076471508E+01 -0.14955153707E+03  0.55003913234E+03  0.57520850909E+03  0.77000000000E+02 0.  0.
   -5000001    1    1    2    0    0 -0.52076471508E+01  0.14955153707E+03  0.10865584869E+04  0.10995140414E+04  0.77000000000E+02 0.  0.
<mgrwt>
<rscale>  0 0.35530811E+03</rscale>
<asrwt>0</asrwt>
<pdfrwt beam="1">  1        2 0.25471703E+00 0.35530811E+03</pdfrwt>
<pdfrwt beam="2">  1       -2 0.29326860E-02 0.35530811E+03</pdfrwt>
<totfact> 0.49468577E+03</totfact>
</mgrwt>
</event>
<event>
 4    1  0.6207184E-004  0.3055824E+03  0.7818608E-02  0.1082483E+00
         -2   -1    0    0    0  501 -0.00000000000E+00  0.00000000000E+00  0.14738439633E+02  0.14738439854E+02  0.25500000000E-02 0. -1.
          2   -1    0    0  501    0  0.00000000000E+00 -0.00000000000E+00 -0.15839637270E+04  0.15839637270E+04  0.25500000000E-02 0.  1.
    5000001    1    1    2    0    0  0.11986211211E+03 -0.46963589579E+02 -0.63265583366E+03  0.65019605391E+03  0.77000000000E+02 0.  0.
   -5000001    1    1    2    0    0 -0.11986211211E+03  0.46963589579E+02 -0.93656945372E+03  0.94850611296E+03  0.77000000000E+02 0.  0.
<mgrwt>
<rscale>  0 0.30558242E+03</rscale>
<asrwt>0</asrwt>
<pdfrwt beam="1">  1        2 0.24368659E+00 0.30558242E+03</pdfrwt>
<pdfrwt beam="2">  1       -2 0.22674535E-02 0.30558242E+03</pdfrwt>
<totfact> 0.79176433E+03</totfact>
</mgrwt>
</event>
<event>
 4    1  0.6207184E-004  0.2287973E+03  0.7818608E-02  0.1127489E+00
         -2   -1    0    0    0  501 -0.00000000000E+00  0.00000000000E+00  0.49591299849E+02  0.49591299915E+02  0.25500000000E-02 0. -1.
          2   -1    0    0  501    0  0.00000000000E+00 -0.00000000000E+00 -0.26389821669E+03  0.26389821670E+03  0.25500000000E-02 0.  1.
    5000001    1    1    2    0    0 -0.36217933164E+02  0.64756213656E+02 -0.16285944546E+03  0.19482634541E+03  0.77000000000E+02 0.  0.
   -5000001    1    1    2    0    0  0.36217933164E+02 -0.64756213656E+02 -0.51447471380E+02  0.11866317121E+03  0.77000000000E+02 0.  0.
<mgrwt>
<rscale>  0 0.22879734E+03</rscale>
<asrwt>0</asrwt>
<pdfrwt beam="1">  1        2 0.40599725E-01 0.22879734E+03</pdfrwt>
<pdfrwt beam="2">  1       -2 0.76294309E-02 0.22879734E+03</pdfrwt>
<totfact> 0.12536742E+04</totfact>
</mgrwt>
</event>
<event>
 4    1  0.6207184E-004  0.4369309E+03  0.7818608E-02  0.1031693E+00
          2   -1    0    0  501    0  0.00000000000E+00  0.00000000000E+00  0.97572030446E+03  0.97572030446E+03  0.25500000000E-02 0.  1.
         -2   -1    0    0    0  501 -0.00000000000E+00 -0.00000000000E+00 -0.48914794573E+02  0.48914794639E+02  0.25500000000E-02 0. -1.
    5000001    1    1    2    0    0 -0.14561543320E+03 -0.10256351308E+03  0.22801730621E+03  0.29940611305E+03  0.77000000000E+02 0.  0.
   -5000001    1    1    2    0    0  0.14561543320E+03  0.10256351308E+03  0.69878820368E+03  0.72522898605E+03  0.77000000000E+02 0.  0.
<mgrwt>
<rscale>  0 0.43693092E+03</rscale>
<asrwt>0</asrwt>
<pdfrwt beam="1">  1        2 0.15011082E+00 0.43693092E+03</pdfrwt>
<pdfrwt beam="2">  1       -2 0.75253530E-02 0.43693092E+03</pdfrwt>
<totfact> 0.28383726E+03</totfact>
</mgrwt>
</event>
<event>
 4    1  0.6207184E-004  0.2343280E+03  0.7818608E-02  0.1123630E+00
          2   -1    0    0  501    0  0.00000000000E+00  0.00000000000E+00  0.12973349217E+04  0.12973349217E+04  0.25500000000E-02 0.  1.
         -2   -1    0    0    0  501 -0.00000000000E+00 -0.00000000000E+00 -0.10581235720E+02  0.10581236027E+02  0.25500000000E-02 0. -1.
    5000001    1    1    2    0    0  0.75670011591E+01  0.87754536733E+02  0.67880484885E+03  0.68881284907E+03  0.77000000000E+02 0.  0.
   -5000001    1    1    2    0    0 -0.75670011591E+01 -0.87754536733E+02  0.60794883716E+03  0.61910330868E+03  0.77000000000E+02 0.  0.
<mgrwt>
<rscale>  0 0.23432803E+03</rscale>
<asrwt>0</asrwt>
<pdfrwt beam="1">  1        2 0.19958994E+00 0.23432803E+03</pdfrwt>
<pdfrwt beam="2">  1       -2 0.16278828E-02 0.23432803E+03</pdfrwt>
<totfact> 0.18278445E+04</totfact>
</mgrwt>
</event>
<event>
 4    1  0.6207184E-004  0.2557068E+03  0.7818608E-02  0.1109750E+00
          2   -1    0    0  501    0  0.00000000000E+00  0.00000000000E+00  0.32661391638E+04  0.32661391638E+04  0.25500000000E-02 0.  1.
         -2   -1    0    0    0  501 -0.00000000000E+00 -0.00000000000E+00 -0.50048361853E+01  0.50048368349E+01  0.25500000000E-02 0. -1.
    5000001    1    1    2    0    0  0.89729579125E+02 -0.22062472485E+02  0.21851422325E+04  0.21884500740E+04  0.77000000000E+02 0.  0.
   -5000001    1    1    2    0    0 -0.89729579125E+02  0.22062472485E+02  0.10759920952E+04  0.10826939267E+04  0.77000000000E+02 0.  0.
<mgrwt>
<rscale>  0 0.25570681E+03</rscale>
<asrwt>0</asrwt>
<pdfrwt beam="1">  1        2 0.50248111E+00 0.25570681E+03</pdfrwt>
<pdfrwt beam="2">  1       -2 0.76997767E-03 0.25570681E+03</pdfrwt>
<totfact> 0.44763052E+03</totfact>
</mgrwt>
</event>
<event>
 4    1  0.6207184E-004  0.3408437E+03  0.7818608E-02  0.1066437E+00
          2   -1    0    0  501    0  0.00000000000E+00  0.00000000000E+00  0.75178458386E+03  0.75178458386E+03  0.25500000000E-02 0.  1.
         -2   -1    0    0    0  501 -0.00000000000E+00 -0.00000000000E+00 -0.38632876955E+02  0.38632877039E+02  0.25500000000E-02 0. -1.
    5000001    1    1    2    0    0 -0.37215191846E+02  0.12410921509E+03  0.54102820881E+03  0.56163029699E+03  0.77000000000E+02 0.  0.
   -5000001    1    1    2    0    0  0.37215191846E+02 -0.12410921509E+03  0.17212349810E+03  0.22878716391E+03  0.77000000000E+02 0.  0.
<mgrwt>
<rscale>  0 0.34084367E+03</rscale>
<asrwt>0</asrwt>
<pdfrwt beam="1">  1        2 0.11565915E+00 0.34084367E+03</pdfrwt>
<pdfrwt beam="2">  1       -2 0.59435202E-02 0.34084367E+03</pdfrwt>
<totfact> 0.57866608E+03</totfact>
</mgrwt>
</event>
<event>
 4    1  0.6207184E-004  0.3996397E+03  0.7818608E-02  0.1043905E+00
         -2   -1    0    0    0  501 -0.00000000000E+00  0.00000000000E+00  0.32670437445E+03  0.32670437446E+03  0.25500000000E-02 0. -1.
          2   -1    0    0  501    0  0.00000000000E+00 -0.00000000000E+00 -0.12221437932E+03  0.12221437935E+03  0.25500000000E-02 0.  1.
    5000001    1    1    2    0    0 -0.16055245645E+03  0.90554364387E+02  0.97001639603E+02  0.22207093972E+03  0.77000000000E+02 0.  0.
   -5000001    1    1    2    0    0  0.16055245645E+03 -0.90554364387E+02  0.10748835553E+03  0.22684781409E+03  0.77000000000E+02 0.  0.
<mgrwt>
<rscale>  0 0.39963970E+03</rscale>
<asrwt>0</asrwt>
<pdfrwt beam="1">  1        2 0.18802212E-01 0.39963970E+03</pdfrwt>
<pdfrwt beam="2">  1       -2 0.50262211E-01 0.39963970E+03</pdfrwt>
<totfact> 0.11420419E+03</totfact>
</mgrwt>
</event>
<event>
 4    1  0.6207184E-004  0.3369667E+03  0.7818608E-02  0.1068095E+00
         -2   -1    0    0    0  501 -0.00000000000E+00  0.00000000000E+00  0.35026909764E+03  0.35026909765E+03  0.25500000000E-02 0. -1.
          2   -1    0    0  501    0  0.00000000000E+00 -0.00000000000E+00 -0.81042353022E+02  0.81042353062E+02  0.25500000000E-02 0.  1.
    5000001    1    1    2    0    0 -0.38274150646E+01  0.14979514378E+03  0.13729757520E+03  0.21733121810E+03  0.77000000000E+02 0.  0.
   -5000001    1    1    2    0    0  0.38274150646E+01 -0.14979514378E+03  0.13192916941E+03  0.21398023261E+03  0.77000000000E+02 0.  0.
<mgrwt>
<rscale>  0 0.33696666E+03</rscale>
<asrwt>0</asrwt>
<pdfrwt beam="1">  1        2 0.12468054E-01 0.33696666E+03</pdfrwt>
<pdfrwt beam="2">  1       -2 0.53887554E-01 0.33696666E+03</pdfrwt>
<totfact> 0.16161747E+03</totfact>
</mgrwt>
</event>
<event>
 4    1  0.6207184E-004  0.4653642E+03  0.7818608E-02  0.1023237E+00
          2   -1    0    0  501    0  0.00000000000E+00  0.00000000000E+00  0.17500127020E+04  0.17500127020E+04  0.25500000000E-02 0.  1.
         -2   -1    0    0    0  501 -0.00000000000E+00 -0.00000000000E+00 -0.30937471241E+02  0.30937471346E+02  0.25500000000E-02 0. -1.
    5000001    1    1    2    0    0  0.24129826829E+02  0.16085384550E+03  0.14240141485E+04  0.14353402047E+04  0.77000000000E+02 0.  0.
   -5000001    1    1    2    0    0 -0.24129826829E+02 -0.16085384550E+03  0.29506108227E+03  0.34560996864E+03  0.77000000000E+02 0.  0.
<mgrwt>
<rscale>  0 0.46536423E+03</rscale>
<asrwt>0</asrwt>
<pdfrwt beam="1">  1        2 0.26923266E+00 0.46536423E+03</pdfrwt>
<pdfrwt beam="2">  1       -2 0.47596121E-02 0.46536423E+03</pdfrwt>
<totfact> 0.21063739E+03</totfact>
</mgrwt>
</event>
<event>
 4    1  0.6207184E-004  0.2580385E+03  0.7818608E-02  0.1108327E+00
         -2   -1    0    0    0  501 -0.00000000000E+00  0.00000000000E+00  0.56010499261E+02  0.56010499319E+02  0.25500000000E-02 0. -1.
          2   -1    0    0  501    0  0.00000000000E+00 -0.00000000000E+00 -0.29719372587E+03  0.29719372588E+03  0.25500000000E-02 0.  1.
    5000001    1    1    2    0    0 -0.44085257439E+02  0.69784540206E+02 -0.35070621406E+02  0.11820465499E+03  0.77000000000E+02 0.  0.
   -5000001    1    1    2    0    0  0.44085257439E+02 -0.69784540206E+02 -0.20611260520E+03  0.23499957021E+03  0.77000000000E+02 0.  0.
<mgrwt>
<rscale>  0 0.25803852E+03</rscale>
<asrwt>0</asrwt>
<pdfrwt beam="1">  1        2 0.45722110E-01 0.25803852E+03</pdfrwt>
<pdfrwt beam="2">  1       -2 0.86170001E-02 0.25803852E+03</pdfrwt>
<totfact> 0.91812587E+03</totfact>
</mgrwt>
</event>
<event>
 4    1  0.6207184E-004  0.2340095E+03  0.7818608E-02  0.1123849E+00
         -2   -1    0    0    0  501 -0.00000000000E+00  0.00000000000E+00  0.14006709395E+02  0.14006709628E+02  0.25500000000E-02 0. -1.
          2   -1    0    0  501    0  0.00000000000E+00 -0.00000000000E+00 -0.97739681663E+03  0.97739681663E+03  0.25500000000E-02 0.  1.
    5000001    1    1    2    0    0 -0.70580824658E+02  0.41805311332E+02 -0.34561021485E+03  0.36346218162E+03  0.77000000000E+02 0.  0.
   -5000001    1    1    2    0    0  0.70580824658E+02 -0.41805311332E+02 -0.61777989239E+03  0.62794134463E+03  0.77000000000E+02 0.  0.
<mgrwt>
<rscale>  0 0.23400952E+03</rscale>
<asrwt>0</asrwt>
<pdfrwt beam="1">  1        2 0.15036869E+00 0.23400952E+03</pdfrwt>
<pdfrwt beam="2">  1       -2 0.21548792E-02 0.23400952E+03</pdfrwt>
<totfact> 0.18566960E+04</totfact>
</mgrwt>
</event>
<event>
 4    1  0.6207184E-004  0.2174279E+03  0.7818608E-02  0.1135815E+00
         -2   -1    0    0    0  501 -0.00000000000E+00  0.00000000000E+00  0.11393467501E+02  0.11393467787E+02  0.25500000000E-02 0. -1.
          2   -1    0    0  501    0  0.00000000000E+00 -0.00000000000E+00 -0.10373245638E+04  0.10373245638E+04  0.25500000000E-02 0.  1.
    5000001    1    1    2    0    0 -0.63914081269E+02  0.17539906129E+02 -0.32634309822E+03  0.34179156784E+03  0.77000000000E+02 0.  0.
   -5000001    1    1    2    0    0  0.63914081269E+02 -0.17539906129E+02 -0.69958799804E+03  0.70692646371E+03  0.77000000000E+02 0.  0.
<mgrwt>
<rscale>  0 0.21742791E+03</rscale>
<asrwt>0</asrwt>
<pdfrwt beam="1">  1        2 0.15958832E+00 0.21742791E+03</pdfrwt>
<pdfrwt beam="2">  1       -2 0.17528420E-02 0.21742791E+03</pdfrwt>
<totfact> 0.23017014E+04</totfact>
</mgrwt>
</event>
<event>
 4    1  0.6207184E-004  0.1805132E+03  0.7818608E-02  0.1167307E+00
          2   -1    0    0  501    0  0.00000000000E+00  0.00000000000E+00  0.29908746707E+03  0.29908746708E+03  0.25500000000E-02 0.  1.
         -2   -1    0    0    0  501 -0.00000000000E+00 -0.00000000000E+00 -0.27237038392E+02  0.27237038511E+02  0.25500000000E-02 0. -1.
    5000001    1    1    2    0    0 -0.27840630882E+02  0.37854613850E+02  0.14140374762E+03  0.16772624231E+03  0.77000000000E+02 0.  0.
   -5000001    1    1    2    0    0  0.27840630882E+02 -0.37854613850E+02  0.13044668105E+03  0.15859826328E+03  0.77000000000E+02 0.  0.
<mgrwt>
<rscale>  0 0.18051323E+03</rscale>
<asrwt>0</asrwt>
<pdfrwt beam="1">  1        2 0.46013458E-01 0.18051323E+03</pdfrwt>
<pdfrwt beam="2">  1       -2 0.41903135E-02 0.18051323E+03</pdfrwt>
<totfact> 0.26854914E+04</totfact>
</mgrwt>
</event>
<event>
 4    1  0.6207184E-004  0.1777057E+03  0.7818608E-02  0.1170042E+00
          2   -1    0    0  501    0  0.00000000000E+00  0.00000000000E+00  0.71547927686E+03  0.71547927686E+03  0.25500000000E-02 0.  1.
         -2   -1    0    0    0  501 -0.00000000000E+00 -0.00000000000E+00 -0.11034318485E+02  0.11034318780E+02  0.25500000000E-02 0. -1.
    5000001    1    1    2    0    0  0.17485299285E+02  0.30337148863E+02  0.46341725096E+03  0.47107390798E+03  0.77000000000E+02 0.  0.
   -5000001    1    1    2    0    0 -0.17485299285E+02 -0.30337148863E+02  0.24102770741E+03  0.25543968766E+03  0.77000000000E+02 0.  0.
<mgrwt>
<rscale>  0 0.17770567E+03</rscale>
<asrwt>0</asrwt>
<pdfrwt beam="1">  1        2 0.11007376E+00 0.17770567E+03</pdfrwt>
<pdfrwt beam="2">  1       -2 0.16975871E-02 0.17770567E+03</pdfrwt>
<totfact> 0.38604171E+04</totfact>
</mgrwt>
</event>
<event>
 4    1  0.6207184E-004  0.2574597E+03  0.7818608E-02  0.1108679E+00
         -2   -1    0    0    0  501 -0.00000000000E+00  0.00000000000E+00  0.47183714766E+02  0.47183714835E+02  0.25500000000E-02 0. -1.
          2   -1    0    0  501    0  0.00000000000E+00 -0.00000000000E+00 -0.35120955680E+03  0.35120955681E+03  0.25500000000E-02 0.  1.
    5000001    1    1    2    0    0  0.46009246224E+02  0.80930589966E+02 -0.83231694784E+02  0.14670762130E+03  0.77000000000E+02 0.  0.
   -5000001    1    1    2    0    0 -0.46009246224E+02 -0.80930589966E+02 -0.22079414725E+03  0.25168565034E+03  0.77000000000E+02 0.  0.
<mgrwt>
<rscale>  0 0.25745968E+03</rscale>
<asrwt>0</asrwt>
<pdfrwt beam="1">  1        2 0.54032238E-01 0.25745968E+03</pdfrwt>
<pdfrwt beam="2">  1       -2 0.72590333E-02 0.25745968E+03</pdfrwt>
<totfact> 0.10023542E+04</totfact>
</mgrwt>
</event>
<event>
 4    1  0.6207184E-004  0.3192553E+03  0.7818608E-02  0.1075993E+00
          2   -1    0    0  501    0  0.00000000000E+00  0.00000000000E+00  0.69044976611E+03  0.69044976611E+03  0.25500000000E-02 0.  1.
         -2   -1    0    0    0  501 -0.00000000000E+00 -0.00000000000E+00 -0.36904902736E+02  0.36904902824E+02  0.25500000000E-02 0. -1.
    5000001    1    1    2    0    0 -0.47306175907E+01  0.99615370301E+02  0.10347277411E+03  0.16303746724E+03  0.77000000000E+02 0.  0.
   -5000001    1    1    2    0    0  0.47306175907E+01 -0.99615370301E+02  0.55007208926E+03  0.56431720170E+03  0.77000000000E+02 0.  0.
<mgrwt>
<rscale>  0 0.31925527E+03</rscale>
<asrwt>0</asrwt>
<pdfrwt beam="1">  1        2 0.10622304E+00 0.31925527E+03</pdfrwt>
<pdfrwt beam="2">  1       -2 0.56776776E-02 0.31925527E+03</pdfrwt>
<totfact> 0.68863102E+03</totfact>
</mgrwt>
</event>
<event>
 4    1  0.6207184E-004  0.2253179E+03  0.7818608E-02  0.1129979E+00
          2   -1    0    0  501    0  0.00000000000E+00  0.00000000000E+00  0.59742878012E+02  0.59742878066E+02  0.25500000000E-02 0.  1.
         -2   -1    0    0    0  501 -0.00000000000E+00 -0.00000000000E+00 -0.21244435732E+03  0.21244435734E+03  0.25500000000E-02 0. -1.
    5000001    1    1    2    0    0 -0.66798671011E+02  0.47056618814E+02 -0.87595627936E+02  0.14240218347E+03  0.77000000000E+02 0.  0.
   -5000001    1    1    2    0    0  0.66798671011E+02 -0.47056618814E+02 -0.65105851376E+02  0.12978505194E+03  0.77000000000E+02 0.  0.
<mgrwt>
<rscale>  0 0.22531789E+03</rscale>
<asrwt>0</asrwt>
<pdfrwt beam="1">  1        2 0.91912121E-02 0.22531789E+03</pdfrwt>
<pdfrwt beam="2">  1       -2 0.32683747E-01 0.22531789E+03</pdfrwt>
<totfact> 0.61044802E+03</totfact>
</mgrwt>
</event>
<event>
 4    1  0.6207184E-004  0.3833587E+03  0.7818608E-02  0.1049699E+00
          2   -1    0    0  501    0  0.00000000000E+00  0.00000000000E+00  0.74305756500E+03  0.74305756500E+03  0.25500000000E-02 0.  1.
         -2   -1    0    0    0  501 -0.00000000000E+00 -0.00000000000E+00 -0.49445667486E+02  0.49445667552E+02  0.25500000000E-02 0. -1.
    5000001    1    1    2    0    0 -0.54782965707E+02 -0.16169432066E+03  0.43117840443E+03  0.47009578079E+03  0.77000000000E+02 0.  0.
   -5000001    1    1    2    0    0  0.54782965707E+02  0.16169432066E+03  0.26243349308E+03  0.32240745177E+03  0.77000000000E+02 0.  0.
<mgrwt>
<rscale>  0 0.38335872E+03</rscale>
<asrwt>0</asrwt>
<pdfrwt beam="1">  1        2 0.11431655E+00 0.38335872E+03</pdfrwt>
<pdfrwt beam="2">  1       -2 0.76070259E-02 0.38335872E+03</pdfrwt>
<totfact> 0.40069613E+03</totfact>
</mgrwt>
</event>
<event>
 4    1  0.6207184E-004  0.4647853E+03  0.7818608E-02  0.1023402E+00
         -2   -1    0    0    0  501 -0.00000000000E+00  0.00000000000E+00  0.41265396582E+02  0.41265396661E+02  0.25500000000E-02 0. -1.
          2   -1    0    0  501    0  0.00000000000E+00 -0.00000000000E+00 -0.13087560331E+04  0.13087560331E+04  0.25500000000E-02 0.  1.
    5000001    1    1    2    0    0 -0.21319386888E+03  0.21922078232E+02 -0.49921645459E+03  0.54870599758E+03  0.77000000000E+02 0.  0.
   -5000001    1    1    2    0    0  0.21319386888E+03 -0.21922078232E+02 -0.76827418189E+03  0.80131543215E+03  0.77000000000E+02 0.  0.
<mgrwt>
<rscale>  0 0.46478527E+03</rscale>
<asrwt>0</asrwt>
<pdfrwt beam="1">  1        2 0.20134705E+00 0.46478527E+03</pdfrwt>
<pdfrwt beam="2">  1       -2 0.63485236E-02 0.46478527E+03</pdfrwt>
<totfact> 0.23502796E+03</totfact>
</mgrwt>
</event>
<event>
 4    1  0.6207184E-004  0.1740193E+03  0.7818608E-02  0.1173720E+00
          2   -1    0    0  501    0  0.00000000000E+00  0.00000000000E+00  0.78002118905E+02  0.78002118947E+02  0.25500000000E-02 0.  1.
         -2   -1    0    0    0  501 -0.00000000000E+00 -0.00000000000E+00 -0.97057332571E+02  0.97057332604E+02  0.25500000000E-02 0. -1.
    5000001    1    1    2    0    0  0.13807274019E+02 -0.32891446208E+02  0.98015492660E+01  0.85425747977E+02  0.77000000000E+02 0.  0.
   -5000001    1    1    2    0    0 -0.13807274019E+02  0.32891446208E+02 -0.28856762932E+02  0.89633703574E+02  0.77000000000E+02 0.  0.
<mgrwt>
<rscale>  0 0.17401928E+03</rscale>
<asrwt>0</asrwt>
<pdfrwt beam="1">  1        2 0.12000326E-01 0.17401928E+03</pdfrwt>
<pdfrwt beam="2">  1       -2 0.14931897E-01 0.17401928E+03</pdfrwt>
<totfact> 0.16757775E+04</totfact>
</mgrwt>
</event>
<event>
 4    1  0.6207184E-004  0.2472674E+03  0.7818608E-02  0.1115044E+00
          2   -1    0    0  501    0  0.00000000000E+00  0.00000000000E+00  0.61254247329E+02  0.61254247382E+02  0.25500000000E-02 0.  1.
         -2   -1    0    0    0  501 -0.00000000000E+00 -0.00000000000E+00 -0.24953851386E+03  0.24953851387E+03  0.25500000000E-02 0. -1.
    5000001    1    1    2    0    0  0.72975088347E+02  0.28774946137E+01 -0.17386082197E+03  0.20369150427E+03  0.77000000000E+02 0.  0.
   -5000001    1    1    2    0    0 -0.72975088347E+02 -0.28774946137E+01 -0.14423444556E+02  0.10710125698E+03  0.77000000000E+02 0.  0.
<mgrwt>
<rscale>  0 0.24726742E+03</rscale>
<asrwt>0</asrwt>
<pdfrwt beam="1">  1        2 0.94237305E-02 0.24726742E+03</pdfrwt>
<pdfrwt beam="2">  1       -2 0.38390540E-01 0.24726742E+03</pdfrwt>
<totfact> 0.44017251E+03</totfact>
</mgrwt>
</event>
<event>
 4    1  0.6207184E-004  0.1993260E+03  0.7818608E-02  0.1150309E+00
         -2   -1    0    0    0  501 -0.00000000000E+00  0.00000000000E+00  0.31844186049E+01  0.31844196259E+01  0.25500000000E-02 0. -1.
          2   -1    0    0  501    0  0.00000000000E+00 -0.00000000000E+00 -0.31191599360E+04  0.31191599360E+04  0.25500000000E-02 0.  1.
    5000001    1    1    2    0    0  0.53602549268E+02 -0.32650908995E+02 -0.16836923016E+04  0.16866203134E+04  0.77000000000E+02 0.  0.
   -5000001    1    1    2    0    0 -0.53602549268E+02  0.32650908995E+02 -0.14322832158E+04  0.14357240422E+04  0.77000000000E+02 0.  0.
<mgrwt>
<rscale>  0 0.19932599E+03</rscale>
<asrwt>0</asrwt>
<pdfrwt beam="1">  1        2 0.47986832E+00 0.19932599E+03</pdfrwt>
<pdfrwt beam="2">  1       -2 0.48991313E-03 0.19932599E+03</pdfrwt>
<totfact> 0.10568136E+04</totfact>
</mgrwt>
</event>
<event>
 4    1  0.6207184E-004  0.2486922E+03  0.7818608E-02  0.1114134E+00
         -2   -1    0    0    0  501 -0.00000000000E+00  0.00000000000E+00  0.24593175046E+03  0.24593175047E+03  0.25500000000E-02 0. -1.
          2   -1    0    0  501    0  0.00000000000E+00 -0.00000000000E+00 -0.62870922088E+02  0.62870922140E+02  0.25500000000E-02 0.  1.
    5000001    1    1    2    0    0  0.85110101750E+02  0.44804729939E+02  0.70687397344E+02  0.14204542016E+03  0.77000000000E+02 0.  0.
   -5000001    1    1    2    0    0 -0.85110101750E+02 -0.44804729939E+02  0.11237343103E+03  0.16675725245E+03  0.77000000000E+02 0.  0.
<mgrwt>
<rscale>  0 0.24869223E+03</rscale>
<asrwt>0</asrwt>
<pdfrwt beam="1">  1        2 0.96724496E-02 0.24869223E+03</pdfrwt>
<pdfrwt beam="2">  1       -2 0.37835654E-01 0.24869223E+03</pdfrwt>
<totfact> 0.43810026E+03</totfact>
</mgrwt>
</event>
<event>
 4    1  0.6207184E-004  0.1774921E+03  0.7818608E-02  0.1170253E+00
          2   -1    0    0  501    0  0.00000000000E+00  0.00000000000E+00  0.28535549015E+04  0.28535549015E+04  0.25500000000E-02 0.  1.
         -2   -1    0    0    0  501 -0.00000000000E+00 -0.00000000000E+00 -0.27600163593E+01  0.27600175373E+01  0.25500000000E-02 0. -1.
    5000001    1    1    2    0    0  0.42618513376E+02 -0.10745238108E+02  0.14878527616E+04  0.14904920792E+04  0.77000000000E+02 0.  0.
   -5000001    1    1    2    0    0 -0.42618513376E+02  0.10745238108E+02  0.13629421235E+04  0.13658228398E+04  0.77000000000E+02 0.  0.
<mgrwt>
<rscale>  0 0.17749208E+03</rscale>
<asrwt>0</asrwt>
<pdfrwt beam="1">  1        2 0.43900848E+00 0.17749208E+03</pdfrwt>
<pdfrwt beam="2">  1       -2 0.42461796E-03 0.17749208E+03</pdfrwt>
<totfact> 0.18491471E+04</totfact>
</mgrwt>
</event>
<event>
 4    1  0.6207184E-004  0.4022783E+03  0.7818608E-02  0.1042994E+00
         -2   -1    0    0    0  501 -0.00000000000E+00  0.00000000000E+00  0.31769323542E+03  0.31769323543E+03  0.25500000000E-02 0. -1.
          2   -1    0    0  501    0  0.00000000000E+00 -0.00000000000E+00 -0.12734596746E+03  0.12734596748E+03  0.25500000000E-02 0.  1.
    5000001    1    1    2    0    0  0.16462853223E+03 -0.83325985111E+02  0.70880930980E+02  0.21212939399E+03  0.77000000000E+02 0.  0.
   -5000001    1    1    2    0    0 -0.16462853223E+03  0.83325985111E+02  0.11946633698E+03  0.23290980892E+03  0.77000000000E+02 0.  0.
<mgrwt>
<rscale>  0 0.40227827E+03</rscale>
<asrwt>0</asrwt>
<pdfrwt beam="1">  1        2 0.19591687E-01 0.40227827E+03</pdfrwt>
<pdfrwt beam="2">  1       -2 0.48875882E-01 0.40227827E+03</pdfrwt>
<totfact> 0.11515896E+03</totfact>
</mgrwt>
</event>
<event>
 4    1  0.6207184E-004  0.2286317E+03  0.7818608E-02  0.1127607E+00
          2   -1    0    0  501    0  0.00000000000E+00  0.00000000000E+00  0.16598364763E+04  0.16598364763E+04  0.25500000000E-02 0.  1.
         -2   -1    0    0    0  501 -0.00000000000E+00 -0.00000000000E+00 -0.78731335336E+01  0.78731339466E+01  0.25500000000E-02 0. -1.
    5000001    1    1    2    0    0 -0.68200944191E+01  0.53790035697E+02  0.35329979338E+03  0.36563591951E+03  0.77000000000E+02 0.  0.
   -5000001    1    1    2    0    0  0.68200944191E+01 -0.53790035697E+02  0.12986635494E+04  0.13020736907E+04  0.77000000000E+02 0.  0.
<mgrwt>
<rscale>  0 0.22863171E+03</rscale>
<asrwt>0</asrwt>
<pdfrwt beam="1">  1        2 0.25535972E+00 0.22863171E+03</pdfrwt>
<pdfrwt beam="2">  1       -2 0.12112501E-02 0.22863171E+03</pdfrwt>
<totfact> 0.17966296E+04</totfact>
</mgrwt>
</event>
<event>
 4    1  0.6207184E-004  0.2049311E+03  0.7818608E-02  0.1145644E+00
          2   -1    0    0  501    0  0.00000000000E+00  0.00000000000E+00  0.10254099924E+03  0.10254099927E+03  0.25500000000E-02 0.  1.
         -2   -1    0    0    0  501 -0.00000000000E+00 -0.00000000000E+00 -0.10239016427E+03  0.10239016430E+03  0.25500000000E-02 0. -1.
    5000001    1    1    2    0    0  0.33134292016E+02 -0.47909858323E+02  0.34382188952E+02  0.10249083251E+03  0.77000000000E+02 0.  0.
   -5000001    1    1    2    0    0 -0.33134292016E+02  0.47909858323E+02 -0.34231353977E+02  0.10244033106E+03  0.77000000000E+02 0.  0.
<mgrwt>
<rscale>  0 0.20493111E+03</rscale>
<asrwt>0</asrwt>
<pdfrwt beam="1">  1        2 0.15775538E-01 0.20493111E+03</pdfrwt>
<pdfrwt beam="2">  1       -2 0.15752333E-01 0.20493111E+03</pdfrwt>
<totfact> 0.11215899E+04</totfact>
</mgrwt>
</event>
<event>
 4    1  0.6207184E-004  0.1853415E+03  0.7818608E-02  0.1162731E+00
          2   -1    0    0  501    0  0.00000000000E+00  0.00000000000E+00  0.88176638505E+03  0.88176638505E+03  0.25500000000E-02 0.  1.
         -2   -1    0    0    0  501 -0.00000000000E+00 -0.00000000000E+00 -0.97393876517E+01  0.97393879855E+01  0.25500000000E-02 0. -1.
    5000001    1    1    2    0    0  0.38280835659E+02  0.11204962258E+02  0.27882705946E+03  0.29200086069E+03  0.77000000000E+02 0.  0.
   -5000001    1    1    2    0    0 -0.38280835659E+02 -0.11204962258E+02  0.59319993794E+03  0.59950491234E+03  0.77000000000E+02 0.  0.
<mgrwt>
<rscale>  0 0.18534147E+03</rscale>
<asrwt>0</asrwt>
<pdfrwt beam="1">  1        2 0.13565634E+00 0.18534147E+03</pdfrwt>
<pdfrwt beam="2">  1       -2 0.14983677E-02 0.18534147E+03</pdfrwt>
<totfact> 0.35724186E+04</totfact>
</mgrwt>
</event>
<event>
 4    1  0.6207184E-004  0.4611400E+03  0.7818608E-02  0.1024451E+00
          2   -1    0    0  501    0  0.00000000000E+00  0.00000000000E+00  0.44246984326E+03  0.44246984327E+03  0.25500000000E-02 0.  1.
         -2   -1    0    0    0  501 -0.00000000000E+00 -0.00000000000E+00 -0.12014947197E+03  0.12014947199E+03  0.25500000000E-02 0. -1.
    5000001    1    1    2    0    0 -0.79971849232E+02  0.18263555172E+03  0.55624642261E+02  0.22084913911E+03  0.77000000000E+02 0.  0.
   -5000001    1    1    2    0    0  0.79971849232E+02 -0.18263555172E+03  0.26669572904E+03  0.34177017615E+03  0.77000000000E+02 0.  0.
<mgrwt>
<rscale>  0 0.46113997E+03</rscale>
<asrwt>0</asrwt>
<pdfrwt beam="1">  1        2 0.68072283E-01 0.46113997E+03</pdfrwt>
<pdfrwt beam="2">  1       -2 0.18484534E-01 0.46113997E+03</pdfrwt>
<totfact> 0.17290203E+03</totfact>
</mgrwt>
</event>
<event>
 4    1  0.6207184E-004  0.2352076E+03  0.7818608E-02  0.1123027E+00
          2   -1    0    0  501    0  0.00000000000E+00  0.00000000000E+00  0.60503967345E+03  0.60503967345E+03  0.25500000000E-02 0.  1.
         -2   -1    0    0    0  501 -0.00000000000E+00 -0.00000000000E+00 -0.22859086398E+02  0.22859086540E+02  0.25500000000E-02 0. -1.
    5000001    1    1    2    0    0 -0.65848117731E+02  0.57311187747E+02  0.24633191129E+03  0.27244991718E+03  0.77000000000E+02 0.  0.
   -5000001    1    1    2    0    0  0.65848117731E+02 -0.57311187747E+02  0.33584867576E+03  0.35544884282E+03  0.77000000000E+02 0.  0.
<mgrwt>
<rscale>  0 0.23520760E+03</rscale>
<asrwt>0</asrwt>
<pdfrwt beam="1">  1        2 0.93083028E-01 0.23520760E+03</pdfrwt>
<pdfrwt beam="2">  1       -2 0.35167825E-02 0.23520760E+03</pdfrwt>
<totfact> 0.16428781E+04</totfact>
</mgrwt>
</event>
<event>
 4    1  0.6207184E-004  0.2929873E+03  0.7818608E-02  0.1088800E+00
         -2   -1    0    0    0  501 -0.00000000000E+00  0.00000000000E+00  0.14020385550E+02  0.14020385782E+02  0.25500000000E-02 0. -1.
          2   -1    0    0  501    0  0.00000000000E+00 -0.00000000000E+00 -0.15306556990E+04  0.15306556990E+04  0.25500000000E-02 0.  1.
    5000001    1    1    2    0    0  0.10845418670E+03  0.56225110910E+02 -0.62833888226E+03  0.64471879503E+03  0.77000000000E+02 0.  0.
   -5000001    1    1    2    0    0 -0.10845418670E+03 -0.56225110910E+02 -0.88829643118E+03  0.89995728974E+03  0.77000000000E+02 0.  0.
<mgrwt>
<rscale>  0 0.29298726E+03</rscale>
<asrwt>0</asrwt>
<pdfrwt beam="1">  1        2 0.23548536E+00 0.29298726E+03</pdfrwt>
<pdfrwt beam="2">  1       -2 0.21569836E-02 0.29298726E+03</pdfrwt>
<totfact> 0.90967744E+03</totfact>
</mgrwt>
</event>
<event>
 4    1  0.6207184E-004  0.6669145E+03  0.7818608E-02  0.9775548E-01
         -2   -1    0    0    0  501 -0.00000000000E+00  0.00000000000E+00  0.98633575768E+03  0.98633575768E+03  0.25500000000E-02 0. -1.
          2   -1    0    0  501    0  0.00000000000E+00 -0.00000000000E+00 -0.11273416765E+03  0.11273416768E+03  0.25500000000E-02 0.  1.
    5000001    1    1    2    0    0 -0.86620297274E+02  0.29619627587E+03  0.60184234906E+03  0.68071912186E+03  0.77000000000E+02 0.  0.
   -5000001    1    1    2    0    0  0.86620297274E+02 -0.29619627587E+03  0.27175924097E+03  0.41835080350E+03  0.77000000000E+02 0.  0.
<mgrwt>
<rscale>  0 0.66691451E+03</rscale>
<asrwt>0</asrwt>
<pdfrwt beam="1">  1        2 0.17343717E-01 0.66691451E+03</pdfrwt>
<pdfrwt beam="2">  1       -2 0.15174397E+00 0.66691451E+03</pdfrwt>
<totfact> 0.99215047E+01</totfact>
</mgrwt>
</event>
<event>
 4    1  0.6207184E-004  0.2345268E+03  0.7818608E-02  0.1123494E+00
          2   -1    0    0  501    0  0.00000000000E+00  0.00000000000E+00  0.58176052271E+03  0.58176052271E+03  0.25500000000E-02 0.  1.
         -2   -1    0    0    0  501 -0.00000000000E+00 -0.00000000000E+00 -0.23636365565E+02  0.23636365702E+02  0.25500000000E-02 0. -1.
    5000001    1    1    2    0    0 -0.88119243517E+02 -0.70807408396E+01  0.27244732950E+03  0.29660021126E+03  0.77000000000E+02 0.  0.
   -5000001    1    1    2    0    0  0.88119243517E+02  0.70807408396E+01  0.28567682765E+03  0.30879667716E+03  0.77000000000E+02 0.  0.
<mgrwt>
<rscale>  0 0.23452680E+03</rscale>
<asrwt>0</asrwt>
<pdfrwt beam="1">  1        2 0.89501623E-01 0.23452680E+03</pdfrwt>
<pdfrwt beam="2">  1       -2 0.36363638E-02 0.23452680E+03</pdfrwt>
<totfact> 0.16349496E+04</totfact>
</mgrwt>
</event>
<event>
 4    1  0.6207184E-004  0.2391566E+03  0.7818608E-02  0.1120356E+00
          2   -1    0    0  501    0  0.00000000000E+00  0.00000000000E+00  0.50554235542E+03  0.50554235543E+03  0.25500000000E-02 0.  1.
         -2   -1    0    0    0  501 -0.00000000000E+00 -0.00000000000E+00 -0.28284426662E+02  0.28284426777E+02  0.25500000000E-02 0. -1.
    5000001    1    1    2    0    0 -0.36479284839E+02 -0.75430297317E+02  0.32062740390E+03  0.34022257436E+03  0.77000000000E+02 0.  0.
   -5000001    1    1    2    0    0  0.36479284839E+02  0.75430297317E+02  0.15663052486E+03  0.19360420784E+03  0.77000000000E+02 0.  0.
<mgrwt>
<rscale>  0 0.23915665E+03</rscale>
<asrwt>0</asrwt>
<pdfrwt beam="1">  1        2 0.77775738E-01 0.23915665E+03</pdfrwt>
<pdfrwt beam="2">  1       -2 0.43514508E-02 0.23915665E+03</pdfrwt>
<totfact> 0.14655561E+04</totfact>
</mgrwt>
</event>
<event>
 4    1  0.6207184E-004  0.2420766E+03  0.7818608E-02  0.1118417E+00
         -2   -1    0    0    0  501 -0.00000000000E+00  0.00000000000E+00  0.34069599987E+02  0.34069600083E+02  0.25500000000E-02 0. -1.
          2   -1    0    0  501    0  0.00000000000E+00 -0.00000000000E+00 -0.43001021651E+03  0.43001021652E+03  0.25500000000E-02 0.  1.
    5000001    1    1    2    0    0  0.64035719732E+02  0.67970917400E+02 -0.19952429725E+03  0.23336573057E+03  0.77000000000E+02 0.  0.
   -5000001    1    1    2    0    0 -0.64035719732E+02 -0.67970917400E+02 -0.19641631928E+03  0.23071408603E+03  0.77000000000E+02 0.  0.
<mgrwt>
<rscale>  0 0.24207665E+03</rscale>
<asrwt>0</asrwt>
<pdfrwt beam="1">  1        2 0.66155414E-01 0.24207665E+03</pdfrwt>
<pdfrwt beam="2">  1       -2 0.52414772E-02 0.24207665E+03</pdfrwt>
<totfact> 0.13229586E+04</totfact>
</mgrwt>
</event>
<event>
 4    1  0.6207184E-004  0.3513297E+03  0.7818608E-02  0.1062071E+00
          2   -1    0    0  501    0  0.00000000000E+00  0.00000000000E+00  0.10107724454E+04  0.10107724454E+04  0.25500000000E-02 0.  1.
         -2   -1    0    0    0  501 -0.00000000000E+00 -0.00000000000E+00 -0.30529267132E+02  0.30529267238E+02  0.25500000000E-02 0. -1.
    5000001    1    1    2    0    0  0.71577847165E+02 -0.10303521305E+03  0.20599779155E+03  0.25318715105E+03  0.77000000000E+02 0.  0.
   -5000001    1    1    2    0    0 -0.71577847165E+02  0.10303521305E+03  0.77424538669E+03  0.78811456156E+03  0.77000000000E+02 0.  0.
<mgrwt>
<rscale>  0 0.35132971E+03</rscale>
<asrwt>0</asrwt>
<pdfrwt beam="1">  1        2 0.15550344E+00 0.35132971E+03</pdfrwt>
<pdfrwt beam="2">  1       -2 0.46968107E-02 0.35132971E+03</pdfrwt>
<totfact> 0.55928176E+03</totfact>
</mgrwt>
</event>
<event>
 4    1  0.6207184E-004  0.2762553E+03  0.7818608E-02  0.1097752E+00
         -2   -1    0    0    0  501 -0.00000000000E+00  0.00000000000E+00  0.36035995666E+02  0.36035995756E+02  0.25500000000E-02 0.  1.
          2   -1    0    0  501    0  0.00000000000E+00 -0.00000000000E+00 -0.52944985104E+03  0.52944985105E+03  0.25500000000E-02 0. -1.
    5000001    1    1    2    0    0 -0.52486395313E+01 -0.86940771340E+02 -0.39939492006E+03  0.41597060967E+03  0.77000000000E+02 0.  0.
   -5000001    1    1    2    0    0  0.52486395313E+01  0.86940771340E+02 -0.94018935320E+02  0.14951523714E+03  0.77000000000E+02 0.  0.
<mgrwt>
<rscale>  0 0.27625534E+03</rscale>
<asrwt>0</asrwt>
<pdfrwt beam="1">  1        2 0.81453818E-01 0.27625534E+03</pdfrwt>
<pdfrwt beam="2">  1       -2 0.55439997E-02 0.27625534E+03</pdfrwt>
<totfact> 0.96987169E+03</totfact>
</mgrwt>
</event>
<event>
 4    1  0.6207184E-004  0.2012433E+03  0.7818608E-02  0.1148694E+00
         -2   -1    0    0    0  501 -0.00000000000E+00  0.00000000000E+00  0.28512502427E+02  0.28512502541E+02  0.25500000000E-02 0. -1.
          2   -1    0    0  501    0  0.00000000000E+00 -0.00000000000E+00 -0.35509747535E+03  0.35509747536E+03  0.25500000000E-02 0.  1.
    5000001    1    1    2    0    0 -0.38390633144E+02  0.34695590118E+02 -0.89021768436E+02  0.12857488068E+03  0.77000000000E+02 0.  0.
   -5000001    1    1    2    0    0  0.38390633144E+02 -0.34695590118E+02 -0.23756320449E+03  0.25503509722E+03  0.77000000000E+02 0.  0.
<mgrwt>
<rscale>  0 0.20124331E+03</rscale>
<asrwt>0</asrwt>
<pdfrwt beam="1">  1        2 0.54630378E-01 0.20124331E+03</pdfrwt>
<pdfrwt beam="2">  1       -2 0.43865391E-02 0.20124331E+03</pdfrwt>
<totfact> 0.21050568E+04</totfact>
</mgrwt>
</event>
<event>
 4    1  0.6207184E-004  0.1915670E+03  0.7818608E-02  0.1157056E+00
          2   -1    0    0  501    0  0.00000000000E+00  0.00000000000E+00  0.92228916905E+02  0.92228916940E+02  0.25500000000E-02 0.  1.
         -2   -1    0    0    0  501 -0.00000000000E+00 -0.00000000000E+00 -0.99475114605E+02  0.99475114637E+02  0.25500000000E-02 0. -1.
    5000001    1    1    2    0    0 -0.29549971725E+02  0.48053988249E+02  0.43258474226E+01  0.95551554522E+02  0.77000000000E+02 0.  0.
   -5000001    1    1    2    0    0  0.29549971725E+02 -0.48053988249E+02 -0.11572045122E+02  0.96152477056E+02  0.77000000000E+02 0.  0.
<mgrwt>
<rscale>  0 0.19156703E+03</rscale>
<asrwt>0</asrwt>
<pdfrwt beam="1">  1        2 0.14189064E-01 0.19156703E+03</pdfrwt>
<pdfrwt beam="2">  1       -2 0.15303864E-01 0.19156703E+03</pdfrwt>
<totfact> 0.13269027E+04</totfact>
</mgrwt>
</event>
<event>
 4    1  0.6207184E-004  0.1703853E+03  0.7818608E-02  0.1177447E+00
         -2   -1    0    0    0  501 -0.00000000000E+00  0.00000000000E+00  0.19249750992E+02  0.19249751161E+02  0.25500000000E-02 0. -1.
          2   -1    0    0  501    0  0.00000000000E+00 -0.00000000000E+00 -0.37703259413E+03  0.37703259414E+03  0.25500000000E-02 0.  1.
    5000001    1    1    2    0    0  0.78394171599E+01  0.23223597822E+02 -0.24164462709E+03  0.25479779779E+03  0.77000000000E+02 0.  0.
   -5000001    1    1    2    0    0 -0.78394171599E+01 -0.23223597822E+02 -0.11613821605E+03  0.14148454751E+03  0.77000000000E+02 0.  0.
<mgrwt>
<rscale>  0 0.17038525E+03</rscale>
<asrwt>0</asrwt>
<pdfrwt beam="1">  1        2 0.58005009E-01 0.17038525E+03</pdfrwt>
<pdfrwt beam="2">  1       -2 0.29615004E-02 0.17038525E+03</pdfrwt>
<totfact> 0.34937334E+04</totfact>
</mgrwt>
</event>
<event>
 4    1  0.6207184E-004  0.1760274E+03  0.7818608E-02  0.1171704E+00
         -2   -1    0    0    0  501 -0.00000000000E+00  0.00000000000E+00  0.39328775060E+01  0.39328783327E+01  0.25500000000E-02 0. -1.
          2   -1    0    0  501    0  0.00000000000E+00 -0.00000000000E+00 -0.19696545968E+04  0.19696545968E+04  0.25500000000E-02 0.  1.
    5000001    1    1    2    0    0  0.13854406982E+02 -0.25685377290E+02 -0.63444052086E+03  0.63976203210E+03  0.77000000000E+02 0.  0.
   -5000001    1    1    2    0    0 -0.13854406982E+02  0.25685377290E+02 -0.13312811985E+04  0.13338254431E+04  0.77000000000E+02 0.  0.
<mgrwt>
<rscale>  0 0.17602740E+03</rscale>
<asrwt>0</asrwt>
<pdfrwt beam="1">  1        2 0.30302300E+00 0.17602740E+03</pdfrwt>
<pdfrwt beam="2">  1       -2 0.60505971E-03 0.17602740E+03</pdfrwt>
<totfact> 0.33279551E+04</totfact>
</mgrwt>
</event>
<event>
 4    1  0.6207184E-004  0.2476431E+03  0.7818608E-02  0.1114803E+00
         -2   -1    0    0    0  501 -0.00000000000E+00  0.00000000000E+00  0.27162462103E+02  0.27162462223E+02  0.25500000000E-02 0. -1.
          2   -1    0    0  501    0  0.00000000000E+00 -0.00000000000E+00 -0.56444739159E+03  0.56444739159E+03  0.25500000000E-02 0.  1.
    5000001    1    1    2    0    0 -0.61320460758E+02  0.42534325849E+02 -0.41655395553E+03  0.43013435767E+03  0.77000000000E+02 0.  0.
   -5000001    1    1    2    0    0  0.61320460758E+02 -0.42534325849E+02 -0.12073097396E+03  0.16147549615E+03  0.77000000000E+02 0.  0.
<mgrwt>
<rscale>  0 0.24764314E+03</rscale>
<asrwt>0</asrwt>
<pdfrwt beam="1">  1        2 0.86838051E-01 0.24764314E+03</pdfrwt>
<pdfrwt beam="2">  1       -2 0.41788408E-02 0.24764314E+03</pdfrwt>
<totfact> 0.13777899E+04</totfact>
</mgrwt>
</event>
<event>
 4    1  0.6207184E-004  0.2867796E+03  0.7818608E-02  0.1092043E+00
         -2   -1    0    0    0  501 -0.00000000000E+00  0.00000000000E+00  0.94996595327E+01  0.94996598750E+01  0.25500000000E-02 0. -1.
          2   -1    0    0  501    0  0.00000000000E+00 -0.00000000000E+00 -0.21643548548E+04  0.21643548548E+04  0.25500000000E-02 0.  1.
    5000001    1    1    2    0    0  0.11642259951E+03  0.32804303492E+02 -0.10860390781E+04  0.10954634741E+04  0.77000000000E+02 0.  0.
   -5000001    1    1    2    0    0 -0.11642259951E+03 -0.32804303492E+02 -0.10688161172E+04  0.10783910405E+04  0.77000000000E+02 0.  0.
<mgrwt>
<rscale>  0 0.28677960E+03</rscale>
<asrwt>0</asrwt>
<pdfrwt beam="1">  1        2 0.33297728E+00 0.28677960E+03</pdfrwt>
<pdfrwt beam="2">  1       -2 0.14614878E-02 0.28677960E+03</pdfrwt>
<totfact> 0.74566530E+03</totfact>
</mgrwt>
</event>
<event>
 4    1  0.6207184E-004  0.2234019E+03  0.7818608E-02  0.1131372E+00
          2   -1    0    0  501    0  0.00000000000E+00  0.00000000000E+00  0.47851797180E+02  0.47851797248E+02  0.25500000000E-02 0.  1.
         -2   -1    0    0    0  501 -0.00000000000E+00 -0.00000000000E+00 -0.26074468620E+03  0.26074468622E+03  0.25500000000E-02 0. -1.
    5000001    1    1    2    0    0 -0.22914927674E+02 -0.70509237762E+02 -0.15123834926E+03  0.18519904106E+03  0.77000000000E+02 0.  0.
   -5000001    1    1    2    0    0  0.22914927674E+02  0.70509237762E+02 -0.61654539760E+02  0.12339744241E+03  0.77000000000E+02 0.  0.
<mgrwt>
<rscale>  0 0.22340190E+03</rscale>
<asrwt>0</asrwt>
<pdfrwt beam="1">  1        2 0.73618151E-02 0.22340190E+03</pdfrwt>
<pdfrwt beam="2">  1       -2 0.40114566E-01 0.22340190E+03</pdfrwt>
<totfact> 0.55053068E+03</totfact>
</mgrwt>
</event>
<event>
 4    1  0.6207184E-004  0.4485129E+03  0.7818608E-02  0.1028166E+00
         -2   -1    0    0    0  501 -0.00000000000E+00  0.00000000000E+00  0.20615624714E+02  0.20615624872E+02  0.25500000000E-02 0. -1.
          2   -1    0    0  501    0  0.00000000000E+00 -0.00000000000E+00 -0.24394587009E+04  0.24394587009E+04  0.25500000000E-02 0.  1.
    5000001    1    1    2    0    0  0.12995561631E+03  0.57594180739E+02 -0.20619118926E+04  0.20682396391E+04  0.77000000000E+02 0.  0.
   -5000001    1    1    2    0    0 -0.12995561631E+03 -0.57594180739E+02 -0.35693118352E+03  0.39183468662E+03  0.77000000000E+02 0.  0.
<mgrwt>
<rscale>  0 0.44851294E+03</rscale>
<asrwt>0</asrwt>
<pdfrwt beam="1">  1        2 0.37530111E+00 0.44851294E+03</pdfrwt>
<pdfrwt beam="2">  1       -2 0.31716365E-02 0.44851294E+03</pdfrwt>
<totfact> 0.16592897E+03</totfact>
</mgrwt>
</event>
<event>
 4    1  0.6207184E-004  0.3489710E+03  0.7818608E-02  0.1063038E+00
         -2   -1    0    0    0  501 -0.00000000000E+00  0.00000000000E+00  0.27171617196E+02  0.27171617315E+02  0.25500000000E-02 0. -1.
          2   -1    0    0  501    0  0.00000000000E+00 -0.00000000000E+00 -0.11204779265E+04  0.11204779265E+04  0.25500000000E-02 0.  1.
    5000001    1    1    2    0    0  0.77142182712E+02  0.13268579664E+03 -0.44477025303E+03  0.47676620577E+03  0.77000000000E+02 0.  0.
   -5000001    1    1    2    0    0 -0.77142182712E+02 -0.13268579664E+03 -0.64853605633E+03  0.67088333810E+03  0.77000000000E+02 0.  0.
<mgrwt>
<rscale>  0 0.34897104E+03</rscale>
<asrwt>0</asrwt>
<pdfrwt beam="1">  1        2 0.17238118E+00 0.34897104E+03</pdfrwt>
<pdfrwt beam="2">  1       -2 0.41802497E-02 0.34897104E+03</pdfrwt>
<totfact> 0.57352469E+03</totfact>
</mgrwt>
</event>
<event>
 4    1  0.6207184E-004  0.1898064E+03  0.7818608E-02  0.1158636E+00
         -2   -1    0    0    0  501 -0.00000000000E+00  0.00000000000E+00  0.73055643073E+02  0.73055643118E+02  0.25500000000E-02 0. -1.
          2   -1    0    0  501    0  0.00000000000E+00 -0.00000000000E+00 -0.12328435634E+03  0.12328435636E+03  0.25500000000E-02 0.  1.
    5000001    1    1    2    0    0 -0.27419627190E+02 -0.48030866456E+02 -0.29601634338E+02  0.99317958312E+02  0.77000000000E+02 0.  0.
   -5000001    1    1    2    0    0  0.27419627190E+02  0.48030866456E+02 -0.20627078926E+02  0.97022041170E+02  0.77000000000E+02 0.  0.
<mgrwt>
<rscale>  0 0.18980641E+03</rscale>
<asrwt>0</asrwt>
<pdfrwt beam="1">  1        2 0.18966824E-01 0.18980641E+03</pdfrwt>
<pdfrwt beam="2">  1       -2 0.11239330E-01 0.18980641E+03</pdfrwt>
<totfact> 0.15590008E+04</totfact>
</mgrwt>
</event>
<event>
 4    1  0.6207184E-004  0.1836025E+03  0.7818608E-02  0.1164361E+00
          2   -1    0    0  501    0  0.00000000000E+00  0.00000000000E+00  0.82090629961E+03  0.82090629962E+03  0.25500000000E-02 0.  1.
         -2   -1    0    0    0  501 -0.00000000000E+00 -0.00000000000E+00 -0.10266057465E+02  0.10266057782E+02  0.25500000000E-02 0. -1.
    5000001    1    1    2    0    0 -0.41245993757E+02 -0.26467945976E+02  0.36080608488E+03  0.37217175477E+03  0.77000000000E+02 0.  0.
   -5000001    1    1    2    0    0  0.41245993757E+02  0.26467945976E+02  0.44983415727E+03  0.45900060263E+03  0.77000000000E+02 0.  0.
<mgrwt>
<rscale>  0 0.18360252E+03</rscale>
<asrwt>0</asrwt>
<pdfrwt beam="1">  1        2 0.12629324E+00 0.18360252E+03</pdfrwt>
<pdfrwt beam="2">  1       -2 0.15793939E-02 0.18360252E+03</pdfrwt>
<totfact> 0.36265561E+04</totfact>
</mgrwt>
</event>
<event>
 4    1  0.6207184E-004  0.2401254E+03  0.7818608E-02  0.1119709E+00
         -2   -1    0    0    0  501 -0.00000000000E+00  0.00000000000E+00  0.52157472775E+02  0.52157472837E+02  0.25500000000E-02 0. -1.
          2   -1    0    0  501    0  0.00000000000E+00 -0.00000000000E+00 -0.27637563791E+03  0.27637563792E+03  0.25500000000E-02 0.  1.
    5000001    1    1    2    0    0 -0.74219908193E+02 -0.31467669910E+02 -0.51117936387E+02  0.12264115314E+03  0.77000000000E+02 0.  0.
   -5000001    1    1    2    0    0  0.74219908193E+02  0.31467669910E+02 -0.17310022875E+03  0.20589195762E+03  0.77000000000E+02 0.  0.
<mgrwt>
<rscale>  0 0.24012542E+03</rscale>
<asrwt>0</asrwt>
<pdfrwt beam="1">  1        2 0.42519328E-01 0.24012542E+03</pdfrwt>
<pdfrwt beam="2">  1       -2 0.80242268E-02 0.24012542E+03</pdfrwt>
<totfact> 0.11058411E+04</totfact>
</mgrwt>
</event>
<event>
 4    1  0.6207184E-004  0.4451341E+03  0.7818608E-02  0.1029183E+00
         -2   -1    0    0    0  501 -0.00000000000E+00  0.00000000000E+00  0.87795186862E+02  0.87795186899E+02  0.25500000000E-02 0. -1.
          2   -1    0    0  501    0  0.00000000000E+00 -0.00000000000E+00 -0.56422330257E+03  0.56422330258E+03  0.25500000000E-02 0.  1.
    5000001    1    1    2    0    0  0.30036933986E+01  0.20049041952E+03 -0.15278325427E+03  0.26358519169E+03  0.77000000000E+02 0.  0.
   -5000001    1    1    2    0    0 -0.30036933986E+01 -0.20049041952E+03 -0.32364486144E+03  0.38843329779E+03  0.77000000000E+02 0.  0.
<mgrwt>
<rscale>  0 0.44513409E+03</rscale>
<asrwt>0</asrwt>
<pdfrwt beam="1">  1        2 0.86803583E-01 0.44513409E+03</pdfrwt>
<pdfrwt beam="2">  1       -2 0.13506952E-01 0.44513409E+03</pdfrwt>
<totfact> 0.22206771E+03</totfact>
</mgrwt>
</event>
<event>
 4    1  0.6207184E-004  0.3926030E+03  0.7818608E-02  0.1046372E+00
         -2   -1    0    0    0  501 -0.00000000000E+00  0.00000000000E+00  0.56338552186E+02  0.56338552243E+02  0.25500000000E-02 0. -1.
          2   -1    0    0  501    0  0.00000000000E+00 -0.00000000000E+00 -0.68397710330E+03  0.68397710330E+03  0.25500000000E-02 0.  1.
    5000001    1    1    2    0    0  0.12151400296E+03 -0.83624986608E+02 -0.11743446505E+03  0.20366306706E+03  0.77000000000E+02 0.  0.
   -5000001    1    1    2    0    0 -0.12151400296E+03  0.83624986608E+02 -0.51020408606E+03  0.53665258849E+03  0.77000000000E+02 0.  0.
<mgrwt>
<rscale>  0 0.39260300E+03</rscale>
<asrwt>0</asrwt>
<pdfrwt beam="1">  1        2 0.10522724E+00 0.39260300E+03</pdfrwt>
<pdfrwt beam="2">  1       -2 0.86674700E-02 0.39260300E+03</pdfrwt>
<totfact> 0.36145656E+03</totfact>
</mgrwt>
</event>
<event>
 4    1  0.6207184E-004  0.3838208E+03  0.7818608E-02  0.1049531E+00
         -2   -1    0    0    0  501 -0.00000000000E+00  0.00000000000E+00  0.28294453494E+02  0.28294453608E+02  0.25500000000E-02 0. -1.
          2   -1    0    0  501    0  0.00000000000E+00 -0.00000000000E+00 -0.13016547219E+04  0.13016547219E+04  0.25500000000E-02 0.  1.
    5000001    1    1    2    0    0 -0.14756979739E+02  0.17319083837E+03 -0.72755199282E+03  0.75197987819E+03  0.77000000000E+02 0.  0.
   -5000001    1    1    2    0    0  0.14756979739E+02 -0.17319083837E+03 -0.54580827554E+03  0.57796929728E+03  0.77000000000E+02 0.  0.
<mgrwt>
<rscale>  0 0.38382084E+03</rscale>
<asrwt>0</asrwt>
<pdfrwt beam="1">  1        2 0.20025453E+00 0.38382084E+03</pdfrwt>
<pdfrwt beam="2">  1       -2 0.43529939E-02 0.38382084E+03</pdfrwt>
<totfact> 0.42472128E+03</totfact>
</mgrwt>
</event>
<event>
 4    1  0.6207184E-004  0.3127291E+03  0.7818608E-02  0.1079045E+00
          2   -1    0    0  501    0  0.00000000000E+00  0.00000000000E+00  0.23583352586E+04  0.23583352586E+04  0.25500000000E-02 0.  1.
         -2   -1    0    0    0  501 -0.00000000000E+00 -0.00000000000E+00 -0.10367429512E+02  0.10367429825E+02  0.25500000000E-02 0. -1.
    5000001    1    1    2    0    0 -0.74954943635E+02  0.98479676998E+02  0.16027442011E+04  0.16093584015E+04  0.77000000000E+02 0.  0.
   -5000001    1    1    2    0    0  0.74954943635E+02 -0.98479676998E+02  0.74522362797E+03  0.75934428690E+03  0.77000000000E+02 0.  0.
<mgrwt>
<rscale>  0 0.31272912E+03</rscale>
<asrwt>0</asrwt>
<pdfrwt beam="1">  1        2 0.36282090E+00 0.31272912E+03</pdfrwt>
<pdfrwt beam="2">  1       -2 0.15949888E-02 0.31272912E+03</pdfrwt>
<totfact> 0.51602940E+03</totfact>
</mgrwt>
</event>
<event>
 4    1  0.6207184E-004  0.2138001E+03  0.7818608E-02  0.1138592E+00
          2   -1    0    0  501    0  0.00000000000E+00  0.00000000000E+00  0.33019706352E+03  0.33019706353E+03  0.25500000000E-02 0.  1.
         -2   -1    0    0    0  501 -0.00000000000E+00 -0.00000000000E+00 -0.34608499486E+02  0.34608499580E+02  0.25500000000E-02 0. -1.
    5000001    1    1    2    0    0 -0.47117480923E+02  0.44504037461E+02  0.20926720756E+03  0.23221203785E+03  0.77000000000E+02 0.  0.
   -5000001    1    1    2    0    0  0.47117480923E+02 -0.44504037461E+02  0.86321356467E+02  0.13259352526E+03  0.77000000000E+02 0.  0.
<mgrwt>
<rscale>  0 0.21380014E+03</rscale>
<asrwt>0</asrwt>
<pdfrwt beam="1">  1        2 0.50799547E-01 0.21380014E+03</pdfrwt>
<pdfrwt beam="2">  1       -2 0.53243846E-02 0.21380014E+03</pdfrwt>
<totfact> 0.17054672E+04</totfact>
</mgrwt>
</event>
<event>
 4    1  0.6207184E-004  0.3459949E+03  0.7818608E-02  0.1064271E+00
          2   -1    0    0  501    0  0.00000000000E+00  0.00000000000E+00  0.33291874158E+04  0.33291874158E+04  0.25500000000E-02 0.  1.
         -2   -1    0    0    0  501 -0.00000000000E+00 -0.00000000000E+00 -0.89896162453E+01  0.89896166070E+01  0.25500000000E-02 0. -1.
    5000001    1    1    2    0    0 -0.13392005183E+03  0.77853813363E+02  0.16425157519E+04  0.16516000701E+04  0.77000000000E+02 0.  0.
   -5000001    1    1    2    0    0  0.13392005183E+03 -0.77853813363E+02  0.16776820477E+04  0.16865769623E+04  0.77000000000E+02 0.  0.
<mgrwt>
<rscale>  0 0.34599490E+03</rscale>
<asrwt>0</asrwt>
<pdfrwt beam="1">  1        2 0.51218272E+00 0.34599490E+03</pdfrwt>
<pdfrwt beam="2">  1       -2 0.13830178E-02 0.34599490E+03</pdfrwt>
<totfact> 0.17213039E+03</totfact>
</mgrwt>
</event>
<event>
 4    1  0.6207184E-004  0.3744177E+03  0.7818608E-02  0.1053017E+00
          2   -1    0    0  501    0  0.00000000000E+00  0.00000000000E+00  0.36250372898E+02  0.36250372988E+02  0.25500000000E-02 0.  1.
         -2   -1    0    0    0  501 -0.00000000000E+00 -0.00000000000E+00 -0.96680782721E+03  0.96680782721E+03  0.25500000000E-02 0. -1.
    5000001    1    1    2    0    0  0.89689077491E+02 -0.81688077707E+02 -0.78676854614E+03  0.79978173139E+03  0.77000000000E+02 0.  0.
   -5000001    1    1    2    0    0 -0.89689077491E+02  0.81688077707E+02 -0.14378890816E+03  0.20327646881E+03  0.77000000000E+02 0.  0.
<mgrwt>
<rscale>  0 0.37441765E+03</rscale>
<asrwt>0</asrwt>
<pdfrwt beam="1">  1        2 0.55769812E-02 0.37441765E+03</pdfrwt>
<pdfrwt beam="2">  1       -2 0.14873965E+00 0.37441765E+03</pdfrwt>
<totfact> 0.44263368E+02</totfact>
</mgrwt>
</event>
<event>
 4    1  0.6207184E-004  0.2045558E+03  0.7818608E-02  0.1145951E+00
         -2   -1    0    0    0  501 -0.00000000000E+00  0.00000000000E+00  0.45061203712E+01  0.45061210927E+01  0.25500000000E-02 0. -1.
          2   -1    0    0  501    0  0.00000000000E+00 -0.00000000000E+00 -0.23214582701E+04  0.23214582702E+04  0.25500000000E-02 0.  1.
    5000001    1    1    2    0    0 -0.37796849998E+01 -0.62210057789E+02 -0.86915802678E+03  0.87478514667E+03  0.77000000000E+02 0.  0.
   -5000001    1    1    2    0    0  0.37796849998E+01  0.62210057789E+02 -0.14477941230E+04  0.14511792446E+04  0.77000000000E+02 0.  0.
<mgrwt>
<rscale>  0 0.20455582E+03</rscale>
<asrwt>0</asrwt>
<pdfrwt beam="1">  1        2 0.35714647E+00 0.20455582E+03</pdfrwt>
<pdfrwt beam="2">  1       -2 0.69325120E-03 0.20455582E+03</pdfrwt>
<totfact> 0.18037155E+04</totfact>
</mgrwt>
</event>
<event>
 4    1  0.6207184E-004  0.2913281E+03  0.7818608E-02  0.1089658E+00
         -2   -1    0    0    0  501 -0.00000000000E+00  0.00000000000E+00  0.39770252662E+02  0.39770252743E+02  0.25500000000E-02 0. -1.
          2   -1    0    0  501    0  0.00000000000E+00 -0.00000000000E+00 -0.53351483152E+03  0.53351483153E+03  0.25500000000E-02 0.  1.
    5000001    1    1    2    0    0 -0.70162912254E+02  0.10165983022E+03 -0.25791047042E+03  0.29614922943E+03  0.77000000000E+02 0.  0.
   -5000001    1    1    2    0    0  0.70162912254E+02 -0.10165983022E+03 -0.23583410844E+03  0.27713585484E+03  0.77000000000E+02 0.  0.
<mgrwt>
<rscale>  0 0.29132813E+03</rscale>
<asrwt>0</asrwt>
<pdfrwt beam="1">  1        2 0.82079200E-01 0.29132813E+03</pdfrwt>
<pdfrwt beam="2">  1       -2 0.61185008E-02 0.29132813E+03</pdfrwt>
<totfact> 0.82815744E+03</totfact>
</mgrwt>
</event>
<event>
 4    1  0.6207184E-004  0.2686781E+03  0.7818608E-02  0.1102039E+00
          2   -1    0    0  501    0  0.00000000000E+00  0.00000000000E+00  0.18340800481E+04  0.18340800481E+04  0.25500000000E-02 0.  1.
         -2   -1    0    0    0  501 -0.00000000000E+00 -0.00000000000E+00 -0.98398027775E+01  0.98398031079E+01  0.25500000000E-02 0. -1.
    5000001    1    1    2    0    0 -0.47263141483E+02  0.73708610726E+02  0.45424257486E+03  0.46896916813E+03  0.77000000000E+02 0.  0.
   -5000001    1    1    2    0    0  0.47263141483E+02 -0.73708610726E+02  0.13699976705E+04  0.13749506831E+04  0.77000000000E+02 0.  0.
<mgrwt>
<rscale>  0 0.26867814E+03</rscale>
<asrwt>0</asrwt>
<pdfrwt beam="1">  1        2 0.28216591E+00 0.26867814E+03</pdfrwt>
<pdfrwt beam="2">  1       -2 0.15138172E-02 0.26867814E+03</pdfrwt>
<totfact> 0.10566873E+04</totfact>
</mgrwt>
</event>
<event>
 4    1  0.6207184E-004  0.4034525E+03  0.7818608E-02  0.1042591E+00
          2   -1    0    0  501    0  0.00000000000E+00  0.00000000000E+00  0.61973051579E+03  0.61973051579E+03  0.25500000000E-02 0.  1.
         -2   -1    0    0    0  501 -0.00000000000E+00 -0.00000000000E+00 -0.65663184953E+02  0.65663185003E+02  0.25500000000E-02 0. -1.
    5000001    1    1    2    0    0  0.17485386598E+03 -0.61471742985E+02  0.24255847940E+03  0.31482735834E+03  0.77000000000E+02 0.  0.
   -5000001    1    1    2    0    0 -0.17485386598E+03  0.61471742985E+02  0.31150885144E+03  0.37056634245E+03  0.77000000000E+02 0.  0.
<mgrwt>
<rscale>  0 0.40345250E+03</rscale>
<asrwt>0</asrwt>
<pdfrwt beam="1">  1        2 0.95343154E-01 0.40345250E+03</pdfrwt>
<pdfrwt beam="2">  1       -2 0.10102029E-01 0.40345250E+03</pdfrwt>
<totfact> 0.31890689E+03</totfact>
</mgrwt>
</event>
<event>
 4    1  0.6207184E-004  0.1708858E+03  0.7818608E-02  0.1176927E+00
         -2   -1    0    0    0  501 -0.00000000000E+00  0.00000000000E+00  0.26071623407E+03  0.26071623409E+03  0.25500000000E-02 0. -1.
          2   -1    0    0  501    0  0.00000000000E+00 -0.00000000000E+00 -0.28001679459E+02  0.28001679576E+02  0.25500000000E-02 0.  1.
    5000001    1    1    2    0    0  0.29795333680E+02  0.50900894013E+01  0.15250789788E+03  0.17349734820E+03  0.77000000000E+02 0.  0.
   -5000001    1    1    2    0    0 -0.29795333680E+02 -0.50900894013E+01  0.80206656738E+02  0.11522056546E+03  0.77000000000E+02 0.  0.
<mgrwt>
<rscale>  0 0.17088584E+03</rscale>
<asrwt>0</asrwt>
<pdfrwt beam="1">  1        2 0.43079508E-02 0.17088584E+03</pdfrwt>
<pdfrwt beam="2">  1       -2 0.40110189E-01 0.17088584E+03</pdfrwt>
<totfact> 0.10867113E+04</totfact>
</mgrwt>
</event>
<event>
 4    1  0.6207184E-004  0.2738104E+03  0.7818608E-02  0.1099118E+00
          2   -1    0    0  501    0  0.00000000000E+00  0.00000000000E+00  0.11726224754E+04  0.11726224754E+04  0.25500000000E-02 0.  1.
         -2   -1    0    0    0  501 -0.00000000000E+00 -0.00000000000E+00 -0.15983856375E+02  0.15983856579E+02  0.25500000000E-02 0. -1.
    5000001    1    1    2    0    0  0.74361244168E+02  0.36178871523E+02  0.24275470290E+03  0.26776361060E+03  0.77000000000E+02 0.  0.
   -5000001    1    1    2    0    0 -0.74361244168E+02 -0.36178871523E+02  0.91388391615E+03  0.92084272141E+03  0.77000000000E+02 0.  0.
<mgrwt>
<rscale>  0 0.27381037E+03</rscale>
<asrwt>0</asrwt>
<pdfrwt beam="1">  1        2 0.18040350E+00 0.27381037E+03</pdfrwt>
<pdfrwt beam="2">  1       -2 0.24590543E-02 0.27381037E+03</pdfrwt>
<totfact> 0.11780253E+04</totfact>
</mgrwt>
</event>
<event>
 4    1  0.6207184E-004  0.4533301E+03  0.7818608E-02  0.1026734E+00
          2   -1    0    0  501    0  0.00000000000E+00  0.00000000000E+00  0.20398805411E+03  0.20398805413E+03  0.25500000000E-02 0.  1.
         -2   -1    0    0    0  501 -0.00000000000E+00 -0.00000000000E+00 -0.25186297204E+03  0.25186297206E+03  0.25500000000E-02 0. -1.
    5000001    1    1    2    0    0  0.52211346281E+02 -0.20669036390E+03 -0.24995148269E+02  0.22803659497E+03  0.77000000000E+02 0.  0.
   -5000001    1    1    2    0    0 -0.52211346281E+02  0.20669036390E+03 -0.22879769663E+02  0.22781443121E+03  0.77000000000E+02 0.  0.
<mgrwt>
<rscale>  0 0.45333007E+03</rscale>
<asrwt>0</asrwt>
<pdfrwt beam="1">  1        2 0.31382778E-01 0.45333007E+03</pdfrwt>
<pdfrwt beam="2">  1       -2 0.38748149E-01 0.45333007E+03</pdfrwt>
<totfact> 0.10641692E+03</totfact>
</mgrwt>
</event>
<event>
 4    1  0.6207184E-004  0.1978684E+03  0.7818608E-02  0.1151550E+00
         -2   -1    0    0    0  501 -0.00000000000E+00  0.00000000000E+00  0.19112163958E+03  0.19112163960E+03  0.25500000000E-02 0. -1.
          2   -1    0    0  501    0  0.00000000000E+00 -0.00000000000E+00 -0.51213352725E+02  0.51213352789E+02  0.25500000000E-02 0.  1.
    5000001    1    1    2    0    0 -0.40144630385E+02 -0.32258167165E+02  0.27408302246E+02  0.96604325626E+02  0.77000000000E+02 0.  0.
   -5000001    1    1    2    0    0  0.40144630385E+02  0.32258167165E+02  0.11249998461E+03  0.14573066676E+03  0.77000000000E+02 0.  0.
<mgrwt>
<rscale>  0 0.19786844E+03</rscale>
<asrwt>0</asrwt>
<pdfrwt beam="1">  1        2 0.78789774E-02 0.19786844E+03</pdfrwt>
<pdfrwt beam="2">  1       -2 0.29403329E-01 0.19786844E+03</pdfrwt>
<totfact> 0.89142408E+03</totfact>
</mgrwt>
</event>
<event>
 4    1  0.6207184E-004  0.2261123E+03  0.7818608E-02  0.1129406E+00
         -2   -1    0    0    0  501 -0.00000000000E+00  0.00000000000E+00  0.10292517825E+02  0.10292518141E+02  0.25500000000E-02 0. -1.
          2   -1    0    0  501    0  0.00000000000E+00 -0.00000000000E+00 -0.12418437076E+04  0.12418437076E+04  0.25500000000E-02 0.  1.
    5000001    1    1    2    0    0  0.33392528815E+01  0.55583760545E+02 -0.27657364181E+03  0.29244261726E+03  0.77000000000E+02 0.  0.
   -5000001    1    1    2    0    0 -0.33392528815E+01 -0.55583760545E+02 -0.95497754798E+03  0.95969360850E+03  0.77000000000E+02 0.  0.
<mgrwt>
<rscale>  0 0.22611235E+03</rscale>
<asrwt>0</asrwt>
<pdfrwt beam="1">  1        2 0.19105276E+00 0.22611235E+03</pdfrwt>
<pdfrwt beam="2">  1       -2 0.15834653E-02 0.22611235E+03</pdfrwt>
<totfact> 0.20395576E+04</totfact>
</mgrwt>
</event>
<event>
 4    1  0.6207184E-004  0.1917774E+03  0.7818608E-02  0.1156868E+00
          2   -1    0    0  501    0  0.00000000000E+00  0.00000000000E+00  0.12795006678E+03  0.12795006680E+03  0.25500000000E-02 0.  1.
         -2   -1    0    0    0  501 -0.00000000000E+00 -0.00000000000E+00 -0.71861160882E+02  0.71861160927E+02  0.25500000000E-02 0. -1.
    5000001    1    1    2    0    0  0.33474751610E+02 -0.18506255779E+02 -0.16191173711E+02  0.87488254094E+02  0.77000000000E+02 0.  0.
   -5000001    1    1    2    0    0 -0.33474751610E+02  0.18506255779E+02  0.72280079606E+02  0.11232297363E+03  0.77000000000E+02 0.  0.
<mgrwt>
<rscale>  0 0.19177737E+03</rscale>
<asrwt>0</asrwt>
<pdfrwt beam="1">  1        2 0.19684626E-01 0.19177737E+03</pdfrwt>
<pdfrwt beam="2">  1       -2 0.11055563E-01 0.19177737E+03</pdfrwt>
<totfact> 0.15352426E+04</totfact>
</mgrwt>
</event>
<event>
 4    1  0.6207184E-004  0.3752305E+03  0.7818608E-02  0.1052711E+00
          2   -1    0    0  501    0  0.00000000000E+00  0.00000000000E+00  0.32972673644E+03  0.32972673645E+03  0.25500000000E-02 0.  1.
         -2   -1    0    0    0  501 -0.00000000000E+00 -0.00000000000E+00 -0.10675349633E+03  0.10675349636E+03  0.25500000000E-02 0. -1.
    5000001    1    1    2    0    0 -0.47926695428E+02  0.16367971820E+03  0.95773781323E+02  0.21021330946E+03  0.77000000000E+02 0.  0.
   -5000001    1    1    2    0    0  0.47926695428E+02 -0.16367971820E+03  0.12719945878E+03  0.22626692335E+03  0.77000000000E+02 0.  0.
<mgrwt>
<rscale>  0 0.37523050E+03</rscale>
<asrwt>0</asrwt>
<pdfrwt beam="1">  1        2 0.50727191E-01 0.37523050E+03</pdfrwt>
<pdfrwt beam="2">  1       -2 0.16423615E-01 0.37523050E+03</pdfrwt>
<totfact> 0.29159430E+03</totfact>
</mgrwt>
</event>
<event>
 4    1  0.6207184E-004  0.2077920E+03  0.7818608E-02  0.1143327E+00
         -2   -1    0    0    0  501 -0.00000000000E+00  0.00000000000E+00  0.97312114436E+01  0.97312117777E+01  0.25500000000E-02 0. -1.
          2   -1    0    0  501    0  0.00000000000E+00 -0.00000000000E+00 -0.11092532705E+04  0.11092532705E+04  0.25500000000E-02 0.  1.
    5000001    1    1    2    0    0  0.66532042290E+01  0.58701842909E+02 -0.74946157898E+03  0.75571941212E+03  0.77000000000E+02 0.  0.
   -5000001    1    1    2    0    0 -0.66532042290E+01 -0.58701842909E+02 -0.35006048006E+03  0.36326507015E+03  0.77000000000E+02 0.  0.
<mgrwt>
<rscale>  0 0.20779200E+03</rscale>
<asrwt>0</asrwt>
<pdfrwt beam="1">  1        2 0.17065425E+00 0.20779200E+03</pdfrwt>
<pdfrwt beam="2">  1       -2 0.14971104E-02 0.20779200E+03</pdfrwt>
<totfact> 0.26203971E+04</totfact>
</mgrwt>
</event>
<event>
 4    1  0.6207184E-004  0.2372082E+03  0.7818608E-02  0.1121667E+00
         -2   -1    0    0    0  501 -0.00000000000E+00  0.00000000000E+00  0.90960000627E+01  0.90960004201E+01  0.25500000000E-02 0. -1.
          2   -1    0    0  501    0  0.00000000000E+00 -0.00000000000E+00 -0.15464964757E+04  0.15464964757E+04  0.25500000000E-02 0.  1.
    5000001    1    1    2    0    0 -0.25281530863E+02 -0.74006499538E+02 -0.47382602308E+03  0.48637045338E+03  0.77000000000E+02 0.  0.
   -5000001    1    1    2    0    0  0.25281530863E+02  0.74006499538E+02 -0.10635744526E+04  0.10692220227E+04  0.77000000000E+02 0.  0.
<mgrwt>
<rscale>  0 0.23720820E+03</rscale>
<asrwt>0</asrwt>
<pdfrwt beam="1">  1        2 0.23792233E+00 0.23720820E+03</pdfrwt>
<pdfrwt beam="2">  1       -2 0.13993859E-02 0.23720820E+03</pdfrwt>
<totfact> 0.16734496E+04</totfact>
</mgrwt>
</event>
<event>
 4    1  0.6207184E-004  0.1744179E+03  0.7818608E-02  0.1173317E+00
         -2   -1    0    0    0  501 -0.00000000000E+00  0.00000000000E+00  0.44288972133E+01  0.44288979474E+01  0.25500000000E-02 0. -1.
          2   -1    0    0  501    0  0.00000000000E+00 -0.00000000000E+00 -0.17172228242E+04  0.17172228242E+04  0.25500000000E-02 0.  1.
    5000001    1    1    2    0    0  0.12830155411E+02 -0.37670737862E+02 -0.76135627578E+03  0.76627415202E+03  0.77000000000E+02 0.  0.
   -5000001    1    1    2    0    0 -0.12830155411E+02  0.37670737862E+02 -0.95143765118E+03  0.95537757011E+03  0.77000000000E+02 0.  0.
<mgrwt>
<rscale>  0 0.17441794E+03</rscale>
<asrwt>0</asrwt>
<pdfrwt beam="1">  1        2 0.26418760E+00 0.17441794E+03</pdfrwt>
<pdfrwt beam="2">  1       -2 0.68137023E-03 0.17441794E+03</pdfrwt>
<totfact> 0.37895441E+04</totfact>
</mgrwt>
</event>
<event>
 4    1  0.6207184E-004  0.2657233E+03  0.7818608E-02  0.1103753E+00
          2   -1    0    0  501    0  0.00000000000E+00  0.00000000000E+00  0.35544859871E+04  0.35544859871E+04  0.25500000000E-02 0.  1.
         -2   -1    0    0    0  501 -0.00000000000E+00 -0.00000000000E+00 -0.49661806843E+01  0.49661813390E+01  0.25500000000E-02 0. -1.
    5000001    1    1    2    0    0  0.10135152278E+03 -0.20032826141E+02  0.22087718775E+04  0.22125269833E+04  0.77000000000E+02 0.  0.
   -5000001    1    1    2    0    0 -0.10135152278E+03  0.20032826141E+02  0.13407479289E+04  0.13469251851E+04  0.77000000000E+02 0.  0.
<mgrwt>
<rscale>  0 0.26572332E+03</rscale>
<asrwt>0</asrwt>
<pdfrwt beam="1">  1        2 0.54684622E+00 0.26572332E+03</pdfrwt>
<pdfrwt beam="2">  1       -2 0.76402474E-03 0.26572332E+03</pdfrwt>
<totfact> 0.29421143E+03</totfact>
</mgrwt>
</event>
<event>
 4    1  0.6207184E-004  0.1975557E+03  0.7818608E-02  0.1151818E+00
          2   -1    0    0  501    0  0.00000000000E+00  0.00000000000E+00  0.16160310577E+03  0.16160310579E+03  0.25500000000E-02 0.  1.
         -2   -1    0    0    0  501 -0.00000000000E+00 -0.00000000000E+00 -0.60376688276E+02  0.60376688330E+02  0.25500000000E-02 0. -1.
    5000001    1    1    2    0    0  0.40572104003E+02 -0.46700007149E+02  0.49448712680E+02  0.11045886780E+03  0.77000000000E+02 0.  0.
   -5000001    1    1    2    0    0 -0.40572104003E+02  0.46700007149E+02  0.51777704817E+02  0.11152092632E+03  0.77000000000E+02 0.  0.
<mgrwt>
<rscale>  0 0.19755567E+03</rscale>
<asrwt>0</asrwt>
<pdfrwt beam="1">  1        2 0.24862016E-01 0.19755567E+03</pdfrwt>
<pdfrwt beam="2">  1       -2 0.92887215E-02 0.19755567E+03</pdfrwt>
<totfact> 0.15583215E+04</totfact>
</mgrwt>
</event>
<event>
 4    1  0.6207184E-004  0.2148426E+03  0.7818608E-02  0.1137788E+00
          2   -1    0    0  501    0  0.00000000000E+00  0.00000000000E+00  0.20320157008E+04  0.20320157008E+04  0.25500000000E-02 0. -1.
         -2   -1    0    0    0  501 -0.00000000000E+00 -0.00000000000E+00 -0.56787628251E+01  0.56787633976E+01  0.25500000000E-02 0.  1.
    5000001    1    1    2    0    0 -0.67091623769E+02  0.21814793073E+02  0.12518270132E+04  0.12561755618E+04  0.77000000000E+02 0.  0.
   -5000001    1    1    2    0    0  0.67091623769E+02 -0.21814793073E+02  0.77450992483E+03  0.78151890242E+03  0.77000000000E+02 0.  0.
<mgrwt>
<rscale>  0 0.21484260E+03</rscale>
<asrwt>0</asrwt>
<pdfrwt beam="1">  1        2 0.31261737E+00 0.21484260E+03</pdfrwt>
<pdfrwt beam="2">  1       -2 0.87365708E-03 0.21484260E+03</pdfrwt>
<totfact> 0.18392310E+04</totfact>
</mgrwt>
</event>
<event>
 4    1  0.6207184E-004  0.2975576E+03  0.7818608E-02  0.1086468E+00
         -2   -1    0    0    0  501 -0.00000000000E+00  0.00000000000E+00  0.50996390956E+02  0.50996391020E+02  0.25500000000E-02 0. -1.
          2   -1    0    0  501    0  0.00000000000E+00 -0.00000000000E+00 -0.43405282472E+03  0.43405282473E+03  0.25500000000E-02 0.  1.
    5000001    1    1    2    0    0 -0.57927246748E+02 -0.97072262732E+02 -0.28696282646E+03  0.31789189023E+03  0.77000000000E+02 0.  0.
   -5000001    1    1    2    0    0  0.57927246748E+02  0.97072262732E+02 -0.96093607305E+02  0.16715732551E+03  0.77000000000E+02 0.  0.
<mgrwt>
<rscale>  0 0.29755757E+03</rscale>
<asrwt>0</asrwt>
<pdfrwt beam="1">  1        2 0.66777355E-01 0.29755757E+03</pdfrwt>
<pdfrwt beam="2">  1       -2 0.78455989E-02 0.29755757E+03</pdfrwt>
<totfact> 0.70945252E+03</totfact>
</mgrwt>
</event>
<event>
 4    1  0.6207184E-004  0.2491139E+03  0.7818608E-02  0.1113866E+00
         -2   -1    0    0    0  501 -0.00000000000E+00  0.00000000000E+00  0.27220519322E+02  0.27220519441E+02  0.25500000000E-02 0. -1.
          2   -1    0    0  501    0  0.00000000000E+00 -0.00000000000E+00 -0.56995366089E+03  0.56995366089E+03  0.25500000000E-02 0.  1.
    5000001    1    1    2    0    0 -0.14086459089E+02  0.54420338847E+02 -0.46352270403E+03  0.47322542066E+03  0.77000000000E+02 0.  0.
   -5000001    1    1    2    0    0  0.14086459089E+02 -0.54420338847E+02 -0.79210437540E+02  0.12394875968E+03  0.77000000000E+02 0.  0.
<mgrwt>
<rscale>  0 0.24911391E+03</rscale>
<asrwt>0</asrwt>
<pdfrwt beam="1">  1        2 0.87685169E-01 0.24911391E+03</pdfrwt>
<pdfrwt beam="2">  1       -2 0.41877727E-02 0.24911391E+03</pdfrwt>
<totfact> 0.13585993E+04</totfact>
</mgrwt>
</event>
<event>
 4    1  0.6207184E-004  0.1769282E+03  0.7818608E-02  0.1170810E+00
         -2   -1    0    0    0  501 -0.00000000000E+00  0.00000000000E+00  0.12729934886E+03  0.12729934889E+03  0.25500000000E-02 0. -1.
          2   -1    0    0  501    0  0.00000000000E+00 -0.00000000000E+00 -0.61476305280E+02  0.61476305333E+02  0.25500000000E-02 0.  1.
    5000001    1    1    2    0    0  0.19083371071E+02  0.19615616257E+02  0.69061645079E+02  0.10699279543E+03  0.77000000000E+02 0.  0.
   -5000001    1    1    2    0    0 -0.19083371071E+02 -0.19615616257E+02 -0.32386014970E+01  0.81782858792E+02  0.77000000000E+02 0.  0.
<mgrwt>
<rscale>  0 0.17692816E+03</rscale>
<asrwt>0</asrwt>
<pdfrwt beam="1">  1        2 0.94578932E-02 0.17692816E+03</pdfrwt>
<pdfrwt beam="2">  1       -2 0.19584515E-01 0.17692816E+03</pdfrwt>
<totfact> 0.14293760E+04</totfact>
</mgrwt>
</event>
<event>
 4    1  0.6207184E-004  0.2660888E+03  0.7818608E-02  0.1103539E+00
         -2   -1    0    0    0  501 -0.00000000000E+00  0.00000000000E+00  0.15275786340E+02  0.15275786553E+02  0.25500000000E-02 0. -1.
          2   -1    0    0  501    0  0.00000000000E+00 -0.00000000000E+00 -0.11587494540E+04  0.11587494540E+04  0.25500000000E-02 0.  1.
    5000001    1    1    2    0    0  0.43952598768E+02 -0.97051151177E+02 -0.48120133220E+03  0.49883311738E+03  0.77000000000E+02 0.  0.
   -5000001    1    1    2    0    0 -0.43952598768E+02  0.97051151177E+02 -0.66227233546E+03  0.67519212317E+03  0.77000000000E+02 0.  0.
<mgrwt>
<rscale>  0 0.26608878E+03</rscale>
<asrwt>0</asrwt>
<pdfrwt beam="1">  1        2 0.17826908E+00 0.26608878E+03</pdfrwt>
<pdfrwt beam="2">  1       -2 0.23501219E-02 0.26608878E+03</pdfrwt>
<totfact> 0.12818009E+04</totfact>
</mgrwt>
</event>
<event>
 4    1  0.6207184E-004  0.2627936E+03  0.7818608E-02  0.1105476E+00
         -2   -1    0    0    0  501 -0.00000000000E+00  0.00000000000E+00  0.29049933812E+02  0.29049933924E+02  0.25500000000E-02 0. -1.
          2   -1    0    0  501    0  0.00000000000E+00 -0.00000000000E+00 -0.59432573019E+03  0.59432573020E+03  0.25500000000E-02 0.  1.
    5000001    1    1    2    0    0 -0.85973670319E+01 -0.13836212064E+02 -0.53222599902E+03  0.53801381907E+03  0.77000000000E+02 0.  0.
   -5000001    1    1    2    0    0  0.85973670319E+01  0.13836212064E+02 -0.33049797363E+02  0.85361845047E+02  0.77000000000E+02 0.  0.
<mgrwt>
<rscale>  0 0.26279363E+03</rscale>
<asrwt>0</asrwt>
<pdfrwt beam="1">  1        2 0.91434718E-01 0.26279363E+03</pdfrwt>
<pdfrwt beam="2">  1       -2 0.44692211E-02 0.26279363E+03</pdfrwt>
<totfact> 0.11765610E+04</totfact>
</mgrwt>
</event>
<event>
 4    1  0.6207184E-004  0.3655767E+03  0.7818608E-02  0.1056397E+00
         -2   -1    0    0    0  501 -0.00000000000E+00  0.00000000000E+00  0.38956055037E+02  0.38956055120E+02  0.25500000000E-02 0. -1.
          2   -1    0    0  501    0  0.00000000000E+00 -0.00000000000E+00 -0.85767340416E+03  0.85767340416E+03  0.25500000000E-02 0.  1.
    5000001    1    1    2    0    0  0.73031351078E+02  0.13241641461E+03 -0.57597405905E+03  0.60045216446E+03  0.77000000000E+02 0.  0.
   -5000001    1    1    2    0    0 -0.73031351078E+02 -0.13241641461E+03 -0.24274329007E+03  0.29617729482E+03  0.77000000000E+02 0.  0.
<mgrwt>
<rscale>  0 0.36557665E+03</rscale>
<asrwt>0</asrwt>
<pdfrwt beam="1">  1        2 0.13194974E+00 0.36557665E+03</pdfrwt>
<pdfrwt beam="2">  1       -2 0.59932399E-02 0.36557665E+03</pdfrwt>
<totfact> 0.48258697E+03</totfact>
</mgrwt>
</event>
<event>
 4    1  0.6207184E-004  0.1845255E+03  0.7818608E-02  0.1163494E+00
          2   -1    0    0  501    0  0.00000000000E+00  0.00000000000E+00  0.63505739567E+03  0.63505739568E+03  0.25500000000E-02 0.  1.
         -2   -1    0    0    0  501 -0.00000000000E+00 -0.00000000000E+00 -0.13404164594E+02  0.13404164836E+02  0.25500000000E-02 0. -1.
    5000001    1    1    2    0    0 -0.33956170813E+02  0.27437282201E+02  0.21934986890E+03  0.23653581331E+03  0.77000000000E+02 0.  0.
   -5000001    1    1    2    0    0  0.33956170813E+02 -0.27437282201E+02  0.40230336217E+03  0.41192574720E+03  0.77000000000E+02 0.  0.
<mgrwt>
<rscale>  0 0.18452549E+03</rscale>
<asrwt>0</asrwt>
<pdfrwt beam="1">  1        2 0.97701148E-01 0.18452549E+03</pdfrwt>
<pdfrwt beam="2">  1       -2 0.20621790E-02 0.18452549E+03</pdfrwt>
<totfact> 0.33593044E+04</totfact>
</mgrwt>
</event>
<event>
 4    1  0.6207184E-004  0.2351233E+03  0.7818608E-02  0.1123085E+00
          2   -1    0    0  501    0  0.00000000000E+00  0.00000000000E+00  0.49322607032E+02  0.49322607097E+02  0.25500000000E-02 0.  1.
         -2   -1    0    0    0  501 -0.00000000000E+00 -0.00000000000E+00 -0.28021101393E+03  0.28021101395E+03  0.25500000000E-02 0. -1.
    5000001    1    1    2    0    0  0.19456384171E+02  0.76017045487E+02 -0.57072381602E+02  0.12386847392E+03  0.77000000000E+02 0.  0.
   -5000001    1    1    2    0    0 -0.19456384171E+02 -0.76017045487E+02 -0.17381602530E+03  0.20566514712E+03  0.77000000000E+02 0.  0.
<mgrwt>
<rscale>  0 0.23512327E+03</rscale>
<asrwt>0</asrwt>
<pdfrwt beam="1">  1        2 0.75880936E-02 0.23512327E+03</pdfrwt>
<pdfrwt beam="2">  1       -2 0.43109386E-01 0.23512327E+03</pdfrwt>
<totfact> 0.46246393E+03</totfact>
</mgrwt>
</event>
<event>
 4    1  0.6207184E-004  0.2603690E+03  0.7818608E-02  0.1106922E+00
         -2   -1    0    0    0  501 -0.00000000000E+00  0.00000000000E+00  0.14766552859E+02  0.14766553079E+02  0.25500000000E-02 0. -1.
          2   -1    0    0  501    0  0.00000000000E+00 -0.00000000000E+00 -0.11477293750E+04  0.11477293750E+04  0.25500000000E-02 0.  1.
    5000001    1    1    2    0    0 -0.83727162193E+02 -0.63143977534E+02 -0.58723530669E+03  0.60147460878E+03  0.77000000000E+02 0.  0.
   -5000001    1    1    2    0    0  0.83727162193E+02  0.63143977534E+02 -0.54572751549E+03  0.56102131934E+03  0.77000000000E+02 0.  0.
<mgrwt>
<rscale>  0 0.26036902E+03</rscale>
<asrwt>0</asrwt>
<pdfrwt beam="1">  1        2 0.17657368E+00 0.26036902E+03</pdfrwt>
<pdfrwt beam="2">  1       -2 0.22717783E-02 0.26036902E+03</pdfrwt>
<totfact> 0.13664047E+04</totfact>
</mgrwt>
</event>
<event>
 4    1  0.6207184E-004  0.3577240E+03  0.7818608E-02  0.1059489E+00
         -2   -1    0    0    0  501 -0.00000000000E+00  0.00000000000E+00  0.36399155133E+03  0.36399155134E+03  0.25500000000E-02 0. -1.
          2   -1    0    0  501    0  0.00000000000E+00 -0.00000000000E+00 -0.87891108073E+02  0.87891108110E+02  0.25500000000E-02 0.  1.
    5000001    1    1    2    0    0 -0.94316928424E+01 -0.70649702624E+02  0.32103035248E+03  0.33774224569E+03  0.77000000000E+02 0.  0.
   -5000001    1    1    2    0    0  0.94316928424E+01  0.70649702624E+02 -0.44929909221E+02  0.11414041376E+03  0.77000000000E+02 0.  0.
<mgrwt>
<rscale>  0 0.35772403E+03</rscale>
<asrwt>0</asrwt>
<pdfrwt beam="1">  1        2 0.13521709E-01 0.35772403E+03</pdfrwt>
<pdfrwt beam="2">  1       -2 0.55998700E-01 0.35772403E+03</pdfrwt>
<totfact> 0.13549799E+03</totfact>
</mgrwt>
</event>
<event>
 4    1  0.6207184E-004  0.2606016E+03  0.7818608E-02  0.1106782E+00
         -2   -1    0    0    0  501 -0.00000000000E+00  0.00000000000E+00  0.11755512097E+02  0.11755512373E+02  0.25500000000E-02 0. -1.
          2   -1    0    0  501    0  0.00000000000E+00 -0.00000000000E+00 -0.14442842757E+04  0.14442842757E+04  0.25500000000E-02 0.  1.
    5000001    1    1    2    0    0 -0.72699995836E+01  0.69775998132E+02 -0.27889643379E+03  0.29771423142E+03  0.77000000000E+02 0.  0.
   -5000001    1    1    2    0    0  0.72699995836E+01 -0.69775998132E+02 -0.11536323298E+04  0.11583255567E+04  0.77000000000E+02 0.  0.
<mgrwt>
<rscale>  0 0.26060162E+03</rscale>
<asrwt>0</asrwt>
<pdfrwt beam="1">  1        2 0.22219744E+00 0.26060162E+03</pdfrwt>
<pdfrwt beam="2">  1       -2 0.18085415E-02 0.26060162E+03</pdfrwt>
<totfact> 0.13083294E+04</totfact>
</mgrwt>
</event>
<event>
 4    1  0.6207184E-004  0.1995036E+03  0.7818608E-02  0.1150158E+00
          2   -1    0    0  501    0  0.00000000000E+00  0.00000000000E+00  0.21438167313E+03  0.21438167315E+03  0.25500000000E-02 0.  1.
         -2   -1    0    0    0  501 -0.00000000000E+00 -0.00000000000E+00 -0.46414537922E+02  0.46414537992E+02  0.25500000000E-02 0. -1.
    5000001    1    1    2    0    0 -0.37759882329E+02  0.24532006201E+02  0.14235374930E+03  0.16799171998E+03  0.77000000000E+02 0.  0.
   -5000001    1    1    2    0    0  0.37759882329E+02 -0.24532006201E+02  0.25613385910E+02  0.92804491160E+02  0.77000000000E+02 0.  0.
<mgrwt>
<rscale>  0 0.19950365E+03</rscale>
<asrwt>0</asrwt>
<pdfrwt beam="1">  1        2 0.32981796E-01 0.19950365E+03</pdfrwt>
<pdfrwt beam="2">  1       -2 0.71406980E-02 0.19950365E+03</pdfrwt>
<totfact> 0.17225432E+04</totfact>
</mgrwt>
</event>
<event>
 4    1  0.6207184E-004  0.1636512E+03  0.7818608E-02  0.1184635E+00
          2   -1    0    0  501    0  0.00000000000E+00  0.00000000000E+00  0.44003104730E+03  0.44003104730E+03  0.25500000000E-02 0.  1.
         -2   -1    0    0    0  501 -0.00000000000E+00 -0.00000000000E+00 -0.15215811117E+02  0.15215811331E+02  0.25500000000E-02 0. -1.
    5000001    1    1    2    0    0 -0.10838847997E+02 -0.24042437962E+02  0.23583270392E+03  0.24948263204E+03  0.77000000000E+02 0.  0.
   -5000001    1    1    2    0    0  0.10838847997E+02  0.24042437962E+02  0.18898253226E+03  0.20576422660E+03  0.77000000000E+02 0.  0.
<mgrwt>
<rscale>  0 0.16365121E+03</rscale>
<asrwt>0</asrwt>
<pdfrwt beam="1">  1        2 0.67697090E-01 0.16365121E+03</pdfrwt>
<pdfrwt beam="2">  1       -2 0.23408938E-02 0.16365121E+03</pdfrwt>
<totfact> 0.41631681E+04</totfact>
</mgrwt>
</event>
<event>
 4    1  0.6207184E-004  0.5664722E+03  0.7818608E-02  0.9977516E-01
         -2   -1    0    0    0  501 -0.00000000000E+00  0.00000000000E+00  0.50768690504E+02  0.50768690568E+02  0.25500000000E-02 0. -1.
          2   -1    0    0  501    0  0.00000000000E+00 -0.00000000000E+00 -0.15801606687E+04  0.15801606687E+04  0.25500000000E-02 0.  1.
    5000001    1    1    2    0    0  0.25417864623E+03  0.20043085020E+02 -0.48726710204E+03  0.55530778689E+03  0.77000000000E+02 0.  0.
   -5000001    1    1    2    0    0 -0.25417864623E+03 -0.20043085020E+02 -0.10421248761E+04  0.10756215724E+04  0.77000000000E+02 0.  0.
<mgrwt>
<rscale>  0 0.56647220E+03</rscale>
<asrwt>0</asrwt>
<pdfrwt beam="1">  1        2 0.24310160E+00 0.56647220E+03</pdfrwt>
<pdfrwt beam="2">  1       -2 0.78105690E-02 0.56647220E+03</pdfrwt>
<totfact> 0.11949929E+03</totfact>
</mgrwt>
</event>
<event>
 4    1  0.6207184E-004  0.2718398E+03  0.7818608E-02  0.1100231E+00
         -2   -1    0    0    0  501 -0.00000000000E+00  0.00000000000E+00  0.86048782454E+01  0.86048786233E+01  0.25500000000E-02 0. -1.
          2   -1    0    0  501    0  0.00000000000E+00 -0.00000000000E+00 -0.21469478846E+04  0.21469478846E+04  0.25500000000E-02 0.  1.
    5000001    1    1    2    0    0  0.36316224472E+01  0.10484338382E+03 -0.75800556811E+03  0.76909476991E+03  0.77000000000E+02 0.  0.
   -5000001    1    1    2    0    0 -0.36316224472E+01 -0.10484338382E+03 -0.13803374382E+04  0.13864579933E+04  0.77000000000E+02 0.  0.
<mgrwt>
<rscale>  0 0.27183985E+03</rscale>
<asrwt>0</asrwt>
<pdfrwt beam="1">  1        2 0.33029925E+00 0.27183985E+03</pdfrwt>
<pdfrwt beam="2">  1       -2 0.13238292E-02 0.27183985E+03</pdfrwt>
<totfact> 0.87996935E+03</totfact>
</mgrwt>
</event>
<event>
 4    1  0.6207184E-004  0.2858583E+03  0.7818608E-02  0.1092532E+00
          2   -1    0    0  501    0  0.00000000000E+00  0.00000000000E+00  0.39400037295E+03  0.39400037296E+03  0.25500000000E-02 0.  1.
         -2   -1    0    0    0  501 -0.00000000000E+00 -0.00000000000E+00 -0.51849537597E+02  0.51849537660E+02  0.25500000000E-02 0. -1.
    5000001    1    1    2    0    0  0.66373971412E+02  0.47418738397E+02  0.32924531448E+02  0.11690622568E+03  0.77000000000E+02 0.  0.
   -5000001    1    1    2    0    0 -0.66373971412E+02 -0.47418738397E+02  0.30922630391E+03  0.32894368494E+03  0.77000000000E+02 0.  0.
<mgrwt>
<rscale>  0 0.28585827E+03</rscale>
<asrwt>0</asrwt>
<pdfrwt beam="1">  1        2 0.60615442E-01 0.28585827E+03</pdfrwt>
<pdfrwt beam="2">  1       -2 0.79768519E-02 0.28585827E+03</pdfrwt>
<totfact> 0.76744286E+03</totfact>
</mgrwt>
</event>
<event>
 4    1  0.6207184E-004  0.4692061E+03  0.7818608E-02  0.1022145E+00
          2   -1    0    0  501    0  0.00000000000E+00  0.00000000000E+00  0.39818416804E+04  0.39818416804E+04  0.25500000000E-02 0. -1.
         -2   -1    0    0    0  501 -0.00000000000E+00 -0.00000000000E+00 -0.13822394890E+02  0.13822395125E+02  0.25500000000E-02 0.  1.
    5000001    1    1    2    0    0 -0.17940547100E+03 -0.83625588231E+01  0.87848549766E+03  0.89995667952E+03  0.77000000000E+02 0.  0.
   -5000001    1    1    2    0    0  0.17940547100E+03  0.83625588231E+01  0.30895337879E+04  0.30957073960E+04  0.77000000000E+02 0.  0.
<mgrwt>
<rscale>  0 0.46920609E+03</rscale>
<asrwt>0</asrwt>
<pdfrwt beam="1">  1        2 0.61259135E+00 0.46920609E+03</pdfrwt>
<pdfrwt beam="2">  1       -2 0.21265212E-02 0.46920609E+03</pdfrwt>
<totfact> 0.31058358E+02</totfact>
</mgrwt>
</event>
<event>
 4    1  0.6207184E-004  0.7519897E+03  0.7818608E-02  0.9632234E-01
         -2   -1    0    0    0  501 -0.00000000000E+00  0.00000000000E+00  0.13131772092E+03  0.13131772095E+03  0.25500000000E-02 0. -1.
          2   -1    0    0  501    0  0.00000000000E+00 -0.00000000000E+00 -0.10765653755E+04  0.10765653755E+04  0.25500000000E-02 0.  1.
    5000001    1    1    2    0    0  0.31789260229E+03  0.15596677302E+03 -0.31150353428E+03  0.47785436353E+03  0.77000000000E+02 0.  0.
   -5000001    1    1    2    0    0 -0.31789260229E+03 -0.15596677302E+03 -0.63374412031E+03  0.73002873293E+03  0.77000000000E+02 0.  0.
<mgrwt>
<rscale>  0 0.75198966E+03</rscale>
<asrwt>0</asrwt>
<pdfrwt beam="1">  1        2 0.16562544E+00 0.75198966E+03</pdfrwt>
<pdfrwt beam="2">  1       -2 0.20202727E-01 0.75198966E+03</pdfrwt>
<totfact> 0.47537107E+02</totfact>
</mgrwt>
</event>
<event>
 4    1  0.6207184E-004  0.2090225E+03  0.7818608E-02  0.1142342E+00
          2   -1    0    0  501    0  0.00000000000E+00  0.00000000000E+00  0.16867810175E+04  0.16867810175E+04  0.25500000000E-02 0.  1.
         -2   -1    0    0    0  501 -0.00000000000E+00 -0.00000000000E+00 -0.64754128519E+01  0.64754133540E+01  0.25500000000E-02 0. -1.
    5000001    1    1    2    0    0  0.11991501660E+02  0.67773258982E+02  0.71038941199E+03  0.71785731689E+03  0.77000000000E+02 0.  0.
   -5000001    1    1    2    0    0 -0.11991501660E+02 -0.67773258982E+02  0.96991619266E+03  0.97539911397E+03  0.77000000000E+02 0.  0.
<mgrwt>
<rscale>  0 0.20902252E+03</rscale>
<asrwt>0</asrwt>
<pdfrwt beam="1">  1        2 0.25950494E+00 0.20902252E+03</pdfrwt>
<pdfrwt beam="2">  1       -2 0.99621675E-03 0.20902252E+03</pdfrwt>
<totfact> 0.22994786E+04</totfact>
</mgrwt>
</event>
<event>
 4    1  0.6207184E-004  0.7990775E+03  0.7818608E-02  0.9561353E-01
         -2   -1    0    0    0  501 -0.00000000000E+00  0.00000000000E+00  0.10211207666E+03  0.10211207670E+03  0.25500000000E-02 0. -1.
          2   -1    0    0  501    0  0.00000000000E+00 -0.00000000000E+00 -0.15632940070E+04  0.15632940070E+04  0.25500000000E-02 0.  1.
    5000001    1    1    2    0    0  0.22927410672E+03 -0.30738087482E+03 -0.90058210878E+03  0.98184864051E+03  0.77000000000E+02 0.  0.
   -5000001    1    1    2    0    0 -0.22927410672E+03  0.30738087482E+03 -0.56059982160E+03  0.68355744323E+03  0.77000000000E+02 0.  0.
<mgrwt>
<rscale>  0 0.79907746E+03</rscale>
<asrwt>0</asrwt>
<pdfrwt beam="1">  1        2 0.24050675E+00 0.79907746E+03</pdfrwt>
<pdfrwt beam="2">  1       -2 0.15709551E-01 0.79907746E+03</pdfrwt>
<totfact> 0.38285854E+02</totfact>
</mgrwt>
</event>
<event>
 4    1  0.6207184E-004  0.3514813E+03  0.7818608E-02  0.1062009E+00
         -2   -1    0    0    0  501 -0.00000000000E+00  0.00000000000E+00  0.37760534434E+02  0.37760534520E+02  0.25500000000E-02 0. -1.
          2   -1    0    0  501    0  0.00000000000E+00 -0.00000000000E+00 -0.81791163360E+03  0.81791163361E+03  0.25500000000E-02 0.  1.
    5000001    1    1    2    0    0 -0.69570952469E+02 -0.65363095900E+02 -0.69650349397E+03  0.70721889740E+03  0.77000000000E+02 0.  0.
   -5000001    1    1    2    0    0  0.69570952469E+02  0.65363095900E+02 -0.83647605200E+02  0.14845327072E+03  0.77000000000E+02 0.  0.
<mgrwt>
<rscale>  0 0.35148132E+03</rscale>
<asrwt>0</asrwt>
<pdfrwt beam="1">  1        2 0.12583255E+00 0.35148132E+03</pdfrwt>
<pdfrwt beam="2">  1       -2 0.58093136E-02 0.35148132E+03</pdfrwt>
<totfact> 0.53858743E+03</totfact>
</mgrwt>
</event>
<event>
 4    1  0.6207184E-004  0.2369707E+03  0.7818608E-02  0.1121827E+00
         -2   -1    0    0    0  501 -0.00000000000E+00  0.00000000000E+00  0.17772409746E+02  0.17772409929E+02  0.25500000000E-02 0. -1.
          2   -1    0    0  501    0  0.00000000000E+00 -0.00000000000E+00 -0.78991978009E+03  0.78991978010E+03  0.25500000000E-02 0.  1.
    5000001    1    1    2    0    0 -0.23917923834E+01  0.85162408485E+02 -0.48552798432E+03  0.49892362146E+03  0.77000000000E+02 0.  0.
   -5000001    1    1    2    0    0  0.23917923834E+01 -0.85162408485E+02 -0.28661938603E+03  0.30876856857E+03  0.77000000000E+02 0.  0.
<mgrwt>
<rscale>  0 0.23697070E+03</rscale>
<asrwt>0</asrwt>
<pdfrwt beam="1">  1        2 0.12152609E+00 0.23697070E+03</pdfrwt>
<pdfrwt beam="2">  1       -2 0.27342175E-02 0.23697070E+03</pdfrwt>
<totfact> 0.17322117E+04</totfact>
</mgrwt>
</event>
<event>
 4    1  0.6207184E-004  0.2307844E+03  0.7818608E-02  0.1126089E+00
         -2   -1    0    0    0  501 -0.00000000000E+00  0.00000000000E+00  0.12467190267E+02  0.12467190528E+02  0.25500000000E-02 0. -1.
          2   -1    0    0  501    0  0.00000000000E+00 -0.00000000000E+00 -0.10680321075E+04  0.10680321075E+04  0.25500000000E-02 0.  1.
    5000001    1    1    2    0    0  0.53253745976E+02 -0.67455519119E+02 -0.52960248168E+03  0.54202767191E+03  0.77000000000E+02 0.  0.
   -5000001    1    1    2    0    0 -0.53253745976E+02  0.67455519119E+02 -0.52596243558E+03  0.53847162614E+03  0.77000000000E+02 0.  0.
<mgrwt>
<rscale>  0 0.23078440E+03</rscale>
<asrwt>0</asrwt>
<pdfrwt beam="1">  1        2 0.16431256E+00 0.23078440E+03</pdfrwt>
<pdfrwt beam="2">  1       -2 0.19180301E-02 0.23078440E+03</pdfrwt>
<totfact> 0.19407294E+04</totfact>
</mgrwt>
</event>
<event>
 4    1  0.6207184E-004  0.4962590E+03  0.7818608E-02  0.1014760E+00
         -2   -1    0    0    0  501 -0.00000000000E+00  0.00000000000E+00  0.47456723227E+02  0.47456723296E+02  0.25500000000E-02 0. -1.
          2   -1    0    0  501    0  0.00000000000E+00 -0.00000000000E+00 -0.12973558240E+04  0.12973558240E+04  0.25500000000E-02 0.  1.
    5000001    1    1    2    0    0  0.20514206529E+03 -0.11624252976E+03 -0.64285615754E+03  0.68904907805E+03  0.77000000000E+02 0.  0.
   -5000001    1    1    2    0    0 -0.20514206529E+03  0.11624252976E+03 -0.60704294328E+03  0.65576346930E+03  0.77000000000E+02 0.  0.
<mgrwt>
<rscale>  0 0.49625903E+03</rscale>
<asrwt>0</asrwt>
<pdfrwt beam="1">  1        2 0.19959318E+00 0.49625903E+03</pdfrwt>
<pdfrwt beam="2">  1       -2 0.73010353E-02 0.49625903E+03</pdfrwt>
<totfact> 0.19142137E+03</totfact>
</mgrwt>
</event>
<event>
 4    1  0.6207184E-004  0.2375281E+03  0.7818608E-02  0.1121451E+00
          2   -1    0    0  501    0  0.00000000000E+00  0.00000000000E+00  0.11442966069E+02  0.11442966353E+02  0.25500000000E-02 0.  1.
         -2   -1    0    0    0  501 -0.00000000000E+00 -0.00000000000E+00 -0.12326260894E+04  0.12326260894E+04  0.25500000000E-02 0. -1.
    5000001    1    1    2    0    0  0.29818223043E+02 -0.74433801837E+02 -0.82946802210E+03  0.83688453024E+03  0.77000000000E+02 0.  0.
   -5000001    1    1    2    0    0 -0.29818223043E+02  0.74433801837E+02 -0.39171510127E+03  0.40718452555E+03  0.77000000000E+02 0.  0.
<mgrwt>
<rscale>  0 0.23752809E+03</rscale>
<asrwt>0</asrwt>
<pdfrwt beam="1">  1        2 0.17604573E-02 0.23752809E+03</pdfrwt>
<pdfrwt beam="2">  1       -2 0.18963468E+00 0.23752809E+03</pdfrwt>
<totfact> 0.10934891E+03</totfact>
</mgrwt>
</event>
<event>
 4    1  0.6207184E-004  0.2399458E+03  0.7818608E-02  0.1119829E+00
          2   -1    0    0  501    0  0.00000000000E+00  0.00000000000E+00  0.19296110070E+02  0.19296110239E+02  0.25500000000E-02 0.  1.
         -2   -1    0    0    0  501 -0.00000000000E+00 -0.00000000000E+00 -0.74592731114E+03  0.74592731114E+03  0.25500000000E-02 0. -1.
    5000001    1    1    2    0    0  0.24398355603E+02 -0.74353611276E+02 -0.20902011487E+03  0.23609775028E+03  0.77000000000E+02 0.  0.
   -5000001    1    1    2    0    0 -0.24398355603E+02  0.74353611276E+02 -0.51761108620E+03  0.52912567110E+03  0.77000000000E+02 0.  0.
<mgrwt>
<rscale>  0 0.23994579E+03</rscale>
<asrwt>0</asrwt>
<pdfrwt beam="1">  1        2 0.29686329E-02 0.23994579E+03</pdfrwt>
<pdfrwt beam="2">  1       -2 0.11475803E+00 0.23994579E+03</pdfrwt>
<totfact> 0.19527775E+03</totfact>
</mgrwt>
</event>
<event>
 4    1  0.6207184E-004  0.3485104E+03  0.7818608E-02  0.1063228E+00
          2   -1    0    0  501    0  0.00000000000E+00  0.00000000000E+00  0.22720880246E+04  0.22720880246E+04  0.25500000000E-02 0.  1.
         -2   -1    0    0    0  501 -0.00000000000E+00 -0.00000000000E+00 -0.13364301387E+02  0.13364301630E+02  0.25500000000E-02 0. -1.
    5000001    1    1    2    0    0 -0.74072027756E+02  0.97746499110E+02  0.49373706223E+03  0.51453506197E+03  0.77000000000E+02 0.  0.
   -5000001    1    1    2    0    0  0.74072027756E+02 -0.97746499110E+02  0.17649866610E+04  0.17709172643E+04  0.77000000000E+02 0.  0.
<mgrwt>
<rscale>  0 0.34851037E+03</rscale>
<asrwt>0</asrwt>
<pdfrwt beam="1">  1        2 0.34955215E+00 0.34851037E+03</pdfrwt>
<pdfrwt beam="2">  1       -2 0.20560455E-02 0.34851037E+03</pdfrwt>
<totfact> 0.39440454E+03</totfact>
</mgrwt>
</event>
<event>
 4    1  0.6207184E-004  0.2480064E+03  0.7818608E-02  0.1114571E+00
          2   -1    0    0  501    0  0.00000000000E+00  0.00000000000E+00  0.51975488779E+03  0.51975488780E+03  0.25500000000E-02 0.  1.
         -2   -1    0    0    0  501 -0.00000000000E+00 -0.00000000000E+00 -0.29584708299E+02  0.29584708409E+02  0.25500000000E-02 0. -1.
    5000001    1    1    2    0    0  0.92448995740E+02 -0.29469847341E+02  0.23245595814E+03  0.26340095139E+03  0.77000000000E+02 0.  0.
   -5000001    1    1    2    0    0 -0.92448995740E+02  0.29469847341E+02  0.25771422135E+03  0.28593864482E+03  0.77000000000E+02 0.  0.
<mgrwt>
<rscale>  0 0.24800643E+03</rscale>
<asrwt>0</asrwt>
<pdfrwt beam="1">  1        2 0.79962292E-01 0.24800643E+03</pdfrwt>
<pdfrwt beam="2">  1       -2 0.45514935E-02 0.24800643E+03</pdfrwt>
<totfact> 0.13300226E+04</totfact>
</mgrwt>
</event>
<event>
 4    1  0.6207184E-004  0.2884639E+03  0.7818608E-02  0.1091154E+00
          2   -1    0    0  501    0  0.00000000000E+00  0.00000000000E+00  0.14451514364E+04  0.14451514364E+04  0.25500000000E-02 0.  1.
         -2   -1    0    0    0  501 -0.00000000000E+00 -0.00000000000E+00 -0.14394930324E+02  0.14394930550E+02  0.25500000000E-02 0. -1.
    5000001    1    1    2    0    0 -0.10527094052E+03  0.59677035159E+02  0.63855462202E+03  0.65446491483E+03  0.77000000000E+02 0.  0.
   -5000001    1    1    2    0    0  0.10527094052E+03 -0.59677035159E+02  0.79220188408E+03  0.80508145214E+03  0.77000000000E+02 0.  0.
<mgrwt>
<rscale>  0 0.28846389E+03</rscale>
<asrwt>0</asrwt>
<pdfrwt beam="1">  1        2 0.22233105E+00 0.28846389E+03</pdfrwt>
<pdfrwt beam="2">  1       -2 0.22146041E-02 0.28846389E+03</pdfrwt>
<totfact> 0.97232769E+03</totfact>
</mgrwt>
</event>
<event>
 4    1  0.6207184E-004  0.2375324E+03  0.7818608E-02  0.1121448E+00
          2   -1    0    0  501    0  0.00000000000E+00  0.00000000000E+00  0.14431369137E+04  0.14431369137E+04  0.25500000000E-02 0.  1.
         -2   -1    0    0    0  501 -0.00000000000E+00 -0.00000000000E+00 -0.97741309218E+01  0.97741312545E+01  0.25500000000E-02 0. -1.
    5000001    1    1    2    0    0 -0.40138163203E+02 -0.57691697555E+02  0.36867446733E+03  0.38313087447E+03  0.77000000000E+02 0.  0.
   -5000001    1    1    2    0    0  0.40138163203E+02  0.57691697555E+02  0.10646883155E+04  0.10697801705E+04  0.77000000000E+02 0.  0.
<mgrwt>
<rscale>  0 0.23753239E+03</rscale>
<asrwt>0</asrwt>
<pdfrwt beam="1">  1        2 0.22202105E+00 0.23753239E+03</pdfrwt>
<pdfrwt beam="2">  1       -2 0.15037126E-02 0.23753239E+03</pdfrwt>
<totfact> 0.17109065E+04</totfact>
</mgrwt>
</event>
<event>
 4    1  0.6207184E-004  0.5396219E+03  0.7818608E-02  0.1003925E+00
          2   -1    0    0  501    0  0.00000000000E+00  0.00000000000E+00  0.10107252601E+04  0.10107252601E+04  0.25500000000E-02 0.  1.
         -2   -1    0    0    0  501 -0.00000000000E+00 -0.00000000000E+00 -0.72025453362E+02  0.72025453407E+02  0.25500000000E-02 0. -1.
    5000001    1    1    2    0    0  0.15285453834E+03  0.20529760091E+03  0.39542654459E+03  0.47728688124E+03  0.77000000000E+02 0.  0.
   -5000001    1    1    2    0    0 -0.15285453834E+03 -0.20529760091E+03  0.54327326215E+03  0.60546383228E+03  0.77000000000E+02 0.  0.
<mgrwt>
<rscale>  0 0.53962189E+03</rscale>
<asrwt>0</asrwt>
<pdfrwt beam="1">  1        2 0.15549618E+00 0.53962189E+03</pdfrwt>
<pdfrwt beam="2">  1       -2 0.11080840E-01 0.53962189E+03</pdfrwt>
<totfact> 0.14498759E+03</totfact>
</mgrwt>
</event>
<event>
 4    1  0.6207184E-004  0.1896725E+03  0.7818608E-02  0.1158757E+00
          2   -1    0    0  501    0  0.00000000000E+00  0.00000000000E+00  0.35655038394E+02  0.35655038485E+02  0.25500000000E-02 0.  1.
         -2   -1    0    0    0  501 -0.00000000000E+00 -0.00000000000E+00 -0.25224794931E+03  0.25224794932E+03  0.25500000000E-02 0. -1.
    5000001    1    1    2    0    0  0.26022394999E+02 -0.46838514505E+02 -0.87160128622E+02  0.12805037877E+03  0.77000000000E+02 0.  0.
   -5000001    1    1    2    0    0 -0.26022394999E+02  0.46838514505E+02 -0.12943278229E+03  0.15985260903E+03  0.77000000000E+02 0.  0.
<mgrwt>
<rscale>  0 0.18967246E+03</rscale>
<asrwt>0</asrwt>
<pdfrwt beam="1">  1        2 0.54853907E-02 0.18967246E+03</pdfrwt>
<pdfrwt beam="2">  1       -2 0.38807376E-01 0.18967246E+03</pdfrwt>
<totfact> 0.84876923E+03</totfact>
</mgrwt>
</event>
<event>
 4    1  0.6207184E-004  0.2096333E+03  0.7818608E-02  0.1141857E+00
         -2   -1    0    0    0  501 -0.00000000000E+00  0.00000000000E+00  0.46674438099E+02  0.46674438169E+02  0.25500000000E-02 0. -1.
          2   -1    0    0  501    0  0.00000000000E+00 -0.00000000000E+00 -0.23538650996E+03  0.23538650998E+03  0.25500000000E-02 0.  1.
    5000001    1    1    2    0    0 -0.65030334067E+02  0.27471094205E+02 -0.82787288737E+02  0.13329043680E+03  0.77000000000E+02 0.  0.
   -5000001    1    1    2    0    0  0.65030334067E+02 -0.27471094205E+02 -0.10592478313E+03  0.14877051135E+03  0.77000000000E+02 0.  0.
<mgrwt>
<rscale>  0 0.20963333E+03</rscale>
<asrwt>0</asrwt>
<pdfrwt beam="1">  1        2 0.36213308E-01 0.20963333E+03</pdfrwt>
<pdfrwt beam="2">  1       -2 0.71806829E-02 0.20963333E+03</pdfrwt>
<totfact> 0.15488951E+04</totfact>
</mgrwt>
</event>
<event>
 4    1  0.6207184E-004  0.2247234E+03  0.7818608E-02  0.1130410E+00
          2   -1    0    0  501    0  0.00000000000E+00  0.00000000000E+00  0.11448333207E+03  0.11448333210E+03  0.25500000000E-02 0.  1.
         -2   -1    0    0    0  501 -0.00000000000E+00 -0.00000000000E+00 -0.11027938584E+03  0.11027938587E+03  0.25500000000E-02 0. -1.
    5000001    1    1    2    0    0 -0.31786559880E+02 -0.59183325001E+02 -0.44629859784E+02  0.11150729004E+03  0.77000000000E+02 0.  0.
   -5000001    1    1    2    0    0  0.31786559880E+02  0.59183325001E+02  0.48833806013E+02  0.11325542794E+03  0.77000000000E+02 0.  0.
<mgrwt>
<rscale>  0 0.22472340E+03</rscale>
<asrwt>0</asrwt>
<pdfrwt beam="1">  1        2 0.17612820E-01 0.22472340E+03</pdfrwt>
<pdfrwt beam="2">  1       -2 0.16966059E-01 0.22472340E+03</pdfrwt>
<totfact> 0.87676950E+03</totfact>
</mgrwt>
</event>
<event>
 4    1  0.6207184E-004  0.1928179E+03  0.7818608E-02  0.1155944E+00
          2   -1    0    0  501    0  0.00000000000E+00  0.00000000000E+00  0.83492291433E+03  0.83492291433E+03  0.25500000000E-02 0.  1.
         -2   -1    0    0    0  501 -0.00000000000E+00 -0.00000000000E+00 -0.11132384275E+02  0.11132384567E+02  0.25500000000E-02 0. -1.
    5000001    1    1    2    0    0  0.42890137567E+02 -0.24653302650E+02  0.27892586554E+03  0.29355746916E+03  0.77000000000E+02 0.  0.
   -5000001    1    1    2    0    0 -0.42890137567E+02  0.24653302650E+02  0.54486466451E+03  0.55249782974E+03  0.77000000000E+02 0.  0.
<mgrwt>
<rscale>  0 0.19281787E+03</rscale>
<asrwt>0</asrwt>
<pdfrwt beam="1">  1        2 0.12844968E+00 0.19281787E+03</pdfrwt>
<pdfrwt beam="2">  1       -2 0.17126745E-02 0.19281787E+03</pdfrwt>
<totfact> 0.31666131E+04</totfact>
</mgrwt>
</event>
<event>
 4    1  0.6207184E-004  0.3270766E+03  0.7818608E-02  0.1072438E+00
         -2   -1    0    0    0  501 -0.00000000000E+00  0.00000000000E+00  0.25971761851E+03  0.25971761853E+03  0.25500000000E-02 0. -1.
          2   -1    0    0  501    0  0.00000000000E+00 -0.00000000000E+00 -0.10297636862E+03  0.10297636865E+03  0.25500000000E-02 0.  1.
    5000001    1    1    2    0    0  0.12131106912E+03  0.64265420628E+02  0.29160650139E+02  0.16008049006E+03  0.77000000000E+02 0.  0.
   -5000001    1    1    2    0    0 -0.12131106912E+03 -0.64265420628E+02  0.12758059976E+03  0.20261349712E+03  0.77000000000E+02 0.  0.
<mgrwt>
<rscale>  0 0.32707661E+03</rscale>
<asrwt>0</asrwt>
<pdfrwt beam="1">  1        2 0.15842519E-01 0.32707661E+03</pdfrwt>
<pdfrwt beam="2">  1       -2 0.39956556E-01 0.32707661E+03</pdfrwt>
<totfact> 0.21862386E+03</totfact>
</mgrwt>
</event>
<event>
 4    1  0.6207184E-004  0.1677772E+03  0.7818608E-02  0.1180186E+00
          2   -1    0    0  501    0  0.00000000000E+00  0.00000000000E+00  0.39702200060E+03  0.39702200061E+03  0.25500000000E-02 0.  1.
         -2   -1    0    0    0  501 -0.00000000000E+00 -0.00000000000E+00 -0.17725201696E+02  0.17725201879E+02  0.25500000000E-02 0. -1.
    5000001    1    1    2    0    0  0.27006678523E+02 -0.19090563971E+02  0.18024020578E+03  0.19876957035E+03  0.77000000000E+02 0.  0.
   -5000001    1    1    2    0    0 -0.27006678523E+02  0.19090563971E+02  0.19905659312E+03  0.21597763214E+03  0.77000000000E+02 0.  0.
<mgrwt>
<rscale>  0 0.16777717E+03</rscale>
<asrwt>0</asrwt>
<pdfrwt beam="1">  1        2 0.61080302E-01 0.16777717E+03</pdfrwt>
<pdfrwt beam="2">  1       -2 0.27269544E-02 0.16777717E+03</pdfrwt>
<totfact> 0.37272804E+04</totfact>
</mgrwt>
</event>
<event>
 4    1  0.6207184E-004  0.2441606E+03  0.7818608E-02  0.1117052E+00
          2   -1    0    0  501    0  0.00000000000E+00  0.00000000000E+00  0.93920338249E+03  0.93920338250E+03  0.25500000000E-02 0.  1.
         -2   -1    0    0    0  501 -0.00000000000E+00 -0.00000000000E+00 -0.15868346241E+02  0.15868346446E+02  0.25500000000E-02 0. -1.
    5000001    1    1    2    0    0 -0.72116082809E+02  0.44889690880E+02  0.62571419199E+03  0.63613132591E+03  0.77000000000E+02 0.  0.
   -5000001    1    1    2    0    0  0.72116082809E+02 -0.44889690880E+02  0.29762084427E+03  0.31894040304E+03  0.77000000000E+02 0.  0.
<mgrwt>
<rscale>  0 0.24416064E+03</rscale>
<asrwt>0</asrwt>
<pdfrwt beam="1">  1        2 0.14449283E+00 0.24416064E+03</pdfrwt>
<pdfrwt beam="2">  1       -2 0.24412840E-02 0.24416064E+03</pdfrwt>
<totfact> 0.16351970E+04</totfact>
</mgrwt>
</event>
<event>
 4    1  0.6207184E-004  0.3090933E+03  0.7818608E-02  0.1080781E+00
         -2   -1    0    0    0  501 -0.00000000000E+00  0.00000000000E+00  0.13168026948E+02  0.13168027195E+02  0.25500000000E-02 0. -1.
          2   -1    0    0  501    0  0.00000000000E+00 -0.00000000000E+00 -0.18138382298E+04  0.18138382298E+04  0.25500000000E-02 0.  1.
    5000001    1    1    2    0    0  0.11704484243E+03 -0.55279345126E+02 -0.11051247187E+04  0.11153407304E+04  0.77000000000E+02 0.  0.
   -5000001    1    1    2    0    0 -0.11704484243E+03  0.55279345126E+02 -0.69554548416E+03  0.71166552654E+03  0.77000000000E+02 0.  0.
<mgrwt>
<rscale>  0 0.30909333E+03</rscale>
<asrwt>0</asrwt>
<pdfrwt beam="1">  1        2 0.27905184E+00 0.30909333E+03</pdfrwt>
<pdfrwt beam="2">  1       -2 0.20258518E-02 0.30909333E+03</pdfrwt>
<totfact> 0.70681050E+03</totfact>
</mgrwt>
</event>
<event>
 4    1  0.6207184E-004  0.2026935E+03  0.7818608E-02  0.1147486E+00
         -2   -1    0    0    0  501 -0.00000000000E+00  0.00000000000E+00  0.37417731366E+01  0.37417740056E+01  0.25500000000E-02 0. -1.
          2   -1    0    0  501    0  0.00000000000E+00 -0.00000000000E+00 -0.27449977472E+04  0.27449977472E+04  0.25500000000E-02 0.  1.
    5000001    1    1    2    0    0 -0.45773566214E+02 -0.69896988766E+01 -0.73483451862E+03  0.74030726392E+03  0.77000000000E+02 0.  0.
   -5000001    1    1    2    0    0  0.45773566214E+02  0.69896988766E+01 -0.20064214555E+04  0.20084322573E+04  0.77000000000E+02 0.  0.
<mgrwt>
<rscale>  0 0.20269346E+03</rscale>
<asrwt>0</asrwt>
<pdfrwt beam="1">  1        2 0.42230574E+00 0.20269346E+03</pdfrwt>
<pdfrwt beam="2">  1       -2 0.57565967E-03 0.20269346E+03</pdfrwt>
<totfact> 0.13831537E+04</totfact>
</mgrwt>
</event>
<event>
 4    1  0.6207184E-004  0.3988356E+03  0.7818608E-02  0.1044184E+00
          2   -1    0    0  501    0  0.00000000000E+00  0.00000000000E+00  0.64566925369E+03  0.64566925370E+03  0.25500000000E-02 0.  1.
         -2   -1    0    0    0  501 -0.00000000000E+00 -0.00000000000E+00 -0.61591062473E+02  0.61591062526E+02  0.25500000000E-02 0. -1.
    5000001    1    1    2    0    0  0.18130180843E+03 -0.30572486577E+02  0.30229256953E+03  0.36209780484E+03  0.77000000000E+02 0.  0.
   -5000001    1    1    2    0    0 -0.18130180843E+03  0.30572486577E+02  0.28178562168E+03  0.34516251138E+03  0.77000000000E+02 0.  0.
<mgrwt>
<rscale>  0 0.39883558E+03</rscale>
<asrwt>0</asrwt>
<pdfrwt beam="1">  1        2 0.99333728E-01 0.39883558E+03</pdfrwt>
<pdfrwt beam="2">  1       -2 0.94755484E-02 0.39883558E+03</pdfrwt>
<totfact> 0.33640049E+03</totfact>
</mgrwt>
</event>
<event>
 4    1  0.6207184E-004  0.2851162E+03  0.7818608E-02  0.1092927E+00
          2   -1    0    0  501    0  0.00000000000E+00  0.00000000000E+00  0.41789990795E+03  0.41789990796E+03  0.25500000000E-02 0.  1.
         -2   -1    0    0    0  501 -0.00000000000E+00 -0.00000000000E+00 -0.48630807732E+02  0.48630807799E+02  0.25500000000E-02 0. -1.
    5000001    1    1    2    0    0  0.95856899461E+02 -0.51243602136E+02  0.10153203030E+03  0.16748792527E+03  0.77000000000E+02 0.  0.
   -5000001    1    1    2    0    0 -0.95856899461E+02  0.51243602136E+02  0.26773706992E+03  0.29904279049E+03  0.77000000000E+02 0.  0.
<mgrwt>
<rscale>  0 0.28511619E+03</rscale>
<asrwt>0</asrwt>
<pdfrwt beam="1">  1        2 0.64292295E-01 0.28511619E+03</pdfrwt>
<pdfrwt beam="2">  1       -2 0.74816626E-02 0.28511619E+03</pdfrwt>
<totfact> 0.79534154E+03</totfact>
</mgrwt>
</event>
<event>
 4    1  0.6207184E-004  0.1743016E+03  0.7818608E-02  0.1173435E+00
         -2   -1    0    0    0  501 -0.00000000000E+00  0.00000000000E+00  0.76987463184E+02  0.76987463226E+02  0.25500000000E-02 0. -1.
          2   -1    0    0  501    0  0.00000000000E+00 -0.00000000000E+00 -0.98655822532E+02  0.98655822565E+02  0.25500000000E-02 0.  1.
    5000001    1    1    2    0    0  0.35195211699E+02  0.20042253213E+02 -0.15959257484E+02  0.88453901779E+02  0.77000000000E+02 0.  0.
   -5000001    1    1    2    0    0 -0.35195211699E+02 -0.20042253213E+02 -0.57091018640E+01  0.87189384013E+02  0.77000000000E+02 0.  0.
<mgrwt>
<rscale>  0 0.17430160E+03</rscale>
<asrwt>0</asrwt>
<pdfrwt beam="1">  1        2 0.15177819E-01 0.17430160E+03</pdfrwt>
<pdfrwt beam="2">  1       -2 0.11844225E-01 0.17430160E+03</pdfrwt>
<totfact> 0.18439557E+04</totfact>
</mgrwt>
</event>
<event>
 4    1  0.6207184E-004  0.2338079E+03  0.7818608E-02  0.1123988E+00
          2   -1    0    0  501    0  0.00000000000E+00  0.00000000000E+00  0.94921148543E+02  0.94921148577E+02  0.25500000000E-02 0.  1.
         -2   -1    0    0    0  501 -0.00000000000E+00 -0.00000000000E+00 -0.14397775973E+03  0.14397775975E+03  0.25500000000E-02 0. -1.
    5000001    1    1    2    0    0  0.86698641234E+02 -0.14754825535E+02 -0.22707637914E+02  0.11907558981E+03  0.77000000000E+02 0.  0.
   -5000001    1    1    2    0    0 -0.86698641234E+02  0.14754825535E+02 -0.26348973268E+02  0.11982331852E+03  0.77000000000E+02 0.  0.
<mgrwt>
<rscale>  0 0.23380791E+03</rscale>
<asrwt>0</asrwt>
<pdfrwt beam="1">  1        2 0.14603254E-01 0.23380791E+03</pdfrwt>
<pdfrwt beam="2">  1       -2 0.22150424E-01 0.23380791E+03</pdfrwt>
<totfact> 0.69573263E+03</totfact>
</mgrwt>
</event>
<event>
 4    1  0.6207184E-004  0.3550182E+03  0.7818608E-02  0.1060574E+00
          2   -1    0    0  501    0  0.00000000000E+00  0.00000000000E+00  0.32266027379E+04  0.32266027379E+04  0.25500000000E-02 0.  1.
         -2   -1    0    0    0  501 -0.00000000000E+00 -0.00000000000E+00 -0.97655294654E+01  0.97655297983E+01  0.25500000000E-02 0. -1.
    5000001    1    1    2    0    0 -0.11765436217E+03 -0.34949271863E+02  0.67356722413E+03  0.68897445959E+03  0.77000000000E+02 0.  0.
   -5000001    1    1    2    0    0  0.11765436217E+03  0.34949271863E+02  0.25432699843E+04  0.25473938082E+04  0.77000000000E+02 0.  0.
<mgrwt>
<rscale>  0 0.35501822E+03</rscale>
<asrwt>0</asrwt>
<pdfrwt beam="1">  1        2 0.49640068E+00 0.35501822E+03</pdfrwt>
<pdfrwt beam="2">  1       -2 0.15023884E-02 0.35501822E+03</pdfrwt>
<totfact> 0.17676111E+03</totfact>
</mgrwt>
</event>
<event>
 4    1  0.6207184E-004  0.3894501E+03  0.7818608E-02  0.1047495E+00
          2   -1    0    0  501    0  0.00000000000E+00  0.00000000000E+00  0.44786579316E+04  0.44786579316E+04  0.25500000000E-02 0.  1.
         -2   -1    0    0    0  501 -0.00000000000E+00 -0.00000000000E+00 -0.84663407161E+01  0.84663411002E+01  0.25500000000E-02 0. -1.
    5000001    1    1    2    0    0 -0.98742730343E+01  0.17620443873E+03  0.25696892694E+04  0.25768929832E+04  0.77000000000E+02 0.  0.
   -5000001    1    1    2    0    0  0.98742730343E+01 -0.17620443873E+03  0.19005023215E+04  0.19102312895E+04  0.77000000000E+02 0.  0.
<mgrwt>
<rscale>  0 0.38945010E+03</rscale>
<asrwt>0</asrwt>
<pdfrwt beam="1">  1        2 0.68902248E+00 0.38945010E+03</pdfrwt>
<pdfrwt beam="2">  1       -2 0.13025174E-02 0.38945010E+03</pdfrwt>
<totfact> 0.24877047E+02</totfact>
</mgrwt>
</event>
<event>
 4    1  0.6207184E-004  0.2134921E+03  0.7818608E-02  0.1138830E+00
          2   -1    0    0  501    0  0.00000000000E+00  0.00000000000E+00  0.14866700490E+04  0.14866700490E+04  0.25500000000E-02 0.  1.
         -2   -1    0    0    0  501 -0.00000000000E+00 -0.00000000000E+00 -0.76645914701E+01  0.76645918943E+01  0.25500000000E-02 0. -1.
    5000001    1    1    2    0    0  0.62251675158E+02 -0.13003514018E+02  0.47561599107E+03  0.48598758564E+03  0.77000000000E+02 0.  0.
   -5000001    1    1    2    0    0 -0.62251675158E+02  0.13003514018E+02  0.10033894664E+04  0.10083470552E+04  0.77000000000E+02 0.  0.
<mgrwt>
<rscale>  0 0.21349210E+03</rscale>
<asrwt>0</asrwt>
<pdfrwt beam="1">  1        2 0.22871871E+00 0.21349210E+03</pdfrwt>
<pdfrwt beam="2">  1       -2 0.11791667E-02 0.21349210E+03</pdfrwt>
<totfact> 0.22983481E+04</totfact>
</mgrwt>
</event>
<event>
 4    1  0.6207184E-004  0.2812783E+03  0.7818608E-02  0.1094993E+00
          2   -1    0    0  501    0  0.00000000000E+00  0.00000000000E+00  0.33435736366E+03  0.33435736367E+03  0.25500000000E-02 0.  1.
         -2   -1    0    0    0  501 -0.00000000000E+00 -0.00000000000E+00 -0.59156389519E+02  0.59156389574E+02  0.25500000000E-02 0. -1.
    5000001    1    1    2    0    0  0.64245746894E+02  0.97462764380E+02  0.11666805580E+03  0.18211793343E+03  0.77000000000E+02 0.  0.
   -5000001    1    1    2    0    0 -0.64245746894E+02 -0.97462764380E+02  0.15853291834E+03  0.21139581981E+03  0.77000000000E+02 0.  0.
<mgrwt>
<rscale>  0 0.28127833E+03</rscale>
<asrwt>0</asrwt>
<pdfrwt beam="1">  1        2 0.51439594E-01 0.28127833E+03</pdfrwt>
<pdfrwt beam="2">  1       -2 0.91009830E-02 0.28127833E+03</pdfrwt>
<totfact> 0.74477797E+03</totfact>
</mgrwt>
</event>
<event>
 4    1  0.6207184E-004  0.9960618E+03  0.7818608E-02  0.9312875E-01
         -2   -1    0    0    0  501 -0.00000000000E+00  0.00000000000E+00  0.98068097202E+02  0.98068097235E+02  0.25500000000E-02 0. -1.
          2   -1    0    0  501    0  0.00000000000E+00 -0.00000000000E+00 -0.25292098946E+04  0.25292098946E+04  0.25500000000E-02 0.  1.
    5000001    1    1    2    0    0 -0.15855565361E+03 -0.38433511728E+03 -0.52144665733E+03  0.67133374271E+03  0.77000000000E+02 0.  0.
   -5000001    1    1    2    0    0  0.15855565361E+03  0.38433511728E+03 -0.19096951401E+04  0.19559442491E+04  0.77000000000E+02 0.  0.
<mgrwt>
<rscale>  0 0.99606185E+03</rscale>
<asrwt>0</asrwt>
<pdfrwt beam="1">  1        2 0.38910917E+00 0.99606185E+03</pdfrwt>
<pdfrwt beam="2">  1       -2 0.15087401E-01 0.99606185E+03</pdfrwt>
<totfact> 0.11777578E+02</totfact>
</mgrwt>
</event>
<event>
 4    1  0.6207184E-004  0.3716730E+03  0.7818608E-02  0.1054055E+00
         -2   -1    0    0    0  501 -0.00000000000E+00  0.00000000000E+00  0.15873712686E+02  0.15873712891E+02  0.25500000000E-02 0. -1.
          2   -1    0    0  501    0  0.00000000000E+00 -0.00000000000E+00 -0.21756228306E+04  0.21756228306E+04  0.25500000000E-02 0.  1.
    5000001    1    1    2    0    0  0.10475771851E+03 -0.12480653024E+03 -0.13471899304E+04  0.13591911411E+04  0.77000000000E+02 0.  0.
   -5000001    1    1    2    0    0 -0.10475771851E+03  0.12480653024E+03 -0.81255918753E+03  0.83230540237E+03  0.77000000000E+02 0.  0.
<mgrwt>
<rscale>  0 0.37167304E+03</rscale>
<asrwt>0</asrwt>
<pdfrwt beam="1">  1        2 0.33471097E+00 0.37167304E+03</pdfrwt>
<pdfrwt beam="2">  1       -2 0.24421114E-02 0.37167304E+03</pdfrwt>
<totfact> 0.34377853E+03</totfact>
</mgrwt>
</event>
<event>
 4    1  0.6207184E-004  0.2536594E+03  0.7818608E-02  0.1111014E+00
          2   -1    0    0  501    0  0.00000000000E+00  0.00000000000E+00  0.19963204476E+04  0.19963204476E+04  0.25500000000E-02 0.  1.
         -2   -1    0    0    0  501 -0.00000000000E+00 -0.00000000000E+00 -0.80577133203E+01  0.80577137238E+01  0.25500000000E-02 0. -1.
    5000001    1    1    2    0    0 -0.77575150354E+02  0.11616298224E+02  0.14941338805E+04  0.14981715173E+04  0.77000000000E+02 0.  0.
   -5000001    1    1    2    0    0  0.77575150354E+02 -0.11616298224E+02  0.49412885381E+03  0.50620664407E+03  0.77000000000E+02 0.  0.
<mgrwt>
<rscale>  0 0.25365944E+03</rscale>
<asrwt>0</asrwt>
<pdfrwt beam="1">  1        2 0.30712647E+00 0.25365944E+03</pdfrwt>
<pdfrwt beam="2">  1       -2 0.12396472E-02 0.25365944E+03</pdfrwt>
<totfact> 0.11615840E+04</totfact>
</mgrwt>
</event>
<event>
 4    1  0.6207184E-004  0.2256836E+03  0.7818608E-02  0.1129715E+00
         -2   -1    0    0    0  501 -0.00000000000E+00  0.00000000000E+00  0.16029402480E+03  0.16029402482E+03  0.25500000000E-02 0. -1.
          2   -1    0    0  501    0  0.00000000000E+00 -0.00000000000E+00 -0.79436957809E+02  0.79436957850E+02  0.25500000000E-02 0.  1.
    5000001    1    1    2    0    0  0.45369930316E+01 -0.51259217412E+02 -0.28052652264E+02  0.96767985277E+02  0.77000000000E+02 0.  0.
   -5000001    1    1    2    0    0 -0.45369930316E+01  0.51259217412E+02  0.10890971926E+03  0.14296299740E+03  0.77000000000E+02 0.  0.
<mgrwt>
<rscale>  0 0.22568358E+03</rscale>
<asrwt>0</asrwt>
<pdfrwt beam="1">  1        2 0.12221070E-01 0.22568358E+03</pdfrwt>
<pdfrwt beam="2">  1       -2 0.24660619E-01 0.22568358E+03</pdfrwt>
<totfact> 0.71298260E+03</totfact>
</mgrwt>
</event>
<event>
 4    1  0.6207184E-004  0.5690106E+03  0.7818608E-02  0.9971870E-01
          2   -1    0    0  501    0  0.00000000000E+00  0.00000000000E+00  0.65241463536E+03  0.65241463537E+03  0.25500000000E-02 0.  1.
         -2   -1    0    0    0  501 -0.00000000000E+00 -0.00000000000E+00 -0.12406721808E+03  0.12406721810E+03  0.25500000000E-02 0. -1.
    5000001    1    1    2    0    0 -0.21462073290E+02  0.14074522045E+03  0.58346047553E+03  0.60549563514E+03  0.77000000000E+02 0.  0.
   -5000001    1    1    2    0    0  0.21462073290E+02 -0.14074522045E+03 -0.55113058246E+02  0.17098621833E+03  0.77000000000E+02 0.  0.
<mgrwt>
<rscale>  0 0.56901061E+03</rscale>
<asrwt>0</asrwt>
<pdfrwt beam="1">  1        2 0.10037149E+00 0.56901061E+03</pdfrwt>
<pdfrwt beam="2">  1       -2 0.19087264E-01 0.56901061E+03</pdfrwt>
<totfact> 0.10402555E+03</totfact>
</mgrwt>
</event>
<event>
 4    1  0.6207184E-004  0.1852352E+03  0.7818608E-02  0.1162830E+00
          2   -1    0    0  501    0  0.00000000000E+00  0.00000000000E+00  0.12710455763E+03  0.12710455765E+03  0.25500000000E-02 0.  1.
         -2   -1    0    0    0  501 -0.00000000000E+00 -0.00000000000E+00 -0.67487919366E+02  0.67487919414E+02  0.25500000000E-02 0. -1.
    5000001    1    1    2    0    0  0.60574204196E+01 -0.43854146368E+02  0.57385974999E+02  0.10574511158E+03  0.77000000000E+02 0.  0.
   -5000001    1    1    2    0    0 -0.60574204196E+01  0.43854146368E+02  0.22306632607E+01  0.88847365489E+02  0.77000000000E+02 0.  0.
<mgrwt>
<rscale>  0 0.18523522E+03</rscale>
<asrwt>0</asrwt>
<pdfrwt beam="1">  1        2 0.19554547E-01 0.18523522E+03</pdfrwt>
<pdfrwt beam="2">  1       -2 0.10382757E-01 0.18523522E+03</pdfrwt>
<totfact> 0.17046244E+04</totfact>
</mgrwt>
</event>
<event>
 4    1  0.6207184E-004  0.6419659E+03  0.7818608E-02  0.9821973E-01
         -2   -1    0    0    0  501 -0.00000000000E+00  0.00000000000E+00  0.40356626089E+03  0.40356626089E+03  0.25500000000E-02 0. -1.
          2   -1    0    0  501    0  0.00000000000E+00 -0.00000000000E+00 -0.25529894779E+03  0.25529894780E+03  0.25500000000E-02 0.  1.
    5000001    1    1    2    0    0 -0.19188401153E+03  0.15807393817E+03  0.26694665140E+03  0.37282215398E+03  0.77000000000E+02 0.  0.
   -5000001    1    1    2    0    0  0.19188401153E+03 -0.15807393817E+03 -0.11867933830E+03  0.28604305471E+03  0.77000000000E+02 0.  0.
<mgrwt>
<rscale>  0 0.64196586E+03</rscale>
<asrwt>0</asrwt>
<pdfrwt beam="1">  1        2 0.39276762E-01 0.64196586E+03</pdfrwt>
<pdfrwt beam="2">  1       -2 0.62087117E-01 0.64196586E+03</pdfrwt>
<totfact> 0.31977921E+02</totfact>
</mgrwt>
</event>
<event>
 4    1  0.6207184E-004  0.2202913E+03  0.7818608E-02  0.1133666E+00
         -2   -1    0    0    0  501 -0.00000000000E+00  0.00000000000E+00  0.62404456951E+01  0.62404462161E+01  0.25500000000E-02 0. -1.
          2   -1    0    0  501    0  0.00000000000E+00 -0.00000000000E+00 -0.19441019819E+04  0.19441019819E+04  0.25500000000E-02 0.  1.
    5000001    1    1    2    0    0 -0.17653706765E+02  0.30623928987E+02 -0.34580839273E+03  0.35603640667E+03  0.77000000000E+02 0.  0.
   -5000001    1    1    2    0    0  0.17653706765E+02 -0.30623928987E+02 -0.15920531435E+04  0.15943060215E+04  0.77000000000E+02 0.  0.
<mgrwt>
<rscale>  0 0.22029129E+03</rscale>
<asrwt>0</asrwt>
<pdfrwt beam="1">  1        2 0.29909213E+00 0.22029129E+03</pdfrwt>
<pdfrwt beam="2">  1       -2 0.96007016E-03 0.22029129E+03</pdfrwt>
<totfact> 0.17853718E+04</totfact>
</mgrwt>
</event>
<event>
 4    1  0.6207184E-004  0.2555438E+03  0.7818608E-02  0.1109851E+00
         -2   -1    0    0    0  501 -0.00000000000E+00  0.00000000000E+00  0.95338641681E+03  0.95338641681E+03  0.25500000000E-02 0. -1.
          2   -1    0    0  501    0  0.00000000000E+00 -0.00000000000E+00 -0.17123867757E+02  0.17123867947E+02  0.25500000000E-02 0.  1.
    5000001    1    1    2    0    0  0.92151202000E+02 -0.28021467657E+02  0.59520897454E+03  0.60784847622E+03  0.77000000000E+02 0.  0.
   -5000001    1    1    2    0    0 -0.92151202000E+02  0.28021467657E+02  0.34105357452E+03  0.36266180853E+03  0.77000000000E+02 0.  0.
<mgrwt>
<rscale>  0 0.25554384E+03</rscale>
<asrwt>0</asrwt>
<pdfrwt beam="1">  1        2 0.26344405E-02 0.25554384E+03</pdfrwt>
<pdfrwt beam="2">  1       -2 0.14667487E+00 0.25554384E+03</pdfrwt>
<totfact> 0.12545300E+03</totfact>
</mgrwt>
</event>
<event>
 4    1  0.6207184E-004  0.2353645E+03  0.7818608E-02  0.1122920E+00
         -2   -1    0    0    0  501 -0.00000000000E+00  0.00000000000E+00  0.16291732236E+03  0.16291732238E+03  0.25500000000E-02 0. -1.
          2   -1    0    0  501    0  0.00000000000E+00 -0.00000000000E+00 -0.85006983082E+02  0.85006983121E+02  0.25500000000E-02 0.  1.
    5000001    1    1    2    0    0  0.32098615323E+02 -0.36157685163E+02  0.11765776807E+03  0.14869448439E+03  0.77000000000E+02 0.  0.
   -5000001    1    1    2    0    0 -0.32098615323E+02  0.36157685163E+02 -0.39747428789E+02  0.99229821109E+02  0.77000000000E+02 0.  0.
<mgrwt>
<rscale>  0 0.23536448E+03</rscale>
<asrwt>0</asrwt>
<pdfrwt beam="1">  1        2 0.13077998E-01 0.23536448E+03</pdfrwt>
<pdfrwt beam="2">  1       -2 0.25064203E-01 0.23536448E+03</pdfrwt>
<totfact> 0.63988130E+03</totfact>
</mgrwt>
</event>
<event>
 4    1  0.6207184E-004  0.2440369E+03  0.7818608E-02  0.1117132E+00
          2   -1    0    0  501    0  0.00000000000E+00  0.00000000000E+00  0.20001329773E+03  0.20001329775E+03  0.25500000000E-02 0.  1.
         -2   -1    0    0    0  501 -0.00000000000E+00 -0.00000000000E+00 -0.74437532065E+02  0.74437532109E+02  0.25500000000E-02 0. -1.
    5000001    1    1    2    0    0 -0.53433644104E+02  0.95242325957E+01 -0.24424373045E+02  0.97321196701E+02  0.77000000000E+02 0.  0.
   -5000001    1    1    2    0    0  0.53433644104E+02 -0.95242325957E+01  0.15000013871E+03  0.17712963316E+03  0.77000000000E+02 0.  0.
<mgrwt>
<rscale>  0 0.24403685E+03</rscale>
<asrwt>0</asrwt>
<pdfrwt beam="1">  1        2 0.30771276E-01 0.24403685E+03</pdfrwt>
<pdfrwt beam="2">  1       -2 0.11451928E-01 0.24403685E+03</pdfrwt>
<totfact> 0.89477644E+03</totfact>
</mgrwt>
</event>
<event>
 4    1  0.6207184E-004  0.4081799E+03  0.7818608E-02  0.1040983E+00
         -2   -1    0    0    0  501 -0.00000000000E+00  0.00000000000E+00  0.22782061898E+03  0.22782061899E+03  0.25500000000E-02 0. -1.
          2   -1    0    0  501    0  0.00000000000E+00 -0.00000000000E+00 -0.18283118260E+03  0.18283118262E+03  0.25500000000E-02 0.  1.
    5000001    1    1    2    0    0 -0.50847896681E+02 -0.15391137062E+03  0.12029190883E+03  0.21604018592E+03  0.77000000000E+02 0.  0.
   -5000001    1    1    2    0    0  0.50847896681E+02  0.15391137062E+03 -0.75302472454E+02  0.19461161569E+03  0.77000000000E+02 0.  0.
<mgrwt>
<rscale>  0 0.40817993E+03</rscale>
<asrwt>0</asrwt>
<pdfrwt beam="1">  1        2 0.28127874E-01 0.40817993E+03</pdfrwt>
<pdfrwt beam="2">  1       -2 0.35049326E-01 0.40817993E+03</pdfrwt>
<totfact> 0.14540099E+03</totfact>
</mgrwt>
</event>
<event>
 4    1  0.6207184E-004  0.3042283E+03  0.7818608E-02  0.1083146E+00
          2   -1    0    0  501    0  0.00000000000E+00  0.00000000000E+00  0.30731771766E+03  0.30731771767E+03  0.25500000000E-02 0.  1.
         -2   -1    0    0    0  501 -0.00000000000E+00 -0.00000000000E+00 -0.75292472755E+02  0.75292472798E+02  0.25500000000E-02 0. -1.
    5000001    1    1    2    0    0  0.18966111675E+02 -0.12029601147E+03  0.17735237926E+03  0.22850319515E+03  0.77000000000E+02 0.  0.
   -5000001    1    1    2    0    0 -0.18966111675E+02  0.12029601147E+03  0.54672865652E+02  0.15410699532E+03  0.77000000000E+02 0.  0.
<mgrwt>
<rscale>  0 0.30422828E+03</rscale>
<asrwt>0</asrwt>
<pdfrwt beam="1">  1        2 0.47279649E-01 0.30422828E+03</pdfrwt>
<pdfrwt beam="2">  1       -2 0.11583457E-01 0.30422828E+03</pdfrwt>
<totfact> 0.55652249E+03</totfact>
</mgrwt>
</event>
<event>
 4    1  0.6207184E-004  0.2316693E+03  0.7818608E-02  0.1125470E+00
         -2   -1    0    0    0  501 -0.00000000000E+00  0.00000000000E+00  0.40788613390E+01  0.40788621361E+01  0.25500000000E-02 0. -1.
          2   -1    0    0  501    0  0.00000000000E+00 -0.00000000000E+00 -0.32895613217E+04  0.32895613217E+04  0.25500000000E-02 0.  1.
    5000001    1    1    2    0    0  0.71942914103E+02 -0.31335994499E+02 -0.11240765860E+04  0.11294400819E+04  0.77000000000E+02 0.  0.
   -5000001    1    1    2    0    0 -0.71942914103E+02  0.31335994499E+02 -0.21614058743E+04  0.21642001019E+04  0.77000000000E+02 0.  0.
<mgrwt>
<rscale>  0 0.23166930E+03</rscale>
<asrwt>0</asrwt>
<pdfrwt beam="1">  1        2 0.50608424E+00 0.23166930E+03</pdfrwt>
<pdfrwt beam="2">  1       -2 0.62751982E-03 0.23166930E+03</pdfrwt>
<totfact> 0.58220643E+03</totfact>
</mgrwt>
</event>
<event>
 4    1  0.6207184E-004  0.2567872E+03  0.7818608E-02  0.1109089E+00
          2   -1    0    0  501    0  0.00000000000E+00  0.00000000000E+00  0.18093667184E+04  0.18093667184E+04  0.25500000000E-02 0.  1.
         -2   -1    0    0    0  501 -0.00000000000E+00 -0.00000000000E+00 -0.91108728646E+01  0.91108732214E+01  0.25500000000E-02 0. -1.
    5000001    1    1    2    0    0 -0.97320381213E+02  0.30846903745E+01  0.11323304161E+04  0.11391145434E+04  0.77000000000E+02 0.  0.
   -5000001    1    1    2    0    0  0.97320381213E+02 -0.30846903745E+01  0.66792542951E+03  0.67936304823E+03  0.77000000000E+02 0.  0.
<mgrwt>
<rscale>  0 0.25678715E+03</rscale>
<asrwt>0</asrwt>
<pdfrwt beam="1">  1        2 0.27836420E+00 0.25678715E+03</pdfrwt>
<pdfrwt beam="2">  1       -2 0.14016723E-02 0.25678715E+03</pdfrwt>
<totfact> 0.12171768E+04</totfact>
</mgrwt>
</event>
<event>
 4    1  0.6207184E-004  0.2177204E+03  0.7818608E-02  0.1135594E+00
          2   -1    0    0  501    0  0.00000000000E+00  0.00000000000E+00  0.75298752522E+03  0.75298752523E+03  0.25500000000E-02 0.  1.
         -2   -1    0    0    0  501 -0.00000000000E+00 -0.00000000000E+00 -0.15738031910E+02  0.15738032116E+02  0.25500000000E-02 0. -1.
    5000001    1    1    2    0    0  0.10721310109E+02 -0.76200517089E+02  0.36960122370E+03  0.38529927311E+03  0.77000000000E+02 0.  0.
   -5000001    1    1    2    0    0 -0.10721310109E+02  0.76200517089E+02  0.36764826961E+03  0.38342628424E+03  0.77000000000E+02 0.  0.
<mgrwt>
<rscale>  0 0.21772039E+03</rscale>
<asrwt>0</asrwt>
<pdfrwt beam="1">  1        2 0.11584427E+00 0.21772039E+03</pdfrwt>
<pdfrwt beam="2">  1       -2 0.24212350E-02 0.21772039E+03</pdfrwt>
<totfact> 0.21898670E+04</totfact>
</mgrwt>
</event>
<event>
 4    1  0.6207184E-004  0.4969443E+03  0.7818608E-02  0.1014580E+00
         -2   -1    0    0    0  501 -0.00000000000E+00  0.00000000000E+00  0.21996491439E+02  0.21996491586E+02  0.25500000000E-02 0. -1.
          2   -1    0    0  501    0  0.00000000000E+00 -0.00000000000E+00 -0.28067391332E+04  0.28067391332E+04  0.25500000000E-02 0.  1.
    5000001    1    1    2    0    0  0.11109811523E+03  0.20057941203E+03 -0.10686363080E+04  0.10956675821E+04  0.77000000000E+02 0.  0.
   -5000001    1    1    2    0    0 -0.11109811523E+03 -0.20057941203E+03 -0.17161063337E+04  0.17330680426E+04  0.77000000000E+02 0.  0.
<mgrwt>
<rscale>  0 0.49694432E+03</rscale>
<asrwt>0</asrwt>
<pdfrwt beam="1">  1        2 0.43180574E+00 0.49694432E+03</pdfrwt>
<pdfrwt beam="2">  1       -2 0.33840778E-02 0.49694432E+03</pdfrwt>
<totfact> 0.92608995E+02</totfact>
</mgrwt>
</event>
<event>
 4    1  0.6207184E-004  0.2422622E+03  0.7818608E-02  0.1118295E+00
         -2   -1    0    0    0  501 -0.00000000000E+00  0.00000000000E+00  0.19222702497E+03  0.19222702499E+03  0.25500000000E-02 0. -1.
          2   -1    0    0  501    0  0.00000000000E+00 -0.00000000000E+00 -0.76330291105E+02  0.76330291147E+02  0.25500000000E-02 0.  1.
    5000001    1    1    2    0    0  0.73049204101E+02 -0.28108543702E+01  0.12258353820E+03  0.16217216456E+03  0.77000000000E+02 0.  0.
   -5000001    1    1    2    0    0 -0.73049204101E+02  0.28108543702E+01 -0.66868043352E+01  0.10638515157E+03  0.77000000000E+02 0.  0.
<mgrwt>
<rscale>  0 0.24226221E+03</rscale>
<asrwt>0</asrwt>
<pdfrwt beam="1">  1        2 0.11743122E-01 0.24226221E+03</pdfrwt>
<pdfrwt beam="2">  1       -2 0.29573388E-01 0.24226221E+03</pdfrwt>
<totfact> 0.54328045E+03</totfact>
</mgrwt>
</event>
<event>
 4    1  0.6207184E-004  0.2662582E+03  0.7818608E-02  0.1103440E+00
          2   -1    0    0  501    0  0.00000000000E+00  0.00000000000E+00  0.50083567397E+04  0.50083567397E+04  0.25500000000E-02 0.  1.
         -2   -1    0    0    0  501 -0.00000000000E+00 -0.00000000000E+00 -0.35387564873E+01  0.35387574061E+01  0.25500000000E-02 0. -1.
    5000001    1    1    2    0    0  0.90321575964E+02  0.49497109465E+02  0.31507682755E+04  0.31533914564E+04  0.77000000000E+02 0.  0.
   -5000001    1    1    2    0    0 -0.90321575964E+02 -0.49497109465E+02  0.18540497077E+04  0.18585040407E+04  0.77000000000E+02 0.  0.
<mgrwt>
<rscale>  0 0.26625820E+03</rscale>
<asrwt>0</asrwt>
<pdfrwt beam="1">  1        2 0.77051486E+00 0.26625820E+03</pdfrwt>
<pdfrwt beam="2">  1       -2 0.54442525E-03 0.26625820E+03</pdfrwt>
<totfact> 0.25506992E+02</totfact>
</mgrwt>
</event>
<event>
 4    1  0.6207184E-004  0.2395084E+03  0.7818608E-02  0.1120121E+00
         -2   -1    0    0    0  501 -0.00000000000E+00  0.00000000000E+00  0.38981210264E+02  0.38981210348E+02  0.25500000000E-02 0. -1.
          2   -1    0    0  501    0  0.00000000000E+00 -0.00000000000E+00 -0.36789692182E+03  0.36789692183E+03  0.25500000000E-02 0.  1.
    5000001    1    1    2    0    0  0.68410934556E+02  0.57040061463E+02 -0.12729932060E+03  0.17340052365E+03  0.77000000000E+02 0.  0.
   -5000001    1    1    2    0    0 -0.68410934556E+02 -0.57040061463E+02 -0.20161639096E+03  0.23347760852E+03  0.77000000000E+02 0.  0.
<mgrwt>
<rscale>  0 0.23950839E+03</rscale>
<asrwt>0</asrwt>
<pdfrwt beam="1">  1        2 0.56599524E-01 0.23950839E+03</pdfrwt>
<pdfrwt beam="2">  1       -2 0.59971095E-02 0.23950839E+03</pdfrwt>
<totfact> 0.12750689E+04</totfact>
</mgrwt>
</event>
<event>
 4    1  0.6207184E-004  0.2215903E+03  0.7818608E-02  0.1132703E+00
         -2   -1    0    0    0  501 -0.00000000000E+00  0.00000000000E+00  0.23608185671E+02  0.23608185809E+02  0.25500000000E-02 0. -1.
          2   -1    0    0  501    0  0.00000000000E+00 -0.00000000000E+00 -0.51997063284E+03  0.51997063285E+03  0.25500000000E-02 0.  1.
    5000001    1    1    2    0    0 -0.21751660646E+02  0.53067612041E+02 -0.38381810498E+03  0.39564459291E+03  0.77000000000E+02 0.  0.
   -5000001    1    1    2    0    0  0.21751660646E+02 -0.53067612041E+02 -0.11254434220E+03  0.14793422575E+03  0.77000000000E+02 0.  0.
<mgrwt>
<rscale>  0 0.22159028E+03</rscale>
<asrwt>0</asrwt>
<pdfrwt beam="1">  1        2 0.79995474E-01 0.22159028E+03</pdfrwt>
<pdfrwt beam="2">  1       -2 0.36320290E-02 0.22159028E+03</pdfrwt>
<totfact> 0.18540103E+04</totfact>
</mgrwt>
</event>
<event>
 4    1  0.6207184E-004  0.2955838E+03  0.7818608E-02  0.1087469E+00
          2   -1    0    0  501    0  0.00000000000E+00  0.00000000000E+00  0.58013477933E+03  0.58013477934E+03  0.25500000000E-02 0.  1.
         -2   -1    0    0    0  501 -0.00000000000E+00 -0.00000000000E+00 -0.37650649888E+02  0.37650649975E+02  0.25500000000E-02 0. -1.
    5000001    1    1    2    0    0  0.61594596474E+01 -0.12256862008E+03  0.33226462062E+03  0.36247728713E+03  0.77000000000E+02 0.  0.
   -5000001    1    1    2    0    0 -0.61594596474E+01  0.12256862008E+03  0.21021950883E+03  0.25530814218E+03  0.77000000000E+02 0.  0.
<mgrwt>
<rscale>  0 0.29558384E+03</rscale>
<asrwt>0</asrwt>
<pdfrwt beam="1">  1        2 0.89251496E-01 0.29558384E+03</pdfrwt>
<pdfrwt beam="2">  1       -2 0.57924082E-02 0.29558384E+03</pdfrwt>
<totfact> 0.81886333E+03</totfact>
</mgrwt>
</event>
<event>
 4    1  0.6207184E-004  0.3706211E+03  0.7818608E-02  0.1054456E+00
          2   -1    0    0  501    0  0.00000000000E+00  0.00000000000E+00  0.12906019660E+04  0.12906019660E+04  0.25500000000E-02 0.  1.
         -2   -1    0    0    0  501 -0.00000000000E+00 -0.00000000000E+00 -0.26607741155E+02  0.26607741278E+02  0.25500000000E-02 0. -1.
    5000001    1    1    2    0    0  0.15609245009E+03 -0.58465913415E+02  0.54294062742E+03  0.57314626485E+03  0.77000000000E+02 0.  0.
   -5000001    1    1    2    0    0 -0.15609245009E+03  0.58465913415E+02  0.72105359744E+03  0.74406344245E+03  0.77000000000E+02 0.  0.
<mgrwt>
<rscale>  0 0.37062112E+03</rscale>
<asrwt>0</asrwt>
<pdfrwt beam="1">  1        2 0.19855415E+00 0.37062112E+03</pdfrwt>
<pdfrwt beam="2">  1       -2 0.40934986E-02 0.37062112E+03</pdfrwt>
<totfact> 0.47300228E+03</totfact>
</mgrwt>
</event>
<event>
 4    1  0.6207184E-004  0.1595889E+03  0.7818608E-02  0.1189162E+00
         -2   -1    0    0    0  501 -0.00000000000E+00  0.00000000000E+00  0.42830953967E+02  0.42830954043E+02  0.25500000000E-02 0. -1.
          2   -1    0    0  501    0  0.00000000000E+00 -0.00000000000E+00 -0.14865780876E+03  0.14865780879E+03  0.25500000000E-02 0.  1.
    5000001    1    1    2    0    0  0.28096237469E+01 -0.14019468169E+02 -0.71257048081E+02  0.10588203991E+03  0.77000000000E+02 0.  0.
   -5000001    1    1    2    0    0 -0.28096237469E+01  0.14019468169E+02 -0.34569806716E+02  0.85606722924E+02  0.77000000000E+02 0.  0.
<mgrwt>
<rscale>  0 0.15958892E+03</rscale>
<asrwt>0</asrwt>
<pdfrwt beam="1">  1        2 0.22870432E-01 0.15958892E+03</pdfrwt>
<pdfrwt beam="2">  1       -2 0.65893776E-02 0.15958892E+03</pdfrwt>
<totfact> 0.28598156E+04</totfact>
</mgrwt>
</event>
<event>
 4    1  0.6207184E-004  0.3135076E+03  0.7818608E-02  0.1078677E+00
         -2   -1    0    0    0  501 -0.00000000000E+00  0.00000000000E+00  0.72850680637E+01  0.72850685099E+01  0.25500000000E-02 0. -1.
          2   -1    0    0  501    0  0.00000000000E+00 -0.00000000000E+00 -0.33728924727E+04  0.33728924727E+04  0.25500000000E-02 0.  1.
    5000001    1    1    2    0    0 -0.12844105631E+03 -0.43973561671E+02 -0.15258282853E+04  0.15337899906E+04  0.77000000000E+02 0.  0.
   -5000001    1    1    2    0    0  0.12844105631E+03  0.43973561671E+02 -0.18397791194E+04  0.18463875506E+04  0.77000000000E+02 0.  0.
<mgrwt>
<rscale>  0 0.31350759E+03</rscale>
<asrwt>0</asrwt>
<pdfrwt beam="1">  1        2 0.51890529E+00 0.31350759E+03</pdfrwt>
<pdfrwt beam="2">  1       -2 0.11207824E-02 0.31350759E+03</pdfrwt>
<totfact> 0.22053772E+03</totfact>
</mgrwt>
</event>
<event>
 4    1  0.6207184E-004  0.2769969E+03  0.7818608E-02  0.1097341E+00
         -2   -1    0    0    0  501 -0.00000000000E+00  0.00000000000E+00  0.28970360954E+02  0.28970361066E+02  0.25500000000E-02 0. -1.
          2   -1    0    0  501    0  0.00000000000E+00 -0.00000000000E+00 -0.66211896800E+03  0.66211896800E+03  0.25500000000E-02 0.  1.
    5000001    1    1    2    0    0  0.31487975897E+02 -0.88439966385E+02 -0.15033401163E+03  0.19324190884E+03  0.77000000000E+02 0.  0.
   -5000001    1    1    2    0    0 -0.31487975897E+02  0.88439966385E+02 -0.48281459542E+03  0.49784742023E+03  0.77000000000E+02 0.  0.
<mgrwt>
<rscale>  0 0.27699694E+03</rscale>
<asrwt>0</asrwt>
<pdfrwt beam="1">  1        2 0.10186445E+00 0.27699694E+03</pdfrwt>
<pdfrwt beam="2">  1       -2 0.44569791E-02 0.27699694E+03</pdfrwt>
<totfact> 0.10428099E+04</totfact>
</mgrwt>
</event>
<event>
 4    1  0.6207184E-004  0.1889164E+03  0.7818608E-02  0.1159442E+00
          2   -1    0    0  501    0  0.00000000000E+00  0.00000000000E+00  0.21781085097E+04  0.21781085097E+04  0.25500000000E-02 0.  1.
         -2   -1    0    0    0  501 -0.00000000000E+00 -0.00000000000E+00 -0.40963746406E+01  0.40963754343E+01  0.25500000000E-02 0. -1.
    5000001    1    1    2    0    0  0.24770495108E+02 -0.48736464109E+02  0.11115885435E+04  0.11155926275E+04  0.77000000000E+02 0.  0.
   -5000001    1    1    2    0    0 -0.24770495108E+02  0.48736464109E+02  0.10624235916E+04  0.10666122577E+04  0.77000000000E+02 0.  0.
<mgrwt>
<rscale>  0 0.18891638E+03</rscale>
<asrwt>0</asrwt>
<pdfrwt beam="1">  1        2 0.33509373E+00 0.18891638E+03</pdfrwt>
<pdfrwt beam="2">  1       -2 0.63021133E-03 0.18891638E+03</pdfrwt>
<totfact> 0.24543590E+04</totfact>
</mgrwt>
</event>
<event>
 4    1  0.6207184E-004  0.1802535E+03  0.7818608E-02  0.1167558E+00
         -2   -1    0    0    0  501 -0.00000000000E+00  0.00000000000E+00  0.11142867963E+02  0.11142868254E+02  0.25500000000E-02 0. -1.
          2   -1    0    0  501    0  0.00000000000E+00 -0.00000000000E+00 -0.72897156675E+03  0.72897156675E+03  0.25500000000E-02 0.  1.
    5000001    1    1    2    0    0  0.28550692914E+02 -0.34962015384E+02 -0.30757347566E+03  0.32026227926E+03  0.77000000000E+02 0.  0.
   -5000001    1    1    2    0    0 -0.28550692914E+02  0.34962015384E+02 -0.41025522313E+03  0.41985215575E+03  0.77000000000E+02 0.  0.
<mgrwt>
<rscale>  0 0.18025353E+03</rscale>
<asrwt>0</asrwt>
<pdfrwt beam="1">  1        2 0.11214943E+00 0.18025353E+03</pdfrwt>
<pdfrwt beam="2">  1       -2 0.17142880E-02 0.18025353E+03</pdfrwt>
<totfact> 0.37252188E+04</totfact>
</mgrwt>
</event>
<event>
 4    1  0.6207184E-004  0.1662694E+03  0.7818608E-02  0.1181795E+00
          2   -1    0    0  501    0  0.00000000000E+00  0.00000000000E+00  0.14652077333E+03  0.14652077335E+03  0.25500000000E-02 0.  1.
         -2   -1    0    0    0  501 -0.00000000000E+00 -0.00000000000E+00 -0.47169941148E+02  0.47169941217E+02  0.25500000000E-02 0. -1.
    5000001    1    1    2    0    0 -0.27823036783E+02 -0.13579965972E+02  0.55363215965E+02  0.99762831423E+02  0.77000000000E+02 0.  0.
   -5000001    1    1    2    0    0  0.27823036783E+02  0.13579965972E+02  0.43987616216E+02  0.93927883144E+02  0.77000000000E+02 0.  0.
<mgrwt>
<rscale>  0 0.16626937E+03</rscale>
<asrwt>0</asrwt>
<pdfrwt beam="1">  1        2 0.22541657E-01 0.16626937E+03</pdfrwt>
<pdfrwt beam="2">  1       -2 0.72569140E-02 0.16626937E+03</pdfrwt>
<totfact> 0.25160908E+04</totfact>
</mgrwt>
</event>
<event>
 4    1  0.6207184E-004  0.2286303E+03  0.7818608E-02  0.1127608E+00
         -2   -1    0    0    0  501 -0.00000000000E+00  0.00000000000E+00  0.66285967488E+01  0.66285972393E+01  0.25500000000E-02 0. -1.
          2   -1    0    0  501    0  0.00000000000E+00 -0.00000000000E+00 -0.19714513476E+04  0.19714513476E+04  0.25500000000E-02 0.  1.
    5000001    1    1    2    0    0  0.45391994851E+02 -0.70920310118E+02 -0.92195163945E+03  0.92898544072E+03  0.77000000000E+02 0.  0.
   -5000001    1    1    2    0    0 -0.45391994851E+02  0.70920310118E+02 -0.10428711114E+04  0.10490945041E+04  0.77000000000E+02 0.  0.
<mgrwt>
<rscale>  0 0.22863033E+03</rscale>
<asrwt>0</asrwt>
<pdfrwt beam="1">  1        2 0.30329974E+00 0.22863033E+03</pdfrwt>
<pdfrwt beam="2">  1       -2 0.10197857E-02 0.22863033E+03</pdfrwt>
<totfact> 0.15851068E+04</totfact>
</mgrwt>
</event>
<event>
 4    1  0.6207184E-004  0.2894429E+03  0.7818608E-02  0.1090640E+00
          2   -1    0    0  501    0  0.00000000000E+00  0.00000000000E+00  0.31549334407E+04  0.31549334407E+04  0.25500000000E-02 0.  1.
         -2   -1    0    0    0  501 -0.00000000000E+00 -0.00000000000E+00 -0.66385848559E+01  0.66385853456E+01  0.25500000000E-02 0. -1.
    5000001    1    1    2    0    0  0.96908981782E+02  0.72027794142E+02  0.18022098376E+04  0.18078906639E+04  0.77000000000E+02 0.  0.
   -5000001    1    1    2    0    0 -0.96908981782E+02 -0.72027794142E+02  0.13460850183E+04  0.13536813622E+04  0.77000000000E+02 0.  0.
<mgrwt>
<rscale>  0 0.28944287E+03</rscale>
<asrwt>0</asrwt>
<pdfrwt beam="1">  1        2 0.48537434E+00 0.28944287E+03</pdfrwt>
<pdfrwt beam="2">  1       -2 0.10213209E-02 0.28944287E+03</pdfrwt>
<totfact> 0.34707178E+03</totfact>
</mgrwt>
</event>
<event>
 4    1  0.6207184E-004  0.1927109E+03  0.7818608E-02  0.1156039E+00
         -2   -1    0    0    0  501 -0.00000000000E+00  0.00000000000E+00  0.36539173598E+02  0.36539173687E+02  0.25500000000E-02 0. -1.
          2   -1    0    0  501    0  0.00000000000E+00 -0.00000000000E+00 -0.25409373516E+03  0.25409373517E+03  0.25500000000E-02 0.  1.
    5000001    1    1    2    0    0  0.57692542823E+02  0.44110285135E+01 -0.10465028289E+03  0.14222717173E+03  0.77000000000E+02 0.  0.
   -5000001    1    1    2    0    0 -0.57692542823E+02 -0.44110285135E+01 -0.11290427867E+03  0.14840573712E+03  0.77000000000E+02 0.  0.
<mgrwt>
<rscale>  0 0.19271092E+03</rscale>
<asrwt>0</asrwt>
<pdfrwt beam="1">  1        2 0.39091343E-01 0.19271092E+03</pdfrwt>
<pdfrwt beam="2">  1       -2 0.56214115E-02 0.19271092E+03</pdfrwt>
<totfact> 0.20633841E+04</totfact>
</mgrwt>
</event>
<event>
 4    1  0.6207184E-004  0.3091020E+03  0.7818608E-02  0.1080777E+00
         -2   -1    0    0    0  501 -0.00000000000E+00  0.00000000000E+00  0.95434923124E+01  0.95434926531E+01  0.25500000000E-02 0. -1.
          2   -1    0    0  501    0  0.00000000000E+00 -0.00000000000E+00 -0.25028589329E+04  0.25028589329E+04  0.25500000000E-02 0.  1.
    5000001    1    1    2    0    0  0.11106348289E+03 -0.40947816276E+01 -0.18551863431E+04  0.18601067798E+04  0.77000000000E+02 0.  0.
   -5000001    1    1    2    0    0 -0.11106348289E+03  0.40947816276E+01 -0.63812909745E+03  0.65229564576E+03  0.77000000000E+02 0.  0.
<mgrwt>
<rscale>  0 0.30910202E+03</rscale>
<asrwt>0</asrwt>
<pdfrwt beam="1">  1        2 0.38505470E+00 0.30910202E+03</pdfrwt>
<pdfrwt beam="2">  1       -2 0.14682316E-02 0.30910202E+03</pdfrwt>
<totfact> 0.48598818E+03</totfact>
</mgrwt>
</event>
<event>
 4    1  0.6207184E-004  0.3074711E+03  0.7818608E-02  0.1081564E+00
          2   -1    0    0  501    0  0.00000000000E+00  0.00000000000E+00  0.16798630824E+04  0.16798630824E+04  0.25500000000E-02 0.  1.
         -2   -1    0    0    0  501 -0.00000000000E+00 -0.00000000000E+00 -0.14069368844E+02  0.14069369075E+02  0.25500000000E-02 0. -1.
    5000001    1    1    2    0    0  0.93380769628E+01 -0.12943819030E+03  0.67094306839E+03  0.68770273070E+03  0.77000000000E+02 0.  0.
   -5000001    1    1    2    0    0 -0.93380769628E+01  0.12943819030E+03  0.99485064512E+03  0.10062297207E+04  0.77000000000E+02 0.  0.
<mgrwt>
<rscale>  0 0.30747106E+03</rscale>
<asrwt>0</asrwt>
<pdfrwt beam="1">  1        2 0.25844037E+00 0.30747106E+03</pdfrwt>
<pdfrwt beam="2">  1       -2 0.21645192E-02 0.30747106E+03</pdfrwt>
<totfact> 0.75431162E+03</totfact>
</mgrwt>
</event>
<event>
 4    1  0.6207184E-004  0.2147843E+03  0.7818608E-02  0.1137832E+00
         -2   -1    0    0    0  501 -0.00000000000E+00  0.00000000000E+00  0.15295479022E+02  0.15295479234E+02  0.25500000000E-02 0. -1.
          2   -1    0    0  501    0  0.00000000000E+00 -0.00000000000E+00 -0.75401840811E+03  0.75401840811E+03  0.25500000000E-02 0.  1.
    5000001    1    1    2    0    0  0.47245910676E+02 -0.20821996464E+02 -0.56351807104E+03  0.57109311675E+03  0.77000000000E+02 0.  0.
   -5000001    1    1    2    0    0 -0.47245910676E+02  0.20821996464E+02 -0.17520485805E+03  0.19822077060E+03  0.77000000000E+02 0.  0.
<mgrwt>
<rscale>  0 0.21478429E+03</rscale>
<asrwt>0</asrwt>
<pdfrwt beam="1">  1        2 0.11600280E+00 0.21478429E+03</pdfrwt>
<pdfrwt beam="2">  1       -2 0.23531512E-02 0.21478429E+03</pdfrwt>
<totfact> 0.22779666E+04</totfact>
</mgrwt>
</event>
<event>
 4    1  0.6207184E-004  0.3755663E+03  0.7818608E-02  0.1052585E+00
          2   -1    0    0  501    0  0.00000000000E+00  0.00000000000E+00  0.11461223878E+04  0.11461223878E+04  0.25500000000E-02 0.  1.
         -2   -1    0    0    0  501 -0.00000000000E+00 -0.00000000000E+00 -0.30766790316E+02  0.30766790421E+02  0.25500000000E-02 0. -1.
    5000001    1    1    2    0    0 -0.97844765275E+02 -0.13980504616E+03  0.51178755853E+03  0.54495371738E+03  0.77000000000E+02 0.  0.
   -5000001    1    1    2    0    0  0.97844765275E+02  0.13980504616E+03  0.60356803895E+03  0.63193546084E+03  0.77000000000E+02 0.  0.
<mgrwt>
<rscale>  0 0.37556628E+03</rscale>
<asrwt>0</asrwt>
<pdfrwt beam="1">  1        2 0.17632650E+00 0.37556628E+03</pdfrwt>
<pdfrwt beam="2">  1       -2 0.47333530E-02 0.37556628E+03</pdfrwt>
<totfact> 0.45877361E+03</totfact>
</mgrwt>
</event>
<event>
 4    1  0.6207184E-004  0.1588430E+03  0.7818608E-02  0.1190009E+00
         -2   -1    0    0    0  501 -0.00000000000E+00  0.00000000000E+00  0.45763116460E+01  0.45763123565E+01  0.25500000000E-02 0. -1.
          2   -1    0    0  501    0  0.00000000000E+00 -0.00000000000E+00 -0.13783533813E+04  0.13783533813E+04  0.25500000000E-02 0.  1.
    5000001    1    1    2    0    0 -0.17652306743E+02  0.58282859971E+01 -0.63672179111E+03  0.64163012096E+03  0.77000000000E+02 0.  0.
   -5000001    1    1    2    0    0  0.17652306743E+02 -0.58282859971E+01 -0.73705527850E+03  0.74129957265E+03  0.77000000000E+02 0.  0.
<mgrwt>
<rscale>  0 0.15884301E+03</rscale>
<asrwt>0</asrwt>
<pdfrwt beam="1">  1        2 0.21205404E+00 0.15884301E+03</pdfrwt>
<pdfrwt beam="2">  1       -2 0.70404910E-03 0.15884301E+03</pdfrwt>
<totfact> 0.54045078E+04</totfact>
</mgrwt>
</event>
<event>
 4    1  0.6207184E-004  0.2013177E+03  0.7818608E-02  0.1148632E+00
          2   -1    0    0  501    0  0.00000000000E+00  0.00000000000E+00  0.17680569929E+03  0.17680569931E+03  0.25500000000E-02 0.  1.
         -2   -1    0    0    0  501 -0.00000000000E+00 -0.00000000000E+00 -0.57307025082E+02  0.57307025139E+02  0.25500000000E-02 0. -1.
    5000001    1    1    2    0    0 -0.42794720641E+02  0.44983063960E+02  0.81453719712E+02  0.12813497810E+03  0.77000000000E+02 0.  0.
   -5000001    1    1    2    0    0  0.42794720641E+02 -0.44983063960E+02  0.38044954497E+02  0.10597774635E+03  0.77000000000E+02 0.  0.
<mgrwt>
<rscale>  0 0.20131775E+03</rscale>
<asrwt>0</asrwt>
<pdfrwt beam="1">  1        2 0.27200877E-01 0.20131775E+03</pdfrwt>
<pdfrwt beam="2">  1       -2 0.88164654E-02 0.20131775E+03</pdfrwt>
<totfact> 0.15330573E+04</totfact>
</mgrwt>
</event>
<event>
 4    1  0.6207184E-004  0.3463428E+03  0.7818608E-02  0.1064126E+00
          2   -1    0    0  501    0  0.00000000000E+00  0.00000000000E+00  0.99672048023E+03  0.99672048024E+03  0.25500000000E-02 0. -1.
         -2   -1    0    0    0  501 -0.00000000000E+00 -0.00000000000E+00 -0.30087013138E+02  0.30087013246E+02  0.25500000000E-02 0.  1.
    5000001    1    1    2    0    0 -0.97048298492E+02  0.54728453721E+02  0.80325548145E+03  0.81459311583E+03  0.77000000000E+02 0.  0.
   -5000001    1    1    2    0    0  0.97048298492E+02 -0.54728453721E+02  0.16337798565E+03  0.21221437765E+03  0.77000000000E+02 0.  0.
<mgrwt>
<rscale>  0 0.34634285E+03</rscale>
<asrwt>0</asrwt>
<pdfrwt beam="1">  1        2 0.15334159E+00 0.34634285E+03</pdfrwt>
<pdfrwt beam="2">  1       -2 0.46287720E-02 0.34634285E+03</pdfrwt>
<totfact> 0.58329370E+03</totfact>
</mgrwt>
</event>
<event>
 4    1  0.6207184E-004  0.3370814E+03  0.7818608E-02  0.1068046E+00
         -2   -1    0    0    0  501 -0.00000000000E+00  0.00000000000E+00  0.16658613792E+04  0.16658613792E+04  0.25500000000E-02 0. -1.
          2   -1    0    0  501    0  0.00000000000E+00 -0.00000000000E+00 -0.17051815360E+02  0.17051815551E+02  0.25500000000E-02 0.  1.
    5000001    1    1    2    0    0 -0.13270826692E+03 -0.84962490868E+00  0.11726277859E+04  0.11826229873E+04  0.77000000000E+02 0.  0.
   -5000001    1    1    2    0    0  0.13270826692E+03  0.84962490868E+00  0.47618177797E+03  0.50029020743E+03  0.77000000000E+02 0.  0.
<mgrwt>
<rscale>  0 0.33708136E+03</rscale>
<asrwt>0</asrwt>
<pdfrwt beam="1">  1        2 0.26233556E-02 0.33708136E+03</pdfrwt>
<pdfrwt beam="2">  1       -2 0.25628643E+00 0.33708136E+03</pdfrwt>
<totfact> 0.24770658E+02</totfact>
</mgrwt>
</event>
<event>
 4    1  0.6207184E-004  0.2451280E+03  0.7818608E-02  0.1116423E+00
         -2   -1    0    0    0  501 -0.00000000000E+00  0.00000000000E+00  0.43770338461E+01  0.43770345889E+01  0.25500000000E-02 0. -1.
          2   -1    0    0  501    0  0.00000000000E+00 -0.00000000000E+00 -0.34319893582E+04  0.34319893582E+04  0.25500000000E-02 0.  1.
    5000001    1    1    2    0    0 -0.23995834087E+02  0.90012276541E+02 -0.14282501772E+04  0.14333546591E+04  0.77000000000E+02 0.  0.
   -5000001    1    1    2    0    0  0.23995834087E+02 -0.90012276541E+02 -0.19993621471E+04  0.20030117337E+04  0.77000000000E+02 0.  0.
<mgrwt>
<rscale>  0 0.24512801E+03</rscale>
<asrwt>0</asrwt>
<pdfrwt beam="1">  1        2 0.52799621E+00 0.24512801E+03</pdfrwt>
<pdfrwt beam="2">  1       -2 0.67339262E-03 0.24512801E+03</pdfrwt>
<totfact> 0.42632626E+03</totfact>
</mgrwt>
</event>
<event>
 4    1  0.6207184E-004  0.1924635E+03  0.7818608E-02  0.1156258E+00
         -2   -1    0    0    0  501 -0.00000000000E+00  0.00000000000E+00  0.10299171136E+03  0.10299171139E+03  0.25500000000E-02 0. -1.
          2   -1    0    0  501    0  0.00000000000E+00 -0.00000000000E+00 -0.89915478649E+02  0.89915478685E+02  0.25500000000E-02 0.  1.
    5000001    1    1    2    0    0  0.41384959652E+02  0.39913323446E+02  0.11625322712E+02  0.96798431816E+02  0.77000000000E+02 0.  0.
   -5000001    1    1    2    0    0 -0.41384959652E+02 -0.39913323446E+02  0.14509099954E+01  0.96108758257E+02  0.77000000000E+02 0.  0.
<mgrwt>
<rscale>  0 0.19246349E+03</rscale>
<asrwt>0</asrwt>
<pdfrwt beam="1">  1        2 0.13833151E-01 0.19246349E+03</pdfrwt>
<pdfrwt beam="2">  1       -2 0.15844879E-01 0.19246349E+03</pdfrwt>
<totfact> 0.12918168E+04</totfact>
</mgrwt>
</event>
<event>
 4    1  0.6207184E-004  0.3803881E+03  0.7818608E-02  0.1050790E+00
          2   -1    0    0  501    0  0.00000000000E+00  0.00000000000E+00  0.86565332558E+03  0.86565332558E+03  0.25500000000E-02 0.  1.
         -2   -1    0    0    0  501 -0.00000000000E+00 -0.00000000000E+00 -0.41787833723E+02  0.41787833801E+02  0.25500000000E-02 0. -1.
    5000001    1    1    2    0    0 -0.13631246999E+03  0.10444014596E+03  0.47752254127E+03  0.51326953054E+03  0.77000000000E+02 0.  0.
   -5000001    1    1    2    0    0  0.13631246999E+03 -0.10444014596E+03  0.34634295058E+03  0.39417162884E+03  0.77000000000E+02 0.  0.
<mgrwt>
<rscale>  0 0.38038810E+03</rscale>
<asrwt>0</asrwt>
<pdfrwt beam="1">  1        2 0.13317743E+00 0.38038810E+03</pdfrwt>
<pdfrwt beam="2">  1       -2 0.64288978E-02 0.38038810E+03</pdfrwt>
<totfact> 0.42776442E+03</totfact>
</mgrwt>
</event>
<event>
 4    1  0.6207184E-004  0.1940563E+03  0.7818608E-02  0.1154853E+00
         -2   -1    0    0    0  501 -0.00000000000E+00  0.00000000000E+00  0.37371631208E+02  0.37371631295E+02  0.25500000000E-02 0. -1.
          2   -1    0    0  501    0  0.00000000000E+00 -0.00000000000E+00 -0.25191464160E+03  0.25191464161E+03  0.25500000000E-02 0.  1.
    5000001    1    1    2    0    0  0.18418096699E+02  0.49827322684E+02 -0.68873237256E+02  0.11616587787E+03  0.77000000000E+02 0.  0.
   -5000001    1    1    2    0    0 -0.18418096699E+02 -0.49827322684E+02 -0.14566977314E+03  0.17312039504E+03  0.77000000000E+02 0.  0.
<mgrwt>
<rscale>  0 0.19405629E+03</rscale>
<asrwt>0</asrwt>
<pdfrwt beam="1">  1        2 0.38756098E-01 0.19405629E+03</pdfrwt>
<pdfrwt beam="2">  1       -2 0.57494819E-02 0.19405629E+03</pdfrwt>
<totfact> 0.20134632E+04</totfact>
</mgrwt>
</event>
<event>
 4    1  0.6207184E-004  0.3972727E+03  0.7818608E-02  0.1044728E+00
          2   -1    0    0  501    0  0.00000000000E+00  0.00000000000E+00  0.11958909733E+03  0.11958909736E+03  0.25500000000E-02 0.  1.
         -2   -1    0    0    0  501 -0.00000000000E+00 -0.00000000000E+00 -0.32993300033E+03  0.32993300034E+03  0.25500000000E-02 0. -1.
    5000001    1    1    2    0    0  0.11306746680E+03  0.13970515442E+03 -0.14478498292E+03  0.24329708897E+03  0.77000000000E+02 0.  0.
   -5000001    1    1    2    0    0 -0.11306746680E+03 -0.13970515442E+03 -0.65558920078E+02  0.20622500873E+03  0.77000000000E+02 0.  0.
<mgrwt>
<rscale>  0 0.39727265E+03</rscale>
<asrwt>0</asrwt>
<pdfrwt beam="1">  1        2 0.18398323E-01 0.39727265E+03</pdfrwt>
<pdfrwt beam="2">  1       -2 0.50758923E-01 0.39727265E+03</pdfrwt>
<totfact> 0.11483565E+03</totfact>
</mgrwt>
</event>
<event>
 4    1  0.6207184E-004  0.3197449E+03  0.7818608E-02  0.1075767E+00
         -2   -1    0    0    0  501 -0.00000000000E+00  0.00000000000E+00  0.90782184926E+02  0.90782184962E+02  0.25500000000E-02 0. -1.
          2   -1    0    0  501    0  0.00000000000E+00 -0.00000000000E+00 -0.28154415399E+03  0.28154415400E+03  0.25500000000E-02 0.  1.
    5000001    1    1    2    0    0 -0.10588407624E+03  0.69705222873E+02 -0.25903930611E+02  0.15056649467E+03  0.77000000000E+02 0.  0.
   -5000001    1    1    2    0    0  0.10588407624E+03 -0.69705222873E+02 -0.16485803846E+03  0.22175984429E+03  0.77000000000E+02 0.  0.
<mgrwt>
<rscale>  0 0.31974486E+03</rscale>
<asrwt>0</asrwt>
<pdfrwt beam="1">  1        2 0.43314485E-01 0.31974486E+03</pdfrwt>
<pdfrwt beam="2">  1       -2 0.13966490E-01 0.31974486E+03</pdfrwt>
<totfact> 0.45164588E+03</totfact>
</mgrwt>
</event>
<event>
 4    1  0.6207184E-004  0.3727420E+03  0.7818608E-02  0.1053649E+00
         -2   -1    0    0    0  501 -0.00000000000E+00  0.00000000000E+00  0.79425201202E+02  0.79425201243E+02  0.25500000000E-02 0. -1.
          2   -1    0    0  501    0  0.00000000000E+00 -0.00000000000E+00 -0.43731893148E+03  0.43731893149E+03  0.25500000000E-02 0.  1.
    5000001    1    1    2    0    0  0.99283639279E+02 -0.12641688955E+03 -0.25445645433E+03  0.31066953205E+03  0.77000000000E+02 0.  0.
   -5000001    1    1    2    0    0 -0.99283639279E+02  0.12641688955E+03 -0.10343727595E+03  0.20607460068E+03  0.77000000000E+02 0.  0.
<mgrwt>
<rscale>  0 0.37274197E+03</rscale>
<asrwt>0</asrwt>
<pdfrwt beam="1">  1        2 0.67279834E-01 0.37274197E+03</pdfrwt>
<pdfrwt beam="2">  1       -2 0.12219262E-01 0.37274197E+03</pdfrwt>
<totfact> 0.34894341E+03</totfact>
</mgrwt>
</event>
<event>
 4    1  0.6207184E-004  0.2114909E+03  0.7818608E-02  0.1140391E+00
          2   -1    0    0  501    0  0.00000000000E+00  0.00000000000E+00  0.25417822505E+03  0.25417822507E+03  0.25500000000E-02 0.  1.
         -2   -1    0    0    0  501 -0.00000000000E+00 -0.00000000000E+00 -0.43993162742E+02  0.43993162816E+02  0.25500000000E-02 0. -1.
    5000001    1    1    2    0    0  0.52131138942E+02  0.44762873201E+02  0.72582211020E+02  0.12616872759E+03  0.77000000000E+02 0.  0.
   -5000001    1    1    2    0    0 -0.52131138942E+02 -0.44762873201E+02  0.13760285129E+03  0.17200266029E+03  0.77000000000E+02 0.  0.
<mgrwt>
<rscale>  0 0.21149094E+03</rscale>
<asrwt>0</asrwt>
<pdfrwt beam="1">  1        2 0.39104342E-01 0.21149094E+03</pdfrwt>
<pdfrwt beam="2">  1       -2 0.67681789E-02 0.21149094E+03</pdfrwt>
<totfact> 0.15630556E+04</totfact>
</mgrwt>
</event>
<event>
 4    1  0.6207184E-004  0.2132908E+03  0.7818608E-02  0.1138986E+00
         -2   -1    0    0    0  501 -0.00000000000E+00  0.00000000000E+00  0.41041186429E+02  0.41041186508E+02  0.25500000000E-02 0. -1.
          2   -1    0    0  501    0  0.00000000000E+00 -0.00000000000E+00 -0.27711767491E+03  0.27711767492E+03  0.25500000000E-02 0.  1.
    5000001    1    1    2    0    0 -0.24264527246E+02  0.68677139433E+02 -0.13561976964E+03  0.17212506698E+03  0.77000000000E+02 0.  0.
   -5000001    1    1    2    0    0  0.24264527246E+02 -0.68677139433E+02 -0.10045671884E+03  0.14603379445E+03  0.77000000000E+02 0.  0.
<mgrwt>
<rscale>  0 0.21329077E+03</rscale>
<asrwt>0</asrwt>
<pdfrwt beam="1">  1        2 0.42633487E-01 0.21329077E+03</pdfrwt>
<pdfrwt beam="2">  1       -2 0.63140289E-02 0.21329077E+03</pdfrwt>
<totfact> 0.15860659E+04</totfact>
</mgrwt>
</event>
<event>
 4    1  0.6207184E-004  0.2200516E+03  0.7818608E-02  0.1133845E+00
         -2   -1    0    0    0  501 -0.00000000000E+00  0.00000000000E+00  0.14076487475E+03  0.14076487478E+03  0.25500000000E-02 0. -1.
          2   -1    0    0  501    0  0.00000000000E+00 -0.00000000000E+00 -0.85999272931E+02  0.85999272968E+02  0.25500000000E-02 0.  1.
    5000001    1    1    2    0    0  0.24171924741E+02  0.48081340208E+02 -0.31640725312E+02  0.99127356063E+02  0.77000000000E+02 0.  0.
   -5000001    1    1    2    0    0 -0.24171924741E+02 -0.48081340208E+02  0.86406327134E+02  0.12763679168E+03  0.77000000000E+02 0.  0.
<mgrwt>
<rscale>  0 0.22005160E+03</rscale>
<asrwt>0</asrwt>
<pdfrwt beam="1">  1        2 0.13230657E-01 0.22005160E+03</pdfrwt>
<pdfrwt beam="2">  1       -2 0.21656135E-01 0.22005160E+03</pdfrwt>
<totfact> 0.81110173E+03</totfact>
</mgrwt>
</event>
<event>
 4    1  0.6207184E-004  0.4939325E+03  0.7818608E-02  0.1015375E+00
         -2   -1    0    0    0  501 -0.00000000000E+00  0.00000000000E+00  0.67880828404E+02  0.67880828452E+02  0.25500000000E-02 0. -1.
          2   -1    0    0  501    0  0.00000000000E+00 -0.00000000000E+00 -0.89852053596E+03  0.89852053596E+03  0.25500000000E-02 0.  1.
    5000001    1    1    2    0    0  0.14863440140E+03 -0.15843476677E+03 -0.58888604419E+03  0.63238400805E+03  0.77000000000E+02 0.  0.
   -5000001    1    1    2    0    0 -0.14863440140E+03  0.15843476677E+03 -0.24175366337E+03  0.33401735636E+03  0.77000000000E+02 0.  0.
<mgrwt>
<rscale>  0 0.49393246E+03</rscale>
<asrwt>0</asrwt>
<pdfrwt beam="1">  1        2 0.13823392E+00 0.49393246E+03</pdfrwt>
<pdfrwt beam="2">  1       -2 0.10443205E-01 0.49393246E+03</pdfrwt>
<totfact> 0.18868773E+03</totfact>
</mgrwt>
</event>
<event>
 4    1  0.6207184E-004  0.1759486E+03  0.7818608E-02  0.1171783E+00
         -2   -1    0    0    0  501 -0.00000000000E+00  0.00000000000E+00  0.57714346926E+02  0.57714346982E+02  0.25500000000E-02 0. -1.
          2   -1    0    0  501    0  0.00000000000E+00 -0.00000000000E+00 -0.13409979043E+03  0.13409979045E+03  0.25500000000E-02 0.  1.
    5000001    1    1    2    0    0  0.20481527984E+02 -0.27959905500E+02 -0.65101019058E+02  0.10662266169E+03  0.77000000000E+02 0.  0.
   -5000001    1    1    2    0    0 -0.20481527984E+02  0.27959905500E+02 -0.11284424446E+02  0.85191475743E+02  0.77000000000E+02 0.  0.
<mgrwt>
<rscale>  0 0.17594865E+03</rscale>
<asrwt>0</asrwt>
<pdfrwt beam="1">  1        2 0.20630737E-01 0.17594865E+03</pdfrwt>
<pdfrwt beam="2">  1       -2 0.88791304E-02 0.17594865E+03</pdfrwt>
<totfact> 0.20431284E+04</totfact>
</mgrwt>
</event>
<event>
 4    1  0.6207184E-004  0.2155359E+03  0.7818608E-02  0.1137256E+00
          2   -1    0    0  501    0  0.00000000000E+00  0.00000000000E+00  0.38296712488E+03  0.38296712489E+03  0.25500000000E-02 0.  1.
         -2   -1    0    0    0  501 -0.00000000000E+00 -0.00000000000E+00 -0.30326194948E+02  0.30326195055E+02  0.25500000000E-02 0. -1.
    5000001    1    1    2    0    0  0.34194299148E+02  0.13421965374E+02  0.50062116883E+02  0.98917211827E+02  0.77000000000E+02 0.  0.
   -5000001    1    1    2    0    0 -0.34194299148E+02 -0.13421965374E+02  0.30257881305E+03  0.31437610812E+03  0.77000000000E+02 0.  0.
<mgrwt>
<rscale>  0 0.21553594E+03</rscale>
<asrwt>0</asrwt>
<pdfrwt beam="1">  1        2 0.58918019E-01 0.21553594E+03</pdfrwt>
<pdfrwt beam="2">  1       -2 0.46655684E-02 0.21553594E+03</pdfrwt>
<totfact> 0.17770299E+04</totfact>
</mgrwt>
</event>
<event>
 4    1  0.6207184E-004  0.2328608E+03  0.7818608E-02  0.1124642E+00
         -2   -1    0    0    0  501 -0.00000000000E+00  0.00000000000E+00  0.20861672371E+03  0.20861672372E+03  0.25500000000E-02 0. -1.
          2   -1    0    0  501    0  0.00000000000E+00 -0.00000000000E+00 -0.64980600961E+02  0.64980601011E+02  0.25500000000E-02 0.  1.
    5000001    1    1    2    0    0  0.45218303607E+02  0.74495234633E+02  0.65088507774E+02  0.13326570755E+03  0.77000000000E+02 0.  0.
   -5000001    1    1    2    0    0 -0.45218303607E+02 -0.74495234633E+02  0.78547614971E+02  0.14033161718E+03  0.77000000000E+02 0.  0.
<mgrwt>
<rscale>  0 0.23286082E+03</rscale>
<asrwt>0</asrwt>
<pdfrwt beam="1">  1        2 0.99970157E-02 0.23286082E+03</pdfrwt>
<pdfrwt beam="2">  1       -2 0.32094880E-01 0.23286082E+03</pdfrwt>
<totfact> 0.56944911E+03</totfact>
</mgrwt>
</event>
<event>
 4    1  0.6207184E-004  0.2017615E+03  0.7818608E-02  0.1148261E+00
          2   -1    0    0  501    0  0.00000000000E+00  0.00000000000E+00  0.78315080899E+03  0.78315080899E+03  0.25500000000E-02 0.  1.
         -2   -1    0    0    0  501 -0.00000000000E+00 -0.00000000000E+00 -0.12994850907E+02  0.12994851158E+02  0.25500000000E-02 0. -1.
    5000001    1    1    2    0    0 -0.31222007097E+02 -0.39327238477E+02  0.22111896529E+03  0.23946616091E+03  0.77000000000E+02 0.  0.
   -5000001    1    1    2    0    0  0.31222007097E+02  0.39327238477E+02  0.54903699279E+03  0.55667949924E+03  0.77000000000E+02 0.  0.
<mgrwt>
<rscale>  0 0.20176152E+03</rscale>
<asrwt>0</asrwt>
<pdfrwt beam="1">  1        2 0.12048475E+00 0.20176152E+03</pdfrwt>
<pdfrwt beam="2">  1       -2 0.19992077E-02 0.20176152E+03</pdfrwt>
<totfact> 0.27487414E+04</totfact>
</mgrwt>
</event>
<event>
 4    1  0.6207184E-004  0.3638599E+03  0.7818608E-02  0.1057066E+00
          2   -1    0    0  501    0  0.00000000000E+00  0.00000000000E+00  0.34031837310E+03  0.34031837311E+03  0.25500000000E-02 0.  1.
         -2   -1    0    0    0  501 -0.00000000000E+00 -0.00000000000E+00 -0.97257473854E+02  0.97257473888E+02  0.25500000000E-02 0. -1.
    5000001    1    1    2    0    0 -0.16332916921E+03  0.45880826357E+01  0.95402381561E+02  0.20427452711E+03  0.77000000000E+02 0.  0.
   -5000001    1    1    2    0    0  0.16332916921E+03 -0.45880826357E+01  0.14765851769E+03  0.23330131989E+03  0.77000000000E+02 0.  0.
<mgrwt>
<rscale>  0 0.36385989E+03</rscale>
<asrwt>0</asrwt>
<pdfrwt beam="1">  1        2 0.52356673E-01 0.36385989E+03</pdfrwt>
<pdfrwt beam="2">  1       -2 0.14962688E-01 0.36385989E+03</pdfrwt>
<totfact> 0.32904678E+03</totfact>
</mgrwt>
</event>
<event>
 4    1  0.6207184E-004  0.2079787E+03  0.7818608E-02  0.1143177E+00
         -2   -1    0    0    0  501 -0.00000000000E+00  0.00000000000E+00  0.36210624243E+03  0.36210624243E+03  0.25500000000E-02 0. -1.
          2   -1    0    0  501    0  0.00000000000E+00 -0.00000000000E+00 -0.29863558622E+02  0.29863558730E+02  0.25500000000E-02 0.  1.
    5000001    1    1    2    0    0 -0.31456412394E+02  0.52293084915E+02  0.10191241775E+03  0.14155992902E+03  0.77000000000E+02 0.  0.
   -5000001    1    1    2    0    0  0.31456412394E+02 -0.52293084915E+02  0.23033026605E+03  0.25040987215E+03  0.77000000000E+02 0.  0.
<mgrwt>
<rscale>  0 0.20797866E+03</rscale>
<asrwt>0</asrwt>
<pdfrwt beam="1">  1        2 0.45943934E-02 0.20797866E+03</pdfrwt>
<pdfrwt beam="2">  1       -2 0.55708656E-01 0.20797866E+03</pdfrwt>
<totfact> 0.53075498E+03</totfact>
</mgrwt>
</event>
<event>
 4    1  0.6207184E-004  0.3660742E+03  0.7818608E-02  0.1056204E+00
         -2   -1    0    0    0  501 -0.00000000000E+00  0.00000000000E+00  0.56843499192E+02  0.56843499249E+02  0.25500000000E-02 0. -1.
          2   -1    0    0  501    0  0.00000000000E+00 -0.00000000000E+00 -0.58938277062E+03  0.58938277063E+03  0.25500000000E-02 0.  1.
    5000001    1    1    2    0    0 -0.90185919794E+02 -0.13906068676E+03 -0.28411601637E+03  0.33781990096E+03  0.77000000000E+02 0.  0.
   -5000001    1    1    2    0    0  0.90185919794E+02  0.13906068676E+03 -0.24842325506E+03  0.30840636891E+03  0.77000000000E+02 0.  0.
<mgrwt>
<rscale>  0 0.36607420E+03</rscale>
<asrwt>0</asrwt>
<pdfrwt beam="1">  1        2 0.90674268E-01 0.36607420E+03</pdfrwt>
<pdfrwt beam="2">  1       -2 0.87451541E-02 0.36607420E+03</pdfrwt>
<totfact> 0.42532054E+03</totfact>
</mgrwt>
</event>
<event>
 4    1  0.6207184E-004  0.1811029E+03  0.7818608E-02  0.1166740E+00
          2   -1    0    0  501    0  0.00000000000E+00  0.00000000000E+00  0.57151898199E+02  0.57151898256E+02  0.25500000000E-02 0.  1.
         -2   -1    0    0    0  501 -0.00000000000E+00 -0.00000000000E+00 -0.14346975036E+03  0.14346975038E+03  0.25500000000E-02 0. -1.
    5000001    1    1    2    0    0  0.47482323023E+02  0.10273241718E+01 -0.38876801581E+02  0.98468431976E+02  0.77000000000E+02 0.  0.
   -5000001    1    1    2    0    0 -0.47482323023E+02 -0.10273241718E+01 -0.47441050583E+02  0.10215321666E+03  0.77000000000E+02 0.  0.
<mgrwt>
<rscale>  0 0.18110294E+03</rscale>
<asrwt>0</asrwt>
<pdfrwt beam="1">  1        2 0.87925997E-02 0.18110294E+03</pdfrwt>
<pdfrwt beam="2">  1       -2 0.22072269E-01 0.18110294E+03</pdfrwt>
<totfact> 0.12784014E+04</totfact>
</mgrwt>
</event>
<event>
 4    1  0.6207184E-004  0.2461685E+03  0.7818608E-02  0.1115750E+00
          2   -1    0    0  501    0  0.00000000000E+00  0.00000000000E+00  0.82032036686E+03  0.82032036687E+03  0.25500000000E-02 0.  1.
         -2   -1    0    0    0  501 -0.00000000000E+00 -0.00000000000E+00 -0.18468066598E+02  0.18468066775E+02  0.25500000000E-02 0. -1.
    5000001    1    1    2    0    0  0.70355308793E+02 -0.30594487505E+02  0.59769548419E+03  0.60749879339E+03  0.77000000000E+02 0.  0.
   -5000001    1    1    2    0    0 -0.70355308793E+02  0.30594487505E+02  0.20415681607E+03  0.23128964026E+03  0.77000000000E+02 0.  0.
<mgrwt>
<rscale>  0 0.24616849E+03</rscale>
<asrwt>0</asrwt>
<pdfrwt beam="1">  1        2 0.12620312E+00 0.24616849E+03</pdfrwt>
<pdfrwt beam="2">  1       -2 0.28412412E-02 0.24616849E+03</pdfrwt>
<totfact> 0.15625856E+04</totfact>
</mgrwt>
</event>
<event>
 4    1  0.6207184E-004  0.2166089E+03  0.7818608E-02  0.1136437E+00
          2   -1    0    0  501    0  0.00000000000E+00  0.00000000000E+00  0.20065843624E+03  0.20065843625E+03  0.25500000000E-02 0.  1.
         -2   -1    0    0    0  501 -0.00000000000E+00 -0.00000000000E+00 -0.58456832459E+02  0.58456832515E+02  0.25500000000E-02 0. -1.
    5000001    1    1    2    0    0  0.20685799887E+02 -0.63561374052E+02  0.27427460427E+02  0.10558984882E+03  0.77000000000E+02 0.  0.
   -5000001    1    1    2    0    0 -0.20685799887E+02  0.63561374052E+02  0.11477414335E+03  0.15352541995E+03  0.77000000000E+02 0.  0.
<mgrwt>
<rscale>  0 0.21660893E+03</rscale>
<asrwt>0</asrwt>
<pdfrwt beam="1">  1        2 0.30870528E-01 0.21660893E+03</pdfrwt>
<pdfrwt beam="2">  1       -2 0.89933590E-02 0.21660893E+03</pdfrwt>
<totfact> 0.12998912E+04</totfact>
</mgrwt>
</event>
<event>
 4    1  0.6207184E-004  0.2078270E+03  0.7818608E-02  0.1143298E+00
          2   -1    0    0  501    0  0.00000000000E+00  0.00000000000E+00  0.55305714619E+03  0.55305714619E+03  0.25500000000E-02 0.  1.
         -2   -1    0    0    0  501 -0.00000000000E+00 -0.00000000000E+00 -0.19524228442E+02  0.19524228609E+02  0.25500000000E-02 0. -1.
    5000001    1    1    2    0    0 -0.50161896622E+02 -0.47730377897E+02  0.29056397667E+03  0.30846528068E+03  0.77000000000E+02 0.  0.
   -5000001    1    1    2    0    0  0.50161896622E+02  0.47730377897E+02  0.24296894108E+03  0.26411609413E+03  0.77000000000E+02 0.  0.
<mgrwt>
<rscale>  0 0.20782699E+03</rscale>
<asrwt>0</asrwt>
<pdfrwt beam="1">  1        2 0.85085721E-01 0.20782699E+03</pdfrwt>
<pdfrwt beam="2">  1       -2 0.30037273E-02 0.20782699E+03</pdfrwt>
<totfact> 0.22845036E+04</totfact>
</mgrwt>
</event>
<event>
 4    1  0.6207184E-004  0.1642454E+03  0.7818608E-02  0.1183985E+00
         -2   -1    0    0    0  501 -0.00000000000E+00  0.00000000000E+00  0.69695218204E+02  0.69695218250E+02  0.25500000000E-02 0. -1.
          2   -1    0    0  501    0  0.00000000000E+00 -0.00000000000E+00 -0.96766107140E+02  0.96766107174E+02  0.25500000000E-02 0.  1.
    5000001    1    1    2    0    0  0.11520887142E+02  0.24284262736E+02 -0.37785817058E+01  0.81643946113E+02  0.77000000000E+02 0.  0.
   -5000001    1    1    2    0    0 -0.11520887142E+02 -0.24284262736E+02 -0.23292307231E+02  0.84817379311E+02  0.77000000000E+02 0.  0.
<mgrwt>
<rscale>  0 0.16424536E+03</rscale>
<asrwt>0</asrwt>
<pdfrwt beam="1">  1        2 0.14887093E-01 0.16424536E+03</pdfrwt>
<pdfrwt beam="2">  1       -2 0.10722341E-01 0.16424536E+03</pdfrwt>
<totfact> 0.21991137E+04</totfact>
</mgrwt>
</event>
<event>
 4    1  0.6207184E-004  0.1870293E+03  0.7818608E-02  0.1161168E+00
         -2   -1    0    0    0  501 -0.00000000000E+00  0.00000000000E+00  0.25419627356E+02  0.25419627484E+02  0.25500000000E-02 0. -1.
          2   -1    0    0  501    0  0.00000000000E+00 -0.00000000000E+00 -0.34402515993E+03  0.34402515994E+03  0.25500000000E-02 0.  1.
    5000001    1    1    2    0    0  0.32721968411E+02  0.41729789405E+02 -0.16319815249E+03  0.18808173626E+03  0.77000000000E+02 0.  0.
   -5000001    1    1    2    0    0 -0.32721968411E+02 -0.41729789405E+02 -0.15540738009E+03  0.18136305116E+03  0.77000000000E+02 0.  0.
<mgrwt>
<rscale>  0 0.18702932E+03</rscale>
<asrwt>0</asrwt>
<pdfrwt beam="1">  1        2 0.52926944E-01 0.18702932E+03</pdfrwt>
<pdfrwt beam="2">  1       -2 0.39107121E-02 0.18702932E+03</pdfrwt>
<totfact> 0.25718491E+04</totfact>
</mgrwt>
</event>
<event>
 4    1  0.6207184E-004  0.3913470E+03  0.7818608E-02  0.1046818E+00
         -2   -1    0    0    0  501 -0.00000000000E+00  0.00000000000E+00  0.10233842682E+03  0.10233842685E+03  0.25500000000E-02 0. -1.
          2   -1    0    0  501    0  0.00000000000E+00 -0.00000000000E+00 -0.37413234997E+03  0.37413234998E+03  0.25500000000E-02 0.  1.
    5000001    1    1    2    0    0 -0.20470346836E+01 -0.17976254855E+03 -0.12816292271E+03  0.23382364930E+03  0.77000000000E+02 0.  0.
   -5000001    1    1    2    0    0  0.20470346836E+01  0.17976254855E+03 -0.14363100044E+03  0.24264712754E+03  0.77000000000E+02 0.  0.
<mgrwt>
<rscale>  0 0.39134699E+03</rscale>
<asrwt>0</asrwt>
<pdfrwt beam="1">  1        2 0.57558823E-01 0.39134699E+03</pdfrwt>
<pdfrwt beam="2">  1       -2 0.15744373E-01 0.39134699E+03</pdfrwt>
<totfact> 0.27282838E+03</totfact>
</mgrwt>
</event>
<event>
 4    1  0.6207184E-004  0.2831231E+03  0.7818608E-02  0.1093995E+00
         -2   -1    0    0    0  501 -0.00000000000E+00  0.00000000000E+00  0.25975125102E+02  0.25975125227E+02  0.25500000000E-02 0. -1.
          2   -1    0    0  501    0  0.00000000000E+00 -0.00000000000E+00 -0.77149483286E+03  0.77149483286E+03  0.25500000000E-02 0.  1.
    5000001    1    1    2    0    0 -0.65675566454E+02  0.97222672525E+02 -0.42508866960E+03  0.44765489510E+03  0.77000000000E+02 0.  0.
   -5000001    1    1    2    0    0  0.65675566454E+02 -0.97222672525E+02 -0.32043103815E+03  0.34981506299E+03  0.77000000000E+02 0.  0.
<mgrwt>
<rscale>  0 0.28312312E+03</rscale>
<asrwt>0</asrwt>
<pdfrwt beam="1">  1        2 0.11869150E+00 0.28312312E+03</pdfrwt>
<pdfrwt beam="2">  1       -2 0.39961737E-02 0.28312312E+03</pdfrwt>
<totfact> 0.10204583E+04</totfact>
</mgrwt>
</event>
<event>
 4    1  0.6207184E-004  0.3390573E+03  0.7818608E-02  0.1067198E+00
          2   -1    0    0  501    0  0.00000000000E+00  0.00000000000E+00  0.17705656264E+04  0.17705656264E+04  0.25500000000E-02 0.  1.
         -2   -1    0    0    0  501 -0.00000000000E+00 -0.00000000000E+00 -0.16232083410E+02  0.16232083610E+02  0.25500000000E-02 0. -1.
    5000001    1    1    2    0    0 -0.72973624001E+02 -0.13135502651E+03  0.95737945912E+03  0.97215416551E+03  0.77000000000E+02 0.  0.
   -5000001    1    1    2    0    0  0.72973624001E+02  0.13135502651E+03  0.79695408385E+03  0.81464354447E+03  0.77000000000E+02 0.  0.
<mgrwt>
<rscale>  0 0.33905734E+03</rscale>
<asrwt>0</asrwt>
<pdfrwt beam="1">  1        2 0.27239496E+00 0.33905734E+03</pdfrwt>
<pdfrwt beam="2">  1       -2 0.24972413E-02 0.33905734E+03</pdfrwt>
<totfact> 0.54642448E+03</totfact>
</mgrwt>
</event>
<event>
 4    1  0.6207184E-004  0.2268615E+03  0.7818608E-02  0.1128869E+00
          2   -1    0    0  501    0  0.00000000000E+00  0.00000000000E+00  0.11749590591E+03  0.11749590594E+03  0.25500000000E-02 0.  1.
         -2   -1    0    0    0  501 -0.00000000000E+00 -0.00000000000E+00 -0.10950621029E+03  0.10950621032E+03  0.25500000000E-02 0. -1.
    5000001    1    1    2    0    0  0.74879066339E+02 -0.15898345591E+01 -0.32471253740E+02  0.11221757647E+03  0.77000000000E+02 0.  0.
   -5000001    1    1    2    0    0 -0.74879066339E+02  0.15898345591E+01  0.40460949359E+02  0.11478453978E+03  0.77000000000E+02 0.  0.
<mgrwt>
<rscale>  0 0.22686147E+03</rscale>
<asrwt>0</asrwt>
<pdfrwt beam="1">  1        2 0.18076293E-01 0.22686147E+03</pdfrwt>
<pdfrwt beam="2">  1       -2 0.16847109E-01 0.22686147E+03</pdfrwt>
<totfact> 0.86130939E+03</totfact>
</mgrwt>
</event>
<event>
 4    1  0.6207184E-004  0.2401947E+04  0.7818608E-02  0.8438775E-01
          2   -1    0    0  501    0  0.00000000000E+00  0.00000000000E+00  0.24459451223E+04  0.24459451223E+04  0.25500000000E-02 0.  1.
         -2   -1    0    0    0  501 -0.00000000000E+00 -0.00000000000E+00 -0.58968523744E+03  0.58968523744E+03  0.25500000000E-02 0. -1.
    5000001    1    1    2    0    0 -0.54888327664E+03  0.38463715295E+03 -0.32756982587E+03  0.74996638700E+03  0.77000000000E+02 0.  0.
   -5000001    1    1    2    0    0  0.54888327664E+03 -0.38463715295E+03  0.21838297108E+04  0.22856639728E+04  0.77000000000E+02 0.  0.
<mgrwt>
<rscale>  0 0.24019473E+04</rscale>
<asrwt>0</asrwt>
<pdfrwt beam="1">  1        2 0.37629924E+00 0.24019473E+04</pdfrwt>
<pdfrwt beam="2">  1       -2 0.90720807E-01 0.24019473E+04</pdfrwt>
<totfact> 0.34890591E+00</totfact>
</mgrwt>
</event>
<event>
 4    1  0.6207184E-004  0.4143495E+03  0.7818608E-02  0.1038921E+00
         -2   -1    0    0    0  501 -0.00000000000E+00  0.00000000000E+00  0.30636519547E+03  0.30636519548E+03  0.25500000000E-02 0. -1.
          2   -1    0    0  501    0  0.00000000000E+00 -0.00000000000E+00 -0.14009876082E+03  0.14009876084E+03  0.25500000000E-02 0.  1.
    5000001    1    1    2    0    0  0.18041253902E+03 -0.34056978508E+02  0.21387140758E+02  0.20023728876E+03  0.77000000000E+02 0.  0.
   -5000001    1    1    2    0    0 -0.18041253902E+03  0.34056978508E+02  0.14487929389E+03  0.24622666757E+03  0.77000000000E+02 0.  0.
<mgrwt>
<rscale>  0 0.41434953E+03</rscale>
<asrwt>0</asrwt>
<pdfrwt beam="1">  1        2 0.21553656E-01 0.41434953E+03</pdfrwt>
<pdfrwt beam="2">  1       -2 0.47133106E-01 0.41434953E+03</pdfrwt>
<totfact> 0.11090551E+03</totfact>
</mgrwt>
</event>
<event>
 4    1  0.6207184E-004  0.1930413E+03  0.7818608E-02  0.1155747E+00
          2   -1    0    0  501    0  0.00000000000E+00  0.00000000000E+00  0.19277636810E+04  0.19277636810E+04  0.25500000000E-02 0.  1.
         -2   -1    0    0    0  501 -0.00000000000E+00 -0.00000000000E+00 -0.48326651525E+01  0.48326658253E+01  0.25500000000E-02 0. -1.
    5000001    1    1    2    0    0 -0.25884049155E+02 -0.51020636587E+02  0.10684262469E+04  0.10727239787E+04  0.77000000000E+02 0.  0.
   -5000001    1    1    2    0    0  0.25884049155E+02  0.51020636587E+02  0.85450476895E+03  0.85987236816E+03  0.77000000000E+02 0.  0.
<mgrwt>
<rscale>  0 0.19304131E+03</rscale>
<asrwt>0</asrwt>
<pdfrwt beam="1">  1        2 0.29657862E+00 0.19304131E+03</pdfrwt>
<pdfrwt beam="2">  1       -2 0.74348802E-03 0.19304131E+03</pdfrwt>
<totfact> 0.26168683E+04</totfact>
</mgrwt>
</event>
<event>
 4    1  0.6207184E-004  0.2274043E+03  0.7818608E-02  0.1128480E+00
         -2   -1    0    0    0  501 -0.00000000000E+00  0.00000000000E+00  0.70358366036E+01  0.70358370657E+01  0.25500000000E-02 0. -1.
          2   -1    0    0  501    0  0.00000000000E+00 -0.00000000000E+00 -0.18374749196E+04  0.18374749196E+04  0.25500000000E-02 0.  1.
    5000001    1    1    2    0    0 -0.68536344447E+02 -0.41494725403E+02 -0.71985504810E+03  0.72838131018E+03  0.77000000000E+02 0.  0.
   -5000001    1    1    2    0    0  0.68536344447E+02  0.41494725403E+02 -0.11105840349E+04  0.11161294465E+04  0.77000000000E+02 0.  0.
<mgrwt>
<rscale>  0 0.22740425E+03</rscale>
<asrwt>0</asrwt>
<pdfrwt beam="1">  1        2 0.28268807E+00 0.22740425E+03</pdfrwt>
<pdfrwt beam="2">  1       -2 0.10824379E-02 0.22740425E+03</pdfrwt>
<totfact> 0.17075552E+04</totfact>
</mgrwt>
</event>
<event>
 4    1  0.6207184E-004  0.2721879E+03  0.7818608E-02  0.1100034E+00
          2   -1    0    0  501    0  0.00000000000E+00  0.00000000000E+00  0.43512776626E+03  0.43512776627E+03  0.25500000000E-02 0.  1.
         -2   -1    0    0    0  501 -0.00000000000E+00 -0.00000000000E+00 -0.42565813162E+02  0.42565813238E+02  0.25500000000E-02 0. -1.
    5000001    1    1    2    0    0 -0.11018472590E+03  0.16890244640E+01  0.15909121920E+03  0.20828476337E+03  0.77000000000E+02 0.  0.
   -5000001    1    1    2    0    0  0.11018472590E+03 -0.16890244640E+01  0.23347073390E+03  0.26940881614E+03  0.77000000000E+02 0.  0.
<mgrwt>
<rscale>  0 0.27218793E+03</rscale>
<asrwt>0</asrwt>
<pdfrwt beam="1">  1        2 0.66942734E-01 0.27218793E+03</pdfrwt>
<pdfrwt beam="2">  1       -2 0.65485866E-02 0.27218793E+03</pdfrwt>
<totfact> 0.93373532E+03</totfact>
</mgrwt>
</event>
<event>
 4    1  0.6207184E-004  0.2837804E+03  0.7818608E-02  0.1093642E+00
          2   -1    0    0  501    0  0.00000000000E+00  0.00000000000E+00  0.45769709702E+03  0.45769709703E+03  0.25500000000E-02 0.  1.
         -2   -1    0    0    0  501 -0.00000000000E+00 -0.00000000000E+00 -0.43987225179E+02  0.43987225253E+02  0.25500000000E-02 0. -1.
    5000001    1    1    2    0    0  0.84470847552E+01 -0.11884112516E+03  0.21223429678E+03  0.25527820706E+03  0.77000000000E+02 0.  0.
   -5000001    1    1    2    0    0 -0.84470847552E+01  0.11884112516E+03  0.20147557506E+03  0.24640611522E+03  0.77000000000E+02 0.  0.
<mgrwt>
<rscale>  0 0.28378037E+03</rscale>
<asrwt>0</asrwt>
<pdfrwt beam="1">  1        2 0.70414937E-01 0.28378037E+03</pdfrwt>
<pdfrwt beam="2">  1       -2 0.67672655E-02 0.28378037E+03</pdfrwt>
<totfact> 0.84082422E+03</totfact>
</mgrwt>
</event>
<event>
 4    1  0.6207184E-004  0.2011606E+03  0.7818608E-02  0.1148764E+00
         -2   -1    0    0    0  501 -0.00000000000E+00  0.00000000000E+00  0.45216400451E+01  0.45216407642E+01  0.25500000000E-02 0. -1.
          2   -1    0    0  501    0  0.00000000000E+00 -0.00000000000E+00 -0.22373280923E+04  0.22373280923E+04  0.25500000000E-02 0.  1.
    5000001    1    1    2    0    0  0.42755666656E+02  0.25360462344E+02 -0.15780892429E+04  0.15807485121E+04  0.77000000000E+02 0.  0.
   -5000001    1    1    2    0    0 -0.42755666656E+02 -0.25360462344E+02 -0.65471720935E+03  0.66110122092E+03  0.77000000000E+02 0.  0.
<mgrwt>
<rscale>  0 0.20116056E+03</rscale>
<asrwt>0</asrwt>
<pdfrwt beam="1">  1        2 0.34420344E+00 0.20116056E+03</pdfrwt>
<pdfrwt beam="2">  1       -2 0.69563877E-03 0.20116056E+03</pdfrwt>
<totfact> 0.19877058E+04</totfact>
</mgrwt>
</event>
<event>
 4    1  0.6207184E-004  0.2129468E+03  0.7818608E-02  0.1139253E+00
         -2   -1    0    0    0  501 -0.00000000000E+00  0.00000000000E+00  0.79634071073E+01  0.79634075155E+01  0.25500000000E-02 0. -1.
          2   -1    0    0  501    0  0.00000000000E+00 -0.00000000000E+00 -0.14235841821E+04  0.14235841821E+04  0.25500000000E-02 0.  1.
    5000001    1    1    2    0    0  0.50471837062E+02 -0.49389454326E+02 -0.84572224016E+03  0.85215129645E+03  0.77000000000E+02 0.  0.
   -5000001    1    1    2    0    0 -0.50471837062E+02  0.49389454326E+02 -0.56989853480E+03  0.57939629314E+03  0.77000000000E+02 0.  0.
<mgrwt>
<rscale>  0 0.21294676E+03</rscale>
<asrwt>0</asrwt>
<pdfrwt beam="1">  1        2 0.21901275E+00 0.21294676E+03</pdfrwt>
<pdfrwt beam="2">  1       -2 0.12251407E-02 0.21294676E+03</pdfrwt>
<totfact> 0.23494532E+04</totfact>
</mgrwt>
</event>
<event>
 4    1  0.6207184E-004  0.1773617E+03  0.7818608E-02  0.1170381E+00
          2   -1    0    0  501    0  0.00000000000E+00  0.00000000000E+00  0.25346170024E+03  0.25346170025E+03  0.25500000000E-02 0.  1.
         -2   -1    0    0    0  501 -0.00000000000E+00 -0.00000000000E+00 -0.31027529907E+02  0.31027530012E+02  0.25500000000E-02 0. -1.
    5000001    1    1    2    0    0  0.38926888451E+02 -0.18376984677E+02  0.96667917975E+02  0.13086902833E+03  0.77000000000E+02 0.  0.
   -5000001    1    1    2    0    0 -0.38926888451E+02  0.18376984677E+02  0.12576625236E+03  0.15362020193E+03  0.77000000000E+02 0.  0.
<mgrwt>
<rscale>  0 0.17736167E+03</rscale>
<asrwt>0</asrwt>
<pdfrwt beam="1">  1        2 0.38994109E-01 0.17736167E+03</pdfrwt>
<pdfrwt beam="2">  1       -2 0.47734660E-02 0.17736167E+03</pdfrwt>
<totfact> 0.26312320E+04</totfact>
</mgrwt>
</event>
<event>
 4    1  0.6207184E-004  0.2590960E+03  0.7818608E-02  0.1107688E+00
          2   -1    0    0  501    0  0.00000000000E+00  0.00000000000E+00  0.84739551996E+03  0.84739551997E+03  0.25500000000E-02 0.  1.
         -2   -1    0    0    0  501 -0.00000000000E+00 -0.00000000000E+00 -0.19805012533E+02  0.19805012697E+02  0.25500000000E-02 0. -1.
    5000001    1    1    2    0    0  0.60921692862E+02  0.53297106809E+02  0.19427420666E+03  0.22410600534E+03  0.77000000000E+02 0.  0.
   -5000001    1    1    2    0    0 -0.60921692862E+02 -0.53297106809E+02  0.63331630077E+03  0.64309452732E+03  0.77000000000E+02 0.  0.
<mgrwt>
<rscale>  0 0.25909596E+03</rscale>
<asrwt>0</asrwt>
<pdfrwt beam="1">  1        2 0.13036852E+00 0.25909596E+03</pdfrwt>
<pdfrwt beam="2">  1       -2 0.30469256E-02 0.25909596E+03</pdfrwt>
<totfact> 0.13536620E+04</totfact>
</mgrwt>
</event>
<event>
 4    1  0.6207184E-004  0.1996015E+03  0.7818608E-02  0.1150076E+00
          2   -1    0    0  501    0  0.00000000000E+00  0.00000000000E+00  0.33806054484E+03  0.33806054485E+03  0.25500000000E-02 0.  1.
         -2   -1    0    0    0  501 -0.00000000000E+00 -0.00000000000E+00 -0.29462753858E+02  0.29462753968E+02  0.25500000000E-02 0. -1.
    5000001    1    1    2    0    0 -0.54705029559E+02  0.79446241113E+01  0.21180588781E+03  0.23204846783E+03  0.77000000000E+02 0.  0.
   -5000001    1    1    2    0    0  0.54705029559E+02 -0.79446241113E+01  0.96791903169E+02  0.13547483099E+03  0.77000000000E+02 0.  0.
<mgrwt>
<rscale>  0 0.19960155E+03</rscale>
<asrwt>0</asrwt>
<pdfrwt beam="1">  1        2 0.52009314E-01 0.19960155E+03</pdfrwt>
<pdfrwt beam="2">  1       -2 0.45327314E-02 0.19960155E+03</pdfrwt>
<totfact> 0.21109901E+04</totfact>
</mgrwt>
</event>
<event>
 4    1  0.6207184E-004  0.2293713E+03  0.7818608E-02  0.1127083E+00
         -2   -1    0    0    0  501 -0.00000000000E+00  0.00000000000E+00  0.87783351958E+01  0.87783355662E+01  0.25500000000E-02 0. -1.
          2   -1    0    0  501    0  0.00000000000E+00 -0.00000000000E+00 -0.14983245794E+04  0.14983245794E+04  0.25500000000E-02 0.  1.
    5000001    1    1    2    0    0 -0.45651109137E+02  0.24775769667E+02 -0.11868094318E+04  0.11904383604E+04  0.77000000000E+02 0.  0.
   -5000001    1    1    2    0    0  0.45651109137E+02 -0.24775769667E+02 -0.30273681238E+03  0.31666455454E+03  0.77000000000E+02 0.  0.
<mgrwt>
<rscale>  0 0.22937128E+03</rscale>
<asrwt>0</asrwt>
<pdfrwt beam="1">  1        2 0.23051127E+00 0.22937128E+03</pdfrwt>
<pdfrwt beam="2">  1       -2 0.13505143E-02 0.22937128E+03</pdfrwt>
<totfact> 0.18667872E+04</totfact>
</mgrwt>
</event>
<event>
 4    1  0.6207184E-004  0.2171492E+03  0.7818608E-02  0.1136026E+00
          2   -1    0    0  501    0  0.00000000000E+00  0.00000000000E+00  0.78259257146E+03  0.78259257146E+03  0.25500000000E-02 0.  1.
         -2   -1    0    0    0  501 -0.00000000000E+00 -0.00000000000E+00 -0.15063326497E+02  0.15063326713E+02  0.25500000000E-02 0. -1.
    5000001    1    1    2    0    0  0.68330540683E+01  0.70371292562E+02  0.49152709628E+03  0.50252034369E+03  0.77000000000E+02 0.  0.
   -5000001    1    1    2    0    0 -0.68330540683E+01 -0.70371292562E+02  0.27600214867E+03  0.29513555448E+03  0.77000000000E+02 0.  0.
<mgrwt>
<rscale>  0 0.21714923E+03</rscale>
<asrwt>0</asrwt>
<pdfrwt beam="1">  1        2 0.12039889E+00 0.21714923E+03</pdfrwt>
<pdfrwt beam="2">  1       -2 0.23174342E-02 0.21714923E+03</pdfrwt>
<totfact> 0.22259165E+04</totfact>
</mgrwt>
</event>
<event>
 4    1  0.6207184E-004  0.2246941E+03  0.7818608E-02  0.1130431E+00
          2   -1    0    0  501    0  0.00000000000E+00  0.00000000000E+00  0.92331638122E+02  0.92331638157E+02  0.25500000000E-02 0.  1.
         -2   -1    0    0    0  501 -0.00000000000E+00 -0.00000000000E+00 -0.13670129764E+03  0.13670129766E+03  0.25500000000E-02 0. -1.
    5000001    1    1    2    0    0 -0.12733216507E+02 -0.72048448177E+02 -0.59494103039E+02  0.12174424826E+03  0.77000000000E+02 0.  0.
   -5000001    1    1    2    0    0  0.12733216507E+02  0.72048448177E+02  0.15124443521E+02  0.10728868756E+03  0.77000000000E+02 0.  0.
<mgrwt>
<rscale>  0 0.22469406E+03</rscale>
<asrwt>0</asrwt>
<pdfrwt beam="1">  1        2 0.14204867E-01 0.22469406E+03</pdfrwt>
<pdfrwt beam="2">  1       -2 0.21030969E-01 0.22469406E+03</pdfrwt>
<totfact> 0.78454625E+03</totfact>
</mgrwt>
</event>
<event>
 4    1  0.6207184E-004  0.2511820E+03  0.7818608E-02  0.1112560E+00
          2   -1    0    0  501    0  0.00000000000E+00  0.00000000000E+00  0.11455522750E+04  0.11455522750E+04  0.25500000000E-02 0.  1.
         -2   -1    0    0    0  501 -0.00000000000E+00 -0.00000000000E+00 -0.13768995476E+02  0.13768995712E+02  0.25500000000E-02 0. -1.
    5000001    1    1    2    0    0 -0.70963152280E+02 -0.42957511480E+02  0.81712663203E+03  0.82492790567E+03  0.77000000000E+02 0.  0.
   -5000001    1    1    2    0    0  0.70963152280E+02  0.42957511480E+02  0.31465664745E+03  0.33439336500E+03  0.77000000000E+02 0.  0.
<mgrwt>
<rscale>  0 0.25118204E+03</rscale>
<asrwt>0</asrwt>
<pdfrwt beam="1">  1        2 0.17623880E+00 0.25118204E+03</pdfrwt>
<pdfrwt beam="2">  1       -2 0.21183071E-02 0.25118204E+03</pdfrwt>
<totfact> 0.15170786E+04</totfact>
</mgrwt>
</event>
<event>
 4    1  0.6207184E-004  0.2145917E+03  0.7818608E-02  0.1137981E+00
          2   -1    0    0  501    0  0.00000000000E+00  0.00000000000E+00  0.19191645789E+04  0.19191645789E+04  0.25500000000E-02 0.  1.
         -2   -1    0    0    0  501 -0.00000000000E+00 -0.00000000000E+00 -0.59986512049E+01  0.59986517469E+01  0.25500000000E-02 0. -1.
    5000001    1    1    2    0    0 -0.51216009707E+02 -0.84326895978E+01  0.47436414221E+03  0.48336790266E+03  0.77000000000E+02 0.  0.
   -5000001    1    1    2    0    0  0.51216009707E+02  0.84326895978E+01  0.14388017855E+04  0.14417953280E+04  0.77000000000E+02 0.  0.
<mgrwt>
<rscale>  0 0.21459170E+03</rscale>
<asrwt>0</asrwt>
<pdfrwt beam="1">  1        2 0.29525594E+00 0.21459170E+03</pdfrwt>
<pdfrwt beam="2">  1       -2 0.92286994E-03 0.21459170E+03</pdfrwt>
<totfact> 0.19458035E+04</totfact>
</mgrwt>
</event>
<event>
 4    1  0.6207184E-004  0.2026214E+03  0.7818608E-02  0.1147546E+00
          2   -1    0    0  501    0  0.00000000000E+00  0.00000000000E+00  0.12461486689E+03  0.12461486692E+03  0.25500000000E-02 0.  1.
         -2   -1    0    0    0  501 -0.00000000000E+00 -0.00000000000E+00 -0.82364629402E+02  0.82364629442E+02  0.25500000000E-02 0. -1.
    5000001    1    1    2    0    0 -0.40027253195E+02 -0.31611436892E+02 -0.21404412452E+02  0.94808295065E+02  0.77000000000E+02 0.  0.
   -5000001    1    1    2    0    0  0.40027253195E+02  0.31611436892E+02  0.63654649943E+02  0.11217120130E+03  0.77000000000E+02 0.  0.
<mgrwt>
<rscale>  0 0.20262139E+03</rscale>
<asrwt>0</asrwt>
<pdfrwt beam="1">  1        2 0.19171518E-01 0.20262139E+03</pdfrwt>
<pdfrwt beam="2">  1       -2 0.12671481E-01 0.20262139E+03</pdfrwt>
<totfact> 0.12760666E+04</totfact>
</mgrwt>
</event>
<event>
 4    1  0.6207184E-004  0.4052899E+03  0.7818608E-02  0.1041963E+00
         -2   -1    0    0    0  501 -0.00000000000E+00  0.00000000000E+00  0.28631150457E+03  0.28631150458E+03  0.25500000000E-02 0. -1.
          2   -1    0    0  501    0  0.00000000000E+00 -0.00000000000E+00 -0.14342760970E+03  0.14342760972E+03  0.25500000000E-02 0.  1.
    5000001    1    1    2    0    0 -0.84598915611E+02  0.16726433568E+03  0.70083976668E+02  0.21441804565E+03  0.77000000000E+02 0.  0.
   -5000001    1    1    2    0    0  0.84598915611E+02 -0.16726433568E+03  0.72799918201E+02  0.21532106865E+03  0.77000000000E+02 0.  0.
<mgrwt>
<rscale>  0 0.40528989E+03</rscale>
<asrwt>0</asrwt>
<pdfrwt beam="1">  1        2 0.22065786E-01 0.40528989E+03</pdfrwt>
<pdfrwt beam="2">  1       -2 0.44047923E-01 0.40528989E+03</pdfrwt>
<totfact> 0.12338226E+03</totfact>
</mgrwt>
</event>
<event>
 4    1  0.6207184E-004  0.1889881E+03  0.7818608E-02  0.1159377E+00
          2   -1    0    0  501    0  0.00000000000E+00  0.00000000000E+00  0.25433559906E+03  0.25433559907E+03  0.25500000000E-02 0.  1.
         -2   -1    0    0    0  501 -0.00000000000E+00 -0.00000000000E+00 -0.35107669517E+02  0.35107669610E+02  0.25500000000E-02 0. -1.
    5000001    1    1    2    0    0 -0.24638089089E+02 -0.31172459905E+02  0.51873159962E+02  0.10098803105E+03  0.77000000000E+02 0.  0.
   -5000001    1    1    2    0    0  0.24638089089E+02  0.31172459905E+02  0.16735476958E+03  0.18845523764E+03  0.77000000000E+02 0.  0.
<mgrwt>
<rscale>  0 0.18898815E+03</rscale>
<asrwt>0</asrwt>
<pdfrwt beam="1">  1        2 0.39128552E-01 0.18898815E+03</pdfrwt>
<pdfrwt beam="2">  1       -2 0.54011802E-02 0.18898815E+03</pdfrwt>
<totfact> 0.21868092E+04</totfact>
</mgrwt>
</event>
<event>
 4    1  0.6207184E-004  0.6120522E+03  0.7818608E-02  0.9880712E-01
         -2   -1    0    0    0  501 -0.00000000000E+00  0.00000000000E+00  0.18223962287E+03  0.18223962288E+03  0.25500000000E-02 0. -1.
          2   -1    0    0  501    0  0.00000000000E+00 -0.00000000000E+00 -0.51389465643E+03  0.51389465643E+03  0.25500000000E-02 0.  1.
    5000001    1    1    2    0    0  0.10883342747E+03  0.19091051659E+03  0.60025461865E+02  0.24046537454E+03  0.77000000000E+02 0.  0.
   -5000001    1    1    2    0    0 -0.10883342747E+03 -0.19091051659E+03 -0.39168049543E+03  0.45566890478E+03  0.77000000000E+02 0.  0.
<mgrwt>
<rscale>  0 0.61205218E+03</rscale>
<asrwt>0</asrwt>
<pdfrwt beam="1">  1        2 0.79060716E-01 0.61205218E+03</pdfrwt>
<pdfrwt beam="2">  1       -2 0.28036865E-01 0.61205218E+03</pdfrwt>
<totfact> 0.69701480E+02</totfact>
</mgrwt>
</event>
<event>
 4    1  0.6207184E-004  0.3308933E+03  0.7818608E-02  0.1070742E+00
         -2   -1    0    0    0  501 -0.00000000000E+00  0.00000000000E+00  0.63122599632E+02  0.63122599684E+02  0.25500000000E-02 0. -1.
          2   -1    0    0  501    0  0.00000000000E+00 -0.00000000000E+00 -0.43364166631E+03  0.43364166632E+03  0.25500000000E-02 0.  1.
    5000001    1    1    2    0    0 -0.11078976408E+03  0.73186380047E+02 -0.92556450439E+02  0.17923815042E+03  0.77000000000E+02 0.  0.
   -5000001    1    1    2    0    0  0.11078976408E+03 -0.73186380047E+02 -0.27796261624E+03  0.31752611558E+03  0.77000000000E+02 0.  0.
<mgrwt>
<rscale>  0 0.33089327E+03</rscale>
<asrwt>0</asrwt>
<pdfrwt beam="1">  1        2 0.66714101E-01 0.33089327E+03</pdfrwt>
<pdfrwt beam="2">  1       -2 0.97111694E-02 0.33089327E+03</pdfrwt>
<totfact> 0.50874901E+03</totfact>
</mgrwt>
</event>
<event>
 4    1  0.6207184E-004  0.3131782E+03  0.7818608E-02  0.1078832E+00
         -2   -1    0    0    0  501 -0.00000000000E+00  0.00000000000E+00  0.24034940395E+02  0.24034940530E+02  0.25500000000E-02 0. -1.
          2   -1    0    0  501    0  0.00000000000E+00 -0.00000000000E+00 -0.10201873533E+04  0.10201873533E+04  0.25500000000E-02 0.  1.
    5000001    1    1    2    0    0 -0.47604738021E+02  0.69984158898E+02 -0.85450305611E+03  0.86213019115E+03  0.77000000000E+02 0.  0.
   -5000001    1    1    2    0    0  0.47604738021E+02 -0.69984158898E+02 -0.14164935676E+03  0.18209210266E+03  0.77000000000E+02 0.  0.
<mgrwt>
<rscale>  0 0.31317817E+03</rscale>
<asrwt>0</asrwt>
<pdfrwt beam="1">  1        2 0.15695187E+00 0.31317817E+03</pdfrwt>
<pdfrwt beam="2">  1       -2 0.36976839E-02 0.31317817E+03</pdfrwt>
<totfact> 0.79129839E+03</totfact>
</mgrwt>
</event>
<event>
 4    1  0.6207184E-004  0.1783182E+03  0.7818608E-02  0.1169441E+00
          2   -1    0    0  501    0  0.00000000000E+00  0.00000000000E+00  0.36497562430E+04  0.36497562430E+04  0.25500000000E-02 0.  1.
         -2   -1    0    0    0  501 -0.00000000000E+00 -0.00000000000E+00 -0.21780464514E+01  0.21780479441E+01  0.25500000000E-02 0. -1.
    5000001    1    1    2    0    0 -0.19764234315E+02  0.29314732625E+02  0.12553616352E+04  0.12582177132E+04  0.77000000000E+02 0.  0.
   -5000001    1    1    2    0    0  0.19764234315E+02 -0.29314732625E+02  0.23922165614E+04  0.23937165778E+04  0.77000000000E+02 0.  0.
<mgrwt>
<rscale>  0 0.17831816E+03</rscale>
<asrwt>0</asrwt>
<pdfrwt beam="1">  1        2 0.56149270E+00 0.17831816E+03</pdfrwt>
<pdfrwt beam="2">  1       -2 0.33508911E-03 0.17831816E+03</pdfrwt>
<totfact> 0.83301429E+03</totfact>
</mgrwt>
</event>
<event>
 4    1  0.6207184E-004  0.1822654E+03  0.7818608E-02  0.1165628E+00
          2   -1    0    0  501    0  0.00000000000E+00  0.00000000000E+00  0.65513626297E+03  0.65513626297E+03  0.25500000000E-02 0.  1.
         -2   -1    0    0    0  501 -0.00000000000E+00 -0.00000000000E+00 -0.12677010488E+02  0.12677010744E+02  0.25500000000E-02 0. -1.
    5000001    1    1    2    0    0 -0.47561776537E+02 -0.23204720799E+01  0.28303607658E+03  0.29716313335E+03  0.77000000000E+02 0.  0.
   -5000001    1    1    2    0    0  0.47561776537E+02  0.23204720799E+01  0.35942317590E+03  0.37065014036E+03  0.77000000000E+02 0.  0.
<mgrwt>
<rscale>  0 0.18226540E+03</rscale>
<asrwt>0</asrwt>
<pdfrwt beam="1">  1        2 0.10079017E+00 0.18226540E+03</pdfrwt>
<pdfrwt beam="2">  1       -2 0.19503099E-02 0.18226540E+03</pdfrwt>
<totfact> 0.35103648E+04</totfact>
</mgrwt>
</event>
<event>
 4    1  0.6207184E-004  0.3200889E+03  0.7818608E-02  0.1075608E+00
         -2   -1    0    0    0  501 -0.00000000000E+00  0.00000000000E+00  0.44024340855E+02  0.44024340929E+02  0.25500000000E-02 0. -1.
          2   -1    0    0  501    0  0.00000000000E+00 -0.00000000000E+00 -0.58181974303E+03  0.58181974303E+03  0.25500000000E-02 0.  1.
    5000001    1    1    2    0    0  0.47789003694E+02 -0.13074162952E+03 -0.30321545806E+03  0.34241170624E+03  0.77000000000E+02 0.  0.
   -5000001    1    1    2    0    0 -0.47789003694E+02  0.13074162952E+03 -0.23457994412E+03  0.28343237773E+03  0.77000000000E+02 0.  0.
<mgrwt>
<rscale>  0 0.32008893E+03</rscale>
<asrwt>0</asrwt>
<pdfrwt beam="1">  1        2 0.89510725E-01 0.32008893E+03</pdfrwt>
<pdfrwt beam="2">  1       -2 0.67729759E-02 0.32008893E+03</pdfrwt>
<totfact> 0.64263063E+03</totfact>
</mgrwt>
</event>
<event>
 4    1  0.6207184E-004  0.1932029E+03  0.7818608E-02  0.1155604E+00
         -2   -1    0    0    0  501 -0.00000000000E+00  0.00000000000E+00  0.97011381787E+01  0.97011385138E+01  0.25500000000E-02 0. -1.
          2   -1    0    0  501    0  0.00000000000E+00 -0.00000000000E+00 -0.96193293655E+03  0.96193293656E+03  0.25500000000E-02 0.  1.
    5000001    1    1    2    0    0 -0.30254999854E+02 -0.49513915388E+02 -0.44600361684E+03  0.45630605855E+03  0.77000000000E+02 0.  0.
   -5000001    1    1    2    0    0  0.30254999854E+02  0.49513915388E+02 -0.50622818154E+03  0.51532801652E+03  0.77000000000E+02 0.  0.
<mgrwt>
<rscale>  0 0.19320295E+03</rscale>
<asrwt>0</asrwt>
<pdfrwt beam="1">  1        2 0.14798961E+00 0.19320295E+03</pdfrwt>
<pdfrwt beam="2">  1       -2 0.14924836E-02 0.19320295E+03</pdfrwt>
<totfact> 0.32080654E+04</totfact>
</mgrwt>
</event>
<event>
 4    1  0.6207184E-004  0.1899394E+03  0.7818608E-02  0.1158516E+00
          2   -1    0    0  501    0  0.00000000000E+00  0.00000000000E+00  0.11285127950E+04  0.11285127950E+04  0.25500000000E-02 0.  1.
         -2   -1    0    0    0  501 -0.00000000000E+00 -0.00000000000E+00 -0.79921540289E+01  0.79921544357E+01  0.25500000000E-02 0. -1.
    5000001    1    1    2    0    0  0.51798120648E+02 -0.13877880066E+02  0.64791569846E+03  0.65467502867E+03  0.77000000000E+02 0.  0.
   -5000001    1    1    2    0    0 -0.51798120648E+02  0.13877880066E+02  0.47260494248E+03  0.48182992073E+03  0.77000000000E+02 0.  0.
<mgrwt>
<rscale>  0 0.18993945E+03</rscale>
<asrwt>0</asrwt>
<pdfrwt beam="1">  1        2 0.17361743E+00 0.18993945E+03</pdfrwt>
<pdfrwt beam="2">  1       -2 0.12295616E-02 0.18993945E+03</pdfrwt>
<totfact> 0.33783971E+04</totfact>
</mgrwt>
</event>
<event>
 4    1  0.6207184E-004  0.2863401E+03  0.7818608E-02  0.1092276E+00
         -2   -1    0    0    0  501 -0.00000000000E+00  0.00000000000E+00  0.77910154360E+01  0.77910158533E+01  0.25500000000E-02 0. -1.
          2   -1    0    0  501    0  0.00000000000E+00 -0.00000000000E+00 -0.26309357689E+04  0.26309357689E+04  0.25500000000E-02 0.  1.
    5000001    1    1    2    0    0  0.54374664792E+02 -0.86093816141E+02 -0.71435507037E+03  0.72567273334E+03  0.77000000000E+02 0.  0.
   -5000001    1    1    2    0    0 -0.54374664792E+02  0.86093816141E+02 -0.19087896830E+04  0.19130540514E+04  0.77000000000E+02 0.  0.
<mgrwt>
<rscale>  0 0.28634009E+03</rscale>
<asrwt>0</asrwt>
<pdfrwt beam="1">  1        2 0.40475864E+00 0.28634009E+03</pdfrwt>
<pdfrwt beam="2">  1       -2 0.11986199E-02 0.28634009E+03</pdfrwt>
<totfact> 0.55576175E+03</totfact>
</mgrwt>
</event>
<event>
 4    1  0.6207184E-004  0.1850291E+03  0.7818608E-02  0.1163023E+00
         -2   -1    0    0    0  501 -0.00000000000E+00  0.00000000000E+00  0.69817511861E+02  0.69817511908E+02  0.25500000000E-02 0. -1.
          2   -1    0    0  501    0  0.00000000000E+00 -0.00000000000E+00 -0.12259023265E+03  0.12259023268E+03  0.25500000000E-02 0.  1.
    5000001    1    1    2    0    0  0.73885667997E+00  0.42671740626E+02 -0.55954790531E+02  0.10431376678E+03  0.77000000000E+02 0.  0.
   -5000001    1    1    2    0    0 -0.73885667997E+00 -0.42671740626E+02  0.31820697399E+01  0.88093977803E+02  0.77000000000E+02 0.  0.
<mgrwt>
<rscale>  0 0.18502913E+03</rscale>
<asrwt>0</asrwt>
<pdfrwt beam="1">  1        2 0.18860036E-01 0.18502913E+03</pdfrwt>
<pdfrwt beam="2">  1       -2 0.10741156E-01 0.18502913E+03</pdfrwt>
<totfact> 0.16832523E+04</totfact>
</mgrwt>
</event>
<event>
 4    1  0.6207184E-004  0.2970368E+03  0.7818608E-02  0.1086731E+00
         -2   -1    0    0    0  501 -0.00000000000E+00  0.00000000000E+00  0.13884057859E+02  0.13884058094E+02  0.25500000000E-02 0. -1.
          2   -1    0    0  501    0  0.00000000000E+00 -0.00000000000E+00 -0.15887083196E+04  0.15887083196E+04  0.25500000000E-02 0.  1.
    5000001    1    1    2    0    0 -0.58539185852E+02 -0.11268888061E+03 -0.79690891230E+03  0.81062841956E+03  0.77000000000E+02 0.  0.
   -5000001    1    1    2    0    0  0.58539185852E+02  0.11268888061E+03 -0.77791534946E+03  0.79196395816E+03  0.77000000000E+02 0.  0.
<mgrwt>
<rscale>  0 0.29703682E+03</rscale>
<asrwt>0</asrwt>
<pdfrwt beam="1">  1        2 0.24441652E+00 0.29703682E+03</pdfrwt>
<pdfrwt beam="2">  1       -2 0.21360102E-02 0.29703682E+03</pdfrwt>
<totfact> 0.85955642E+03</totfact>
</mgrwt>
</event>
<event>
 4    1  0.6207184E-004  0.2061737E+03  0.7818608E-02  0.1144632E+00
          2   -1    0    0  501    0  0.00000000000E+00  0.00000000000E+00  0.81123131744E+02  0.81123131784E+02  0.25500000000E-02 0. -1.
         -2   -1    0    0    0  501 -0.00000000000E+00 -0.00000000000E+00 -0.13099713812E+03  0.13099713814E+03  0.25500000000E-02 0.  1.
    5000001    1    1    2    0    0  0.60639521813E+01  0.67398963264E+02 -0.36137046474E+02  0.10869350437E+03  0.77000000000E+02 0.  0.
   -5000001    1    1    2    0    0 -0.60639521813E+01 -0.67398963264E+02 -0.13736959897E+02  0.10342676555E+03  0.77000000000E+02 0.  0.
<mgrwt>
<rscale>  0 0.20617369E+03</rscale>
<asrwt>0</asrwt>
<pdfrwt beam="1">  1        2 0.12480482E-01 0.20617369E+03</pdfrwt>
<pdfrwt beam="2">  1       -2 0.20153406E-01 0.20617369E+03</pdfrwt>
<totfact> 0.98042062E+03</totfact>
</mgrwt>
</event>
<event>
 4    1  0.6207184E-004  0.2329098E+03  0.7818608E-02  0.1124608E+00
          2   -1    0    0  501    0  0.00000000000E+00  0.00000000000E+00  0.90374959781E+03  0.90374959781E+03  0.25500000000E-02 0.  1.
         -2   -1    0    0    0  501 -0.00000000000E+00 -0.00000000000E+00 -0.15006087758E+02  0.15006087975E+02  0.25500000000E-02 0. -1.
    5000001    1    1    2    0    0  0.42351653761E+02  0.70612443812E+02  0.55957855759E+03  0.57082128720E+03  0.77000000000E+02 0.  0.
   -5000001    1    1    2    0    0 -0.42351653761E+02 -0.70612443812E+02  0.32916495246E+03  0.34793439859E+03  0.77000000000E+02 0.  0.
<mgrwt>
<rscale>  0 0.23290982E+03</rscale>
<asrwt>0</asrwt>
<pdfrwt beam="1">  1        2 0.13903844E+00 0.23290982E+03</pdfrwt>
<pdfrwt beam="2">  1       -2 0.23086282E-02 0.23290982E+03</pdfrwt>
<totfact> 0.18658869E+04</totfact>
</mgrwt>
</event>
<event>
 4    1  0.6207184E-004  0.6117212E+03  0.7818608E-02  0.9881382E-01
          2   -1    0    0  501    0  0.00000000000E+00  0.00000000000E+00  0.12288036041E+04  0.12288036041E+04  0.25500000000E-02 0.  1.
         -2   -1    0    0    0  501 -0.00000000000E+00 -0.00000000000E+00 -0.76131532811E+02  0.76131532854E+02  0.25500000000E-02 0. -1.
    5000001    1    1    2    0    0 -0.10805275214E+03  0.26723943639E+03  0.71990321980E+03  0.77928297780E+03  0.77000000000E+02 0.  0.
   -5000001    1    1    2    0    0  0.10805275214E+03 -0.26723943639E+03  0.43276885149E+03  0.52565215915E+03  0.77000000000E+02 0.  0.
<mgrwt>
<rscale>  0 0.61172118E+03</rscale>
<asrwt>0</asrwt>
<pdfrwt beam="1">  1        2 0.18904669E+00 0.61172118E+03</pdfrwt>
<pdfrwt beam="2">  1       -2 0.11712545E-01 0.61172118E+03</pdfrwt>
<totfact> 0.97620195E+02</totfact>
</mgrwt>
</event>
<event>
 4    1  0.6207184E-004  0.2641223E+03  0.7818608E-02  0.1104691E+00
          2   -1    0    0  501    0  0.00000000000E+00  0.00000000000E+00  0.84181663540E+03  0.84181663540E+03  0.25500000000E-02 0.  1.
         -2   -1    0    0    0  501 -0.00000000000E+00 -0.00000000000E+00 -0.20717276083E+02  0.20717276240E+02  0.25500000000E-02 0. -1.
    5000001    1    1    2    0    0  0.77793487312E+02  0.72175894707E+02  0.35891904469E+03  0.38211656217E+03  0.77000000000E+02 0.  0.
   -5000001    1    1    2    0    0 -0.77793487312E+02 -0.72175894707E+02  0.46218031463E+03  0.48041734948E+03  0.77000000000E+02 0.  0.
<mgrwt>
<rscale>  0 0.26412230E+03</rscale>
<asrwt>0</asrwt>
<pdfrwt beam="1">  1        2 0.12951022E+00 0.26412230E+03</pdfrwt>
<pdfrwt beam="2">  1       -2 0.31872740E-02 0.26412230E+03</pdfrwt>
<totfact> 0.12777479E+04</totfact>
</mgrwt>
</event>
<event>
 4    1  0.6207184E-004  0.3337656E+03  0.7818608E-02  0.1069483E+00
         -2   -1    0    0    0  501 -0.00000000000E+00  0.00000000000E+00  0.12606860202E+02  0.12606860460E+02  0.25500000000E-02 0. -1.
          2   -1    0    0  501    0  0.00000000000E+00 -0.00000000000E+00 -0.22091036686E+04  0.22091036686E+04  0.25500000000E-02 0.  1.
    5000001    1    1    2    0    0  0.14688369783E+03 -0.78900750150E+01 -0.98611305476E+03  0.99999251534E+03  0.77000000000E+02 0.  0.
   -5000001    1    1    2    0    0 -0.14688369783E+03  0.78900750150E+01 -0.12103837536E+04  0.12217180137E+04  0.77000000000E+02 0.  0.
<mgrwt>
<rscale>  0 0.33376555E+03</rscale>
<asrwt>0</asrwt>
<pdfrwt beam="1">  1        2 0.33986180E+00 0.33376555E+03</pdfrwt>
<pdfrwt beam="2">  1       -2 0.19395187E-02 0.33376555E+03</pdfrwt>
<totfact> 0.46513334E+03</totfact>
</mgrwt>
</event>
<event>
 4    1  0.6207184E-004  0.4481574E+03  0.7818608E-02  0.1028273E+00
          2   -1    0    0  501    0  0.00000000000E+00  0.00000000000E+00  0.18405080472E+04  0.18405080472E+04  0.25500000000E-02 0.  1.
         -2   -1    0    0    0  501 -0.00000000000E+00 -0.00000000000E+00 -0.27281192648E+02  0.27281192768E+02  0.25500000000E-02 0. -1.
    5000001    1    1    2    0    0 -0.18638110329E+03 -0.20502540413E+02  0.50851577605E+03  0.54742630948E+03  0.77000000000E+02 0.  0.
   -5000001    1    1    2    0    0  0.18638110329E+03  0.20502540413E+02  0.13047110785E+04  0.13203629305E+04  0.77000000000E+02 0.  0.
<mgrwt>
<rscale>  0 0.44815736E+03</rscale>
<asrwt>0</asrwt>
<pdfrwt beam="1">  1        2 0.28315511E+00 0.44815736E+03</pdfrwt>
<pdfrwt beam="2">  1       -2 0.41971062E-02 0.44815736E+03</pdfrwt>
<totfact> 0.22862250E+03</totfact>
</mgrwt>
</event>
<event>
 4    1  0.6207184E-004  0.2479099E+03  0.7818608E-02  0.1114633E+00
          2   -1    0    0  501    0  0.00000000000E+00  0.00000000000E+00  0.74683521152E+03  0.74683521152E+03  0.25500000000E-02 0.  1.
         -2   -1    0    0    0  501 -0.00000000000E+00 -0.00000000000E+00 -0.20573258401E+02  0.20573258559E+02  0.25500000000E-02 0. -1.
    5000001    1    1    2    0    0  0.36982669431E+01 -0.97039089334E+02  0.35582411294E+03  0.37678914712E+03  0.77000000000E+02 0.  0.
   -5000001    1    1    2    0    0 -0.36982669431E+01  0.97039089334E+02  0.37043784018E+03  0.39061932296E+03  0.77000000000E+02 0.  0.
<mgrwt>
<rscale>  0 0.24790993E+03</rscale>
<asrwt>0</asrwt>
<pdfrwt beam="1">  1        2 0.11489773E+00 0.24790993E+03</pdfrwt>
<pdfrwt beam="2">  1       -2 0.31651165E-02 0.24790993E+03</pdfrwt>
<totfact> 0.14984231E+04</totfact>
</mgrwt>
</event>
<event>
 4    1  0.6207184E-004  0.3011958E+03  0.7818608E-02  0.1084644E+00
         -2   -1    0    0    0  501 -0.00000000000E+00  0.00000000000E+00  0.20082382740E+03  0.20082382741E+03  0.25500000000E-02 0. -1.
          2   -1    0    0  501    0  0.00000000000E+00 -0.00000000000E+00 -0.11293341341E+03  0.11293341344E+03  0.25500000000E-02 0.  1.
    5000001    1    1    2    0    0 -0.11001391159E+03  0.34212069070E+02 -0.17481802074E+02  0.13967154262E+03  0.77000000000E+02 0.  0.
   -5000001    1    1    2    0    0  0.11001391159E+03 -0.34212069070E+02  0.10537221606E+03  0.17408569824E+03  0.77000000000E+02 0.  0.
<mgrwt>
<rscale>  0 0.30119575E+03</rscale>
<asrwt>0</asrwt>
<pdfrwt beam="1">  1        2 0.17374371E-01 0.30119575E+03</pdfrwt>
<pdfrwt beam="2">  1       -2 0.30895973E-01 0.30119575E+03</pdfrwt>
<totfact> 0.31680015E+03</totfact>
</mgrwt>
</event>
<event>
 4    1  0.6207184E-004  0.1980656E+03  0.7818608E-02  0.1151381E+00
         -2   -1    0    0    0  501 -0.00000000000E+00  0.00000000000E+00  0.87889361042E+03  0.87889361043E+03  0.25500000000E-02 0. -1.
          2   -1    0    0  501    0  0.00000000000E+00 -0.00000000000E+00 -0.11158915295E+02  0.11158915586E+02  0.25500000000E-02 0.  1.
    5000001    1    1    2    0    0 -0.38451983625E+02  0.48988726227E+02  0.43287118893E+03  0.44405508278E+03  0.77000000000E+02 0.  0.
   -5000001    1    1    2    0    0  0.38451983625E+02 -0.48988726227E+02  0.43486350620E+03  0.44599744323E+03  0.77000000000E+02 0.  0.
<mgrwt>
<rscale>  0 0.19806564E+03</rscale>
<asrwt>0</asrwt>
<pdfrwt beam="1">  1        2 0.17167559E-02 0.19806564E+03</pdfrwt>
<pdfrwt beam="2">  1       -2 0.13521443E+00 0.19806564E+03</pdfrwt>
<totfact> 0.27443571E+03</totfact>
</mgrwt>
</event>
<event>
 4    1  0.6207184E-004  0.5132922E+03  0.7818608E-02  0.1010367E+00
         -2   -1    0    0    0  501 -0.00000000000E+00  0.00000000000E+00  0.42672175103E+02  0.42672175179E+02  0.25500000000E-02 0.  1.
          2   -1    0    0  501    0  0.00000000000E+00 -0.00000000000E+00 -0.15435639016E+04  0.15435639016E+04  0.25500000000E-02 0. -1.
    5000001    1    1    2    0    0 -0.24057550343E+03 -0.10289470778E+02 -0.88711280431E+03  0.92243188022E+03  0.77000000000E+02 0.  0.
   -5000001    1    1    2    0    0  0.24057550343E+03  0.10289470778E+02 -0.61377892218E+03  0.66380419657E+03  0.77000000000E+02 0.  0.
<mgrwt>
<rscale>  0 0.51329223E+03</rscale>
<asrwt>0</asrwt>
<pdfrwt beam="1">  1        2 0.23747133E+00 0.51329223E+03</pdfrwt>
<pdfrwt beam="2">  1       -2 0.65649512E-02 0.51329223E+03</pdfrwt>
<totfact> 0.16500621E+03</totfact>
</mgrwt>
</event>
<event>
 4    1  0.6207184E-004  0.2594625E+03  0.7818608E-02  0.1107467E+00
          2   -1    0    0  501    0  0.00000000000E+00  0.00000000000E+00  0.83762719376E+03  0.83762719376E+03  0.25500000000E-02 0.  1.
         -2   -1    0    0    0  501 -0.00000000000E+00 -0.00000000000E+00 -0.20092711286E+02  0.20092711448E+02  0.25500000000E-02 0. -1.
    5000001    1    1    2    0    0  0.79311717774E+02  0.63192108587E+02  0.32661335862E+03  0.35055509866E+03  0.77000000000E+02 0.  0.
   -5000001    1    1    2    0    0 -0.79311717774E+02 -0.63192108587E+02  0.49092112385E+03  0.50716480655E+03  0.77000000000E+02 0.  0.
<mgrwt>
<rscale>  0 0.25946253E+03</rscale>
<asrwt>0</asrwt>
<pdfrwt beam="1">  1        2 0.12886574E+00 0.25946253E+03</pdfrwt>
<pdfrwt beam="2">  1       -2 0.30911858E-02 0.25946253E+03</pdfrwt>
<totfact> 0.13450866E+04</totfact>
</mgrwt>
</event>
<event>
 4    1  0.6207184E-004  0.3646036E+03  0.7818608E-02  0.1056776E+00
          2   -1    0    0  501    0  0.00000000000E+00  0.00000000000E+00  0.67980039831E+03  0.67980039831E+03  0.25500000000E-02 0.  1.
         -2   -1    0    0    0  501 -0.00000000000E+00 -0.00000000000E+00 -0.48887795480E+02  0.48887795546E+02  0.25500000000E-02 0. -1.
    5000001    1    1    2    0    0  0.69524094712E+02 -0.12311692081E+03  0.14453923772E+03  0.21636073390E+03  0.77000000000E+02 0.  0.
   -5000001    1    1    2    0    0 -0.69524094712E+02  0.12311692081E+03  0.48637336511E+03  0.51232745996E+03  0.77000000000E+02 0.  0.
<mgrwt>
<rscale>  0 0.36460358E+03</rscale>
<asrwt>0</asrwt>
<pdfrwt beam="1">  1        2 0.10458466E+00 0.36460358E+03</pdfrwt>
<pdfrwt beam="2">  1       -2 0.75212003E-02 0.36460358E+03</pdfrwt>
<totfact> 0.45495408E+03</totfact>
</mgrwt>
</event>
<event>
 4    1  0.6207184E-004  0.1732828E+03  0.7818608E-02  0.1174467E+00
         -2   -1    0    0    0  501 -0.00000000000E+00  0.00000000000E+00  0.38072528291E+01  0.38072536830E+01  0.25500000000E-02 0. -1.
          2   -1    0    0  501    0  0.00000000000E+00 -0.00000000000E+00 -0.19716930137E+04  0.19716930137E+04  0.25500000000E-02 0.  1.
    5000001    1    1    2    0    0 -0.24499014060E+02  0.12726294030E+02 -0.13095196108E+04  0.13120719383E+04  0.77000000000E+02 0.  0.
   -5000001    1    1    2    0    0  0.24499014060E+02 -0.12726294030E+02 -0.65836615003E+03  0.66342832902E+03  0.77000000000E+02 0.  0.
<mgrwt>
<rscale>  0 0.17328283E+03</rscale>
<asrwt>0</asrwt>
<pdfrwt beam="1">  1        2 0.30333657E+00 0.17328283E+03</pdfrwt>
<pdfrwt beam="2">  1       -2 0.58573284E-03 0.17328283E+03</pdfrwt>
<totfact> 0.34743400E+04</totfact>
</mgrwt>
</event>
<event>
 4    1  0.6207184E-004  0.6140209E+03  0.7818608E-02  0.9876737E-01
         -2   -1    0    0    0  501 -0.00000000000E+00  0.00000000000E+00  0.20784949140E+03  0.20784949142E+03  0.25500000000E-02 0. -1.
          2   -1    0    0  501    0  0.00000000000E+00 -0.00000000000E+00 -0.45347917258E+03  0.45347917259E+03  0.25500000000E-02 0.  1.
    5000001    1    1    2    0    0  0.86876411067E+02 -0.28119690480E+03 -0.16731658890E+03  0.34719310331E+03  0.77000000000E+02 0.  0.
   -5000001    1    1    2    0    0 -0.86876411067E+02  0.28119690480E+03 -0.78313092279E+02  0.31413556069E+03  0.77000000000E+02 0.  0.
<mgrwt>
<rscale>  0 0.61402090E+03</rscale>
<asrwt>0</asrwt>
<pdfrwt beam="1">  1        2 0.69766027E-01 0.61402090E+03</pdfrwt>
<pdfrwt beam="2">  1       -2 0.31976845E-01 0.61402090E+03</pdfrwt>
<totfact> 0.63090244E+02</totfact>
</mgrwt>
</event>
<event>
 4    1  0.6207184E-004  0.2775650E+03  0.7818608E-02  0.1097026E+00
          2   -1    0    0  501    0  0.00000000000E+00  0.00000000000E+00  0.44467720311E+02  0.44467720384E+02  0.25500000000E-02 0.  1.
         -2   -1    0    0    0  501 -0.00000000000E+00 -0.00000000000E+00 -0.43313640792E+03  0.43313640793E+03  0.25500000000E-02 0. -1.
    5000001    1    1    2    0    0  0.10637501817E+03 -0.18258606342E+02 -0.26491562576E+03  0.29624029092E+03  0.77000000000E+02 0.  0.
   -5000001    1    1    2    0    0 -0.10637501817E+03  0.18258606342E+02 -0.12375306185E+03  0.18136383739E+03  0.77000000000E+02 0.  0.
<mgrwt>
<rscale>  0 0.27756505E+03</rscale>
<asrwt>0</asrwt>
<pdfrwt beam="1">  1        2 0.68411881E-02 0.27756505E+03</pdfrwt>
<pdfrwt beam="2">  1       -2 0.66636367E-01 0.27756505E+03</pdfrwt>
<totfact> 0.22015912E+03</totfact>
</mgrwt>
</event>
<event>
 4    1  0.6207184E-004  0.2398103E+03  0.7818608E-02  0.1119919E+00
         -2   -1    0    0    0  501 -0.00000000000E+00  0.00000000000E+00  0.28703896485E+02  0.28703896598E+02  0.25500000000E-02 0. -1.
          2   -1    0    0  501    0  0.00000000000E+00 -0.00000000000E+00 -0.50088119022E+03  0.50088119022E+03  0.25500000000E-02 0.  1.
    5000001    1    1    2    0    0  0.41911466286E+02 -0.80909909291E+02 -0.26270430157E+03  0.28852302247E+03  0.77000000000E+02 0.  0.
   -5000001    1    1    2    0    0 -0.41911466286E+02  0.80909909291E+02 -0.20947299216E+03  0.24106206436E+03  0.77000000000E+02 0.  0.
<mgrwt>
<rscale>  0 0.23981027E+03</rscale>
<asrwt>0</asrwt>
<pdfrwt beam="1">  1        2 0.77058638E-01 0.23981027E+03</pdfrwt>
<pdfrwt beam="2">  1       -2 0.44159845E-02 0.23981027E+03</pdfrwt>
<totfact> 0.14485045E+04</totfact>
</mgrwt>
</event>
<event>
 4    1  0.6207184E-004  0.2333361E+03  0.7818608E-02  0.1124313E+00
         -2   -1    0    0    0  501 -0.00000000000E+00  0.00000000000E+00  0.11744994577E+03  0.11744994580E+03  0.25500000000E-02 0. -1.
          2   -1    0    0  501    0  0.00000000000E+00 -0.00000000000E+00 -0.11589135674E+03  0.11589135676E+03  0.25500000000E-02 0.  1.
    5000001    1    1    2    0    0 -0.76161424383E+02  0.43378845399E+02  0.11624197037E+01  0.11667321034E+03  0.77000000000E+02 0.  0.
   -5000001    1    1    2    0    0  0.76161424383E+02 -0.43378845399E+02  0.39616933190E+00  0.11666809222E+03  0.77000000000E+02 0.  0.
<mgrwt>
<rscale>  0 0.23333610E+03</rscale>
<asrwt>0</asrwt>
<pdfrwt beam="1">  1        2 0.17829440E-01 0.23333610E+03</pdfrwt>
<pdfrwt beam="2">  1       -2 0.18069222E-01 0.23333610E+03</pdfrwt>
<totfact> 0.77935988E+03</totfact>
</mgrwt>
</event>
<event>
 4    1  0.6207184E-004  0.2397904E+03  0.7818608E-02  0.1119933E+00
          2   -1    0    0  501    0  0.00000000000E+00  0.00000000000E+00  0.14361623522E+04  0.14361623522E+04  0.25500000000E-02 0.  1.
         -2   -1    0    0    0  501 -0.00000000000E+00 -0.00000000000E+00 -0.10009212204E+02  0.10009212529E+02  0.25500000000E-02 0. -1.
    5000001    1    1    2    0    0 -0.35219264059E+02 -0.84672902211E+02  0.74924087530E+03  0.75874948840E+03  0.77000000000E+02 0.  0.
   -5000001    1    1    2    0    0  0.35219264059E+02  0.84672902211E+02  0.67691226470E+03  0.68742207633E+03  0.77000000000E+02 0.  0.
<mgrwt>
<rscale>  0 0.23979036E+03</rscale>
<asrwt>0</asrwt>
<pdfrwt beam="1">  1        2 0.22094810E+00 0.23979036E+03</pdfrwt>
<pdfrwt beam="2">  1       -2 0.15398785E-02 0.23979036E+03</pdfrwt>
<totfact> 0.16675160E+04</totfact>
</mgrwt>
</event>
<event>
 4    1  0.6207184E-004  0.6957766E+03  0.7818608E-02  0.9724482E-01
          2   -1    0    0  501    0  0.00000000000E+00  0.00000000000E+00  0.60260275721E+03  0.60260275721E+03  0.25500000000E-02 0.  1.
         -2   -1    0    0    0  501 -0.00000000000E+00 -0.00000000000E+00 -0.20083924183E+03  0.20083924185E+03  0.25500000000E-02 0. -1.
    5000001    1    1    2    0    0 -0.24065186828E+03  0.18587484883E+03  0.37460988614E+03  0.48859425695E+03  0.77000000000E+02 0.  0.
   -5000001    1    1    2    0    0  0.24065186828E+03 -0.18587484883E+03  0.27153629234E+02  0.31484774211E+03  0.77000000000E+02 0.  0.
<mgrwt>
<rscale>  0 0.69577663E+03</rscale>
<asrwt>0</asrwt>
<pdfrwt beam="1">  1        2 0.92708117E-01 0.69577663E+03</pdfrwt>
<pdfrwt beam="2">  1       -2 0.30898345E-01 0.69577663E+03</pdfrwt>
<totfact> 0.48169850E+02</totfact>
</mgrwt>
</event>
<event>
 4    1  0.6207184E-004  0.2630612E+03  0.7818608E-02  0.1105318E+00
         -2   -1    0    0    0  501 -0.00000000000E+00  0.00000000000E+00  0.26105336658E+02  0.26105336783E+02  0.25500000000E-02 0. -1.
          2   -1    0    0  501    0  0.00000000000E+00 -0.00000000000E+00 -0.66271107584E+03  0.66271107585E+03  0.25500000000E-02 0.  1.
    5000001    1    1    2    0    0 -0.62718498708E+02 -0.46155914428E+02 -0.12754421446E+03  0.16810861120E+03  0.77000000000E+02 0.  0.
   -5000001    1    1    2    0    0  0.62718498708E+02  0.46155914428E+02 -0.50906152472E+03  0.52070780143E+03  0.77000000000E+02 0.  0.
<mgrwt>
<rscale>  0 0.26306118E+03</rscale>
<asrwt>0</asrwt>
<pdfrwt beam="1">  1        2 0.10195554E+00 0.26306118E+03</pdfrwt>
<pdfrwt beam="2">  1       -2 0.40162062E-02 0.26306118E+03</pdfrwt>
<totfact> 0.12163140E+04</totfact>
</mgrwt>
</event>
<event>
 4    1  0.6207184E-004  0.4167737E+03  0.7818608E-02  0.1038121E+00
         -2   -1    0    0    0  501 -0.00000000000E+00  0.00000000000E+00  0.32115236244E+02  0.32115236345E+02  0.25500000000E-02 0. -1.
          2   -1    0    0  501    0  0.00000000000E+00 -0.00000000000E+00 -0.13521643341E+04  0.13521643341E+04  0.25500000000E-02 0.  1.
    5000001    1    1    2    0    0  0.12973493270E+03 -0.14238000175E+03 -0.59419178141E+03  0.62936165338E+03  0.77000000000E+02 0.  0.
   -5000001    1    1    2    0    0 -0.12973493270E+03  0.14238000175E+03 -0.72585731643E+03  0.75491791705E+03  0.77000000000E+02 0.  0.
<mgrwt>
<rscale>  0 0.41677369E+03</rscale>
<asrwt>0</asrwt>
<pdfrwt beam="1">  1        2 0.20802524E+00 0.41677369E+03</pdfrwt>
<pdfrwt beam="2">  1       -2 0.49408066E-02 0.41677369E+03</pdfrwt>
<totfact> 0.32783165E+03</totfact>
</mgrwt>
</event>
<event>
 4    1  0.6207184E-004  0.3341332E+03  0.7818608E-02  0.1069323E+00
         -2   -1    0    0    0  501 -0.00000000000E+00  0.00000000000E+00  0.53507857676E+03  0.53507857676E+03  0.25500000000E-02 0. -1.
          2   -1    0    0  501    0  0.00000000000E+00 -0.00000000000E+00 -0.52162898720E+02  0.52162898782E+02  0.25500000000E-02 0.  1.
    5000001    1    1    2    0    0 -0.67176918390E+02  0.12608454663E+03  0.31114467635E+03  0.35092742965E+03  0.77000000000E+02 0.  0.
   -5000001    1    1    2    0    0  0.67176918390E+02 -0.12608454663E+03  0.17177100169E+03  0.23631404589E+03  0.77000000000E+02 0.  0.
<mgrwt>
<rscale>  0 0.33413320E+03</rscale>
<asrwt>0</asrwt>
<pdfrwt beam="1">  1        2 0.80250620E-02 0.33413320E+03</pdfrwt>
<pdfrwt beam="2">  1       -2 0.82319774E-01 0.33413320E+03</pdfrwt>
<totfact> 0.11372734E+03</totfact>
</mgrwt>
</event>
<event>
 4    1  0.6207184E-004  0.1943627E+03  0.7818608E-02  0.1154584E+00
          2   -1    0    0  501    0  0.00000000000E+00  0.00000000000E+00  0.90524431808E+03  0.90524431808E+03  0.25500000000E-02 0.  1.
         -2   -1    0    0    0  501 -0.00000000000E+00 -0.00000000000E+00 -0.10432781752E+02  0.10432782063E+02  0.25500000000E-02 0. -1.
    5000001    1    1    2    0    0 -0.33944710176E+02 -0.35425125057E+01  0.21900241387E+03  0.23463983043E+03  0.77000000000E+02 0.  0.
   -5000001    1    1    2    0    0  0.33944710176E+02  0.35425125057E+01  0.67580912246E+03  0.68103726972E+03  0.77000000000E+02 0.  0.
<mgrwt>
<rscale>  0 0.19436272E+03</rscale>
<asrwt>0</asrwt>
<pdfrwt beam="1">  1        2 0.13926834E+00 0.19436272E+03</pdfrwt>
<pdfrwt beam="2">  1       -2 0.16050436E-02 0.19436272E+03</pdfrwt>
<totfact> 0.31338075E+04</totfact>
</mgrwt>
</event>
<event>
 4    1  0.6207184E-004  0.2282781E+03  0.7818608E-02  0.1127858E+00
         -2   -1    0    0    0  501 -0.00000000000E+00  0.00000000000E+00  0.21034161252E+03  0.21034161253E+03  0.25500000000E-02 0. -1.
          2   -1    0    0  501    0  0.00000000000E+00 -0.00000000000E+00 -0.61936001386E+02  0.61936001438E+02  0.25500000000E-02 0.  1.
    5000001    1    1    2    0    0 -0.23288295561E+01  0.55899213564E+02 -0.93611289644E+00  0.95184146955E+02  0.77000000000E+02 0.  0.
   -5000001    1    1    2    0    0  0.23288295561E+01 -0.55899213564E+02  0.14934172403E+03  0.17709346702E+03  0.77000000000E+02 0.  0.
<mgrwt>
<rscale>  0 0.22827806E+03</rscale>
<asrwt>0</asrwt>
<pdfrwt beam="1">  1        2 0.95286154E-02 0.22827806E+03</pdfrwt>
<pdfrwt beam="2">  1       -2 0.32360249E-01 0.22827806E+03</pdfrwt>
<totfact> 0.59476689E+03</totfact>
</mgrwt>
</event>
<event>
 4    1  0.6207184E-004  0.7332875E+03  0.7818608E-02  0.9661941E-01
          2   -1    0    0  501    0  0.00000000000E+00  0.00000000000E+00  0.11632866857E+04  0.11632866857E+04  0.25500000000E-02 0.  1.
         -2   -1    0    0    0  501 -0.00000000000E+00 -0.00000000000E+00 -0.11555846277E+03  0.11555846280E+03  0.25500000000E-02 0. -1.
    5000001    1    1    2    0    0 -0.30334240554E+03 -0.12808410502E+03  0.77097243002E+03  0.84187269870E+03  0.77000000000E+02 0.  0.
   -5000001    1    1    2    0    0  0.30334240554E+03  0.12808410502E+03  0.27675579286E+03  0.43697244975E+03  0.77000000000E+02 0.  0.
<mgrwt>
<rscale>  0 0.73328745E+03</rscale>
<asrwt>0</asrwt>
<pdfrwt beam="1">  1        2 0.17896719E+00 0.73328745E+03</pdfrwt>
<pdfrwt beam="2">  1       -2 0.17778224E-01 0.73328745E+03</pdfrwt>
<totfact> 0.52625957E+02</totfact>
</mgrwt>
</event>
<event>
 4    1  0.6207184E-004  0.3193150E+03  0.7818608E-02  0.1075965E+00
         -2   -1    0    0    0  501 -0.00000000000E+00  0.00000000000E+00  0.31538900775E+02  0.31538900878E+02  0.25500000000E-02 0. -1.
          2   -1    0    0  501    0  0.00000000000E+00 -0.00000000000E+00 -0.80822453988E+03  0.80822453988E+03  0.25500000000E-02 0.  1.
    5000001    1    1    2    0    0 -0.87916826031E+02  0.10245031712E+03 -0.29221401216E+03  0.33097351054E+03  0.77000000000E+02 0.  0.
   -5000001    1    1    2    0    0  0.87916826031E+02 -0.10245031712E+03 -0.48447162694E+03  0.50878993022E+03  0.77000000000E+02 0.  0.
<mgrwt>
<rscale>  0 0.31931498E+03</rscale>
<asrwt>0</asrwt>
<pdfrwt beam="1">  1        2 0.12434222E+00 0.31931498E+03</pdfrwt>
<pdfrwt beam="2">  1       -2 0.48521392E-02 0.31931498E+03</pdfrwt>
<totfact> 0.71931318E+03</totfact>
</mgrwt>
</event>
<event>
 4    1  0.6207184E-004  0.2359820E+03  0.7818608E-02  0.1122499E+00
          2   -1    0    0  501    0  0.00000000000E+00  0.00000000000E+00  0.21903325483E+03  0.21903325485E+03  0.25500000000E-02 0.  1.
         -2   -1    0    0    0  501 -0.00000000000E+00 -0.00000000000E+00 -0.63560538329E+02  0.63560538380E+02  0.25500000000E-02 0. -1.
    5000001    1    1    2    0    0  0.37141255536E+02  0.74571621160E+02  0.38886530496E+02  0.11992314955E+03  0.77000000000E+02 0.  0.
   -5000001    1    1    2    0    0 -0.37141255536E+02 -0.74571621160E+02  0.11658618601E+03  0.16267064367E+03  0.77000000000E+02 0.  0.
<mgrwt>
<rscale>  0 0.23598196E+03</rscale>
<asrwt>0</asrwt>
<pdfrwt beam="1">  1        2 0.33697424E-01 0.23598196E+03</pdfrwt>
<pdfrwt beam="2">  1       -2 0.97785444E-02 0.23598196E+03</pdfrwt>
<totfact> 0.10407856E+04</totfact>
</mgrwt>
</event>
<event>
 4    1  0.6207184E-004  0.2102016E+03  0.7818608E-02  0.1141406E+00
          2   -1    0    0  501    0  0.00000000000E+00  0.00000000000E+00  0.22663815744E+04  0.22663815744E+04  0.25500000000E-02 0.  1.
         -2   -1    0    0    0  501 -0.00000000000E+00 -0.00000000000E+00 -0.48739254904E+01  0.48739261575E+01  0.25500000000E-02 0. -1.
    5000001    1    1    2    0    0 -0.55106682382E+02 -0.40273012532E+01  0.63983806819E+03  0.64681892296E+03  0.77000000000E+02 0.  0.
   -5000001    1    1    2    0    0  0.55106682382E+02  0.40273012532E+01  0.16216695807E+04  0.16244365776E+04  0.77000000000E+02 0.  0.
<mgrwt>
<rscale>  0 0.21020158E+03</rscale>
<asrwt>0</asrwt>
<pdfrwt beam="1">  1        2 0.34867434E+00 0.21020158E+03</pdfrwt>
<pdfrwt beam="2">  1       -2 0.74983420E-03 0.21020158E+03</pdfrwt>
<totfact> 0.17249562E+04</totfact>
</mgrwt>
</event>
<event>
 4    1  0.6207184E-004  0.2883963E+03  0.7818608E-02  0.1091189E+00
         -2   -1    0    0    0  501 -0.00000000000E+00  0.00000000000E+00  0.25379945885E+02  0.25379946013E+02  0.25500000000E-02 0. -1.
          2   -1    0    0  501    0  0.00000000000E+00 -0.00000000000E+00 -0.81927314331E+03  0.81927314331E+03  0.25500000000E-02 0.  1.
    5000001    1    1    2    0    0  0.59599727713E+02  0.62252866310E+02 -0.64951252033E+03  0.65971437833E+03  0.77000000000E+02 0.  0.
   -5000001    1    1    2    0    0 -0.59599727713E+02 -0.62252866310E+02 -0.14438067709E+03  0.18493871099E+03  0.77000000000E+02 0.  0.
<mgrwt>
<rscale>  0 0.28839631E+03</rscale>
<asrwt>0</asrwt>
<pdfrwt beam="1">  1        2 0.12604200E+00 0.28839631E+03</pdfrwt>
<pdfrwt beam="2">  1       -2 0.39046077E-02 0.28839631E+03</pdfrwt>
<totfact> 0.97948478E+03</totfact>
</mgrwt>
</event>
<event>
 4    1  0.6207184E-004  0.1977232E+03  0.7818608E-02  0.1151674E+00
          2   -1    0    0  501    0  0.00000000000E+00  0.00000000000E+00  0.64062670286E+03  0.64062670287E+03  0.25500000000E-02 0.  1.
         -2   -1    0    0    0  501 -0.00000000000E+00 -0.00000000000E+00 -0.15256337391E+02  0.15256337604E+02  0.25500000000E-02 0. -1.
    5000001    1    1    2    0    0  0.60556933395E+02 -0.11182569316E+02  0.28866708556E+03  0.30504078141E+03  0.77000000000E+02 0.  0.
   -5000001    1    1    2    0    0 -0.60556933395E+02  0.11182569316E+02  0.33670327991E+03  0.35084225906E+03  0.77000000000E+02 0.  0.
<mgrwt>
<rscale>  0 0.19772321E+03</rscale>
<asrwt>0</asrwt>
<pdfrwt beam="1">  1        2 0.98557951E-01 0.19772321E+03</pdfrwt>
<pdfrwt beam="2">  1       -2 0.23471289E-02 0.19772321E+03</pdfrwt>
<totfact> 0.27656835E+04</totfact>
</mgrwt>
</event>
<event>
 4    1  0.6207184E-004  0.2192223E+03  0.7818608E-02  0.1134464E+00
          2   -1    0    0  501    0  0.00000000000E+00  0.00000000000E+00  0.17128190928E+04  0.17128190928E+04  0.25500000000E-02 0.  1.
         -2   -1    0    0    0  501 -0.00000000000E+00 -0.00000000000E+00 -0.70145194546E+01  0.70145199181E+01  0.25500000000E-02 0. -1.
    5000001    1    1    2    0    0  0.28877886792E+02  0.59697584352E+02  0.11752103201E+04  0.11795957064E+04  0.77000000000E+02 0.  0.
   -5000001    1    1    2    0    0 -0.28877886792E+02 -0.59697584352E+02  0.53059425322E+03  0.54023790636E+03  0.77000000000E+02 0.  0.
<mgrwt>
<rscale>  0 0.21922229E+03</rscale>
<asrwt>0</asrwt>
<pdfrwt beam="1">  1        2 0.26351081E+00 0.21922229E+03</pdfrwt>
<pdfrwt beam="2">  1       -2 0.10791561E-02 0.21922229E+03</pdfrwt>
<totfact> 0.19893742E+04</totfact>
</mgrwt>
</event>
<event>
 4    1  0.6207184E-004  0.3375515E+03  0.7818608E-02  0.1067844E+00
          2   -1    0    0  501    0  0.00000000000E+00  0.00000000000E+00  0.69920783042E+03  0.69920783043E+03  0.25500000000E-02 0.  1.
         -2   -1    0    0    0  501 -0.00000000000E+00 -0.00000000000E+00 -0.40739318738E+02  0.40739318818E+02  0.25500000000E-02 0. -1.
    5000001    1    1    2    0    0 -0.85369214261E+02 -0.11455159321E+03  0.22767864628E+03  0.27960067279E+03  0.77000000000E+02 0.  0.
   -5000001    1    1    2    0    0  0.85369214261E+02  0.11455159321E+03  0.43078986541E+03  0.46034647646E+03  0.77000000000E+02 0.  0.
<mgrwt>
<rscale>  0 0.33755148E+03</rscale>
<asrwt>0</asrwt>
<pdfrwt beam="1">  1        2 0.10757043E+00 0.33755148E+03</pdfrwt>
<pdfrwt beam="2">  1       -2 0.62675879E-02 0.33755148E+03</pdfrwt>
<totfact> 0.58308239E+03</totfact>
</mgrwt>
</event>
<event>
 4    1  0.6207184E-004  0.2978541E+03  0.7818608E-02  0.1086318E+00
         -2   -1    0    0    0  501 -0.00000000000E+00  0.00000000000E+00  0.24767378284E+02  0.24767378416E+02  0.25500000000E-02 0. -1.
          2   -1    0    0  501    0  0.00000000000E+00 -0.00000000000E+00 -0.89550302849E+03  0.89550302849E+03  0.25500000000E-02 0.  1.
    5000001    1    1    2    0    0 -0.70424875144E+02  0.84203274179E+02 -0.63561096457E+03  0.64959999438E+03  0.77000000000E+02 0.  0.
   -5000001    1    1    2    0    0  0.70424875144E+02 -0.84203274179E+02 -0.23512468563E+03  0.27067041252E+03  0.77000000000E+02 0.  0.
<mgrwt>
<rscale>  0 0.29785407E+03</rscale>
<asrwt>0</asrwt>
<pdfrwt beam="1">  1        2 0.13776967E+00 0.29785407E+03</pdfrwt>
<pdfrwt beam="2">  1       -2 0.38103666E-02 0.29785407E+03</pdfrwt>
<totfact> 0.90493325E+03</totfact>
</mgrwt>
</event>
<event>
 4    1  0.6207184E-004  0.2166280E+03  0.7818608E-02  0.1136422E+00
          2   -1    0    0  501    0  0.00000000000E+00  0.00000000000E+00  0.77163849330E+03  0.77163849330E+03  0.25500000000E-02 0.  1.
         -2   -1    0    0    0  501 -0.00000000000E+00 -0.00000000000E+00 -0.15203908425E+02  0.15203908639E+02  0.25500000000E-02 0. -1.
    5000001    1    1    2    0    0 -0.71473748890E+02 -0.24180106793E+02  0.34016603714E+03  0.35684045057E+03  0.77000000000E+02 0.  0.
   -5000001    1    1    2    0    0  0.71473748890E+02  0.24180106793E+02  0.41626854773E+03  0.43000195137E+03  0.77000000000E+02 0.  0.
<mgrwt>
<rscale>  0 0.21662799E+03</rscale>
<asrwt>0</asrwt>
<pdfrwt beam="1">  1        2 0.11871361E+00 0.21662799E+03</pdfrwt>
<pdfrwt beam="2">  1       -2 0.23390629E-02 0.21662799E+03</pdfrwt>
<totfact> 0.22344151E+04</totfact>
</mgrwt>
</event>
<event>
 4    1  0.6207184E-004  0.2003677E+03  0.7818608E-02  0.1149429E+00
          2   -1    0    0  501    0  0.00000000000E+00  0.00000000000E+00  0.17613614411E+04  0.17613614411E+04  0.25500000000E-02 0.  1.
         -2   -1    0    0    0  501 -0.00000000000E+00 -0.00000000000E+00 -0.56983225526E+01  0.56983231232E+01  0.25500000000E-02 0. -1.
    5000001    1    1    2    0    0  0.55539121630E+02  0.25960198026E+02  0.10426517711E+04  0.10472870866E+04  0.77000000000E+02 0.  0.
   -5000001    1    1    2    0    0 -0.55539121630E+02 -0.25960198026E+02  0.71301134741E+03  0.71977267762E+03  0.77000000000E+02 0.  0.
<mgrwt>
<rscale>  0 0.20036772E+03</rscale>
<asrwt>0</asrwt>
<pdfrwt beam="1">  1        2 0.27097846E+00 0.20036772E+03</pdfrwt>
<pdfrwt beam="2">  1       -2 0.87666578E-03 0.20036772E+03</pdfrwt>
<totfact> 0.25234359E+04</totfact>
</mgrwt>
</event>
<event>
 4    1  0.6207184E-004  0.1867527E+03  0.7818608E-02  0.1161423E+00
          2   -1    0    0  501    0  0.00000000000E+00  0.00000000000E+00  0.94735718343E+03  0.94735718343E+03  0.25500000000E-02 0.  1.
         -2   -1    0    0    0  501 -0.00000000000E+00 -0.00000000000E+00 -0.92036529427E+01  0.92036532959E+01  0.25500000000E-02 0. -1.
    5000001    1    1    2    0    0  0.36567744382E+02  0.33954971554E+01  0.66354134472E+03  0.66900287405E+03  0.77000000000E+02 0.  0.
   -5000001    1    1    2    0    0 -0.36567744382E+02 -0.33954971554E+01  0.27461218576E+03  0.28755796268E+03  0.77000000000E+02 0.  0.
<mgrwt>
<rscale>  0 0.18675274E+03</rscale>
<asrwt>0</asrwt>
<pdfrwt beam="1">  1        2 0.14574721E+00 0.18675274E+03</pdfrwt>
<pdfrwt beam="2">  1       -2 0.14159471E-02 0.18675274E+03</pdfrwt>
<totfact> 0.35265120E+04</totfact>
</mgrwt>
</event>
<event>
 4    1  0.6207184E-004  0.5119377E+03  0.7818608E-02  0.1010709E+00
         -2   -1    0    0    0  501 -0.00000000000E+00  0.00000000000E+00  0.59923237058E+03  0.59923237059E+03  0.25500000000E-02 0. -1.
          2   -1    0    0  501    0  0.00000000000E+00 -0.00000000000E+00 -0.10933997610E+03  0.10933997613E+03  0.25500000000E-02 0.  1.
    5000001    1    1    2    0    0 -0.44066578468E+02  0.23636276478E+03  0.18652094392E+03  0.31389215096E+03  0.77000000000E+02 0.  0.
   -5000001    1    1    2    0    0  0.44066578468E+02 -0.23636276478E+03  0.30337145055E+03  0.39468019576E+03  0.77000000000E+02 0.  0.
<mgrwt>
<rscale>  0 0.51193770E+03</rscale>
<asrwt>0</asrwt>
<pdfrwt beam="1">  1        2 0.16821535E-01 0.51193770E+03</pdfrwt>
<pdfrwt beam="2">  1       -2 0.92189595E-01 0.51193770E+03</pdfrwt>
<totfact> 0.35281936E+02</totfact>
</mgrwt>
</event>
<event>
 4    1  0.6207184E-004  0.1698602E+03  0.7818608E-02  0.1177994E+00
          2   -1    0    0  501    0  0.00000000000E+00  0.00000000000E+00  0.28410778878E+04  0.28410778878E+04  0.25500000000E-02 0.  1.
         -2   -1    0    0    0  501 -0.00000000000E+00 -0.00000000000E+00 -0.25388678491E+01  0.25388691297E+01  0.25500000000E-02 0. -1.
    5000001    1    1    2    0    0 -0.15415774626E+02  0.32191850240E+02  0.13659035037E+04  0.13685376658E+04  0.77000000000E+02 0.  0.
   -5000001    1    1    2    0    0  0.15415774626E+02 -0.32191850240E+02  0.14726355163E+04  0.14750790912E+04  0.77000000000E+02 0.  0.
<mgrwt>
<rscale>  0 0.16986021E+03</rscale>
<asrwt>0</asrwt>
<pdfrwt beam="1">  1        2 0.43708722E+00 0.16986021E+03</pdfrwt>
<pdfrwt beam="2">  1       -2 0.39059666E-03 0.16986021E+03</pdfrwt>
<totfact> 0.21138380E+04</totfact>
</mgrwt>
</event>
<event>
 4    1  0.6207184E-004  0.2486511E+03  0.7818608E-02  0.1114160E+00
          2   -1    0    0  501    0  0.00000000000E+00  0.00000000000E+00  0.25963851708E+03  0.25963851710E+03  0.25500000000E-02 0.  1.
         -2   -1    0    0    0  501 -0.00000000000E+00 -0.00000000000E+00 -0.59532145254E+02  0.59532145308E+02  0.25500000000E-02 0. -1.
    5000001    1    1    2    0    0 -0.79307060350E+02  0.48068061535E+02  0.13914933462E+03  0.18409694643E+03  0.77000000000E+02 0.  0.
   -5000001    1    1    2    0    0  0.79307060350E+02 -0.48068061535E+02  0.60957037213E+02  0.13507371597E+03  0.77000000000E+02 0.  0.
<mgrwt>
<rscale>  0 0.24865106E+03</rscale>
<asrwt>0</asrwt>
<pdfrwt beam="1">  1        2 0.39944386E-01 0.24865106E+03</pdfrwt>
<pdfrwt beam="2">  1       -2 0.91587918E-02 0.24865106E+03</pdfrwt>
<totfact> 0.96285372E+03</totfact>
</mgrwt>
</event>
<event>
 4    1  0.6207184E-004  0.1964941E+03  0.7818608E-02  0.1152731E+00
         -2   -1    0    0    0  501 -0.00000000000E+00  0.00000000000E+00  0.11204935044E+02  0.11204935334E+02  0.25500000000E-02 0. -1.
          2   -1    0    0  501    0  0.00000000000E+00 -0.00000000000E+00 -0.86144935051E+03  0.86144935051E+03  0.25500000000E-02 0.  1.
    5000001    1    1    2    0    0  0.34848650049E+02 -0.44163233876E+02 -0.53009293892E+03  0.53860221270E+03  0.77000000000E+02 0.  0.
   -5000001    1    1    2    0    0 -0.34848650049E+02  0.44163233876E+02 -0.32015147654E+03  0.33405207314E+03  0.77000000000E+02 0.  0.
<mgrwt>
<rscale>  0 0.19649411E+03</rscale>
<asrwt>0</asrwt>
<pdfrwt beam="1">  1        2 0.13253062E+00 0.19649411E+03</pdfrwt>
<pdfrwt beam="2">  1       -2 0.17238369E-02 0.19649411E+03</pdfrwt>
<totfact> 0.30168289E+04</totfact>
</mgrwt>
</event>
<event>
 4    1  0.6207184E-004  0.2784397E+03  0.7818608E-02  0.1096544E+00
          2   -1    0    0  501    0  0.00000000000E+00  0.00000000000E+00  0.66991246620E+03  0.66991246620E+03  0.25500000000E-02 0.  1.
         -2   -1    0    0    0  501 -0.00000000000E+00 -0.00000000000E+00 -0.28932383340E+02  0.28932383452E+02  0.25500000000E-02 0. -1.
    5000001    1    1    2    0    0 -0.73537554454E+02 -0.87671814400E+02  0.27293196307E+03  0.30580218348E+03  0.77000000000E+02 0.  0.
   -5000001    1    1    2    0    0  0.73537554454E+02  0.87671814400E+02  0.36804811978E+03  0.39304266617E+03  0.77000000000E+02 0.  0.
<mgrwt>
<rscale>  0 0.27843968E+03</rscale>
<asrwt>0</asrwt>
<pdfrwt beam="1">  1        2 0.10306345E+00 0.27843968E+03</pdfrwt>
<pdfrwt beam="2">  1       -2 0.44511361E-02 0.27843968E+03</pdfrwt>
<totfact> 0.10305584E+04</totfact>
</mgrwt>
</event>
<event>
 4    1  0.6207184E-004  0.6142563E+03  0.7818608E-02  0.9876262E-01
          2   -1    0    0  501    0  0.00000000000E+00  0.00000000000E+00  0.28675893069E+03  0.28675893070E+03  0.25500000000E-02 0.  1.
         -2   -1    0    0    0  501 -0.00000000000E+00 -0.00000000000E+00 -0.32894425521E+03  0.32894425522E+03  0.25500000000E-02 0. -1.
    5000001    1    1    2    0    0 -0.18507299068E+03 -0.13226399835E+03 -0.21299315926E+03  0.32099978665E+03  0.77000000000E+02 0.  0.
   -5000001    1    1    2    0    0  0.18507299068E+03  0.13226399835E+03  0.17080783473E+03  0.29470339928E+03  0.77000000000E+02 0.  0.
<mgrwt>
<rscale>  0 0.61425631E+03</rscale>
<asrwt>0</asrwt>
<pdfrwt beam="1">  1        2 0.44116759E-01 0.61425631E+03</pdfrwt>
<pdfrwt beam="2">  1       -2 0.50606808E-01 0.61425631E+03</pdfrwt>
<totfact> 0.43017958E+02</totfact>
</mgrwt>
</event>
<event>
 4    1  0.6207184E-004  0.1861001E+03  0.7818608E-02  0.1162027E+00
         -2   -1    0    0    0  501 -0.00000000000E+00  0.00000000000E+00  0.57947936412E+02  0.57947936468E+02  0.25500000000E-02 0. -1.
          2   -1    0    0  501    0  0.00000000000E+00 -0.00000000000E+00 -0.14941542897E+03  0.14941542899E+03  0.25500000000E-02 0.  1.
    5000001    1    1    2    0    0 -0.15802265385E+02 -0.34597714661E+02 -0.58283765128E+01  0.86079518027E+02  0.77000000000E+02 0.  0.
   -5000001    1    1    2    0    0  0.15802265385E+02  0.34597714661E+02 -0.85639116048E+02  0.12128384743E+03  0.77000000000E+02 0.  0.
<mgrwt>
<rscale>  0 0.18610014E+03</rscale>
<asrwt>0</asrwt>
<pdfrwt beam="1">  1        2 0.22986989E-01 0.18610014E+03</pdfrwt>
<pdfrwt beam="2">  1       -2 0.89150672E-02 0.18610014E+03</pdfrwt>
<totfact> 0.18058044E+04</totfact>
</mgrwt>
</event>
<event>
 4    1  0.6207184E-004  0.3036658E+03  0.7818608E-02  0.1083422E+00
          2   -1    0    0  501    0  0.00000000000E+00  0.00000000000E+00  0.11746406369E+04  0.11746406369E+04  0.25500000000E-02 0.  1.
         -2   -1    0    0    0  501 -0.00000000000E+00 -0.00000000000E+00 -0.19625768807E+02  0.19625768973E+02  0.25500000000E-02 0. -1.
    5000001    1    1    2    0    0 -0.12558893783E+03  0.73363402257E+00  0.72206808815E+03  0.73694263240E+03  0.77000000000E+02 0.  0.
   -5000001    1    1    2    0    0  0.12558893783E+03 -0.73363402257E+00  0.43294677993E+03  0.45732377346E+03  0.77000000000E+02 0.  0.
<mgrwt>
<rscale>  0 0.30366577E+03</rscale>
<asrwt>0</asrwt>
<pdfrwt beam="1">  1        2 0.18071392E+00 0.30366577E+03</pdfrwt>
<pdfrwt beam="2">  1       -2 0.30193495E-02 0.30366577E+03</pdfrwt>
<totfact> 0.86822706E+03</totfact>
</mgrwt>
</event>
<event>
 4    1  0.6207184E-004  0.2639837E+03  0.7818608E-02  0.1104773E+00
         -2   -1    0    0    0  501 -0.00000000000E+00  0.00000000000E+00  0.35213557230E+02  0.35213557322E+02  0.25500000000E-02 0. -1.
          2   -1    0    0  501    0  0.00000000000E+00 -0.00000000000E+00 -0.49474849708E+03  0.49474849709E+03  0.25500000000E-02 0.  1.
    5000001    1    1    2    0    0  0.42277820770E+02  0.98503816202E+02 -0.22663246286E+03  0.26226263393E+03  0.77000000000E+02 0.  0.
   -5000001    1    1    2    0    0 -0.42277820770E+02 -0.98503816202E+02 -0.23290247699E+03  0.26769942048E+03  0.77000000000E+02 0.  0.
<mgrwt>
<rscale>  0 0.26398375E+03</rscale>
<asrwt>0</asrwt>
<pdfrwt beam="1">  1        2 0.76115148E-01 0.26398375E+03</pdfrwt>
<pdfrwt beam="2">  1       -2 0.54174707E-02 0.26398375E+03</pdfrwt>
<totfact> 0.10821425E+04</totfact>
</mgrwt>
</event>
<event>
 4    1  0.6207184E-004  0.2073237E+03  0.7818608E-02  0.1143703E+00
          2   -1    0    0  501    0  0.00000000000E+00  0.00000000000E+00  0.12838063842E+02  0.12838064095E+02  0.25500000000E-02 0.  1.
         -2   -1    0    0    0  501 -0.00000000000E+00 -0.00000000000E+00 -0.83702479076E+03  0.83702479077E+03  0.25500000000E-02 0. -1.
    5000001    1    1    2    0    0  0.32250295822E+02 -0.61190671656E+02 -0.43542571822E+03  0.44755886312E+03  0.77000000000E+02 0.  0.
   -5000001    1    1    2    0    0 -0.32250295822E+02  0.61190671656E+02 -0.38876100870E+03  0.40230399174E+03  0.77000000000E+02 0.  0.
<mgrwt>
<rscale>  0 0.20732369E+03</rscale>
<asrwt>0</asrwt>
<pdfrwt beam="1">  1        2 0.19750874E-02 0.20732369E+03</pdfrwt>
<pdfrwt beam="2">  1       -2 0.12877300E+00 0.20732369E+03</pdfrwt>
<totfact> 0.25594444E+03</totfact>
</mgrwt>
</event>
<event>
 4    1  0.6207184E-004  0.3069407E+03  0.7818608E-02  0.1081822E+00
          2   -1    0    0  501    0  0.00000000000E+00  0.00000000000E+00  0.46403061519E+03  0.46403061520E+03  0.25500000000E-02 0.  1.
         -2   -1    0    0    0  501 -0.00000000000E+00 -0.00000000000E+00 -0.50757759746E+02  0.50757759810E+02  0.25500000000E-02 0. -1.
    5000001    1    1    2    0    0  0.46392429766E+02 -0.77581098680E+02  0.36970138233E+03  0.38830296999E+03  0.77000000000E+02 0.  0.
   -5000001    1    1    2    0    0 -0.46392429766E+02  0.77581098680E+02  0.43571473119E+02  0.12648540501E+03  0.77000000000E+02 0.  0.
<mgrwt>
<rscale>  0 0.30694074E+03</rscale>
<asrwt>0</asrwt>
<pdfrwt beam="1">  1        2 0.71389323E-01 0.30694074E+03</pdfrwt>
<pdfrwt beam="2">  1       -2 0.78088864E-02 0.30694074E+03</pdfrwt>
<totfact> 0.66447264E+03</totfact>
</mgrwt>
</event>
<event>
 4    1  0.6207184E-004  0.3527535E+03  0.7818608E-02  0.1061491E+00
         -2   -1    0    0    0  501 -0.00000000000E+00  0.00000000000E+00  0.46077661244E+02  0.46077661315E+02  0.25500000000E-02 0. -1.
          2   -1    0    0  501    0  0.00000000000E+00 -0.00000000000E+00 -0.67513742253E+03  0.67513742253E+03  0.25500000000E-02 0.  1.
    5000001    1    1    2    0    0 -0.70489465995E+01  0.15264644137E+03 -0.40197101024E+03  0.43687563080E+03  0.77000000000E+02 0.  0.
   -5000001    1    1    2    0    0  0.70489465995E+01 -0.15264644137E+03 -0.22708875104E+03  0.28433945305E+03  0.77000000000E+02 0.  0.
<mgrwt>
<rscale>  0 0.35275347E+03</rscale>
<asrwt>0</asrwt>
<pdfrwt beam="1">  1        2 0.10386729E+00 0.35275347E+03</pdfrwt>
<pdfrwt beam="2">  1       -2 0.70888714E-02 0.35275347E+03</pdfrwt>
<totfact> 0.50298708E+03</totfact>
</mgrwt>
</event>
<event>
 4    1  0.6207184E-004  0.2481626E+03  0.7818608E-02  0.1114472E+00
         -2   -1    0    0    0  501 -0.00000000000E+00  0.00000000000E+00  0.33669071856E+02  0.33669071953E+02  0.25500000000E-02 0. -1.
          2   -1    0    0  501    0  0.00000000000E+00 -0.00000000000E+00 -0.45727916430E+03  0.45727916431E+03  0.25500000000E-02 0.  1.
    5000001    1    1    2    0    0 -0.54917730763E+02 -0.64108024661E+02 -0.11607806372E+03  0.16287698688E+03  0.77000000000E+02 0.  0.
   -5000001    1    1    2    0    0  0.54917730763E+02  0.64108024661E+02 -0.30753202873E+03  0.32807124938E+03  0.77000000000E+02 0.  0.
<mgrwt>
<rscale>  0 0.24816257E+03</rscale>
<asrwt>0</asrwt>
<pdfrwt beam="1">  1        2 0.70350636E-01 0.24816257E+03</pdfrwt>
<pdfrwt beam="2">  1       -2 0.51798575E-02 0.24816257E+03</pdfrwt>
<totfact> 0.12607088E+04</totfact>
</mgrwt>
</event>
<event>
 4    1  0.6207184E-004  0.1756758E+03  0.7818608E-02  0.1172055E+00
         -2   -1    0    0    0  501 -0.00000000000E+00  0.00000000000E+00  0.22689719127E+01  0.22689733456E+01  0.25500000000E-02 0. -1.
          2   -1    0    0  501    0  0.00000000000E+00 -0.00000000000E+00 -0.34004356352E+04  0.34004356352E+04  0.25500000000E-02 0.  1.
    5000001    1    1    2    0    0  0.36435338205E+02 -0.17992093368E+02 -0.19243384715E+04  0.19263070374E+04  0.77000000000E+02 0.  0.
   -5000001    1    1    2    0    0 -0.36435338205E+02  0.17992093368E+02 -0.14738281918E+04  0.14763975712E+04  0.77000000000E+02 0.  0.
<mgrwt>
<rscale>  0 0.17567579E+03</rscale>
<asrwt>0</asrwt>
<pdfrwt beam="1">  1        2 0.52313987E+00 0.17567579E+03</pdfrwt>
<pdfrwt beam="2">  1       -2 0.34907543E-03 0.17567579E+03</pdfrwt>
<totfact> 0.11467215E+04</totfact>
</mgrwt>
</event>
<event>
 4    1  0.6207184E-004  0.1942124E+03  0.7818608E-02  0.1154716E+00
         -2   -1    0    0    0  501 -0.00000000000E+00  0.00000000000E+00  0.14345926997E+02  0.14345927224E+02  0.25500000000E-02 0. -1.
          2   -1    0    0  501    0  0.00000000000E+00 -0.00000000000E+00 -0.65730261655E+03  0.65730261655E+03  0.25500000000E-02 0.  1.
    5000001    1    1    2    0    0 -0.55409845175E+02  0.16654882957E+02 -0.36425250705E+03  0.37677118382E+03  0.77000000000E+02 0.  0.
   -5000001    1    1    2    0    0  0.55409845175E+02 -0.16654882957E+02 -0.27870418250E+03  0.29487735995E+03  0.77000000000E+02 0.  0.
<mgrwt>
<rscale>  0 0.19421241E+03</rscale>
<asrwt>0</asrwt>
<pdfrwt beam="1">  1        2 0.10112346E+00 0.19421241E+03</pdfrwt>
<pdfrwt beam="2">  1       -2 0.22070662E-02 0.19421241E+03</pdfrwt>
<totfact> 0.29330557E+04</totfact>
</mgrwt>
</event>
<event>
 4    1  0.6207184E-004  0.4041786E+03  0.7818608E-02  0.1042342E+00
          2   -1    0    0  501    0  0.00000000000E+00  0.00000000000E+00  0.47798427357E+02  0.47798427425E+02  0.25500000000E-02 0.  1.
         -2   -1    0    0    0  501 -0.00000000000E+00 -0.00000000000E+00 -0.85442335850E+03  0.85442335851E+03  0.25500000000E-02 0. -1.
    5000001    1    1    2    0    0  0.81628056213E+02  0.14009955158E+03 -0.61056283985E+03  0.63640160694E+03  0.77000000000E+02 0.  0.
   -5000001    1    1    2    0    0 -0.81628056213E+02 -0.14009955158E+03 -0.19606209130E+03  0.26582017899E+03  0.77000000000E+02 0.  0.
<mgrwt>
<rscale>  0 0.40417864E+03</rscale>
<asrwt>0</asrwt>
<pdfrwt beam="1">  1        2 0.73536048E-02 0.40417864E+03</pdfrwt>
<pdfrwt beam="2">  1       -2 0.13144974E+00 0.40417864E+03</pdfrwt>
<totfact> 0.42223689E+02</totfact>
</mgrwt>
</event>
<event>
 4    1  0.6207184E-004  0.1958009E+03  0.7818608E-02  0.1153331E+00
         -2   -1    0    0    0  501 -0.00000000000E+00  0.00000000000E+00  0.26244086546E+02  0.26244086669E+02  0.25500000000E-02 0. -1.
          2   -1    0    0  501    0  0.00000000000E+00 -0.00000000000E+00 -0.36520598159E+03  0.36520598160E+03  0.25500000000E-02 0.  1.
    5000001    1    1    2    0    0 -0.25354595929E+02 -0.54843610383E+02 -0.17387027319E+03  0.19952581044E+03  0.77000000000E+02 0.  0.
   -5000001    1    1    2    0    0  0.25354595929E+02  0.54843610383E+02 -0.16509162186E+03  0.19192425783E+03  0.77000000000E+02 0.  0.
<mgrwt>
<rscale>  0 0.19580089E+03</rscale>
<asrwt>0</asrwt>
<pdfrwt beam="1">  1        2 0.56185532E-01 0.19580089E+03</pdfrwt>
<pdfrwt beam="2">  1       -2 0.40375520E-02 0.19580089E+03</pdfrwt>
<totfact> 0.23082823E+04</totfact>
</mgrwt>
</event>
<event>
 4    1  0.6207184E-004  0.2974522E+03  0.7818608E-02  0.1086521E+00
          2   -1    0    0  501    0  0.00000000000E+00  0.00000000000E+00  0.42275349518E+03  0.42275349519E+03  0.25500000000E-02 0.  1.
         -2   -1    0    0    0  501 -0.00000000000E+00 -0.00000000000E+00 -0.52322355266E+02  0.52322355328E+02  0.25500000000E-02 0. -1.
    5000001    1    1    2    0    0  0.12481791351E+03  0.22969497477E+02  0.17063426084E+03  0.22616843352E+03  0.77000000000E+02 0.  0.
   -5000001    1    1    2    0    0 -0.12481791351E+03 -0.22969497477E+02  0.19979687907E+03  0.24890741699E+03  0.77000000000E+02 0.  0.
<mgrwt>
<rscale>  0 0.29745224E+03</rscale>
<asrwt>0</asrwt>
<pdfrwt beam="1">  1        2 0.65039000E-01 0.29745224E+03</pdfrwt>
<pdfrwt beam="2">  1       -2 0.80495931E-02 0.29745224E+03</pdfrwt>
<totfact> 0.70153600E+03</totfact>
</mgrwt>
</event>
<event>
 4    1  0.6207184E-004  0.2282537E+03  0.7818608E-02  0.1127875E+00
          2   -1    0    0  501    0  0.00000000000E+00  0.00000000000E+00  0.21405358956E+03  0.21405358957E+03  0.25500000000E-02 0.  1.
         -2   -1    0    0    0  501 -0.00000000000E+00 -0.00000000000E+00 -0.60848979300E+02  0.60848979353E+02  0.25500000000E-02 0. -1.
    5000001    1    1    2    0    0 -0.14421149243E+02 -0.82501273506E+02  0.65728695628E+02  0.13139136617E+03  0.77000000000E+02 0.  0.
   -5000001    1    1    2    0    0  0.14421149243E+02  0.82501273506E+02  0.87475914630E+02  0.14351120275E+03  0.77000000000E+02 0.  0.
<mgrwt>
<rscale>  0 0.22825374E+03</rscale>
<asrwt>0</asrwt>
<pdfrwt beam="1">  1        2 0.32931322E-01 0.22825374E+03</pdfrwt>
<pdfrwt beam="2">  1       -2 0.93613814E-02 0.22825374E+03</pdfrwt>
<totfact> 0.11410969E+04</totfact>
</mgrwt>
</event>
<event>
 4    1  0.6207184E-004  0.2019537E+03  0.7818608E-02  0.1148101E+00
         -2   -1    0    0    0  501 -0.00000000000E+00  0.00000000000E+00  0.15455294920E+03  0.15455294923E+03  0.25500000000E-02 0. -1.
          2   -1    0    0  501    0  0.00000000000E+00 -0.00000000000E+00 -0.65972997517E+02  0.65972997566E+02  0.25500000000E-02 0.  1.
    5000001    1    1    2    0    0  0.43712123240E+02 -0.44005205450E+02  0.21908368612E+02  0.10127282182E+03  0.77000000000E+02 0.  0.
   -5000001    1    1    2    0    0 -0.43712123240E+02  0.44005205450E+02  0.66671583076E+02  0.11925312497E+03  0.77000000000E+02 0.  0.
<mgrwt>
<rscale>  0 0.20195367E+03</rscale>
<asrwt>0</asrwt>
<pdfrwt beam="1">  1        2 0.10149692E-01 0.20195367E+03</pdfrwt>
<pdfrwt beam="2">  1       -2 0.23777377E-01 0.20195367E+03</pdfrwt>
<totfact> 0.94749904E+03</totfact>
</mgrwt>
</event>
<event>
 4    1  0.6207184E-004  0.2666314E+03  0.7818608E-02  0.1103223E+00
          2   -1    0    0  501    0  0.00000000000E+00  0.00000000000E+00  0.18422427279E+04  0.18422427279E+04  0.25500000000E-02 0.  1.
         -2   -1    0    0    0  501 -0.00000000000E+00 -0.00000000000E+00 -0.96475246878E+01  0.96475250248E+01  0.25500000000E-02 0. -1.
    5000001    1    1    2    0    0 -0.10659640897E+03  0.13569391993E+02  0.79656874581E+03  0.80746373888E+03  0.77000000000E+02 0.  0.
   -5000001    1    1    2    0    0  0.10659640897E+03 -0.13569391993E+02  0.10360264574E+04  0.10444265140E+04  0.77000000000E+02 0.  0.
<mgrwt>
<rscale>  0 0.26663145E+03</rscale>
<asrwt>0</asrwt>
<pdfrwt beam="1">  1        2 0.28342182E+00 0.26663145E+03</pdfrwt>
<pdfrwt beam="2">  1       -2 0.14842353E-02 0.26663145E+03</pdfrwt>
<totfact> 0.10768165E+04</totfact>
</mgrwt>
</event>
<event>
 4    1  0.6207184E-004  0.5893864E+03  0.7818608E-02  0.9927674E-01
          2   -1    0    0  501    0  0.00000000000E+00  0.00000000000E+00  0.81327903053E+03  0.81327903053E+03  0.25500000000E-02 0.  1.
         -2   -1    0    0    0  501 -0.00000000000E+00 -0.00000000000E+00 -0.10678263224E+03  0.10678263227E+03  0.25500000000E-02 0. -1.
    5000001    1    1    2    0    0  0.10042694064E+03 -0.21339447789E+03  0.10498575856E+03  0.26939521729E+03  0.77000000000E+02 0.  0.
   -5000001    1    1    2    0    0 -0.10042694064E+03  0.21339447789E+03  0.60151063973E+03  0.65066644550E+03  0.77000000000E+02 0.  0.
<mgrwt>
<rscale>  0 0.58938638E+03</rscale>
<asrwt>0</asrwt>
<pdfrwt beam="1">  1        2 0.12511985E+00 0.58938638E+03</pdfrwt>
<pdfrwt beam="2">  1       -2 0.16428098E-01 0.58938638E+03</pdfrwt>
<totfact> 0.10166715E+03</totfact>
</mgrwt>
</event>
<event>
 4    1  0.6207184E-004  0.3083436E+03  0.7818608E-02  0.1081143E+00
         -2   -1    0    0    0  501 -0.00000000000E+00  0.00000000000E+00  0.57218687820E+03  0.57218687821E+03  0.25500000000E-02 0. -1.
          2   -1    0    0  501    0  0.00000000000E+00 -0.00000000000E+00 -0.41540528276E+02  0.41540528354E+02  0.25500000000E-02 0.  1.
    5000001    1    1    2    0    0  0.48829434934E+01  0.13266858990E+03  0.29451817996E+03  0.33210654346E+03  0.77000000000E+02 0.  0.
   -5000001    1    1    2    0    0 -0.48829434934E+01 -0.13266858990E+03  0.23612816997E+03  0.28162086310E+03  0.77000000000E+02 0.  0.
<mgrwt>
<rscale>  0 0.30834361E+03</rscale>
<asrwt>0</asrwt>
<pdfrwt beam="1">  1        2 0.63908510E-02 0.30834361E+03</pdfrwt>
<pdfrwt beam="2">  1       -2 0.88028744E-01 0.30834361E+03</pdfrwt>
<totfact> 0.13109768E+03</totfact>
</mgrwt>
</event>
<event>
 4    1  0.6207184E-004  0.3024190E+03  0.7818608E-02  0.1084038E+00
         -2   -1    0    0    0  501 -0.00000000000E+00  0.00000000000E+00  0.14371649664E+03  0.14371649666E+03  0.25500000000E-02 0. -1.
          2   -1    0    0  501    0  0.00000000000E+00 -0.00000000000E+00 -0.15909319748E+03  0.15909319750E+03  0.25500000000E-02 0.  1.
    5000001    1    1    2    0    0  0.26333069769E+02 -0.10618421328E+03  0.62878212893E+02  0.14782147127E+03  0.77000000000E+02 0.  0.
   -5000001    1    1    2    0    0 -0.26333069769E+02  0.10618421328E+03 -0.78254913730E+02  0.15498822289E+03  0.77000000000E+02 0.  0.
<mgrwt>
<rscale>  0 0.30241903E+03</rscale>
<asrwt>0</asrwt>
<pdfrwt beam="1">  1        2 0.24475877E-01 0.30241903E+03</pdfrwt>
<pdfrwt beam="2">  1       -2 0.22110230E-01 0.30241903E+03</pdfrwt>
<totfact> 0.38841304E+03</totfact>
</mgrwt>
</event>
<event>
 4    1  0.6207184E-004  0.1892058E+03  0.7818608E-02  0.1159180E+00
          2   -1    0    0  501    0  0.00000000000E+00  0.00000000000E+00  0.50014977131E+02  0.50014977196E+02  0.25500000000E-02 0.  1.
         -2   -1    0    0    0  501 -0.00000000000E+00 -0.00000000000E+00 -0.17894051593E+03  0.17894051594E+03  0.25500000000E-02 0. -1.
    5000001    1    1    2    0    0  0.54517581036E+02 -0.63906439474E+01 -0.67820374377E+02  0.11636842421E+03  0.77000000000E+02 0.  0.
   -5000001    1    1    2    0    0 -0.54517581036E+02  0.63906439474E+01 -0.61105164419E+02  0.11258706893E+03  0.77000000000E+02 0.  0.
<mgrwt>
<rscale>  0 0.18920577E+03</rscale>
<asrwt>0</asrwt>
<pdfrwt beam="1">  1        2 0.76946120E-02 0.18920577E+03</pdfrwt>
<pdfrwt beam="2">  1       -2 0.27529310E-01 0.18920577E+03</pdfrwt>
<totfact> 0.10304582E+04</totfact>
</mgrwt>
</event>
<event>
 4    1  0.6207184E-004  0.2493139E+03  0.7818608E-02  0.1113739E+00
          2   -1    0    0  501    0  0.00000000000E+00  0.00000000000E+00  0.91906657648E+03  0.91906657648E+03  0.25500000000E-02 0.  1.
         -2   -1    0    0    0  501 -0.00000000000E+00 -0.00000000000E+00 -0.16907758323E+02  0.16907758515E+02  0.25500000000E-02 0. -1.
    5000001    1    1    2    0    0 -0.93013385481E+02  0.30961454147E+02  0.44918687559E+03  0.46616300875E+03  0.77000000000E+02 0.  0.
   -5000001    1    1    2    0    0  0.93013385481E+02 -0.30961454147E+02  0.45297194256E+03  0.46981132625E+03  0.77000000000E+02 0.  0.
<mgrwt>
<rscale>  0 0.24931390E+03</rscale>
<asrwt>0</asrwt>
<pdfrwt beam="1">  1        2 0.14139485E+00 0.24931390E+03</pdfrwt>
<pdfrwt beam="2">  1       -2 0.26011937E-02 0.24931390E+03</pdfrwt>
<totfact> 0.15346517E+04</totfact>
</mgrwt>
</event>
<event>
 4    1  0.6207184E-004  0.2691541E+03  0.7818608E-02  0.1101765E+00
          2   -1    0    0  501    0  0.00000000000E+00  0.00000000000E+00  0.87456405026E+03  0.87456405026E+03  0.25500000000E-02 0.  1.
         -2   -1    0    0    0  501 -0.00000000000E+00 -0.00000000000E+00 -0.20708577642E+02  0.20708577799E+02  0.25500000000E-02 0. -1.
    5000001    1    1    2    0    0 -0.10317698832E+03 -0.38879444685E+02  0.41033797888E+03  0.43181403294E+03  0.77000000000E+02 0.  0.
   -5000001    1    1    2    0    0  0.10317698832E+03  0.38879444685E+02  0.44351749374E+03  0.46345859512E+03  0.77000000000E+02 0.  0.
<mgrwt>
<rscale>  0 0.26915406E+03</rscale>
<asrwt>0</asrwt>
<pdfrwt beam="1">  1        2 0.13454826E+00 0.26915406E+03</pdfrwt>
<pdfrwt beam="2">  1       -2 0.31859364E-02 0.26915406E+03</pdfrwt>
<totfact> 0.12170903E+04</totfact>
</mgrwt>
</event>
<event>
 4    1  0.6207184E-004  0.2116020E+03  0.7818608E-02  0.1140304E+00
         -2   -1    0    0    0  501 -0.00000000000E+00  0.00000000000E+00  0.48846636405E+02  0.48846636471E+02  0.25500000000E-02 0. -1.
          2   -1    0    0  501    0  0.00000000000E+00 -0.00000000000E+00 -0.22916311719E+03  0.22916311720E+03  0.25500000000E-02 0.  1.
    5000001    1    1    2    0    0 -0.18071708841E+02  0.48887216805E+02 -0.15648147428E+03  0.18202197235E+03  0.77000000000E+02 0.  0.
   -5000001    1    1    2    0    0  0.18071708841E+02 -0.48887216805E+02 -0.23835006503E+02  0.95987781318E+02  0.77000000000E+02 0.  0.
<mgrwt>
<rscale>  0 0.21160196E+03</rscale>
<asrwt>0</asrwt>
<pdfrwt beam="1">  1        2 0.35255863E-01 0.21160196E+03</pdfrwt>
<pdfrwt beam="2">  1       -2 0.75148673E-02 0.21160196E+03</pdfrwt>
<totfact> 0.14869298E+04</totfact>
</mgrwt>
</event>
<event>
 4    1  0.6207184E-004  0.2973408E+03  0.7818608E-02  0.1086578E+00
         -2   -1    0    0    0  501 -0.00000000000E+00  0.00000000000E+00  0.52321007716E+02  0.52321007778E+02  0.25500000000E-02 0. -1.
          2   -1    0    0  501    0  0.00000000000E+00 -0.00000000000E+00 -0.42244758153E+03  0.42244758154E+03  0.25500000000E-02 0.  1.
    5000001    1    1    2    0    0  0.10477959544E+03  0.71427660825E+02 -0.16964784189E+03  0.22536651173E+03  0.77000000000E+02 0.  0.
   -5000001    1    1    2    0    0 -0.10477959544E+03 -0.71427660825E+02 -0.20047873193E+03  0.24940207759E+03  0.77000000000E+02 0.  0.
<mgrwt>
<rscale>  0 0.29734077E+03</rscale>
<asrwt>0</asrwt>
<pdfrwt beam="1">  1        2 0.64991933E-01 0.29734077E+03</pdfrwt>
<pdfrwt beam="2">  1       -2 0.80493861E-02 0.29734077E+03</pdfrwt>
<totfact> 0.70211289E+03</totfact>
</mgrwt>
</event>
<event>
 4    1  0.6207184E-004  0.3259538E+03  0.7818608E-02  0.1072941E+00
         -2   -1    0    0    0  501 -0.00000000000E+00  0.00000000000E+00  0.29875378850E+02  0.29875378959E+02  0.25500000000E-02 0. -1.
          2   -1    0    0  501    0  0.00000000000E+00 -0.00000000000E+00 -0.88907551004E+03  0.88907551004E+03  0.25500000000E-02 0.  1.
    5000001    1    1    2    0    0  0.10523208804E+03  0.95668769991E+02 -0.37278208049E+03  0.40635180010E+03  0.77000000000E+02 0.  0.
   -5000001    1    1    2    0    0 -0.10523208804E+03 -0.95668769991E+02 -0.48641805070E+03  0.51259908891E+03  0.77000000000E+02 0.  0.
<mgrwt>
<rscale>  0 0.32595379E+03</rscale>
<asrwt>0</asrwt>
<pdfrwt beam="1">  1        2 0.13678083E+00 0.32595379E+03</pdfrwt>
<pdfrwt beam="2">  1       -2 0.45962128E-02 0.32595379E+03</pdfrwt>
<totfact> 0.68957777E+03</totfact>
</mgrwt>
</event>
<event>
 4    1  0.6207184E-004  0.3459137E+03  0.7818608E-02  0.1064305E+00
          2   -1    0    0  501    0  0.00000000000E+00  0.00000000000E+00  0.76036855764E+02  0.76036855807E+02  0.25500000000E-02 0.  1.
         -2   -1    0    0    0  501 -0.00000000000E+00 -0.00000000000E+00 -0.39341534223E+03  0.39341534224E+03  0.25500000000E-02 0. -1.
    5000001    1    1    2    0    0  0.95395209941E+02 -0.12959030691E+02 -0.32332781120E+03  0.34603187144E+03  0.77000000000E+02 0.  0.
   -5000001    1    1    2    0    0 -0.95395209941E+02  0.12959030691E+02  0.59493247297E+01  0.12342032661E+03  0.77000000000E+02 0.  0.
<mgrwt>
<rscale>  0 0.34591366E+03</rscale>
<asrwt>0</asrwt>
<pdfrwt beam="1">  1        2 0.11697978E-01 0.34591366E+03</pdfrwt>
<pdfrwt beam="2">  1       -2 0.60525436E-01 0.34591366E+03</pdfrwt>
<totfact> 0.13761326E+03</totfact>
</mgrwt>
</event>
<event>
 4    1  0.6207184E-004  0.1818481E+03  0.7818608E-02  0.1166026E+00
         -2   -1    0    0    0  501 -0.00000000000E+00  0.00000000000E+00  0.14072398835E+03  0.14072398838E+03  0.25500000000E-02 0. -1.
          2   -1    0    0  501    0  0.00000000000E+00 -0.00000000000E+00 -0.58747477595E+02  0.58747477650E+02  0.25500000000E-02 0.  1.
    5000001    1    1    2    0    0 -0.19237467702E+02 -0.34021690440E+02  0.97575514694E+01  0.86900894096E+02  0.77000000000E+02 0.  0.
   -5000001    1    1    2    0    0  0.19237467702E+02  0.34021690440E+02  0.72218959288E+02  0.11257057193E+03  0.77000000000E+02 0.  0.
<mgrwt>
<rscale>  0 0.18184806E+03</rscale>
<asrwt>0</asrwt>
<pdfrwt beam="1">  1        2 0.90380736E-02 0.18184806E+03</pdfrwt>
<pdfrwt beam="2">  1       -2 0.21649844E-01 0.18184806E+03</pdfrwt>
<totfact> 0.12773563E+04</totfact>
</mgrwt>
</event>
<event>
 4    1  0.6207184E-004  0.1784847E+03  0.7818608E-02  0.1169278E+00
          2   -1    0    0  501    0  0.00000000000E+00  0.00000000000E+00  0.41831597264E+03  0.41831597265E+03  0.25500000000E-02 0.  1.
         -2   -1    0    0    0  501 -0.00000000000E+00 -0.00000000000E+00 -0.19038702778E+02  0.19038702949E+02  0.25500000000E-02 0. -1.
    5000001    1    1    2    0    0  0.38127854970E+02 -0.23220687279E+02  0.18370932584E+03  0.20413488199E+03  0.77000000000E+02 0.  0.
   -5000001    1    1    2    0    0 -0.38127854970E+02  0.23220687279E+02  0.21556794402E+03  0.23321979361E+03  0.77000000000E+02 0.  0.
<mgrwt>
<rscale>  0 0.17848466E+03</rscale>
<asrwt>0</asrwt>
<pdfrwt beam="1">  1        2 0.64356294E-01 0.17848466E+03</pdfrwt>
<pdfrwt beam="2">  1       -2 0.29290316E-02 0.17848466E+03</pdfrwt>
<totfact> 0.31888909E+04</totfact>
</mgrwt>
</event>
<event>
 4    1  0.6207184E-004  0.1878544E+03  0.7818608E-02  0.1160411E+00
         -2   -1    0    0    0  501 -0.00000000000E+00  0.00000000000E+00  0.15260390783E+02  0.15260390996E+02  0.25500000000E-02 0. -1.
          2   -1    0    0  501    0  0.00000000000E+00 -0.00000000000E+00 -0.57811884185E+03  0.57811884186E+03  0.25500000000E-02 0.  1.
    5000001    1    1    2    0    0  0.35411420378E+02  0.38898783478E+02 -0.31691886944E+03  0.33035383131E+03  0.77000000000E+02 0.  0.
   -5000001    1    1    2    0    0 -0.35411420378E+02 -0.38898783478E+02 -0.24593958163E+03  0.26302540155E+03  0.77000000000E+02 0.  0.
<mgrwt>
<rscale>  0 0.18785441E+03</rscale>
<asrwt>0</asrwt>
<pdfrwt beam="1">  1        2 0.88941343E-01 0.18785441E+03</pdfrwt>
<pdfrwt beam="2">  1       -2 0.23477529E-02 0.18785441E+03</pdfrwt>
<totfact> 0.31003469E+04</totfact>
</mgrwt>
</event>
<event>
 4    1  0.6207184E-004  0.2020264E+03  0.7818608E-02  0.1148040E+00
          2   -1    0    0  501    0  0.00000000000E+00  0.00000000000E+00  0.95226517381E+02  0.95226517415E+02  0.25500000000E-02 0.  1.
         -2   -1    0    0    0  501 -0.00000000000E+00 -0.00000000000E+00 -0.10715154167E+03  0.10715154170E+03  0.25500000000E-02 0. -1.
    5000001    1    1    2    0    0 -0.46919851295E+02  0.39161609542E+02  0.17306436903E+02  0.99817918560E+02  0.77000000000E+02 0.  0.
   -5000001    1    1    2    0    0  0.46919851295E+02 -0.39161609542E+02 -0.29231461193E+02  0.10256014056E+03  0.77000000000E+02 0.  0.
<mgrwt>
<rscale>  0 0.20202642E+03</rscale>
<asrwt>0</asrwt>
<pdfrwt beam="1">  1        2 0.14650233E-01 0.20202642E+03</pdfrwt>
<pdfrwt beam="2">  1       -2 0.16484853E-01 0.20202642E+03</pdfrwt>
<totfact> 0.11338537E+04</totfact>
</mgrwt>
</event>
<event>
 4    1  0.6207184E-004  0.2481229E+03  0.7818608E-02  0.1114497E+00
          2   -1    0    0  501    0  0.00000000000E+00  0.00000000000E+00  0.22339498130E+04  0.22339498130E+04  0.25500000000E-02 0.  1.
         -2   -1    0    0    0  501 -0.00000000000E+00 -0.00000000000E+00 -0.68896988191E+01  0.68896992910E+01  0.25500000000E-02 0. -1.
    5000001    1    1    2    0    0  0.57200163022E+01 -0.93626947483E+02  0.88089760814E+03  0.88921781353E+03  0.77000000000E+02 0.  0.
   -5000001    1    1    2    0    0 -0.57200163022E+01  0.93626947483E+02  0.13461625061E+04  0.13516216988E+04  0.77000000000E+02 0.  0.
<mgrwt>
<rscale>  0 0.24812289E+03</rscale>
<asrwt>0</asrwt>
<pdfrwt beam="1">  1        2 0.34368446E+00 0.24812289E+03</pdfrwt>
<pdfrwt beam="2">  1       -2 0.10599541E-02 0.24812289E+03</pdfrwt>
<totfact> 0.10923680E+04</totfact>
</mgrwt>
</event>
<event>
 4    1  0.6207184E-004  0.4553040E+03  0.7818608E-02  0.1026152E+00
          2   -1    0    0  501    0  0.00000000000E+00  0.00000000000E+00  0.10628436717E+04  0.10628436717E+04  0.25500000000E-02 0.  1.
         -2   -1    0    0    0  501 -0.00000000000E+00 -0.00000000000E+00 -0.48761106508E+02  0.48761106574E+02  0.25500000000E-02 0. -1.
    5000001    1    1    2    0    0  0.13120986185E+03 -0.13933883190E+03  0.27203802103E+03  0.34141620174E+03  0.77000000000E+02 0.  0.
   -5000001    1    1    2    0    0 -0.13120986185E+03  0.13933883190E+03  0.74204454419E+03  0.77018857657E+03  0.77000000000E+02 0.  0.
<mgrwt>
<rscale>  0 0.45530400E+03</rscale>
<asrwt>0</asrwt>
<pdfrwt beam="1">  1        2 0.16351441E+00 0.45530400E+03</pdfrwt>
<pdfrwt beam="2">  1       -2 0.75017085E-02 0.45530400E+03</pdfrwt>
<totfact> 0.25187441E+03</totfact>
</mgrwt>
</event>
<event>
 4    1  0.6207184E-004  0.4046645E+03  0.7818608E-02  0.1042176E+00
         -2   -1    0    0    0  501 -0.00000000000E+00  0.00000000000E+00  0.22511966846E+02  0.22511966990E+02  0.25500000000E-02 0. -1.
          2   -1    0    0  501    0  0.00000000000E+00 -0.00000000000E+00 -0.18185143017E+04  0.18185143017E+04  0.25500000000E-02 0.  1.
    5000001    1    1    2    0    0  0.99596239503E+02  0.11462946321E+03 -0.13953361690E+04  0.14056853664E+04  0.77000000000E+02 0.  0.
   -5000001    1    1    2    0    0 -0.99596239503E+02 -0.11462946321E+03 -0.40066616585E+03  0.43534090230E+03  0.77000000000E+02 0.  0.
<mgrwt>
<rscale>  0 0.40466447E+03</rscale>
<asrwt>0</asrwt>
<pdfrwt beam="1">  1        2 0.27977131E+00 0.40466447E+03</pdfrwt>
<pdfrwt beam="2">  1       -2 0.34633810E-02 0.40466447E+03</pdfrwt>
<totfact> 0.31508343E+03</totfact>
</mgrwt>
</event>
<event>
 4    1  0.6207184E-004  0.2256207E+03  0.7818608E-02  0.1129761E+00
          2   -1    0    0  501    0  0.00000000000E+00  0.00000000000E+00  0.24759558126E+04  0.24759558126E+04  0.25500000000E-02 0.  1.
         -2   -1    0    0    0  501 -0.00000000000E+00 -0.00000000000E+00 -0.51399033941E+01  0.51399040267E+01  0.25500000000E-02 0. -1.
    5000001    1    1    2    0    0  0.19664116310E+02 -0.78846134658E+02  0.10823261400E+04  0.10881003005E+04  0.77000000000E+02 0.  0.
   -5000001    1    1    2    0    0 -0.19664116310E+02  0.78846134658E+02  0.13884897692E+04  0.13929954162E+04  0.77000000000E+02 0.  0.
<mgrwt>
<rscale>  0 0.22562069E+03</rscale>
<asrwt>0</asrwt>
<pdfrwt beam="1">  1        2 0.38091576E+00 0.22562069E+03</pdfrwt>
<pdfrwt beam="2">  1       -2 0.79075549E-03 0.22562069E+03</pdfrwt>
<totfact> 0.12356643E+04</totfact>
</mgrwt>
</event>
<event>
 4    1  0.6207184E-004  0.2994573E+03  0.7818608E-02  0.1085512E+00
          2   -1    0    0  501    0  0.00000000000E+00  0.00000000000E+00  0.14149198056E+02  0.14149198286E+02  0.25500000000E-02 0.  1.
         -2   -1    0    0    0  501 -0.00000000000E+00 -0.00000000000E+00 -0.15844480414E+04  0.15844480414E+04  0.25500000000E-02 0. -1.
    5000001    1    1    2    0    0  0.62928457520E+02  0.69930649551E+02 -0.31856172346E+03  0.34097046524E+03  0.77000000000E+02 0.  0.
   -5000001    1    1    2    0    0 -0.62928457520E+02 -0.69930649551E+02 -0.12517371199E+04  0.12576267744E+04  0.77000000000E+02 0.  0.
<mgrwt>
<rscale>  0 0.29945730E+03</rscale>
<asrwt>0</asrwt>
<pdfrwt beam="1">  1        2 0.21768010E-02 0.29945730E+03</pdfrwt>
<pdfrwt beam="2">  1       -2 0.24376110E+00 0.29945730E+03</pdfrwt>
<totfact> 0.38039097E+02</totfact>
</mgrwt>
</event>
<event>
 4    1  0.6207184E-004  0.3462750E+03  0.7818608E-02  0.1064154E+00
          2   -1    0    0  501    0  0.00000000000E+00  0.00000000000E+00  0.26686630205E+03  0.26686630206E+03  0.25500000000E-02 0.  1.
         -2   -1    0    0    0  501 -0.00000000000E+00 -0.00000000000E+00 -0.11232815716E+03  0.11232815719E+03  0.25500000000E-02 0. -1.
    5000001    1    1    2    0    0  0.34968377555E+02  0.11358870911E+03 -0.31812038685E+02  0.14514195834E+03  0.77000000000E+02 0.  0.
   -5000001    1    1    2    0    0 -0.34968377555E+02 -0.11358870911E+03  0.18635018357E+03  0.23405250091E+03  0.77000000000E+02 0.  0.
<mgrwt>
<rscale>  0 0.34627503E+03</rscale>
<asrwt>0</asrwt>
<pdfrwt beam="1">  1        2 0.41056354E-01 0.34627503E+03</pdfrwt>
<pdfrwt beam="2">  1       -2 0.17281255E-01 0.34627503E+03</pdfrwt>
<totfact> 0.33625911E+03</totfact>
</mgrwt>
</event>
<event>
 4    1  0.6207184E-004  0.3290089E+03  0.7818608E-02  0.1071576E+00
          2   -1    0    0  501    0  0.00000000000E+00  0.00000000000E+00  0.76384007958E+03  0.76384007959E+03  0.25500000000E-02 0.  1.
         -2   -1    0    0    0  501 -0.00000000000E+00 -0.00000000000E+00 -0.35428505810E+02  0.35428505902E+02  0.25500000000E-02 0. -1.
    5000001    1    1    2    0    0  0.12210679143E+03 -0.63017935785E+02  0.24893748502E+03  0.29458479287E+03  0.77000000000E+02 0.  0.
   -5000001    1    1    2    0    0 -0.12210679143E+03  0.63017935785E+02  0.47947408875E+03  0.50468379261E+03  0.77000000000E+02 0.  0.
<mgrwt>
<rscale>  0 0.32900889E+03</rscale>
<asrwt>0</asrwt>
<pdfrwt beam="1">  1        2 0.11751386E+00 0.32900889E+03</pdfrwt>
<pdfrwt beam="2">  1       -2 0.54505394E-02 0.32900889E+03</pdfrwt>
<totfact> 0.64750321E+03</totfact>
</mgrwt>
</event>
<event>
 4    1  0.6207184E-004  0.2053451E+03  0.7818608E-02  0.1145306E+00
         -2   -1    0    0    0  501 -0.00000000000E+00  0.00000000000E+00  0.46120360079E+01  0.46120367129E+01  0.25500000000E-02 0. -1.
          2   -1    0    0  501    0  0.00000000000E+00 -0.00000000000E+00 -0.22856822396E+04  0.22856822397E+04  0.25500000000E-02 0.  1.
    5000001    1    1    2    0    0 -0.50415538191E+02  0.21532669884E+02 -0.15876828520E+04  0.15904940179E+04  0.77000000000E+02 0.  0.
   -5000001    1    1    2    0    0  0.50415538191E+02 -0.21532669884E+02 -0.69338735164E+03  0.69980025849E+03  0.77000000000E+02 0.  0.
<mgrwt>
<rscale>  0 0.20534507E+03</rscale>
<asrwt>0</asrwt>
<pdfrwt beam="1">  1        2 0.35164252E+00 0.20534507E+03</pdfrwt>
<pdfrwt beam="2">  1       -2 0.70954588E-03 0.20534507E+03</pdfrwt>
<totfact> 0.18227471E+04</totfact>
</mgrwt>
</event>
<event>
 4    1  0.6207184E-004  0.2822889E+03  0.7818608E-02  0.1094445E+00
         -2   -1    0    0    0  501 -0.00000000000E+00  0.00000000000E+00  0.93322483957E+02  0.93322483992E+02  0.25500000000E-02 0. -1.
          2   -1    0    0  501    0  0.00000000000E+00 -0.00000000000E+00 -0.21347218360E+03  0.21347218362E+03  0.25500000000E-02 0.  1.
    5000001    1    1    2    0    0  0.36680065204E+02 -0.10681663431E+03 -0.21842360994E+02  0.13842438110E+03  0.77000000000E+02 0.  0.
   -5000001    1    1    2    0    0 -0.36680065204E+02  0.10681663431E+03 -0.98307338653E+02  0.16837028651E+03  0.77000000000E+02 0.  0.
<mgrwt>
<rscale>  0 0.28228889E+03</rscale>
<asrwt>0</asrwt>
<pdfrwt beam="1">  1        2 0.32841874E-01 0.28228889E+03</pdfrwt>
<pdfrwt beam="2">  1       -2 0.14357305E-01 0.28228889E+03</pdfrwt>
<totfact> 0.58064683E+03</totfact>
</mgrwt>
</event>
<event>
 4    1  0.6207184E-004  0.4143275E+03  0.7818608E-02  0.1038928E+00
          2   -1    0    0  501    0  0.00000000000E+00  0.00000000000E+00  0.15523624280E+04  0.15523624280E+04  0.25500000000E-02 0.  1.
         -2   -1    0    0    0  501 -0.00000000000E+00 -0.00000000000E+00 -0.27646138670E+02  0.27646138788E+02  0.25500000000E-02 0. -1.
    5000001    1    1    2    0    0  0.12508824970E+03 -0.47214799969E+02  0.23517289316E+03  0.28126783895E+03  0.77000000000E+02 0.  0.
   -5000001    1    1    2    0    0 -0.12508824970E+03  0.47214799969E+02  0.12895433962E+04  0.12987407278E+04  0.77000000000E+02 0.  0.
<mgrwt>
<rscale>  0 0.41432754E+03</rscale>
<asrwt>0</asrwt>
<pdfrwt beam="1">  1        2 0.23882506E+00 0.41432754E+03</pdfrwt>
<pdfrwt beam="2">  1       -2 0.42532509E-02 0.41432754E+03</pdfrwt>
<totfact> 0.32025114E+03</totfact>
</mgrwt>
</event>
<event>
 4    1  0.6207184E-004  0.4894900E+03  0.7818608E-02  0.1016559E+00
          2   -1    0    0  501    0  0.00000000000E+00  0.00000000000E+00  0.32240016769E+03  0.32240016770E+03  0.25500000000E-02 0.  1.
         -2   -1    0    0    0  501 -0.00000000000E+00 -0.00000000000E+00 -0.18579429572E+03  0.18579429574E+03  0.25500000000E-02 0. -1.
    5000001    1    1    2    0    0 -0.11161495808E+02  0.17683001671E+03 -0.87697479995E+02  0.21216333754E+03  0.77000000000E+02 0.  0.
   -5000001    1    1    2    0    0  0.11161495808E+02 -0.17683001671E+03  0.22430335196E+03  0.29603112590E+03  0.77000000000E+02 0.  0.
<mgrwt>
<rscale>  0 0.48948999E+03</rscale>
<asrwt>0</asrwt>
<pdfrwt beam="1">  1        2 0.49600025E-01 0.48948999E+03</pdfrwt>
<pdfrwt beam="2">  1       -2 0.28583738E-01 0.48948999E+03</pdfrwt>
<totfact> 0.11362201E+03</totfact>
</mgrwt>
</event>
<event>
 4    1  0.6207184E-004  0.2234820E+03  0.7818608E-02  0.1131313E+00
         -2   -1    0    0    0  501 -0.00000000000E+00  0.00000000000E+00  0.41435337095E+01  0.41435344942E+01  0.25500000000E-02 0. -1.
          2   -1    0    0  501    0  0.00000000000E+00 -0.00000000000E+00 -0.30133819248E+04  0.30133819248E+04  0.25500000000E-02 0.  1.
    5000001    1    1    2    0    0 -0.47715619740E+02 -0.15093026408E+01 -0.23877568534E+04  0.23894750154E+04  0.77000000000E+02 0.  0.
   -5000001    1    1    2    0    0  0.47715619740E+02  0.15093026408E+01 -0.62148153776E+03  0.62805044394E+03  0.77000000000E+02 0.  0.
<mgrwt>
<rscale>  0 0.22348200E+03</rscale>
<asrwt>0</asrwt>
<pdfrwt beam="1">  1        2 0.46359547E+00 0.22348200E+03</pdfrwt>
<pdfrwt beam="2">  1       -2 0.63746919E-03 0.22348200E+03</pdfrwt>
<totfact> 0.83799733E+03</totfact>
</mgrwt>
</event>
<event>
 4    1  0.6207184E-004  0.1705419E+03  0.7818608E-02  0.1177284E+00
          2   -1    0    0  501    0  0.00000000000E+00  0.00000000000E+00  0.13194926473E+04  0.13194926473E+04  0.25500000000E-02 0.  1.
         -2   -1    0    0    0  501 -0.00000000000E+00 -0.00000000000E+00 -0.55105531781E+01  0.55105537681E+01  0.25500000000E-02 0. -1.
    5000001    1    1    2    0    0 -0.22345210443E+02  0.28443080479E+02  0.70217214896E+03  0.70730689523E+03  0.77000000000E+02 0.  0.
   -5000001    1    1    2    0    0  0.22345210443E+02 -0.28443080479E+02  0.61180994515E+03  0.61769630584E+03  0.77000000000E+02 0.  0.
<mgrwt>
<rscale>  0 0.17054190E+03</rscale>
<asrwt>0</asrwt>
<pdfrwt beam="1">  1        2 0.20299908E+00 0.17054190E+03</pdfrwt>
<pdfrwt beam="2">  1       -2 0.84777658E-03 0.17054190E+03</pdfrwt>
<totfact> 0.44817160E+04</totfact>
</mgrwt>
</event>
<event>
 4    1  0.6207184E-004  0.2655971E+03  0.7818608E-02  0.1103826E+00
         -2   -1    0    0    0  501 -0.00000000000E+00  0.00000000000E+00  0.19991612740E+02  0.19991612903E+02  0.25500000000E-02 0. -1.
          2   -1    0    0  501    0  0.00000000000E+00 -0.00000000000E+00 -0.88214238006E+03  0.88214238006E+03  0.25500000000E-02 0.  1.
    5000001    1    1    2    0    0  0.63298697309E+02  0.30899122650E+02 -0.15211807721E+03  0.18447327795E+03  0.77000000000E+02 0.  0.
   -5000001    1    1    2    0    0 -0.63298697309E+02 -0.30899122650E+02 -0.71003269011E+03  0.71766071502E+03  0.77000000000E+02 0.  0.
<mgrwt>
<rscale>  0 0.26559706E+03</rscale>
<asrwt>0</asrwt>
<pdfrwt beam="1">  1        2 0.13571418E+00 0.26559706E+03</pdfrwt>
<pdfrwt beam="2">  1       -2 0.30756334E-02 0.26559706E+03</pdfrwt>
<totfact> 0.12675117E+04</totfact>
</mgrwt>
</event>
<event>
 4    1  0.6207184E-004  0.2108941E+03  0.7818608E-02  0.1140860E+00
         -2   -1    0    0    0  501 -0.00000000000E+00  0.00000000000E+00  0.15549980064E+03  0.15549980066E+03  0.25500000000E-02 0. -1.
          2   -1    0    0  501    0  0.00000000000E+00 -0.00000000000E+00 -0.71505464765E+02  0.71505464810E+02  0.25500000000E-02 0.  1.
    5000001    1    1    2    0    0 -0.51418261446E+02  0.48743676544E+02  0.56044089556E+02  0.11870014148E+03  0.77000000000E+02 0.  0.
   -5000001    1    1    2    0    0  0.51418261446E+02 -0.48743676544E+02  0.27950246317E+02  0.10830512399E+03  0.77000000000E+02 0.  0.
<mgrwt>
<rscale>  0 0.21089415E+03</rscale>
<asrwt>0</asrwt>
<pdfrwt beam="1">  1        2 0.11000841E-01 0.21089415E+03</pdfrwt>
<pdfrwt beam="2">  1       -2 0.23923046E-01 0.21089415E+03</pdfrwt>
<totfact> 0.85138376E+03</totfact>
</mgrwt>
</event>
<event>
 4    1  0.6207184E-004  0.2082386E+03  0.7818608E-02  0.1142968E+00
         -2   -1    0    0    0  501 -0.00000000000E+00  0.00000000000E+00  0.11487272080E+02  0.11487272363E+02  0.25500000000E-02 0. -1.
          2   -1    0    0  501    0  0.00000000000E+00 -0.00000000000E+00 -0.94372554127E+03  0.94372554128E+03  0.25500000000E-02 0.  1.
    5000001    1    1    2    0    0 -0.62742931777E+02 -0.29082442395E+01 -0.60874044698E+03  0.61679742636E+03  0.77000000000E+02 0.  0.
   -5000001    1    1    2    0    0  0.62742931777E+02  0.29082442395E+01 -0.32349782221E+03  0.33841538728E+03  0.77000000000E+02 0.  0.
<mgrwt>
<rscale>  0 0.20823863E+03</rscale>
<asrwt>0</asrwt>
<pdfrwt beam="1">  1        2 0.14518848E+00 0.20823863E+03</pdfrwt>
<pdfrwt beam="2">  1       -2 0.17672734E-02 0.20823863E+03</pdfrwt>
<totfact> 0.25875182E+04</totfact>
</mgrwt>
</event>
<event>
 4    1  0.6207184E-004  0.1747182E+03  0.7818608E-02  0.1173015E+00
         -2   -1    0    0    0  501 -0.00000000000E+00  0.00000000000E+00  0.29168754312E+02  0.29168754424E+02  0.25500000000E-02 0. -1.
          2   -1    0    0  501    0  0.00000000000E+00 -0.00000000000E+00 -0.26163657052E+03  0.26163657053E+03  0.25500000000E-02 0.  1.
    5000001    1    1    2    0    0 -0.38222439116E+02 -0.45514413557E+01 -0.14097413734E+03  0.16517983493E+03  0.77000000000E+02 0.  0.
   -5000001    1    1    2    0    0  0.38222439116E+02  0.45514413557E+01 -0.91493678867E+02  0.12562549002E+03  0.77000000000E+02 0.  0.
<mgrwt>
<rscale>  0 0.17471821E+03</rscale>
<asrwt>0</asrwt>
<pdfrwt beam="1">  1        2 0.40251779E-01 0.17471821E+03</pdfrwt>
<pdfrwt beam="2">  1       -2 0.44875008E-02 0.17471821E+03</pdfrwt>
<totfact> 0.27871886E+04</totfact>
</mgrwt>
</event>
<event>
 4    1  0.6207184E-004  0.3417635E+03  0.7818608E-02  0.1066047E+00
          2   -1    0    0  501    0  0.00000000000E+00  0.00000000000E+00  0.30390520017E+03  0.30390520018E+03  0.25500000000E-02 0.  1.
         -2   -1    0    0    0  501 -0.00000000000E+00 -0.00000000000E+00 -0.96084493190E+02  0.96084493224E+02  0.25500000000E-02 0. -1.
    5000001    1    1    2    0    0  0.70279437721E+02  0.11357404107E+03  0.17641201561E+02  0.15517240142E+03  0.77000000000E+02 0.  0.
   -5000001    1    1    2    0    0 -0.70279437721E+02 -0.11357404107E+03  0.19017950542E+03  0.24481729198E+03  0.77000000000E+02 0.  0.
<mgrwt>
<rscale>  0 0.34176353E+03</rscale>
<asrwt>0</asrwt>
<pdfrwt beam="1">  1        2 0.46754647E-01 0.34176353E+03</pdfrwt>
<pdfrwt beam="2">  1       -2 0.14782230E-01 0.34176353E+03</pdfrwt>
<totfact> 0.37919188E+03</totfact>
</mgrwt>
</event>
<event>
 4    1  0.6207184E-004  0.4094283E+03  0.7818608E-02  0.1040563E+00
          2   -1    0    0  501    0  0.00000000000E+00  0.00000000000E+00  0.12034621233E+03  0.12034621235E+03  0.25500000000E-02 0.  1.
         -2   -1    0    0    0  501 -0.00000000000E+00 -0.00000000000E+00 -0.34822771974E+03  0.34822771975E+03  0.25500000000E-02 0. -1.
    5000001    1    1    2    0    0 -0.88500322709E+01  0.18172939355E+03 -0.52576065437E+02  0.20444348414E+03  0.77000000000E+02 0.  0.
   -5000001    1    1    2    0    0  0.88500322709E+01 -0.18172939355E+03 -0.17530544198E+03  0.26413044796E+03  0.77000000000E+02 0.  0.
<mgrwt>
<rscale>  0 0.40942832E+03</rscale>
<asrwt>0</asrwt>
<pdfrwt beam="1">  1        2 0.18514802E-01 0.40942832E+03</pdfrwt>
<pdfrwt beam="2">  1       -2 0.53573495E-01 0.40942832E+03</pdfrwt>
<totfact> 0.10219446E+03</totfact>
</mgrwt>
</event>
<event>
 4    1  0.6207184E-004  0.2758042E+03  0.7818608E-02  0.1098003E+00
          2   -1    0    0  501    0  0.00000000000E+00  0.00000000000E+00  0.75503011093E+03  0.75503011094E+03  0.25500000000E-02 0.  1.
         -2   -1    0    0    0  501 -0.00000000000E+00 -0.00000000000E+00 -0.25187058771E+02  0.25187058900E+02  0.25500000000E-02 0. -1.
    5000001    1    1    2    0    0 -0.89690623243E+02  0.70271590195E+02  0.33586745464E+03  0.36293036711E+03  0.77000000000E+02 0.  0.
   -5000001    1    1    2    0    0  0.89690623243E+02 -0.70271590195E+02  0.39397559752E+03  0.41728680272E+03  0.77000000000E+02 0.  0.
<mgrwt>
<rscale>  0 0.27580419E+03</rscale>
<asrwt>0</asrwt>
<pdfrwt beam="1">  1        2 0.11615849E+00 0.27580419E+03</pdfrwt>
<pdfrwt beam="2">  1       -2 0.38749318E-02 0.27580419E+03</pdfrwt>
<totfact> 0.10971075E+04</totfact>
</mgrwt>
</event>
<event>
 4    1  0.6207184E-004  0.4976189E+03  0.7818608E-02  0.1014402E+00
         -2   -1    0    0    0  501 -0.00000000000E+00  0.00000000000E+00  0.57235793810E+03  0.57235793811E+03  0.25500000000E-02 0. -1.
          2   -1    0    0  501    0  0.00000000000E+00 -0.00000000000E+00 -0.10815983001E+03  0.10815983004E+03  0.25500000000E-02 0.  1.
    5000001    1    1    2    0    0  0.42686373480E+02  0.22155784064E+03  0.32944633326E+03  0.40666188625E+03  0.77000000000E+02 0.  0.
   -5000001    1    1    2    0    0 -0.42686373480E+02 -0.22155784064E+03  0.13475177483E+03  0.27385588190E+03  0.77000000000E+02 0.  0.
<mgrwt>
<rscale>  0 0.49761888E+03</rscale>
<asrwt>0</asrwt>
<pdfrwt beam="1">  1        2 0.16639974E-01 0.49761888E+03</pdfrwt>
<pdfrwt beam="2">  1       -2 0.88055066E-01 0.49761888E+03</pdfrwt>
<totfact> 0.39713152E+02</totfact>
</mgrwt>
</event>
<event>
 4    1  0.6207184E-004  0.2376282E+03  0.7818608E-02  0.1121383E+00
         -2   -1    0    0    0  501 -0.00000000000E+00  0.00000000000E+00  0.20042362804E+02  0.20042362967E+02  0.25500000000E-02 0. -1.
          2   -1    0    0  501    0  0.00000000000E+00 -0.00000000000E+00 -0.70434736239E+03  0.70434736239E+03  0.25500000000E-02 0.  1.
    5000001    1    1    2    0    0  0.74724037461E+02 -0.94007818557E+01 -0.18925291571E+03  0.21775610802E+03  0.77000000000E+02 0.  0.
   -5000001    1    1    2    0    0 -0.74724037461E+02  0.94007818557E+01 -0.49505208387E+03  0.50663361734E+03  0.77000000000E+02 0.  0.
<mgrwt>
<rscale>  0 0.23762816E+03</rscale>
<asrwt>0</asrwt>
<pdfrwt beam="1">  1        2 0.10836111E+00 0.23762816E+03</pdfrwt>
<pdfrwt beam="2">  1       -2 0.30834410E-02 0.23762816E+03</pdfrwt>
<totfact> 0.16701425E+04</totfact>
</mgrwt>
</event>
<event>
 4    1  0.6207184E-004  0.2159691E+03  0.7818608E-02  0.1136924E+00
         -2   -1    0    0    0  501 -0.00000000000E+00  0.00000000000E+00  0.91145859538E+02  0.91145859573E+02  0.25500000000E-02 0. -1.
          2   -1    0    0  501    0  0.00000000000E+00 -0.00000000000E+00 -0.12793407843E+03  0.12793407845E+03  0.25500000000E-02 0.  1.
    5000001    1    1    2    0    0 -0.67775178409E+02 -0.33308825490E+02 -0.12958863724E+02  0.10862727472E+03  0.77000000000E+02 0.  0.
   -5000001    1    1    2    0    0  0.67775178409E+02  0.33308825490E+02 -0.23829355165E+02  0.11045266331E+03  0.77000000000E+02 0.  0.
<mgrwt>
<rscale>  0 0.21596909E+03</rscale>
<asrwt>0</asrwt>
<pdfrwt beam="1">  1        2 0.19682166E-01 0.21596909E+03</pdfrwt>
<pdfrwt beam="2">  1       -2 0.14022440E-01 0.21596909E+03</pdfrwt>
<totfact> 0.10545615E+04</totfact>
</mgrwt>
</event>
<event>
 4    1  0.6207184E-004  0.4948560E+03  0.7818608E-02  0.1015130E+00
         -2   -1    0    0    0  501 -0.00000000000E+00  0.00000000000E+00  0.31797581515E+03  0.31797581516E+03  0.25500000000E-02 0. -1.
          2   -1    0    0  501    0  0.00000000000E+00 -0.00000000000E+00 -0.19253232822E+03  0.19253232823E+03  0.25500000000E-02 0.  1.
    5000001    1    1    2    0    0  0.20193651133E+03 -0.11720233029E+03  0.33967518767E+02  0.24818850329E+03  0.77000000000E+02 0.  0.
   -5000001    1    1    2    0    0 -0.20193651133E+03  0.11720233029E+03  0.91475968168E+02  0.26231964011E+03  0.77000000000E+02 0.  0.
<mgrwt>
<rscale>  0 0.49485604E+03</rscale>
<asrwt>0</asrwt>
<pdfrwt beam="1">  1        2 0.29620358E-01 0.49485604E+03</pdfrwt>
<pdfrwt beam="2">  1       -2 0.48919356E-01 0.49485604E+03</pdfrwt>
<totfact> 0.71811987E+02</totfact>
</mgrwt>
</event>
<event>
 4    1  0.6207184E-004  0.1848520E+03  0.7818608E-02  0.1163188E+00
         -2   -1    0    0    0  501 -0.00000000000E+00  0.00000000000E+00  0.15049065040E+04  0.15049065040E+04  0.25500000000E-02 0. -1.
          2   -1    0    0  501    0  0.00000000000E+00 -0.00000000000E+00 -0.56764772327E+01  0.56764778054E+01  0.25500000000E-02 0.  1.
    5000001    1    1    2    0    0  0.26482530325E+01  0.45676086539E+02  0.93600661447E+03  0.94028224511E+03  0.77000000000E+02 0.  0.
   -5000001    1    1    2    0    0 -0.26482530325E+01 -0.45676086539E+02  0.56322341234E+03  0.57030073674E+03  0.77000000000E+02 0.  0.
<mgrwt>
<rscale>  0 0.18485203E+03</rscale>
<asrwt>0</asrwt>
<pdfrwt beam="1">  1        2 0.87330485E-03 0.18485203E+03</pdfrwt>
<pdfrwt beam="2">  1       -2 0.23152391E+00 0.18485203E+03</pdfrwt>
<totfact> 0.15827238E+03</totfact>
</mgrwt>
</event>
<event>
 4    1  0.6207184E-004  0.2601606E+03  0.7818608E-02  0.1107047E+00
          2   -1    0    0  501    0  0.00000000000E+00  0.00000000000E+00  0.72425006589E+03  0.72425006589E+03  0.25500000000E-02 0.  1.
         -2   -1    0    0    0  501 -0.00000000000E+00 -0.00000000000E+00 -0.23363308939E+02  0.23363309078E+02  0.25500000000E-02 0. -1.
    5000001    1    1    2    0    0 -0.89123578219E+02 -0.55166806571E+02  0.34371057284E+03  0.36749468925E+03  0.77000000000E+02 0.  0.
   -5000001    1    1    2    0    0  0.89123578219E+02  0.55166806571E+02  0.35717618411E+03  0.38011868572E+03  0.77000000000E+02 0.  0.
<mgrwt>
<rscale>  0 0.26016055E+03</rscale>
<asrwt>0</asrwt>
<pdfrwt beam="1">  1        2 0.11142311E+00 0.26016055E+03</pdfrwt>
<pdfrwt beam="2">  1       -2 0.35943547E-02 0.26016055E+03</pdfrwt>
<totfact> 0.12898576E+04</totfact>
</mgrwt>
</event>
<event>
 4    1  0.6207184E-004  0.2262076E+03  0.7818608E-02  0.1129338E+00
         -2   -1    0    0    0  501 -0.00000000000E+00  0.00000000000E+00  0.16517946234E+03  0.16517946236E+03  0.25500000000E-02 0. -1.
          2   -1    0    0  501    0  0.00000000000E+00 -0.00000000000E+00 -0.77445858182E+02  0.77445858224E+02  0.25500000000E-02 0.  1.
    5000001    1    1    2    0    0  0.49532455706E+02  0.51163850125E+02  0.89274521604E+02  0.13773214561E+03  0.77000000000E+02 0.  0.
   -5000001    1    1    2    0    0 -0.49532455706E+02 -0.51163850125E+02 -0.15409174503E+01  0.10489317497E+03  0.77000000000E+02 0.  0.
<mgrwt>
<rscale>  0 0.22620756E+03</rscale>
<asrwt>0</asrwt>
<pdfrwt beam="1">  1        2 0.11914748E-01 0.22620756E+03</pdfrwt>
<pdfrwt beam="2">  1       -2 0.25412225E-01 0.22620756E+03</pdfrwt>
<totfact> 0.69751897E+03</totfact>
</mgrwt>
</event>
<event>
 4    1  0.6207184E-004  0.2319797E+03  0.7818608E-02  0.1125254E+00
         -2   -1    0    0    0  501 -0.00000000000E+00  0.00000000000E+00  0.81995584252E+01  0.81995588217E+01  0.25500000000E-02 0. -1.
          2   -1    0    0  501    0  0.00000000000E+00 -0.00000000000E+00 -0.16407763449E+04  0.16407763449E+04  0.25500000000E-02 0.  1.
    5000001    1    1    2    0    0 -0.60197916288E+02  0.58796918465E+02 -0.96603115566E+03  0.97274151780E+03  0.77000000000E+02 0.  0.
   -5000001    1    1    2    0    0  0.60197916288E+02 -0.58796918465E+02 -0.66654563078E+03  0.67623438589E+03  0.77000000000E+02 0.  0.
<mgrwt>
<rscale>  0 0.23197967E+03</rscale>
<asrwt>0</asrwt>
<pdfrwt beam="1">  1        2 0.25242687E+00 0.23197967E+03</pdfrwt>
<pdfrwt beam="2">  1       -2 0.12614719E-02 0.23197967E+03</pdfrwt>
<totfact> 0.17340999E+04</totfact>
</mgrwt>
</event>
<event>
 4    1  0.6207184E-004  0.2908619E+03  0.7818608E-02  0.1089900E+00
         -2   -1    0    0    0  501 -0.00000000000E+00  0.00000000000E+00  0.34237068221E+02  0.34237068316E+02  0.25500000000E-02 0. -1.
          2   -1    0    0  501    0  0.00000000000E+00 -0.00000000000E+00 -0.61775634478E+03  0.61775634478E+03  0.25500000000E-02 0.  1.
    5000001    1    1    2    0    0  0.34843414446E+02 -0.10460371136E+03 -0.16765633703E+03  0.21492707439E+03  0.77000000000E+02 0.  0.
   -5000001    1    1    2    0    0 -0.34843414446E+02  0.10460371136E+03 -0.41586293952E+03  0.43706633871E+03  0.77000000000E+02 0.  0.
<mgrwt>
<rscale>  0 0.29086193E+03</rscale>
<asrwt>0</asrwt>
<pdfrwt beam="1">  1        2 0.95039430E-01 0.29086193E+03</pdfrwt>
<pdfrwt beam="2">  1       -2 0.52672417E-02 0.29086193E+03</pdfrwt>
<totfact> 0.87978774E+03</totfact>
</mgrwt>
</event>
<event>
 4    1  0.6207184E-004  0.1904134E+03  0.7818608E-02  0.1158089E+00
         -2   -1    0    0    0  501 -0.00000000000E+00  0.00000000000E+00  0.55308206567E+03  0.55308206568E+03  0.25500000000E-02 0. -1.
          2   -1    0    0  501    0  0.00000000000E+00 -0.00000000000E+00 -0.16388739871E+02  0.16388740069E+02  0.25500000000E-02 0.  1.
    5000001    1    1    2    0    0  0.41200621999E+01 -0.49333019740E+02  0.34659789913E+03  0.35848267104E+03  0.77000000000E+02 0.  0.
   -5000001    1    1    2    0    0 -0.41200621999E+01  0.49333019740E+02  0.19009542667E+03  0.21098813471E+03  0.77000000000E+02 0.  0.
<mgrwt>
<rscale>  0 0.19041343E+03</rscale>
<asrwt>0</asrwt>
<pdfrwt beam="1">  1        2 0.25213442E-02 0.19041343E+03</pdfrwt>
<pdfrwt beam="2">  1       -2 0.85089562E-01 0.19041343E+03</pdfrwt>
<totfact> 0.48040599E+03</totfact>
</mgrwt>
</event>
<event>
 4    1  0.6207184E-004  0.1979892E+03  0.7818608E-02  0.1151447E+00
         -2   -1    0    0    0  501 -0.00000000000E+00  0.00000000000E+00  0.21736030675E+02  0.21736030824E+02  0.25500000000E-02 0. -1.
          2   -1    0    0  501    0  0.00000000000E+00 -0.00000000000E+00 -0.45086124730E+03  0.45086124731E+03  0.25500000000E-02 0.  1.
    5000001    1    1    2    0    0  0.52304092436E+02  0.18111336440E+02 -0.28237967025E+03  0.29787751974E+03  0.77000000000E+02 0.  0.
   -5000001    1    1    2    0    0 -0.52304092436E+02 -0.18111336440E+02 -0.14674554638E+03  0.17471975840E+03  0.77000000000E+02 0.  0.
<mgrwt>
<rscale>  0 0.19798923E+03</rscale>
<asrwt>0</asrwt>
<pdfrwt beam="1">  1        2 0.69363262E-01 0.19798923E+03</pdfrwt>
<pdfrwt beam="2">  1       -2 0.33440051E-02 0.19798923E+03</pdfrwt>
<totfact> 0.24363109E+04</totfact>
</mgrwt>
</event>
<event>
 4    1  0.6207184E-004  0.1884100E+03  0.7818608E-02  0.1159903E+00
          2   -1    0    0  501    0  0.00000000000E+00  0.00000000000E+00  0.27304342887E+03  0.27304342888E+03  0.25500000000E-02 0.  1.
         -2   -1    0    0    0  501 -0.00000000000E+00 -0.00000000000E+00 -0.32502445487E+02  0.32502445587E+02  0.25500000000E-02 0. -1.
    5000001    1    1    2    0    0  0.11631091080E+02  0.52980245710E+02  0.11728440686E+03  0.15042214201E+03  0.77000000000E+02 0.  0.
   -5000001    1    1    2    0    0 -0.11631091080E+02 -0.52980245710E+02  0.12325657652E+03  0.15512373246E+03  0.77000000000E+02 0.  0.
<mgrwt>
<rscale>  0 0.18840997E+03</rscale>
<asrwt>0</asrwt>
<pdfrwt beam="1">  1        2 0.42006681E-01 0.18840997E+03</pdfrwt>
<pdfrwt beam="2">  1       -2 0.50003763E-02 0.18840997E+03</pdfrwt>
<totfact> 0.22772073E+04</totfact>
</mgrwt>
</event>
<event>
 4    1  0.6207184E-004  0.2611487E+03  0.7818608E-02  0.1106455E+00
          2   -1    0    0  501    0  0.00000000000E+00  0.00000000000E+00  0.76581875776E+03  0.76581875777E+03  0.25500000000E-02 0.  1.
         -2   -1    0    0    0  501 -0.00000000000E+00 -0.00000000000E+00 -0.22263302924E+02  0.22263303071E+02  0.25500000000E-02 0. -1.
    5000001    1    1    2    0    0  0.81755693024E+02  0.42489431765E+02  0.52657726078E+03  0.54009439612E+03  0.77000000000E+02 0.  0.
   -5000001    1    1    2    0    0 -0.81755693024E+02 -0.42489431765E+02  0.21697819406E+03  0.24798766472E+03  0.77000000000E+02 0.  0.
<mgrwt>
<rscale>  0 0.26114866E+03</rscale>
<asrwt>0</asrwt>
<pdfrwt beam="1">  1        2 0.11781828E+00 0.26114866E+03</pdfrwt>
<pdfrwt beam="2">  1       -2 0.34251232E-02 0.26114866E+03</pdfrwt>
<totfact> 0.12940077E+04</totfact>
</mgrwt>
</event>
<event>
 4    1  0.6207184E-004  0.2078569E+03  0.7818608E-02  0.1143274E+00
          2   -1    0    0  501    0  0.00000000000E+00  0.00000000000E+00  0.17036904355E+04  0.17036904355E+04  0.25500000000E-02 0.  1.
         -2   -1    0    0    0  501 -0.00000000000E+00 -0.00000000000E+00 -0.63398388946E+01  0.63398394074E+01  0.25500000000E-02 0. -1.
    5000001    1    1    2    0    0  0.21803316594E+02 -0.66182693486E+02  0.81516642205E+03  0.82175472568E+03  0.77000000000E+02 0.  0.
   -5000001    1    1    2    0    0 -0.21803316594E+02  0.66182693486E+02  0.88218417457E+03  0.88827554925E+03  0.77000000000E+02 0.  0.
<mgrwt>
<rscale>  0 0.20785691E+03</rscale>
<asrwt>0</asrwt>
<pdfrwt beam="1">  1        2 0.26210616E+00 0.20785691E+03</pdfrwt>
<pdfrwt beam="2">  1       -2 0.97536010E-03 0.20785691E+03</pdfrwt>
<totfact> 0.23225501E+04</totfact>
</mgrwt>
</event>
<event>
 4    1  0.6207184E-004  0.2782834E+03  0.7818608E-02  0.1096630E+00
          2   -1    0    0  501    0  0.00000000000E+00  0.00000000000E+00  0.28036777257E+04  0.28036777257E+04  0.25500000000E-02 0.  1.
         -2   -1    0    0    0  501 -0.00000000000E+00 -0.00000000000E+00 -0.69053609477E+01  0.69053614185E+01  0.25500000000E-02 0. -1.
    5000001    1    1    2    0    0  0.53747555569E+02  0.38674040360E+02  0.43774829377E+03  0.44937406448E+03  0.77000000000E+02 0.  0.
   -5000001    1    1    2    0    0 -0.53747555569E+02 -0.38674040360E+02  0.23590240709E+04  0.23612090226E+04  0.77000000000E+02 0.  0.
<mgrwt>
<rscale>  0 0.27828336E+03</rscale>
<asrwt>0</asrwt>
<pdfrwt beam="1">  1        2 0.43133536E+00 0.27828336E+03</pdfrwt>
<pdfrwt beam="2">  1       -2 0.10623625E-02 0.27828336E+03</pdfrwt>
<totfact> 0.52930187E+03</totfact>
</mgrwt>
</event>
<event>
 4    1  0.6207184E-004  0.2447121E+03  0.7818608E-02  0.1116693E+00
         -2   -1    0    0    0  501 -0.00000000000E+00  0.00000000000E+00  0.96029323211E+02  0.96029323245E+02  0.25500000000E-02 0. -1.
          2   -1    0    0  501    0  0.00000000000E+00 -0.00000000000E+00 -0.15590034290E+03  0.15590034292E+03  0.25500000000E-02 0.  1.
    5000001    1    1    2    0    0  0.11381029883E+02  0.91640847341E+02 -0.53285553657E+02  0.13151396493E+03  0.77000000000E+02 0.  0.
   -5000001    1    1    2    0    0 -0.11381029883E+02 -0.91640847341E+02 -0.65854660352E+01  0.12041570124E+03  0.77000000000E+02 0.  0.
<mgrwt>
<rscale>  0 0.24471211E+03</rscale>
<asrwt>0</asrwt>
<pdfrwt beam="1">  1        2 0.23984668E-01 0.24471211E+03</pdfrwt>
<pdfrwt beam="2">  1       -2 0.14773742E-01 0.24471211E+03</pdfrwt>
<totfact> 0.77925779E+03</totfact>
</mgrwt>
</event>
<event>
 4    1  0.6207184E-004  0.2380481E+03  0.7818608E-02  0.1121100E+00
          2   -1    0    0  501    0  0.00000000000E+00  0.00000000000E+00  0.13422812157E+04  0.13422812157E+04  0.25500000000E-02 0.  1.
         -2   -1    0    0    0  501 -0.00000000000E+00 -0.00000000000E+00 -0.10554212575E+02  0.10554212883E+02  0.25500000000E-02 0. -1.
    5000001    1    1    2    0    0  0.18636940452E+02 -0.61494319057E+02  0.30157989489E+03  0.31781806089E+03  0.77000000000E+02 0.  0.
   -5000001    1    1    2    0    0 -0.18636940452E+02  0.61494319057E+02  0.10301471082E+04  0.10350173677E+04  0.77000000000E+02 0.  0.
<mgrwt>
<rscale>  0 0.23804807E+03</rscale>
<asrwt>0</asrwt>
<pdfrwt beam="1">  1        2 0.20650465E+00 0.23804807E+03</pdfrwt>
<pdfrwt beam="2">  1       -2 0.16237262E-02 0.23804807E+03</pdfrwt>
<totfact> 0.17345304E+04</totfact>
</mgrwt>
</event>
<event>
 4    1  0.6207184E-004  0.2244989E+03  0.7818608E-02  0.1130573E+00
         -2   -1    0    0    0  501 -0.00000000000E+00  0.00000000000E+00  0.29600214958E+03  0.29600214959E+03  0.25500000000E-02 0. -1.
          2   -1    0    0  501    0  0.00000000000E+00 -0.00000000000E+00 -0.42567042166E+02  0.42567042242E+02  0.25500000000E-02 0.  1.
    5000001    1    1    2    0    0  0.32051200247E+02 -0.72635795772E+02  0.97798854943E+02  0.14763757751E+03  0.77000000000E+02 0.  0.
   -5000001    1    1    2    0    0 -0.32051200247E+02  0.72635795772E+02  0.15563625247E+03  0.19093161432E+03  0.77000000000E+02 0.  0.
<mgrwt>
<rscale>  0 0.22449887E+03</rscale>
<asrwt>0</asrwt>
<pdfrwt beam="1">  1        2 0.65487758E-02 0.22449887E+03</pdfrwt>
<pdfrwt beam="2">  1       -2 0.45538792E-01 0.22449887E+03</pdfrwt>
<totfact> 0.50103361E+03</totfact>
</mgrwt>
</event>
<event>
 4    1  0.6207184E-004  0.1946571E+03  0.7818608E-02  0.1154327E+00
          2   -1    0    0  501    0  0.00000000000E+00  0.00000000000E+00  0.51773261252E+02  0.51773261315E+02  0.25500000000E-02 0.  1.
         -2   -1    0    0    0  501 -0.00000000000E+00 -0.00000000000E+00 -0.18296787261E+03  0.18296787263E+03  0.25500000000E-02 0. -1.
    5000001    1    1    2    0    0  0.27043488266E+02  0.85437503314E+01 -0.24791238648E+01  0.82094408960E+02  0.77000000000E+02 0.  0.
   -5000001    1    1    2    0    0 -0.27043488266E+02 -0.85437503314E+01 -0.12871548749E+03  0.15264672498E+03  0.77000000000E+02 0.  0.
<mgrwt>
<rscale>  0 0.19465707E+03</rscale>
<asrwt>0</asrwt>
<pdfrwt beam="1">  1        2 0.79651172E-02 0.19465707E+03</pdfrwt>
<pdfrwt beam="2">  1       -2 0.28148903E-01 0.19465707E+03</pdfrwt>
<totfact> 0.94982060E+03</totfact>
</mgrwt>
</event>
<event>
 4    1  0.6207184E-004  0.2000280E+03  0.7818608E-02  0.1149715E+00
          2   -1    0    0  501    0  0.00000000000E+00  0.00000000000E+00  0.21470741141E+04  0.21470741141E+04  0.25500000000E-02 0.  1.
         -2   -1    0    0    0  501 -0.00000000000E+00 -0.00000000000E+00 -0.46588037719E+01  0.46588044697E+01  0.25500000000E-02 0. -1.
    5000001    1    1    2    0    0 -0.49663953634E+02  0.36902075175E+02  0.90265071988E+03  0.90803942290E+03  0.77000000000E+02 0.  0.
   -5000001    1    1    2    0    0  0.49663953634E+02 -0.36902075175E+02  0.12397645904E+04  0.12436934957E+04  0.77000000000E+02 0.  0.
<mgrwt>
<rscale>  0 0.20002798E+03</rscale>
<asrwt>0</asrwt>
<pdfrwt beam="1">  1        2 0.33031842E+00 0.20002798E+03</pdfrwt>
<pdfrwt beam="2">  1       -2 0.71674056E-03 0.20002798E+03</pdfrwt>
<totfact> 0.21236316E+04</totfact>
</mgrwt>
</event>
<event>
 4    1  0.6207184E-004  0.2762124E+03  0.7818608E-02  0.1097776E+00
         -2   -1    0    0    0  501 -0.00000000000E+00  0.00000000000E+00  0.16059036396E+03  0.16059036398E+03  0.25500000000E-02 0. -1.
          2   -1    0    0  501    0  0.00000000000E+00 -0.00000000000E+00 -0.11877006593E+03  0.11877006596E+03  0.25500000000E-02 0.  1.
    5000001    1    1    2    0    0 -0.81256234791E+02  0.34426136474E+02 -0.53112735053E+02  0.12859897818E+03  0.77000000000E+02 0.  0.
   -5000001    1    1    2    0    0  0.81256234791E+02 -0.34426136474E+02  0.94933033077E+02  0.15076145175E+03  0.77000000000E+02 0.  0.
<mgrwt>
<rscale>  0 0.27621244E+03</rscale>
<asrwt>0</asrwt>
<pdfrwt beam="1">  1        2 0.18272318E-01 0.27621244E+03</pdfrwt>
<pdfrwt beam="2">  1       -2 0.24706210E-01 0.27621244E+03</pdfrwt>
<totfact> 0.44513714E+03</totfact>
</mgrwt>
</event>
<event>
 4    1  0.6207184E-004  0.4058938E+03  0.7818608E-02  0.1041758E+00
         -2   -1    0    0    0  501 -0.00000000000E+00  0.00000000000E+00  0.29271448108E+02  0.29271448219E+02  0.25500000000E-02 0. -1.
          2   -1    0    0  501    0  0.00000000000E+00 -0.00000000000E+00 -0.14070862317E+04  0.14070862317E+04  0.25500000000E-02 0.  1.
    5000001    1    1    2    0    0  0.98637385791E+02 -0.13427599750E+03 -0.38246138072E+03  0.42422291914E+03  0.77000000000E+02 0.  0.
   -5000001    1    1    2    0    0 -0.98637385791E+02  0.13427599750E+03 -0.99535340289E+03  0.10121347608E+04  0.77000000000E+02 0.  0.
<mgrwt>
<rscale>  0 0.40589384E+03</rscale>
<asrwt>0</asrwt>
<pdfrwt beam="1">  1        2 0.21647475E+00 0.40589384E+03</pdfrwt>
<pdfrwt beam="2">  1       -2 0.45033008E-02 0.40589384E+03</pdfrwt>
<totfact> 0.35233479E+03</totfact>
</mgrwt>
</event>
<event>
 4    1  0.6207184E-004  0.2291775E+03  0.7818608E-02  0.1127220E+00
          2   -1    0    0  501    0  0.00000000000E+00  0.00000000000E+00  0.15302974474E+03  0.15302974476E+03  0.25500000000E-02 0.  1.
         -2   -1    0    0    0  501 -0.00000000000E+00 -0.00000000000E+00 -0.85804134586E+02  0.85804134624E+02  0.25500000000E-02 0. -1.
    5000001    1    1    2    0    0  0.23057324256E+02  0.75312752251E+02  0.69166966352E+00  0.11015048461E+03  0.77000000000E+02 0.  0.
   -5000001    1    1    2    0    0 -0.23057324256E+02 -0.75312752251E+02  0.66533940492E+02  0.12868339478E+03  0.77000000000E+02 0.  0.
<mgrwt>
<rscale>  0 0.22917753E+03</rscale>
<asrwt>0</asrwt>
<pdfrwt beam="1">  1        2 0.23543038E-01 0.22917753E+03</pdfrwt>
<pdfrwt beam="2">  1       -2 0.13200636E-01 0.22917753E+03</pdfrwt>
<totfact> 0.95346022E+03</totfact>
</mgrwt>
</event>
<event>
 4    1  0.6207184E-004  0.2607825E+03  0.7818608E-02  0.1106674E+00
         -2   -1    0    0    0  501 -0.00000000000E+00  0.00000000000E+00  0.50226000345E+03  0.50226000345E+03  0.25500000000E-02 0.  1.
          2   -1    0    0  501    0  0.00000000000E+00 -0.00000000000E+00 -0.33850742161E+02  0.33850742257E+02  0.25500000000E-02 0. -1.
    5000001    1    1    2    0    0 -0.60374420733E+02  0.22279736131E+02  0.40535865753E+03  0.41759561607E+03  0.77000000000E+02 0.  0.
   -5000001    1    1    2    0    0  0.60374420733E+02 -0.22279736131E+02  0.63050603751E+02  0.11851512964E+03  0.77000000000E+02 0.  0.
<mgrwt>
<rscale>  0 0.26078247E+03</rscale>
<asrwt>0</asrwt>
<pdfrwt beam="1">  1        2 0.52078063E-02 0.26078247E+03</pdfrwt>
<pdfrwt beam="2">  1       -2 0.77270772E-01 0.26078247E+03</pdfrwt>
<totfact> 0.22801228E+03</totfact>
</mgrwt>
</event>
<event>
 4    1  0.6207184E-004  0.4052234E+03  0.7818608E-02  0.1041986E+00
          2   -1    0    0  501    0  0.00000000000E+00  0.00000000000E+00  0.28013937442E+03  0.28013937444E+03  0.25500000000E-02 0.  1.
         -2   -1    0    0    0  501 -0.00000000000E+00 -0.00000000000E+00 -0.14653959626E+03  0.14653959629E+03  0.25500000000E-02 0. -1.
    5000001    1    1    2    0    0  0.10688096588E+03 -0.13774936104E+03  0.13917103564E+03  0.23600000952E+03  0.77000000000E+02 0.  0.
   -5000001    1    1    2    0    0 -0.10688096588E+03  0.13774936104E+03 -0.55712574761E+01  0.19067896120E+03  0.77000000000E+02 0.  0.
<mgrwt>
<rscale>  0 0.40522345E+03</rscale>
<asrwt>0</asrwt>
<pdfrwt beam="1">  1        2 0.43098365E-01 0.40522345E+03</pdfrwt>
<pdfrwt beam="2">  1       -2 0.22544554E-01 0.40522345E+03</pdfrwt>
<totfact> 0.20237488E+03</totfact>
</mgrwt>
</event>
<event>
 4    1  0.6207184E-004  0.2142520E+03  0.7818608E-02  0.1138242E+00
         -2   -1    0    0    0  501 -0.00000000000E+00  0.00000000000E+00  0.14934093702E+02  0.14934093920E+02  0.25500000000E-02 0. -1.
          2   -1    0    0  501    0  0.00000000000E+00 -0.00000000000E+00 -0.76844201688E+03  0.76844201689E+03  0.25500000000E-02 0.  1.
    5000001    1    1    2    0    0 -0.68469644806E+02 -0.23900442238E+02 -0.43876748607E+03  0.45133715804E+03  0.77000000000E+02 0.  0.
   -5000001    1    1    2    0    0  0.68469644806E+02  0.23900442238E+02 -0.31474043711E+03  0.33203895276E+03  0.77000000000E+02 0.  0.
<mgrwt>
<rscale>  0 0.21425205E+03</rscale>
<asrwt>0</asrwt>
<pdfrwt beam="1">  1        2 0.11822182E+00 0.21425205E+03</pdfrwt>
<pdfrwt beam="2">  1       -2 0.22975535E-02 0.21425205E+03</pdfrwt>
<totfact> 0.23043329E+04</totfact>
</mgrwt>
</event>
<event>
 4    1  0.6207184E-004  0.2461348E+03  0.7818608E-02  0.1115772E+00
         -2   -1    0    0    0  501 -0.00000000000E+00  0.00000000000E+00  0.28525511205E+02  0.28525511319E+02  0.25500000000E-02 0. -1.
          2   -1    0    0  501    0  0.00000000000E+00 -0.00000000000E+00 -0.53094857207E+03  0.53094857208E+03  0.25500000000E-02 0.  1.
    5000001    1    1    2    0    0  0.90454439160E+02 -0.64439816564E+01 -0.32284110513E+03  0.34406236299E+03  0.77000000000E+02 0.  0.
   -5000001    1    1    2    0    0 -0.90454439160E+02  0.64439816564E+01 -0.17958195574E+03  0.21541172041E+03  0.77000000000E+02 0.  0.
<mgrwt>
<rscale>  0 0.24613476E+03</rscale>
<asrwt>0</asrwt>
<pdfrwt beam="1">  1        2 0.81684389E-01 0.24613476E+03</pdfrwt>
<pdfrwt beam="2">  1       -2 0.43885406E-02 0.24613476E+03</pdfrwt>
<totfact> 0.13714330E+04</totfact>
</mgrwt>
</event>
<event>
 4    1  0.6207184E-004  0.3406221E+03  0.7818608E-02  0.1066531E+00
          2   -1    0    0  501    0  0.00000000000E+00  0.00000000000E+00  0.36759338829E+03  0.36759338830E+03  0.25500000000E-02 0.  1.
         -2   -1    0    0    0  501 -0.00000000000E+00 -0.00000000000E+00 -0.78907445535E+02  0.78907445577E+02  0.25500000000E-02 0. -1.
    5000001    1    1    2    0    0  0.51056837866E+02  0.12527303900E+03  0.53745860994E+02  0.16467468709E+03  0.77000000000E+02 0.  0.
   -5000001    1    1    2    0    0 -0.51056837866E+02 -0.12527303900E+03  0.23494008176E+03  0.28182614678E+03  0.77000000000E+02 0.  0.
<mgrwt>
<rscale>  0 0.34062211E+03</rscale>
<asrwt>0</asrwt>
<pdfrwt beam="1">  1        2 0.56552828E-01 0.34062211E+03</pdfrwt>
<pdfrwt beam="2">  1       -2 0.12139607E-01 0.34062211E+03</pdfrwt>
<totfact> 0.42607304E+03</totfact>
</mgrwt>
</event>
<event>
 4    1  0.6207184E-004  0.2141800E+03  0.7818608E-02  0.1138298E+00
          2   -1    0    0  501    0  0.00000000000E+00  0.00000000000E+00  0.10803487741E+04  0.10803487741E+04  0.25500000000E-02 0.  1.
         -2   -1    0    0    0  501 -0.00000000000E+00 -0.00000000000E+00 -0.10615334109E+02  0.10615334415E+02  0.25500000000E-02 0. -1.
    5000001    1    1    2    0    0  0.10049149279E+02  0.73139541225E+02  0.58288946948E+03  0.59257025872E+03  0.77000000000E+02 0.  0.
   -5000001    1    1    2    0    0 -0.10049149279E+02 -0.73139541225E+02  0.48684397055E+03  0.49839384983E+03  0.77000000000E+02 0.  0.
<mgrwt>
<rscale>  0 0.21417996E+03</rscale>
<asrwt>0</asrwt>
<pdfrwt beam="1">  1        2 0.16620754E+00 0.21417996E+03</pdfrwt>
<pdfrwt beam="2">  1       -2 0.16331280E-02 0.21417996E+03</pdfrwt>
<totfact> 0.24044572E+04</totfact>
</mgrwt>
</event>
<event>
 4    1  0.6207184E-004  0.2257067E+03  0.7818608E-02  0.1129699E+00
          2   -1    0    0  501    0  0.00000000000E+00  0.00000000000E+00  0.19227510068E+04  0.19227510068E+04  0.25500000000E-02 0.  1.
         -2   -1    0    0    0  501 -0.00000000000E+00 -0.00000000000E+00 -0.66237806197E+01  0.66237811105E+01  0.25500000000E-02 0. -1.
    5000001    1    1    2    0    0  0.53492586338E+01  0.82327224340E+02  0.96407712978E+03  0.97065962036E+03  0.77000000000E+02 0.  0.
   -5000001    1    1    2    0    0 -0.53492586338E+01 -0.82327224340E+02  0.95205009636E+03  0.95871516751E+03  0.77000000000E+02 0.  0.
<mgrwt>
<rscale>  0 0.22570672E+03</rscale>
<asrwt>0</asrwt>
<pdfrwt beam="1">  1        2 0.29580813E+00 0.22570672E+03</pdfrwt>
<pdfrwt beam="2">  1       -2 0.10190422E-02 0.22570672E+03</pdfrwt>
<totfact> 0.16817497E+04</totfact>
</mgrwt>
</event>
<event>
 4    1  0.6207184E-004  0.1948565E+03  0.7818608E-02  0.1154153E+00
          2   -1    0    0  501    0  0.00000000000E+00  0.00000000000E+00  0.85667523947E+03  0.85667523947E+03  0.25500000000E-02 0.  1.
         -2   -1    0    0    0  501 -0.00000000000E+00 -0.00000000000E+00 -0.11080354648E+02  0.11080354941E+02  0.25500000000E-02 0. -1.
    5000001    1    1    2    0    0 -0.53219189343E+02 -0.13040027398E+02  0.52827040485E+03  0.53665719511E+03  0.77000000000E+02 0.  0.
   -5000001    1    1    2    0    0  0.53219189343E+02  0.13040027398E+02  0.31732447997E+03  0.33109839930E+03  0.77000000000E+02 0.  0.
<mgrwt>
<rscale>  0 0.19485652E+03</rscale>
<asrwt>0</asrwt>
<pdfrwt beam="1">  1        2 0.13179619E+00 0.19485652E+03</pdfrwt>
<pdfrwt beam="2">  1       -2 0.17046700E-02 0.19485652E+03</pdfrwt>
<totfact> 0.30867197E+04</totfact>
</mgrwt>
</event>
<event>
 4    1  0.6207184E-004  0.4172353E+03  0.7818608E-02  0.1037970E+00
         -2   -1    0    0    0  501 -0.00000000000E+00  0.00000000000E+00  0.17174613343E+03  0.17174613345E+03  0.25500000000E-02 0. -1.
          2   -1    0    0  501    0  0.00000000000E+00 -0.00000000000E+00 -0.25340495136E+03  0.25340495138E+03  0.25500000000E-02 0.  1.
    5000001    1    1    2    0    0 -0.17071002229E+03  0.61412118168E+02 -0.11053007993E+03  0.22596295833E+03  0.77000000000E+02 0.  0.
   -5000001    1    1    2    0    0  0.17071002229E+03 -0.61412118168E+02  0.28871261997E+02  0.19918812650E+03  0.77000000000E+02 0.  0.
<mgrwt>
<rscale>  0 0.41723528E+03</rscale>
<asrwt>0</asrwt>
<pdfrwt beam="1">  1        2 0.38985377E-01 0.41723528E+03</pdfrwt>
<pdfrwt beam="2">  1       -2 0.26422482E-01 0.41723528E+03</pdfrwt>
<totfact> 0.17041103E+03</totfact>
</mgrwt>
</event>
<event>
 4    1  0.6207184E-004  0.1744735E+03  0.7818608E-02  0.1173261E+00
          2   -1    0    0  501    0  0.00000000000E+00  0.00000000000E+00  0.57010904955E+03  0.57010904956E+03  0.25500000000E-02 0.  1.
         -2   -1    0    0    0  501 -0.00000000000E+00 -0.00000000000E+00 -0.13348768412E+02  0.13348768655E+02  0.25500000000E-02 0. -1.
    5000001    1    1    2    0    0 -0.34601321178E+02 -0.21471183020E+02  0.29441463284E+03  0.30702970403E+03  0.77000000000E+02 0.  0.
   -5000001    1    1    2    0    0  0.34601321178E+02  0.21471183020E+02  0.26234564831E+03  0.27642811419E+03  0.77000000000E+02 0.  0.
<mgrwt>
<rscale>  0 0.17447354E+03</rscale>
<asrwt>0</asrwt>
<pdfrwt beam="1">  1        2 0.87709083E-01 0.17447354E+03</pdfrwt>
<pdfrwt beam="2">  1       -2 0.20536567E-02 0.17447354E+03</pdfrwt>
<totfact> 0.38074671E+04</totfact>
</mgrwt>
</event>
<event>
 4    1  0.6207184E-004  0.3109715E+03  0.7818608E-02  0.1079881E+00
          2   -1    0    0  501    0  0.00000000000E+00  0.00000000000E+00  0.16852020060E+03  0.16852020062E+03  0.25500000000E-02 0.  1.
         -2   -1    0    0    0  501 -0.00000000000E+00 -0.00000000000E+00 -0.14345948647E+03  0.14345948650E+03  0.25500000000E-02 0. -1.
    5000001    1    1    2    0    0  0.13361687565E+03  0.15628279023E+02  0.24780959822E+02  0.15697391036E+03  0.77000000000E+02 0.  0.
   -5000001    1    1    2    0    0 -0.13361687565E+03 -0.15628279023E+02  0.27975430127E+00  0.15500577675E+03  0.77000000000E+02 0.  0.
<mgrwt>
<rscale>  0 0.31097152E+03</rscale>
<asrwt>0</asrwt>
<pdfrwt beam="1">  1        2 0.25926184E-01 0.31097152E+03</pdfrwt>
<pdfrwt beam="2">  1       -2 0.22070690E-01 0.31097152E+03</pdfrwt>
<totfact> 0.36555381E+03</totfact>
</mgrwt>
</event>
<event>
 4    1  0.6207184E-004  0.2491191E+03  0.7818608E-02  0.1113863E+00
         -2   -1    0    0    0  501 -0.00000000000E+00  0.00000000000E+00  0.47849301120E+02  0.47849301188E+02  0.25500000000E-02 0. -1.
          2   -1    0    0  501    0  0.00000000000E+00 -0.00000000000E+00 -0.32424899043E+03  0.32424899044E+03  0.25500000000E-02 0.  1.
    5000001    1    1    2    0    0 -0.52246705334E+02 -0.51199165439E+02 -0.40997210900E+02  0.11384570287E+03  0.77000000000E+02 0.  0.
   -5000001    1    1    2    0    0  0.52246705334E+02  0.51199165439E+02 -0.23540247841E+03  0.25825258876E+03  0.77000000000E+02 0.  0.
<mgrwt>
<rscale>  0 0.24911915E+03</rscale>
<asrwt>0</asrwt>
<pdfrwt beam="1">  1        2 0.49884459E-01 0.24911915E+03</pdfrwt>
<pdfrwt beam="2">  1       -2 0.73614311E-02 0.24911915E+03</pdfrwt>
<totfact> 0.10672156E+04</totfact>
</mgrwt>
</event>
<event>
 4    1  0.6207184E-004  0.2001155E+03  0.7818608E-02  0.1149642E+00
         -2   -1    0    0    0  501 -0.00000000000E+00  0.00000000000E+00  0.47700235524E+01  0.47700242340E+01  0.25500000000E-02 0. -1.
          2   -1    0    0  501    0  0.00000000000E+00 -0.00000000000E+00 -0.20988479806E+04  0.20988479806E+04  0.25500000000E-02 0.  1.
    5000001    1    1    2    0    0  0.11918708028E+02  0.51528188276E+02 -0.67016512385E+03  0.67664429578E+03  0.77000000000E+02 0.  0.
   -5000001    1    1    2    0    0 -0.11918708028E+02 -0.51528188276E+02 -0.14239128332E+04  0.14269737090E+04  0.77000000000E+02 0.  0.
<mgrwt>
<rscale>  0 0.20011552E+03</rscale>
<asrwt>0</asrwt>
<pdfrwt beam="1">  1        2 0.32289895E+00 0.20011552E+03</pdfrwt>
<pdfrwt beam="2">  1       -2 0.73385150E-03 0.20011552E+03</pdfrwt>
<totfact> 0.21757261E+04</totfact>
</mgrwt>
</event>
<event>
 4    1  0.6207184E-004  0.3168212E+03  0.7818608E-02  0.1077122E+00
         -2   -1    0    0    0  501 -0.00000000000E+00  0.00000000000E+00  0.43820145524E+02  0.43820145598E+02  0.25500000000E-02 0. -1.
          2   -1    0    0  501    0  0.00000000000E+00 -0.00000000000E+00 -0.57265701670E+03  0.57265701671E+03  0.25500000000E-02 0.  1.
    5000001    1    1    2    0    0  0.51875392998E+02  0.12443583536E+03 -0.20320759849E+03  0.25572966509E+03  0.77000000000E+02 0.  0.
   -5000001    1    1    2    0    0 -0.51875392998E+02 -0.12443583536E+03 -0.32562927268E+03  0.36074749722E+03  0.77000000000E+02 0.  0.
<mgrwt>
<rscale>  0 0.31682117E+03</rscale>
<asrwt>0</asrwt>
<pdfrwt beam="1">  1        2 0.88101074E-01 0.31682117E+03</pdfrwt>
<pdfrwt beam="2">  1       -2 0.67415613E-02 0.31682117E+03</pdfrwt>
<totfact> 0.65910373E+03</totfact>
</mgrwt>
</event>
<event>
 4    1  0.6207184E-004  0.1853571E+03  0.7818608E-02  0.1162717E+00
         -2   -1    0    0    0  501 -0.00000000000E+00  0.00000000000E+00  0.57402937636E+01  0.57402943300E+01  0.25500000000E-02 0. -1.
          2   -1    0    0  501    0  0.00000000000E+00 -0.00000000000E+00 -0.14963194973E+04  0.14963194973E+04  0.25500000000E-02 0.  1.
    5000001    1    1    2    0    0 -0.28636446801E+02  0.39156529962E+02 -0.88728399946E+03  0.89193899770E+03  0.77000000000E+02 0.  0.
   -5000001    1    1    2    0    0  0.28636446801E+02 -0.39156529962E+02 -0.60329520406E+03  0.61012079391E+03  0.77000000000E+02 0.  0.
<mgrwt>
<rscale>  0 0.18535710E+03</rscale>
<asrwt>0</asrwt>
<pdfrwt beam="1">  1        2 0.23020269E+00 0.18535710E+03</pdfrwt>
<pdfrwt beam="2">  1       -2 0.88312335E-03 0.18535710E+03</pdfrwt>
<totfact> 0.34201179E+04</totfact>
</mgrwt>
</event>
<event>
 4    1  0.6207184E-004  0.2999693E+03  0.7818608E-02  0.1085256E+00
          2   -1    0    0  501    0  0.00000000000E+00  0.00000000000E+00  0.24762160829E+03  0.24762160830E+03  0.25500000000E-02 0.  1.
         -2   -1    0    0    0  501 -0.00000000000E+00 -0.00000000000E+00 -0.90845860727E+02  0.90845860763E+02  0.25500000000E-02 0. -1.
    5000001    1    1    2    0    0 -0.10613327775E+02 -0.73059651656E+02  0.19735177557E+03  0.22433697588E+03  0.77000000000E+02 0.  0.
   -5000001    1    1    2    0    0  0.10613327775E+02  0.73059651656E+02 -0.40576028005E+02  0.11413049319E+03  0.77000000000E+02 0.  0.
<mgrwt>
<rscale>  0 0.29996932E+03</rscale>
<asrwt>0</asrwt>
<pdfrwt beam="1">  1        2 0.38095632E-01 0.29996932E+03</pdfrwt>
<pdfrwt beam="2">  1       -2 0.13976286E-01 0.29996932E+03</pdfrwt>
<totfact> 0.51743286E+03</totfact>
</mgrwt>
</event>
<event>
 4    1  0.6207184E-004  0.4964802E+03  0.7818608E-02  0.1014702E+00
         -2   -1    0    0    0  501 -0.00000000000E+00  0.00000000000E+00  0.15856356391E+04  0.15856356391E+04  0.25500000000E-02 0. -1.
          2   -1    0    0  501    0  0.00000000000E+00 -0.00000000000E+00 -0.38863370513E+02  0.38863370597E+02  0.25500000000E-02 0.  1.
    5000001    1    1    2    0    0  0.16892838729E+03 -0.76410263466E+02  0.12511343516E+04  0.12671390982E+04  0.77000000000E+02 0.  0.
   -5000001    1    1    2    0    0 -0.16892838729E+03  0.76410263466E+02  0.29563791697E+03  0.35735991150E+03  0.77000000000E+02 0.  0.
<mgrwt>
<rscale>  0 0.49648019E+03</rscale>
<asrwt>0</asrwt>
<pdfrwt beam="1">  1        2 0.59789799E-02 0.49648019E+03</pdfrwt>
<pdfrwt beam="2">  1       -2 0.24394395E+00 0.49648019E+03</pdfrwt>
<totfact> 0.95055708E+01</totfact>
</mgrwt>
</event>
<event>
 4    1  0.6207184E-004  0.2376538E+03  0.7818608E-02  0.1121366E+00
         -2   -1    0    0    0  501 -0.00000000000E+00  0.00000000000E+00  0.12899626794E+02  0.12899627046E+02  0.25500000000E-02 0. -1.
          2   -1    0    0  501    0  0.00000000000E+00 -0.00000000000E+00 -0.10945921784E+04  0.10945921784E+04  0.25500000000E-02 0.  1.
    5000001    1    1    2    0    0 -0.57133947418E+01  0.70146368642E+02 -0.27568359904E+03  0.29476024612E+03  0.77000000000E+02 0.  0.
   -5000001    1    1    2    0    0  0.57133947418E+01 -0.70146368642E+02 -0.80600895255E+03  0.81273155931E+03  0.77000000000E+02 0.  0.
<mgrwt>
<rscale>  0 0.23765379E+03</rscale>
<asrwt>0</asrwt>
<pdfrwt beam="1">  1        2 0.16839872E+00 0.23765379E+03</pdfrwt>
<pdfrwt beam="2">  1       -2 0.19845589E-02 0.23765379E+03</pdfrwt>
<totfact> 0.17833022E+04</totfact>
</mgrwt>
</event>
<event>
 4    1  0.6207184E-004  0.5282823E+03  0.7818608E-02  0.1006650E+00
         -2   -1    0    0    0  501 -0.00000000000E+00  0.00000000000E+00  0.75350192529E+02  0.75350192572E+02  0.25500000000E-02 0. -1.
          2   -1    0    0  501    0  0.00000000000E+00 -0.00000000000E+00 -0.92595059952E+03  0.92595059952E+03  0.25500000000E-02 0.  1.
    5000001    1    1    2    0    0  0.10837021379E+03 -0.96939222228E+02 -0.33636226161E+02  0.16793365283E+03  0.77000000000E+02 0.  0.
   -5000001    1    1    2    0    0 -0.10837021379E+03  0.96939222228E+02 -0.81696418083E+03  0.83336713926E+03  0.77000000000E+02 0.  0.
<mgrwt>
<rscale>  0 0.52828233E+03</rscale>
<asrwt>0</asrwt>
<pdfrwt beam="1">  1        2 0.14245393E+00 0.52828233E+03</pdfrwt>
<pdfrwt beam="2">  1       -2 0.11592338E-01 0.52828233E+03</pdfrwt>
<totfact> 0.15264024E+03</totfact>
</mgrwt>
</event>
<event>
 4    1  0.6207184E-004  0.2254167E+03  0.7818608E-02  0.1129908E+00
         -2   -1    0    0    0  501 -0.00000000000E+00  0.00000000000E+00  0.34636390106E+02  0.34636390200E+02  0.25500000000E-02 0. -1.
          2   -1    0    0  501    0  0.00000000000E+00 -0.00000000000E+00 -0.36675783789E+03  0.36675783790E+03  0.25500000000E-02 0.  1.
    5000001    1    1    2    0    0 -0.26466711962E+02 -0.66265608193E+02 -0.93019323653E+02  0.14026122859E+03  0.77000000000E+02 0.  0.
   -5000001    1    1    2    0    0  0.26466711962E+02  0.66265608193E+02 -0.23910212413E+03  0.26113299952E+03  0.77000000000E+02 0.  0.
<mgrwt>
<rscale>  0 0.22541666E+03</rscale>
<asrwt>0</asrwt>
<pdfrwt beam="1">  1        2 0.56424280E-01 0.22541666E+03</pdfrwt>
<pdfrwt beam="2">  1       -2 0.53286757E-02 0.22541666E+03</pdfrwt>
<totfact> 0.15267606E+04</totfact>
</mgrwt>
</event>
<event>
 4    1  0.6207184E-004  0.3316919E+03  0.7818608E-02  0.1070391E+00
          2   -1    0    0  501    0  0.00000000000E+00  0.00000000000E+00  0.24360150074E+02  0.24360150208E+02  0.25500000000E-02 0.  1.
         -2   -1    0    0    0  501 -0.00000000000E+00 -0.00000000000E+00 -0.11290929607E+04  0.11290929607E+04  0.25500000000E-02 0. -1.
    5000001    1    1    2    0    0  0.99404599835E+02  0.72689485082E+02 -0.27393223545E+03  0.31005306857E+03  0.77000000000E+02 0.  0.
   -5000001    1    1    2    0    0 -0.99404599835E+02 -0.72689485082E+02 -0.83080057516E+03  0.84340004233E+03  0.77000000000E+02 0.  0.
<mgrwt>
<rscale>  0 0.33169187E+03</rscale>
<asrwt>0</asrwt>
<pdfrwt beam="1">  1        2 0.37477163E-02 0.33169187E+03</pdfrwt>
<pdfrwt beam="2">  1       -2 0.17370657E+00 0.33169187E+03</pdfrwt>
<totfact> 0.49836334E+02</totfact>
</mgrwt>
</event>
<event>
 4    1  0.6207184E-004  0.2073209E+03  0.7818608E-02  0.1143705E+00
          2   -1    0    0  501    0  0.00000000000E+00  0.00000000000E+00  0.16923866481E+04  0.16923866481E+04  0.25500000000E-02 0.  1.
         -2   -1    0    0    0  501 -0.00000000000E+00 -0.00000000000E+00 -0.63493126476E+01  0.63493131596E+01  0.25500000000E-02 0. -1.
    5000001    1    1    2    0    0  0.59785608138E+02  0.34682583873E+02  0.89437970739E+03  0.90034507915E+03  0.77000000000E+02 0.  0.
   -5000001    1    1    2    0    0 -0.59785608138E+02 -0.34682583873E+02  0.79165762810E+03  0.79839088215E+03  0.77000000000E+02 0.  0.
<mgrwt>
<rscale>  0 0.20732093E+03</rscale>
<asrwt>0</asrwt>
<pdfrwt beam="1">  1        2 0.26036740E+00 0.20732093E+03</pdfrwt>
<pdfrwt beam="2">  1       -2 0.97681652E-03 0.20732093E+03</pdfrwt>
<totfact> 0.23489359E+04</totfact>
</mgrwt>
</event>
<event>
 4    1  0.6207184E-004  0.2593258E+03  0.7818608E-02  0.1107549E+00
          2   -1    0    0  501    0  0.00000000000E+00  0.00000000000E+00  0.74299356280E+03  0.74299356280E+03  0.25500000000E-02 0.  1.
         -2   -1    0    0    0  501 -0.00000000000E+00 -0.00000000000E+00 -0.22628009076E+02  0.22628009220E+02  0.25500000000E-02 0. -1.
    5000001    1    1    2    0    0  0.93012992238E+02  0.40126955739E+02  0.43380692940E+03  0.45208300267E+03  0.77000000000E+02 0.  0.
   -5000001    1    1    2    0    0 -0.93012992238E+02 -0.40126955739E+02  0.28655862432E+03  0.31353856935E+03  0.77000000000E+02 0.  0.
<mgrwt>
<rscale>  0 0.25932578E+03</rscale>
<asrwt>0</asrwt>
<pdfrwt beam="1">  1        2 0.11430670E+00 0.25932578E+03</pdfrwt>
<pdfrwt beam="2">  1       -2 0.34812322E-02 0.25932578E+03</pdfrwt>
<totfact> 0.13109877E+04</totfact>
</mgrwt>
</event>
<event>
 4    1  0.6207184E-004  0.8174868E+03  0.7818608E-02  0.9535045E-01
          2   -1    0    0  501    0  0.00000000000E+00  0.00000000000E+00  0.16245851500E+03  0.16245851502E+03  0.25500000000E-02 0.  1.
         -2   -1    0    0    0  501 -0.00000000000E+00 -0.00000000000E+00 -0.10283928457E+04  0.10283928457E+04  0.25500000000E-02 0. -1.
    5000001    1    1    2    0    0 -0.38703461801E+03 -0.96544217286E+02 -0.36740505771E+03  0.54775182141E+03  0.77000000000E+02 0.  0.
   -5000001    1    1    2    0    0  0.38703461801E+03  0.96544217286E+02 -0.49852927297E+03  0.64309953930E+03  0.77000000000E+02 0.  0.
<mgrwt>
<rscale>  0 0.81748682E+03</rscale>
<asrwt>0</asrwt>
<pdfrwt beam="1">  1        2 0.24993618E-01 0.81748682E+03</pdfrwt>
<pdfrwt beam="2">  1       -2 0.15821428E+00 0.81748682E+03</pdfrwt>
<totfact> 0.57390078E+01</totfact>
</mgrwt>
</event>
<event>
 4    1  0.6207184E-004  0.3370654E+03  0.7818608E-02  0.1068053E+00
         -2   -1    0    0    0  501 -0.00000000000E+00  0.00000000000E+00  0.40960891328E+03  0.40960891329E+03  0.25500000000E-02 0. -1.
          2   -1    0    0  501    0  0.00000000000E+00 -0.00000000000E+00 -0.69342409715E+02  0.69342409762E+02  0.25500000000E-02 0.  1.
    5000001    1    1    2    0    0 -0.80556653441E+02 -0.60971228656E+02  0.32751470487E+03  0.35128584805E+03  0.77000000000E+02 0.  0.
   -5000001    1    1    2    0    0  0.80556653441E+02  0.60971228656E+02  0.12751798702E+02  0.12766547500E+03  0.77000000000E+02 0.  0.
<mgrwt>
<rscale>  0 0.33706539E+03</rscale>
<asrwt>0</asrwt>
<pdfrwt beam="1">  1        2 0.10668063E-01 0.33706539E+03</pdfrwt>
<pdfrwt beam="2">  1       -2 0.63016756E-01 0.33706539E+03</pdfrwt>
<totfact> 0.14167161E+03</totfact>
</mgrwt>
</event>
<event>
 4    1  0.6207184E-004  0.2136529E+03  0.7818608E-02  0.1138706E+00
         -2   -1    0    0    0  501 -0.00000000000E+00  0.00000000000E+00  0.10870271841E+02  0.10870272141E+02  0.25500000000E-02 0. -1.
          2   -1    0    0  501    0  0.00000000000E+00 -0.00000000000E+00 -0.10498253471E+04  0.10498253471E+04  0.25500000000E-02 0.  1.
    5000001    1    1    2    0    0  0.83709334317E+01  0.68192363590E+02 -0.65657677182E+03  0.66463698984E+03  0.77000000000E+02 0.  0.
   -5000001    1    1    2    0    0 -0.83709334317E+01 -0.68192363590E+02 -0.38237830340E+03  0.39605862936E+03  0.77000000000E+02 0.  0.
<mgrwt>
<rscale>  0 0.21365287E+03</rscale>
<asrwt>0</asrwt>
<pdfrwt beam="1">  1        2 0.16151151E+00 0.21365287E+03</pdfrwt>
<pdfrwt beam="2">  1       -2 0.16723504E-02 0.21365287E+03</pdfrwt>
<totfact> 0.24207718E+04</totfact>
</mgrwt>
</event>
<event>
 4    1  0.6207184E-004  0.2461598E+03  0.7818608E-02  0.1115756E+00
          2   -1    0    0  501    0  0.00000000000E+00  0.00000000000E+00  0.44332394464E+03  0.44332394465E+03  0.25500000000E-02 0.  1.
         -2   -1    0    0    0  501 -0.00000000000E+00 -0.00000000000E+00 -0.34170627079E+02  0.34170627174E+02  0.25500000000E-02 0. -1.
    5000001    1    1    2    0    0 -0.79781034093E+02 -0.48996028367E+02  0.16324383362E+03  0.20333020782E+03  0.77000000000E+02 0.  0.
   -5000001    1    1    2    0    0  0.79781034093E+02  0.48996028367E+02  0.24590948394E+03  0.27416436400E+03  0.77000000000E+02 0.  0.
<mgrwt>
<rscale>  0 0.24615976E+03</rscale>
<asrwt>0</asrwt>
<pdfrwt beam="1">  1        2 0.68203683E-01 0.24615976E+03</pdfrwt>
<pdfrwt beam="2">  1       -2 0.52570196E-02 0.24615976E+03</pdfrwt>
<totfact> 0.12748739E+04</totfact>
</mgrwt>
</event>
<event>
 4    1  0.6207184E-004  0.2268983E+03  0.7818608E-02  0.1128842E+00
          2   -1    0    0  501    0  0.00000000000E+00  0.00000000000E+00  0.12706979636E+03  0.12706979639E+03  0.25500000000E-02 0.  1.
         -2   -1    0    0    0  501 -0.00000000000E+00 -0.00000000000E+00 -0.10128851693E+03  0.10128851696E+03  0.25500000000E-02 0. -1.
    5000001    1    1    2    0    0 -0.34558533745E+02  0.72492379750E+02 -0.94393714777E+01  0.11165813499E+03  0.77000000000E+02 0.  0.
   -5000001    1    1    2    0    0  0.34558533745E+02 -0.72492379750E+02  0.35220650913E+02  0.11670017835E+03  0.77000000000E+02 0.  0.
<mgrwt>
<rscale>  0 0.22689831E+03</rscale>
<asrwt>0</asrwt>
<pdfrwt beam="1">  1        2 0.19549199E-01 0.22689831E+03</pdfrwt>
<pdfrwt beam="2">  1       -2 0.15582849E-01 0.22689831E+03</pdfrwt>
<totfact> 0.89605405E+03</totfact>
</mgrwt>
</event>
<event>
 4    1  0.6207184E-004  0.2730491E+03  0.7818608E-02  0.1099547E+00
          2   -1    0    0  501    0  0.00000000000E+00  0.00000000000E+00  0.12265538499E+04  0.12265538499E+04  0.25500000000E-02 0.  1.
         -2   -1    0    0    0  501 -0.00000000000E+00 -0.00000000000E+00 -0.15196194875E+02  0.15196195089E+02  0.25500000000E-02 0. -1.
    5000001    1    1    2    0    0 -0.36397155259E+02  0.10293431227E+03  0.73347905984E+03  0.74554728674E+03  0.77000000000E+02 0.  0.
   -5000001    1    1    2    0    0  0.36397155259E+02 -0.10293431227E+03  0.47787859517E+03  0.49620275823E+03  0.77000000000E+02 0.  0.
<mgrwt>
<rscale>  0 0.27304909E+03</rscale>
<asrwt>0</asrwt>
<pdfrwt beam="1">  1        2 0.18870060E+00 0.27304909E+03</pdfrwt>
<pdfrwt beam="2">  1       -2 0.23378760E-02 0.27304909E+03</pdfrwt>
<totfact> 0.11827969E+04</totfact>
</mgrwt>
</event>
<event>
 4    1  0.6207184E-004  0.1845333E+03  0.7818608E-02  0.1163486E+00
          2   -1    0    0  501    0  0.00000000000E+00  0.00000000000E+00  0.71147634753E+02  0.71147634799E+02  0.25500000000E-02 0.  1.
         -2   -1    0    0    0  501 -0.00000000000E+00 -0.00000000000E+00 -0.11965445390E+03  0.11965445392E+03  0.25500000000E-02 0. -1.
    5000001    1    1    2    0    0 -0.46885077092E+02 -0.14550198697E+02 -0.10606060237E+02  0.91931535665E+02  0.77000000000E+02 0.  0.
   -5000001    1    1    2    0    0  0.46885077092E+02  0.14550198697E+02 -0.37900758905E+02  0.98870553056E+02  0.77000000000E+02 0.  0.
<mgrwt>
<rscale>  0 0.18453326E+03</rscale>
<asrwt>0</asrwt>
<pdfrwt beam="1">  1        2 0.10945790E-01 0.18453326E+03</pdfrwt>
<pdfrwt beam="2">  1       -2 0.18408378E-01 0.18453326E+03</pdfrwt>
<totfact> 0.13300610E+04</totfact>
</mgrwt>
</event>
<event>
 4    1  0.6207184E-004  0.1779902E+03  0.7818608E-02  0.1169762E+00
         -2   -1    0    0    0  501 -0.00000000000E+00  0.00000000000E+00  0.91368601166E+01  0.91368604724E+01  0.25500000000E-02 0. -1.
          2   -1    0    0  501    0  0.00000000000E+00 -0.00000000000E+00 -0.86683274073E+03  0.86683274073E+03  0.25500000000E-02 0.  1.
    5000001    1    1    2    0    0  0.22259269851E+01  0.43779042224E+02 -0.38779870843E+03  0.39779190232E+03  0.77000000000E+02 0.  0.
   -5000001    1    1    2    0    0 -0.22259269851E+01 -0.43779042224E+02 -0.46989717218E+03  0.47817769889E+03  0.77000000000E+02 0.  0.
<mgrwt>
<rscale>  0 0.17799022E+03</rscale>
<asrwt>0</asrwt>
<pdfrwt beam="1">  1        2 0.13335882E+00 0.17799022E+03</pdfrwt>
<pdfrwt beam="2">  1       -2 0.14056715E-02 0.17799022E+03</pdfrwt>
<totfact> 0.39941512E+04</totfact>
</mgrwt>
</event>
<event>
 4    1  0.6207184E-004  0.2256093E+03  0.7818608E-02  0.1129769E+00
         -2   -1    0    0    0  501 -0.00000000000E+00  0.00000000000E+00  0.10133696723E+03  0.10133696727E+03  0.25500000000E-02 0. -1.
          2   -1    0    0  501    0  0.00000000000E+00 -0.00000000000E+00 -0.12557010781E+03  0.12557010784E+03  0.25500000000E-02 0.  1.
    5000001    1    1    2    0    0  0.34621499246E+02  0.68672277165E+02  0.17741973418E+02  0.11026471549E+03  0.77000000000E+02 0.  0.
   -5000001    1    1    2    0    0 -0.34621499246E+02 -0.68672277165E+02 -0.41975113995E+02  0.11664235961E+03  0.77000000000E+02 0.  0.
<mgrwt>
<rscale>  0 0.22560934E+03</rscale>
<asrwt>0</asrwt>
<pdfrwt beam="1">  1        2 0.19318478E-01 0.22560934E+03</pdfrwt>
<pdfrwt beam="2">  1       -2 0.15590303E-01 0.22560934E+03</pdfrwt>
<totfact> 0.90731207E+03</totfact>
</mgrwt>
</event>
<event>
 4    1  0.6207184E-004  0.2663343E+03  0.7818608E-02  0.1103396E+00
          2   -1    0    0  501    0  0.00000000000E+00  0.00000000000E+00  0.13719386819E+04  0.13719386819E+04  0.25500000000E-02 0.  1.
         -2   -1    0    0    0  501 -0.00000000000E+00 -0.00000000000E+00 -0.12925861916E+02  0.12925862167E+02  0.25500000000E-02 0. -1.
    5000001    1    1    2    0    0 -0.48793528833E+02 -0.89685138343E+02  0.48632725072E+03  0.50285925197E+03  0.77000000000E+02 0.  0.
   -5000001    1    1    2    0    0  0.48793528833E+02  0.89685138343E+02  0.87268556923E+03  0.88200529207E+03  0.77000000000E+02 0.  0.
<mgrwt>
<rscale>  0 0.26633430E+03</rscale>
<asrwt>0</asrwt>
<pdfrwt beam="1">  1        2 0.21106750E+00 0.26633430E+03</pdfrwt>
<pdfrwt beam="2">  1       -2 0.19885941E-02 0.26633430E+03</pdfrwt>
<totfact> 0.12463618E+04</totfact>
</mgrwt>
</event>
<event>
 4    1  0.6207184E-004  0.2346488E+03  0.7818608E-02  0.1123410E+00
          2   -1    0    0  501    0  0.00000000000E+00  0.00000000000E+00  0.91474180043E+02  0.91474180078E+02  0.25500000000E-02 0.  1.
         -2   -1    0    0    0  501 -0.00000000000E+00 -0.00000000000E+00 -0.15047983831E+03  0.15047983833E+03  0.25500000000E-02 0. -1.
    5000001    1    1    2    0    0  0.78531368626E+02  0.29109056191E+02  0.51425392905E-01  0.11376957262E+03  0.77000000000E+02 0.  0.
   -5000001    1    1    2    0    0 -0.78531368626E+02 -0.29109056191E+02 -0.59057083659E+02  0.12818444578E+03  0.77000000000E+02 0.  0.
<mgrwt>
<rscale>  0 0.23464884E+03</rscale>
<asrwt>0</asrwt>
<pdfrwt beam="1">  1        2 0.14072951E-01 0.23464884E+03</pdfrwt>
<pdfrwt beam="2">  1       -2 0.23150744E-01 0.23464884E+03</pdfrwt>
<totfact> 0.67347429E+03</totfact>
</mgrwt>
</event>
<event>
 4    1  0.6207184E-004  0.1584841E+03  0.7818608E-02  0.1190419E+00
         -2   -1    0    0    0  501 -0.00000000000E+00  0.00000000000E+00  0.11762103373E+02  0.11762103650E+02  0.25500000000E-02 0. -1.
          2   -1    0    0  501    0  0.00000000000E+00 -0.00000000000E+00 -0.53385905439E+03  0.53385905440E+03  0.25500000000E-02 0.  1.
    5000001    1    1    2    0    0  0.12019278540E+02  0.12976303271E+02 -0.23997784878E+03  0.25264840274E+03  0.77000000000E+02 0.  0.
   -5000001    1    1    2    0    0 -0.12019278540E+02 -0.12976303271E+02 -0.28211910224E+03  0.29297275531E+03  0.77000000000E+02 0.  0.
<mgrwt>
<rscale>  0 0.15848414E+03</rscale>
<asrwt>0</asrwt>
<pdfrwt beam="1">  1        2 0.82132143E-01 0.15848414E+03</pdfrwt>
<pdfrwt beam="2">  1       -2 0.18095548E-02 0.15848414E+03</pdfrwt>
<totfact> 0.48842442E+04</totfact>
</mgrwt>
</event>
<event>
 4    1  0.6207184E-004  0.2341502E+03  0.7818608E-02  0.1123752E+00
         -2   -1    0    0    0  501 -0.00000000000E+00  0.00000000000E+00  0.41535502117E+02  0.41535502195E+02  0.25500000000E-02 0. -1.
          2   -1    0    0  501    0  0.00000000000E+00 -0.00000000000E+00 -0.32999680053E+03  0.32999680054E+03  0.25500000000E-02 0.  1.
    5000001    1    1    2    0    0  0.66597254034E+02 -0.38957162850E+02 -0.21201057036E+03  0.23839114230E+03  0.77000000000E+02 0.  0.
   -5000001    1    1    2    0    0 -0.66597254034E+02  0.38957162850E+02 -0.76450728051E+02  0.13314116043E+03  0.77000000000E+02 0.  0.
<mgrwt>
<rscale>  0 0.23415023E+03</rscale>
<asrwt>0</asrwt>
<pdfrwt beam="1">  1        2 0.50768737E-01 0.23415023E+03</pdfrwt>
<pdfrwt beam="2">  1       -2 0.63900775E-02 0.23415023E+03</pdfrwt>
<totfact> 0.12988362E+04</totfact>
</mgrwt>
</event>
<event>
 4    1  0.6207184E-004  0.3594703E+03  0.7818608E-02  0.1058794E+00
         -2   -1    0    0    0  501 -0.00000000000E+00  0.00000000000E+00  0.16477225092E+02  0.16477225289E+02  0.25500000000E-02 0. -1.
          2   -1    0    0  501    0  0.00000000000E+00 -0.00000000000E+00 -0.19605686616E+04  0.19605686616E+04  0.25500000000E-02 0.  1.
    5000001    1    1    2    0    0 -0.27898326703E+02  0.11026215382E+03 -0.16096453008E+04  0.16154946777E+04  0.77000000000E+02 0.  0.
   -5000001    1    1    2    0    0  0.27898326703E+02 -0.11026215382E+03 -0.33444613569E+03  0.36155120921E+03  0.77000000000E+02 0.  0.
<mgrwt>
<rscale>  0 0.35947034E+03</rscale>
<asrwt>0</asrwt>
<pdfrwt beam="1">  1        2 0.30162576E+00 0.35947034E+03</pdfrwt>
<pdfrwt beam="2">  1       -2 0.25349593E-02 0.35947034E+03</pdfrwt>
<totfact> 0.42366431E+03</totfact>
</mgrwt>
</event>
<event>
 4    1  0.6207184E-004  0.1867575E+03  0.7818608E-02  0.1161419E+00
          2   -1    0    0  501    0  0.00000000000E+00  0.00000000000E+00  0.27824992550E+03  0.27824992552E+03  0.25500000000E-02 0.  1.
         -2   -1    0    0    0  501 -0.00000000000E+00 -0.00000000000E+00 -0.31337265846E+02  0.31337265950E+02  0.25500000000E-02 0. -1.
    5000001    1    1    2    0    0 -0.20447065731E+02 -0.44986339011E+02  0.92499606370E+02  0.13010392144E+03  0.77000000000E+02 0.  0.
   -5000001    1    1    2    0    0  0.20447065731E+02  0.44986339011E+02  0.15441305329E+03  0.17948327003E+03  0.77000000000E+02 0.  0.
<mgrwt>
<rscale>  0 0.18675751E+03</rscale>
<asrwt>0</asrwt>
<pdfrwt beam="1">  1        2 0.42807681E-01 0.18675751E+03</pdfrwt>
<pdfrwt beam="2">  1       -2 0.48211179E-02 0.18675751E+03</pdfrwt>
<totfact> 0.23564092E+04</totfact>
</mgrwt>
</event>
<event>
 4    1  0.6207184E-004  0.2667508E+03  0.7818608E-02  0.1103154E+00
          2   -1    0    0  501    0  0.00000000000E+00  0.00000000000E+00  0.12622638634E+04  0.12622638634E+04  0.25500000000E-02 0.  1.
         -2   -1    0    0    0  501 -0.00000000000E+00 -0.00000000000E+00 -0.14092934945E+02  0.14092935176E+02  0.25500000000E-02 0. -1.
    5000001    1    1    2    0    0 -0.97791277295E+02  0.44623970179E+02  0.70772693852E+03  0.71997281347E+03  0.77000000000E+02 0.  0.
   -5000001    1    1    2    0    0  0.97791277295E+02 -0.44623970179E+02  0.54044398996E+03  0.55638398514E+03  0.77000000000E+02 0.  0.
<mgrwt>
<rscale>  0 0.26675084E+03</rscale>
<asrwt>0</asrwt>
<pdfrwt beam="1">  1        2 0.19419438E+00 0.26675084E+03</pdfrwt>
<pdfrwt beam="2">  1       -2 0.21681445E-02 0.26675084E+03</pdfrwt>
<totfact> 0.12614666E+04</totfact>
</mgrwt>
</event>
<event>
 4    1  0.6207184E-004  0.4045879E+03  0.7818608E-02  0.1042203E+00
         -2   -1    0    0    0  501 -0.00000000000E+00  0.00000000000E+00  0.36336253064E+02  0.36336253154E+02  0.25500000000E-02 0. -1.
          2   -1    0    0  501    0  0.00000000000E+00 -0.00000000000E+00 -0.11262261796E+04  0.11262261796E+04  0.25500000000E-02 0.  1.
    5000001    1    1    2    0    0 -0.14989182033E+03  0.10677711805E+03 -0.44856962316E+03  0.49093035918E+03  0.77000000000E+02 0.  0.
   -5000001    1    1    2    0    0  0.14989182033E+03 -0.10677711805E+03 -0.64132030341E+03  0.67163207362E+03  0.77000000000E+02 0.  0.
<mgrwt>
<rscale>  0 0.40458789E+03</rscale>
<asrwt>0</asrwt>
<pdfrwt beam="1">  1        2 0.17326554E+00 0.40458789E+03</pdfrwt>
<pdfrwt beam="2">  1       -2 0.55901937E-02 0.40458789E+03</pdfrwt>
<totfact> 0.36512933E+03</totfact>
</mgrwt>
</event>
<event>
 4    1  0.6207184E-004  0.1682378E+03  0.7818608E-02  0.1179698E+00
          2   -1    0    0  501    0  0.00000000000E+00  0.00000000000E+00  0.29361098700E+03  0.29361098701E+03  0.25500000000E-02 0.  1.
         -2   -1    0    0    0  501 -0.00000000000E+00 -0.00000000000E+00 -0.24099881328E+02  0.24099881463E+02  0.25500000000E-02 0. -1.
    5000001    1    1    2    0    0  0.21334776627E+02  0.20606045511E+02  0.16562531839E+03  0.18504196253E+03  0.77000000000E+02 0.  0.
   -5000001    1    1    2    0    0 -0.21334776627E+02 -0.20606045511E+02  0.10388578729E+03  0.13266890595E+03  0.77000000000E+02 0.  0.
<mgrwt>
<rscale>  0 0.16823781E+03</rscale>
<asrwt>0</asrwt>
<pdfrwt beam="1">  1        2 0.45170921E-01 0.16823781E+03</pdfrwt>
<pdfrwt beam="2">  1       -2 0.37076741E-02 0.16823781E+03</pdfrwt>
<totfact> 0.32668254E+04</totfact>
</mgrwt>
</event>
<event>
 4    1  0.6207184E-004  0.2877416E+03  0.7818608E-02  0.1091534E+00
          2   -1    0    0  501    0  0.00000000000E+00  0.00000000000E+00  0.92075996726E+03  0.92075996726E+03  0.25500000000E-02 0.  1.
         -2   -1    0    0    0  501 -0.00000000000E+00 -0.00000000000E+00 -0.22480130537E+02  0.22480130682E+02  0.25500000000E-02 0. -1.
    5000001    1    1    2    0    0  0.10074271905E+03  0.31312814277E+02  0.25135952366E+03  0.28326700816E+03  0.77000000000E+02 0.  0.
   -5000001    1    1    2    0    0 -0.10074271905E+03 -0.31312814277E+02  0.64692031306E+03  0.65997308978E+03  0.77000000000E+02 0.  0.
<mgrwt>
<rscale>  0 0.28774158E+03</rscale>
<asrwt>0</asrwt>
<pdfrwt beam="1">  1        2 0.14165537E+00 0.28774158E+03</pdfrwt>
<pdfrwt beam="2">  1       -2 0.34584817E-02 0.28774158E+03</pdfrwt>
<totfact> 0.10071352E+04</totfact>
</mgrwt>
</event>
<event>
 4    1  0.6207184E-004  0.2721840E+03  0.7818608E-02  0.1100036E+00
          2   -1    0    0  501    0  0.00000000000E+00  0.00000000000E+00  0.10742379216E+03  0.10742379219E+03  0.25500000000E-02 0.  1.
         -2   -1    0    0    0  501 -0.00000000000E+00 -0.00000000000E+00 -0.17241089190E+03  0.17241089192E+03  0.25500000000E-02 0. -1.
    5000001    1    1    2    0    0 -0.65090806719E+02 -0.91406875920E+02 -0.32536425526E+02  0.13992729923E+03  0.77000000000E+02 0.  0.
   -5000001    1    1    2    0    0  0.65090806719E+02  0.91406875920E+02 -0.32450674218E+02  0.13990738487E+03  0.77000000000E+02 0.  0.
<mgrwt>
<rscale>  0 0.27218400E+03</rscale>
<asrwt>0</asrwt>
<pdfrwt beam="1">  1        2 0.16526737E-01 0.27218400E+03</pdfrwt>
<pdfrwt beam="2">  1       -2 0.26524753E-01 0.27218400E+03</pdfrwt>
<totfact> 0.44101990E+03</totfact>
</mgrwt>
</event>
<event>
 4    1  0.6207184E-004  0.7214790E+03  0.7818608E-02  0.9681189E-01
         -2   -1    0    0    0  501 -0.00000000000E+00  0.00000000000E+00  0.51895485043E+02  0.51895485106E+02  0.25500000000E-02 0. -1.
          2   -1    0    0  501    0  0.00000000000E+00 -0.00000000000E+00 -0.25075974667E+04  0.25075974667E+04  0.25500000000E-02 0.  1.
    5000001    1    1    2    0    0  0.91465599918E+02  0.33835375659E+03 -0.13584267147E+04  0.14050271740E+04  0.77000000000E+02 0.  0.
   -5000001    1    1    2    0    0 -0.91465599918E+02 -0.33835375659E+03 -0.10972752670E+04  0.11544657778E+04  0.77000000000E+02 0.  0.
<mgrwt>
<rscale>  0 0.72147900E+03</rscale>
<asrwt>0</asrwt>
<pdfrwt beam="1">  1        2 0.38578413E+00 0.72147900E+03</pdfrwt>
<pdfrwt beam="2">  1       -2 0.79839227E-02 0.72147900E+03</pdfrwt>
<totfact> 0.35405207E+02</totfact>
</mgrwt>
</event>
<event>
 4    1  0.6207184E-004  0.2250129E+03  0.7818608E-02  0.1130200E+00
         -2   -1    0    0    0  501 -0.00000000000E+00  0.00000000000E+00  0.31893469964E+02  0.31893470066E+02  0.25500000000E-02 0. -1.
          2   -1    0    0  501    0  0.00000000000E+00 -0.00000000000E+00 -0.39687452668E+03  0.39687452669E+03  0.25500000000E-02 0.  1.
    5000001    1    1    2    0    0 -0.36307459990E+02  0.65537522428E+02 -0.11885316986E+03  0.16021383986E+03  0.77000000000E+02 0.  0.
   -5000001    1    1    2    0    0  0.36307459990E+02 -0.65537522428E+02 -0.24612788685E+03  0.26855415689E+03  0.77000000000E+02 0.  0.
<mgrwt>
<rscale>  0 0.22501294E+03</rscale>
<asrwt>0</asrwt>
<pdfrwt beam="1">  1        2 0.61057616E-01 0.22501294E+03</pdfrwt>
<pdfrwt beam="2">  1       -2 0.49066880E-02 0.22501294E+03</pdfrwt>
<totfact> 0.15888598E+04</totfact>
</mgrwt>
</event>
<event>
 4    1  0.6207184E-004  0.2246349E+03  0.7818608E-02  0.1130474E+00
          2   -1    0    0  501    0  0.00000000000E+00  0.00000000000E+00  0.13082158297E+03  0.13082158300E+03  0.25500000000E-02 0.  1.
         -2   -1    0    0    0  501 -0.00000000000E+00 -0.00000000000E+00 -0.96430630185E+02  0.96430630218E+02  0.25500000000E-02 0. -1.
    5000001    1    1    2    0    0  0.18146608908E+02 -0.70989345687E+02  0.53914677796E+02  0.11918296480E+03  0.77000000000E+02 0.  0.
   -5000001    1    1    2    0    0 -0.18146608908E+02  0.70989345687E+02 -0.19523725008E+02  0.10806924842E+03  0.77000000000E+02 0.  0.
<mgrwt>
<rscale>  0 0.22463488E+03</rscale>
<asrwt>0</asrwt>
<pdfrwt beam="1">  1        2 0.20126397E-01 0.22463488E+03</pdfrwt>
<pdfrwt beam="2">  1       -2 0.14835482E-01 0.22463488E+03</pdfrwt>
<totfact> 0.93943885E+03</totfact>
</mgrwt>
</event>
<event>
 4    1  0.6207184E-004  0.2705285E+03  0.7818608E-02  0.1100978E+00
         -2   -1    0    0    0  501 -0.00000000000E+00  0.00000000000E+00  0.89290043826E+02  0.89290043862E+02  0.25500000000E-02 0. -1.
          2   -1    0    0  501    0  0.00000000000E+00 -0.00000000000E+00 -0.20490991868E+03  0.20490991869E+03  0.25500000000E-02 0.  1.
    5000001    1    1    2    0    0 -0.29676637919E+02  0.93362243875E+02 -0.11504807591E+03  0.16959443148E+03  0.77000000000E+02 0.  0.
   -5000001    1    1    2    0    0  0.29676637919E+02 -0.93362243875E+02 -0.57179894054E+00  0.12460553107E+03  0.77000000000E+02 0.  0.
<mgrwt>
<rscale>  0 0.27052849E+03</rscale>
<asrwt>0</asrwt>
<pdfrwt beam="1">  1        2 0.31524603E-01 0.27052849E+03</pdfrwt>
<pdfrwt beam="2">  1       -2 0.13736930E-01 0.27052849E+03</pdfrwt>
<totfact> 0.65182657E+03</totfact>
</mgrwt>
</event>
<event>
 4    1  0.6207184E-004  0.7909773E+03  0.7818608E-02  0.9573170E-01
          2   -1    0    0  501    0  0.00000000000E+00  0.00000000000E+00  0.22264112214E+03  0.22264112216E+03  0.25500000000E-02 0.  1.
         -2   -1    0    0    0  501 -0.00000000000E+00 -0.00000000000E+00 -0.70252634057E+03  0.70252634058E+03  0.25500000000E-02 0. -1.
    5000001    1    1    2    0    0 -0.28959981577E+03  0.21945712847E+03 -0.81056064086E+02  0.38016913348E+03  0.77000000000E+02 0.  0.
   -5000001    1    1    2    0    0  0.28959981577E+03 -0.21945712847E+03 -0.39882915434E+03  0.54499832925E+03  0.77000000000E+02 0.  0.
<mgrwt>
<rscale>  0 0.79097725E+03</rscale>
<asrwt>0</asrwt>
<pdfrwt beam="1">  1        2 0.34252481E-01 0.79097725E+03</pdfrwt>
<pdfrwt beam="2">  1       -2 0.10808097E+00 0.79097725E+03</pdfrwt>
<totfact> 0.10586213E+02</totfact>
</mgrwt>
</event>
<event>
 4    1  0.6207184E-004  0.2964654E+03  0.7818608E-02  0.1087021E+00
          2   -1    0    0  501    0  0.00000000000E+00  0.00000000000E+00  0.49140092286E+03  0.49140092286E+03  0.25500000000E-02 0.  1.
         -2   -1    0    0    0  501 -0.00000000000E+00 -0.00000000000E+00 -0.44714878723E+02  0.44714878796E+02  0.25500000000E-02 0. -1.
    5000001    1    1    2    0    0 -0.67066204497E+02  0.93729348180E+02  0.31836132713E+03  0.34722615269E+03  0.77000000000E+02 0.  0.
   -5000001    1    1    2    0    0  0.67066204497E+02 -0.93729348180E+02  0.12832471700E+03  0.18888964897E+03  0.77000000000E+02 0.  0.
<mgrwt>
<rscale>  0 0.29646540E+03</rscale>
<asrwt>0</asrwt>
<pdfrwt beam="1">  1        2 0.75600143E-01 0.29646540E+03</pdfrwt>
<pdfrwt beam="2">  1       -2 0.68792120E-02 0.29646540E+03</pdfrwt>
<totfact> 0.75856313E+03</totfact>
</mgrwt>
</event>
<event>
 4    1  0.6207184E-004  0.2325703E+03  0.7818608E-02  0.1124844E+00
         -2   -1    0    0    0  501 -0.00000000000E+00  0.00000000000E+00  0.13892267548E+03  0.13892267551E+03  0.25500000000E-02 0. -1.
          2   -1    0    0  501    0  0.00000000000E+00 -0.00000000000E+00 -0.97336398267E+02  0.97336398300E+02  0.25500000000E-02 0.  1.
    5000001    1    1    2    0    0 -0.19780313286E+02 -0.54880651474E+02  0.86550711262E+02  0.12970417233E+03  0.77000000000E+02 0.  0.
   -5000001    1    1    2    0    0  0.19780313286E+02  0.54880651474E+02 -0.44964434045E+02  0.10655490148E+03  0.77000000000E+02 0.  0.
<mgrwt>
<rscale>  0 0.23257027E+03</rscale>
<asrwt>0</asrwt>
<pdfrwt beam="1">  1        2 0.14974830E-01 0.23257027E+03</pdfrwt>
<pdfrwt beam="2">  1       -2 0.21372719E-01 0.23257027E+03</pdfrwt>
<totfact> 0.71811580E+03</totfact>
</mgrwt>
</event>
<event>
 4    1  0.6207184E-004  0.3041547E+03  0.7818608E-02  0.1083182E+00
          2   -1    0    0  501    0  0.00000000000E+00  0.00000000000E+00  0.22199525085E+03  0.22199525087E+03  0.25500000000E-02 0.  1.
         -2   -1    0    0    0  501 -0.00000000000E+00 -0.00000000000E+00 -0.10418023818E+03  0.10418023821E+03  0.25500000000E-02 0. -1.
    5000001    1    1    2    0    0 -0.52733479689E+02  0.10167933396E+03  0.12739862584E+03  0.18782682636E+03  0.77000000000E+02 0.  0.
   -5000001    1    1    2    0    0  0.52733479689E+02 -0.10167933396E+03 -0.95836131615E+01  0.13834866272E+03  0.77000000000E+02 0.  0.
<mgrwt>
<rscale>  0 0.30415469E+03</rscale>
<asrwt>0</asrwt>
<pdfrwt beam="1">  1        2 0.34153115E-01 0.30415469E+03</pdfrwt>
<pdfrwt beam="2">  1       -2 0.16027729E-01 0.30415469E+03</pdfrwt>
<totfact> 0.46467674E+03</totfact>
</mgrwt>
</event>
<event>
 4    1  0.6207184E-004  0.4028242E+03  0.7818608E-02  0.1042806E+00
          2   -1    0    0  501    0  0.00000000000E+00  0.00000000000E+00  0.14802237764E+03  0.14802237766E+03  0.25500000000E-02 0.  1.
         -2   -1    0    0    0  501 -0.00000000000E+00 -0.00000000000E+00 -0.27405876455E+03  0.27405876457E+03  0.25500000000E-02 0. -1.
    5000001    1    1    2    0    0  0.75799830202E+02  0.26713016131E+02 -0.23890787336E+03  0.26356246213E+03  0.77000000000E+02 0.  0.
   -5000001    1    1    2    0    0 -0.75799830202E+02 -0.26713016131E+02  0.11287148645E+03  0.15851868010E+03  0.77000000000E+02 0.  0.
<mgrwt>
<rscale>  0 0.40282418E+03</rscale>
<asrwt>0</asrwt>
<pdfrwt beam="1">  1        2 0.22772673E-01 0.40282418E+03</pdfrwt>
<pdfrwt beam="2">  1       -2 0.42162887E-01 0.40282418E+03</pdfrwt>
<totfact> 0.12961886E+03</totfact>
</mgrwt>
</event>
<event>
 4    1  0.6207184E-004  0.2424196E+03  0.7818608E-02  0.1118191E+00
         -2   -1    0    0    0  501 -0.00000000000E+00  0.00000000000E+00  0.37418323755E+02  0.37418323842E+02  0.25500000000E-02 0. -1.
          2   -1    0    0  501    0  0.00000000000E+00 -0.00000000000E+00 -0.39263695927E+03  0.39263695928E+03  0.25500000000E-02 0.  1.
    5000001    1    1    2    0    0 -0.70911933795E+02  0.45871116424E+02 -0.24923537008E+03  0.27418959021E+03  0.77000000000E+02 0.  0.
   -5000001    1    1    2    0    0  0.70911933795E+02 -0.45871116424E+02 -0.10598326543E+03  0.15586569292E+03  0.77000000000E+02 0.  0.
<mgrwt>
<rscale>  0 0.24241961E+03</rscale>
<asrwt>0</asrwt>
<pdfrwt beam="1">  1        2 0.60405683E-01 0.24241961E+03</pdfrwt>
<pdfrwt beam="2">  1       -2 0.57566655E-02 0.24241961E+03</pdfrwt>
<totfact> 0.12660516E+04</totfact>
</mgrwt>
</event>
<event>
 4    1  0.6207184E-004  0.2224400E+03  0.7818608E-02  0.1132077E+00
         -2   -1    0    0    0  501 -0.00000000000E+00  0.00000000000E+00  0.19776714375E+03  0.19776714376E+03  0.25500000000E-02 0. -1.
          2   -1    0    0  501    0  0.00000000000E+00 -0.00000000000E+00 -0.62547763756E+02  0.62547763808E+02  0.25500000000E-02 0.  1.
    5000001    1    1    2    0    0  0.74929078192E+02 -0.23818840825E+02  0.86450261657E+02  0.13994410197E+03  0.77000000000E+02 0.  0.
   -5000001    1    1    2    0    0 -0.74929078192E+02  0.23818840825E+02  0.48769118335E+02  0.12037080560E+03  0.77000000000E+02 0.  0.
<mgrwt>
<rscale>  0 0.22244004E+03</rscale>
<asrwt>0</asrwt>
<pdfrwt beam="1">  1        2 0.96227328E-02 0.22244004E+03</pdfrwt>
<pdfrwt beam="2">  1       -2 0.30425715E-01 0.22244004E+03</pdfrwt>
<totfact> 0.65659312E+03</totfact>
</mgrwt>
</event>
<event>
 4    1  0.6207184E-004  0.2135598E+03  0.7818608E-02  0.1138778E+00
          2   -1    0    0  501    0  0.00000000000E+00  0.00000000000E+00  0.23077748701E+04  0.23077748701E+04  0.25500000000E-02 0.  1.
         -2   -1    0    0    0  501 -0.00000000000E+00 -0.00000000000E+00 -0.49406666526E+01  0.49406673106E+01  0.25500000000E-02 0. -1.
    5000001    1    1    2    0    0  0.55410456699E+02  0.51301158774E+01  0.16793202926E+04  0.16820054346E+04  0.77000000000E+02 0.  0.
   -5000001    1    1    2    0    0 -0.55410456699E+02 -0.51301158774E+01  0.62351391082E+03  0.63071010281E+03  0.77000000000E+02 0.  0.
<mgrwt>
<rscale>  0 0.21355980E+03</rscale>
<asrwt>0</asrwt>
<pdfrwt beam="1">  1        2 0.35504152E+00 0.21355980E+03</pdfrwt>
<pdfrwt beam="2">  1       -2 0.76010426E-03 0.21355980E+03</pdfrwt>
<totfact> 0.16087739E+04</totfact>
</mgrwt>
</event>
<event>
 4    1  0.6207184E-004  0.2102466E+03  0.7818608E-02  0.1141371E+00
         -2   -1    0    0    0  501 -0.00000000000E+00  0.00000000000E+00  0.26099613673E+02  0.26099613798E+02  0.25500000000E-02 0. -1.
          2   -1    0    0  501    0  0.00000000000E+00 -0.00000000000E+00 -0.42341280146E+03  0.42341280147E+03  0.25500000000E-02 0.  1.
    5000001    1    1    2    0    0 -0.32191303429E+02 -0.52419137998E+02 -0.12045443678E+03  0.15563520612E+03  0.77000000000E+02 0.  0.
   -5000001    1    1    2    0    0  0.32191303429E+02  0.52419137998E+02 -0.27685875101E+03  0.29387720914E+03  0.77000000000E+02 0.  0.
<mgrwt>
<rscale>  0 0.21024662E+03</rscale>
<asrwt>0</asrwt>
<pdfrwt beam="1">  1        2 0.65140426E-01 0.21024662E+03</pdfrwt>
<pdfrwt beam="2">  1       -2 0.40153255E-02 0.21024662E+03</pdfrwt>
<totfact> 0.19943119E+04</totfact>
</mgrwt>
</event>
<event>
 4    1  0.6207184E-004  0.3586439E+03  0.7818608E-02  0.1059122E+00
          2   -1    0    0  501    0  0.00000000000E+00  0.00000000000E+00  0.42472778989E+03  0.42472778990E+03  0.25500000000E-02 0.  1.
         -2   -1    0    0    0  501 -0.00000000000E+00 -0.00000000000E+00 -0.75710505781E+02  0.75710505824E+02  0.25500000000E-02 0. -1.
    5000001    1    1    2    0    0  0.12455188022E+03  0.54336080172E+02  0.29744141043E+03  0.33595531416E+03  0.77000000000E+02 0.  0.
   -5000001    1    1    2    0    0 -0.12455188022E+03 -0.54336080172E+02  0.51575873675E+02  0.16448298155E+03  0.77000000000E+02 0.  0.
<mgrwt>
<rscale>  0 0.35864387E+03</rscale>
<asrwt>0</asrwt>
<pdfrwt beam="1">  1        2 0.65342737E-01 0.35864387E+03</pdfrwt>
<pdfrwt beam="2">  1       -2 0.11647770E-01 0.35864387E+03</pdfrwt>
<totfact> 0.38933142E+03</totfact>
</mgrwt>
</event>
<event>
 4    1  0.6207184E-004  0.2221478E+03  0.7818608E-02  0.1132292E+00
          2   -1    0    0  501    0  0.00000000000E+00  0.00000000000E+00  0.32468609702E+03  0.32468609703E+03  0.25500000000E-02 0.  1.
         -2   -1    0    0    0  501 -0.00000000000E+00 -0.00000000000E+00 -0.37997966446E+02  0.37997966532E+02  0.25500000000E-02 0. -1.
    5000001    1    1    2    0    0 -0.72782274490E+02 -0.69338464329E+00  0.88934005423E+02  0.13833292299E+03  0.77000000000E+02 0.  0.
   -5000001    1    1    2    0    0  0.72782274490E+02  0.69338464329E+00  0.19775412515E+03  0.22435114057E+03  0.77000000000E+02 0.  0.
<mgrwt>
<rscale>  0 0.22214780E+03</rscale>
<asrwt>0</asrwt>
<pdfrwt beam="1">  1        2 0.49951708E-01 0.22214780E+03</pdfrwt>
<pdfrwt beam="2">  1       -2 0.58458409E-02 0.22214780E+03</pdfrwt>
<totfact> 0.15099551E+04</totfact>
</mgrwt>
</event>
<event>
 4    1  0.6207184E-004  0.5111024E+03  0.7818608E-02  0.1010921E+00
          2   -1    0    0  501    0  0.00000000000E+00  0.00000000000E+00  0.71855214610E+03  0.71855214611E+03  0.25500000000E-02 0.  1.
         -2   -1    0    0    0  501 -0.00000000000E+00 -0.00000000000E+00 -0.90886121870E+02  0.90886121906E+02  0.25500000000E-02 0. -1.
    5000001    1    1    2    0    0  0.68371840707E+02  0.18978144702E+03  0.97346607676E+02  0.23684819666E+03  0.77000000000E+02 0.  0.
   -5000001    1    1    2    0    0 -0.68371840707E+02 -0.18978144702E+03  0.53031941655E+03  0.57259007135E+03  0.77000000000E+02 0.  0.
<mgrwt>
<rscale>  0 0.51110241E+03</rscale>
<asrwt>0</asrwt>
<pdfrwt beam="1">  1        2 0.11054649E+00 0.51110241E+03</pdfrwt>
<pdfrwt beam="2">  1       -2 0.13982479E-01 0.51110241E+03</pdfrwt>
<totfact> 0.15658367E+03</totfact>
</mgrwt>
</event>
<event>
 4    1  0.6207184E-004  0.1729355E+03  0.7818608E-02  0.1174821E+00
          2   -1    0    0  501    0  0.00000000000E+00  0.00000000000E+00  0.25628801717E+03  0.25628801719E+03  0.25500000000E-02 0.  1.
         -2   -1    0    0    0  501 -0.00000000000E+00 -0.00000000000E+00 -0.29172925245E+02  0.29172925357E+02  0.25500000000E-02 0. -1.
    5000001    1    1    2    0    0  0.27118944485E+02  0.24339738246E+02  0.13803055915E+03  0.16220140340E+03  0.77000000000E+02 0.  0.
   -5000001    1    1    2    0    0 -0.27118944485E+02 -0.24339738246E+02  0.89084532781E+02  0.12325953914E+03  0.77000000000E+02 0.  0.
<mgrwt>
<rscale>  0 0.17293549E+03</rscale>
<asrwt>0</asrwt>
<pdfrwt beam="1">  1        2 0.39428925E-01 0.17293549E+03</pdfrwt>
<pdfrwt beam="2">  1       -2 0.44881425E-02 0.17293549E+03</pdfrwt>
<totfact> 0.28461568E+04</totfact>
</mgrwt>
</event>
<event>
 4    1  0.6207184E-004  0.3448358E+03  0.7818608E-02  0.1064755E+00
          2   -1    0    0  501    0  0.00000000000E+00  0.00000000000E+00  0.14165562534E+03  0.14165562536E+03  0.25500000000E-02 0.  1.
         -2   -1    0    0    0  501 -0.00000000000E+00 -0.00000000000E+00 -0.20986055962E+03  0.20986055964E+03  0.25500000000E-02 0. -1.
    5000001    1    1    2    0    0  0.89668818588E+02  0.11814859490E+03  0.91379405257E+01  0.16736812558E+03  0.77000000000E+02 0.  0.
   -5000001    1    1    2    0    0 -0.89668818588E+02 -0.11814859490E+03 -0.77342874816E+02  0.18414805942E+03  0.77000000000E+02 0.  0.
<mgrwt>
<rscale>  0 0.34483578E+03</rscale>
<asrwt>0</asrwt>
<pdfrwt beam="1">  1        2 0.21793173E-01 0.34483578E+03</pdfrwt>
<pdfrwt beam="2">  1       -2 0.32286240E-01 0.34483578E+03</pdfrwt>
<totfact> 0.22557729E+03</totfact>
</mgrwt>
</event>
<event>
 4    1  0.6207184E-004  0.2152734E+03  0.7818608E-02  0.1137457E+00
         -2   -1    0    0    0  501 -0.00000000000E+00  0.00000000000E+00  0.11866831654E+02  0.11866831928E+02  0.25500000000E-02 0. -1.
          2   -1    0    0  501    0  0.00000000000E+00 -0.00000000000E+00 -0.97630569455E+03  0.97630569455E+03  0.25500000000E-02 0.  1.
    5000001    1    1    2    0    0 -0.63249231731E+02 -0.26821862146E+02 -0.62271440361E+03  0.63120686471E+03  0.77000000000E+02 0.  0.
   -5000001    1    1    2    0    0  0.63249231731E+02  0.26821862146E+02 -0.34172445929E+03  0.35696566177E+03  0.77000000000E+02 0.  0.
<mgrwt>
<rscale>  0 0.21527337E+03</rscale>
<asrwt>0</asrwt>
<pdfrwt beam="1">  1        2 0.15020081E+00 0.21527337E+03</pdfrwt>
<pdfrwt beam="2">  1       -2 0.18256672E-02 0.21527337E+03</pdfrwt>
<totfact> 0.23602362E+04</totfact>
</mgrwt>
</event>
<event>
 4    1  0.6207184E-004  0.3214863E+03  0.7818608E-02  0.1074967E+00
         -2   -1    0    0    0  501 -0.00000000000E+00  0.00000000000E+00  0.50314117287E+02  0.50314117352E+02  0.25500000000E-02 0. -1.
          2   -1    0    0  501    0  0.00000000000E+00 -0.00000000000E+00 -0.51354086413E+03  0.51354086414E+03  0.25500000000E-02 0.  1.
    5000001    1    1    2    0    0  0.87075838805E+02  0.26976337502E+02 -0.42050962168E+03  0.43711241851E+03  0.77000000000E+02 0.  0.
   -5000001    1    1    2    0    0 -0.87075838805E+02 -0.26976337502E+02 -0.42717125163E+02  0.12674256298E+03  0.77000000000E+02 0.  0.
<mgrwt>
<rscale>  0 0.32148627E+03</rscale>
<asrwt>0</asrwt>
<pdfrwt beam="1">  1        2 0.79006283E-01 0.32148627E+03</pdfrwt>
<pdfrwt beam="2">  1       -2 0.77406338E-02 0.32148627E+03</pdfrwt>
<totfact> 0.60212448E+03</totfact>
</mgrwt>
</event>
<event>
 4    1  0.6207184E-004  0.2163522E+03  0.7818608E-02  0.1136632E+00
          2   -1    0    0  501    0  0.00000000000E+00  0.00000000000E+00  0.73827674915E+03  0.73827674916E+03  0.25500000000E-02 0.  1.
         -2   -1    0    0    0  501 -0.00000000000E+00 -0.00000000000E+00 -0.15850523411E+02  0.15850523616E+02  0.25500000000E-02 0. -1.
    5000001    1    1    2    0    0 -0.63344860119E+02 -0.27622536663E+02  0.25112534146E+03  0.27160359526E+03  0.77000000000E+02 0.  0.
   -5000001    1    1    2    0    0  0.63344860119E+02  0.27622536663E+02  0.47130088429E+03  0.48252367752E+03  0.77000000000E+02 0.  0.
<mgrwt>
<rscale>  0 0.21635224E+03</rscale>
<asrwt>0</asrwt>
<pdfrwt beam="1">  1        2 0.11358105E+00 0.21635224E+03</pdfrwt>
<pdfrwt beam="2">  1       -2 0.24385417E-02 0.21635224E+03</pdfrwt>
<totfact> 0.22194390E+04</totfact>
</mgrwt>
</event>
<event>
 4    1  0.6207184E-004  0.2125558E+03  0.7818608E-02  0.1139558E+00
          2   -1    0    0  501    0  0.00000000000E+00  0.00000000000E+00  0.17970023235E+02  0.17970023415E+02  0.25500000000E-02 0.  1.
         -2   -1    0    0    0  501 -0.00000000000E+00 -0.00000000000E+00 -0.62854614528E+03  0.62854614529E+03  0.25500000000E-02 0. -1.
    5000001    1    1    2    0    0 -0.65324812469E+02 -0.91683936305E+01 -0.20840372614E+03  0.23175958154E+03  0.77000000000E+02 0.  0.
   -5000001    1    1    2    0    0  0.65324812469E+02  0.91683936305E+01 -0.40217239591E+03  0.41475658717E+03  0.77000000000E+02 0.  0.
<mgrwt>
<rscale>  0 0.21255577E+03</rscale>
<asrwt>0</asrwt>
<pdfrwt beam="1">  1        2 0.27646195E-02 0.21255577E+03</pdfrwt>
<pdfrwt beam="2">  1       -2 0.96699390E-01 0.21255577E+03</pdfrwt>
<totfact> 0.31959579E+03</totfact>
</mgrwt>
</event>
<event>
 4    1  0.6207184E-004  0.1729908E+03  0.7818608E-02  0.1174764E+00
          2   -1    0    0  501    0  0.00000000000E+00  0.00000000000E+00  0.17015679726E+04  0.17015679726E+04  0.25500000000E-02 0.  1.
         -2   -1    0    0    0  501 -0.00000000000E+00 -0.00000000000E+00 -0.43968000474E+01  0.43968007869E+01  0.25500000000E-02 0. -1.
    5000001    1    1    2    0    0  0.36981209695E+02 -0.11128347967E+02  0.92561009802E+03  0.92960986632E+03  0.77000000000E+02 0.  0.
   -5000001    1    1    2    0    0 -0.36981209695E+02  0.11128347967E+02  0.77156107452E+03  0.77635490706E+03  0.77000000000E+02 0.  0.
<mgrwt>
<rscale>  0 0.17299081E+03</rscale>
<asrwt>0</asrwt>
<pdfrwt beam="1">  1        2 0.26177991E+00 0.17299081E+03</pdfrwt>
<pdfrwt beam="2">  1       -2 0.67643025E-03 0.17299081E+03</pdfrwt>
<totfact> 0.38992108E+04</totfact>
</mgrwt>
</event>
<event>
 4    1  0.6207184E-004  0.3546460E+03  0.7818608E-02  0.1060724E+00
          2   -1    0    0  501    0  0.00000000000E+00  0.00000000000E+00  0.14952604498E+04  0.14952604498E+04  0.25500000000E-02 0.  1.
         -2   -1    0    0    0  501 -0.00000000000E+00 -0.00000000000E+00 -0.21028745565E+02  0.21028745719E+02  0.25500000000E-02 0. -1.
    5000001    1    1    2    0    0 -0.11532544994E+03  0.10995391869E+03  0.68938548188E+03  0.71173813040E+03  0.77000000000E+02 0.  0.
   -5000001    1    1    2    0    0  0.11532544994E+03 -0.10995391869E+03  0.78484622234E+03  0.80455106510E+03  0.77000000000E+02 0.  0.
<mgrwt>
<rscale>  0 0.35464603E+03</rscale>
<asrwt>0</asrwt>
<pdfrwt beam="1">  1        2 0.23004004E+00 0.35464603E+03</pdfrwt>
<pdfrwt beam="2">  1       -2 0.32351921E-02 0.35464603E+03</pdfrwt>
<totfact> 0.52055188E+03</totfact>
</mgrwt>
</event>
<event>
 4    1  0.6207184E-004  0.1605407E+03  0.7818608E-02  0.1188088E+00
         -2   -1    0    0    0  501 -0.00000000000E+00  0.00000000000E+00  0.28417555359E+02  0.28417555473E+02  0.25500000000E-02 0. -1.
          2   -1    0    0  501    0  0.00000000000E+00 -0.00000000000E+00 -0.22673776686E+03  0.22673776687E+03  0.25500000000E-02 0.  1.
    5000001    1    1    2    0    0 -0.18661734664E+02  0.10811965746E+02 -0.88014912128E+02  0.11891502723E+03  0.77000000000E+02 0.  0.
   -5000001    1    1    2    0    0  0.18661734664E+02 -0.10811965746E+02 -0.11030529937E+03  0.13624029511E+03  0.77000000000E+02 0.  0.
<mgrwt>
<rscale>  0 0.16054075E+03</rscale>
<asrwt>0</asrwt>
<pdfrwt beam="1">  1        2 0.34882732E-01 0.16054075E+03</pdfrwt>
<pdfrwt beam="2">  1       -2 0.43719317E-02 0.16054075E+03</pdfrwt>
<totfact> 0.33526642E+04</totfact>
</mgrwt>
</event>
<event>
 4    1  0.6207184E-004  0.2103577E+03  0.7818608E-02  0.1141283E+00
          2   -1    0    0  501    0  0.00000000000E+00  0.00000000000E+00  0.55006411417E+03  0.55006411418E+03  0.25500000000E-02 0.  1.
         -2   -1    0    0    0  501 -0.00000000000E+00 -0.00000000000E+00 -0.20111456651E+02  0.20111456813E+02  0.25500000000E-02 0. -1.
    5000001    1    1    2    0    0  0.28731424429E+02  0.59526382892E+02  0.19002189424E+03  0.21542099550E+03  0.77000000000E+02 0.  0.
   -5000001    1    1    2    0    0 -0.28731424429E+02 -0.59526382892E+02  0.33993076328E+03  0.35475457549E+03  0.77000000000E+02 0.  0.
<mgrwt>
<rscale>  0 0.21035770E+03</rscale>
<asrwt>0</asrwt>
<pdfrwt beam="1">  1        2 0.84625255E-01 0.21035770E+03</pdfrwt>
<pdfrwt beam="2">  1       -2 0.30940700E-02 0.21035770E+03</pdfrwt>
<totfact> 0.22016019E+04</totfact>
</mgrwt>
</event>
<event>
 4    1  0.6207184E-004  0.5259895E+03  0.7818608E-02  0.1007209E+00
          2   -1    0    0  501    0  0.00000000000E+00  0.00000000000E+00  0.77702696580E+03  0.77702696581E+03  0.25500000000E-02 0.  1.
         -2   -1    0    0    0  501 -0.00000000000E+00 -0.00000000000E+00 -0.89013936948E+02  0.89013936985E+02  0.25500000000E-02 0. -1.
    5000001    1    1    2    0    0 -0.47608455566E+02  0.11470012574E+03  0.70403873910E+03  0.71904257873E+03  0.77000000000E+02 0.  0.
   -5000001    1    1    2    0    0  0.47608455566E+02 -0.11470012574E+03 -0.16025710243E+02  0.14699832405E+03  0.77000000000E+02 0.  0.
<mgrwt>
<rscale>  0 0.52598947E+03</rscale>
<asrwt>0</asrwt>
<pdfrwt beam="1">  1        2 0.11954261E+00 0.52598947E+03</pdfrwt>
<pdfrwt beam="2">  1       -2 0.13694452E-01 0.52598947E+03</pdfrwt>
<totfact> 0.14670476E+03</totfact>
</mgrwt>
</event>
<event>
 4    1  0.6207184E-004  0.2619582E+03  0.7818608E-02  0.1105972E+00
         -2   -1    0    0    0  501 -0.00000000000E+00  0.00000000000E+00  0.90730290611E+01  0.90730294194E+01  0.25500000000E-02 0. -1.
          2   -1    0    0  501    0  0.00000000000E+00 -0.00000000000E+00 -0.18908261438E+04  0.18908261438E+04  0.25500000000E-02 0.  1.
    5000001    1    1    2    0    0  0.76325219049E+02 -0.70416393900E+02 -0.10934439654E+04  0.11010598135E+04  0.77000000000E+02 0.  0.
   -5000001    1    1    2    0    0 -0.76325219049E+02  0.70416393900E+02 -0.78830914932E+03  0.79883935963E+03  0.77000000000E+02 0.  0.
<mgrwt>
<rscale>  0 0.26195817E+03</rscale>
<asrwt>0</asrwt>
<pdfrwt beam="1">  1        2 0.29089602E+00 0.26195817E+03</pdfrwt>
<pdfrwt beam="2">  1       -2 0.13958522E-02 0.26195817E+03</pdfrwt>
<totfact> 0.11104299E+04</totfact>
</mgrwt>
</event>
<event>
 4    1  0.6207184E-004  0.2286213E+03  0.7818608E-02  0.1127614E+00
          2   -1    0    0  501    0  0.00000000000E+00  0.00000000000E+00  0.30879625663E+03  0.30879625664E+03  0.25500000000E-02 0.  1.
         -2   -1    0    0    0  501 -0.00000000000E+00 -0.00000000000E+00 -0.42315686758E+02  0.42315686834E+02  0.25500000000E-02 0. -1.
    5000001    1    1    2    0    0 -0.21982780960E+02 -0.38490195586E+02  0.22779526267E+02  0.91720470081E+02  0.77000000000E+02 0.  0.
   -5000001    1    1    2    0    0  0.21982780960E+02  0.38490195586E+02  0.24370104361E+03  0.25939147340E+03  0.77000000000E+02 0.  0.
<mgrwt>
<rscale>  0 0.22862131E+03</rscale>
<asrwt>0</asrwt>
<pdfrwt beam="1">  1        2 0.47507116E-01 0.22862131E+03</pdfrwt>
<pdfrwt beam="2">  1       -2 0.65101058E-02 0.22862131E+03</pdfrwt>
<totfact> 0.13535344E+04</totfact>
</mgrwt>
</event>
<event>
 4    1  0.6207184E-004  0.3974414E+03  0.7818608E-02  0.1044669E+00
         -2   -1    0    0    0  501 -0.00000000000E+00  0.00000000000E+00  0.11297518960E+03  0.11297518963E+03  0.25500000000E-02 0. -1.
          2   -1    0    0  501    0  0.00000000000E+00 -0.00000000000E+00 -0.34954506888E+03  0.34954506889E+03  0.25500000000E-02 0.  1.
    5000001    1    1    2    0    0  0.85122480901E+02 -0.15988250182E+03 -0.86357820314E+02  0.21493004506E+03  0.77000000000E+02 0.  0.
   -5000001    1    1    2    0    0 -0.85122480901E+02  0.15988250182E+03 -0.15021205897E+03  0.24759021346E+03  0.77000000000E+02 0.  0.
<mgrwt>
<rscale>  0 0.39744142E+03</rscale>
<asrwt>0</asrwt>
<pdfrwt beam="1">  1        2 0.53776164E-01 0.39744142E+03</pdfrwt>
<pdfrwt beam="2">  1       -2 0.17380799E-01 0.39744142E+03</pdfrwt>
<totfact> 0.24885855E+03</totfact>
</mgrwt>
</event>
<event>
 4    1  0.6207184E-004  0.3912953E+03  0.7818608E-02  0.1046836E+00
          2   -1    0    0  501    0  0.00000000000E+00  0.00000000000E+00  0.32630815578E+03  0.32630815579E+03  0.25500000000E-02 0.  1.
         -2   -1    0    0    0  501 -0.00000000000E+00 -0.00000000000E+00 -0.11730627634E+03  0.11730627637E+03  0.25500000000E-02 0. -1.
    5000001    1    1    2    0    0  0.14336781821E+03 -0.68954075249E+02  0.19962434257E+03  0.26662309341E+03  0.77000000000E+02 0.  0.
   -5000001    1    1    2    0    0 -0.14336781821E+03  0.68954075249E+02  0.93775368660E+01  0.17699133874E+03  0.77000000000E+02 0.  0.
<mgrwt>
<rscale>  0 0.39129526E+03</rscale>
<asrwt>0</asrwt>
<pdfrwt beam="1">  1        2 0.50201253E-01 0.39129526E+03</pdfrwt>
<pdfrwt beam="2">  1       -2 0.18047120E-01 0.39129526E+03</pdfrwt>
<totfact> 0.25161093E+03</totfact>
</mgrwt>
</event>
<event>
 4    1  0.6207184E-004  0.2753071E+03  0.7818608E-02  0.1098280E+00
          2   -1    0    0  501    0  0.00000000000E+00  0.00000000000E+00  0.15126057987E+04  0.15126057987E+04  0.25500000000E-02 0.  1.
         -2   -1    0    0    0  501 -0.00000000000E+00 -0.00000000000E+00 -0.12527057465E+02  0.12527057725E+02  0.25500000000E-02 0. -1.
    5000001    1    1    2    0    0  0.11157421658E+03 -0.23296766860E+02  0.72074942639E+03  0.73375764445E+03  0.77000000000E+02 0.  0.
   -5000001    1    1    2    0    0 -0.11157421658E+03  0.23296766860E+02  0.77932931485E+03  0.79137521198E+03  0.77000000000E+02 0.  0.
<mgrwt>
<rscale>  0 0.27530710E+03</rscale>
<asrwt>0</asrwt>
<pdfrwt beam="1">  1        2 0.23270859E+00 0.27530710E+03</pdfrwt>
<pdfrwt beam="2">  1       -2 0.19272396E-02 0.27530710E+03</pdfrwt>
<totfact> 0.10967826E+04</totfact>
</mgrwt>
</event>
<event>
 4    1  0.6207184E-004  0.2404127E+03  0.7818608E-02  0.1119518E+00
          2   -1    0    0  501    0  0.00000000000E+00  0.00000000000E+00  0.15530143238E+03  0.15530143240E+03  0.25500000000E-02 0.  1.
         -2   -1    0    0    0  501 -0.00000000000E+00 -0.00000000000E+00 -0.93042093046E+02  0.93042093081E+02  0.25500000000E-02 0. -1.
    5000001    1    1    2    0    0 -0.80265395694E+02 -0.25519441026E+02  0.70148668821E+02  0.13395376573E+03  0.77000000000E+02 0.  0.
   -5000001    1    1    2    0    0  0.80265395694E+02  0.25519441026E+02 -0.78893294873E+01  0.11438975975E+03  0.77000000000E+02 0.  0.
<mgrwt>
<rscale>  0 0.24041273E+03</rscale>
<asrwt>0</asrwt>
<pdfrwt beam="1">  1        2 0.23892528E-01 0.24041273E+03</pdfrwt>
<pdfrwt beam="2">  1       -2 0.14314168E-01 0.24041273E+03</pdfrwt>
<totfact> 0.82366480E+03</totfact>
</mgrwt>
</event>
<event>
 4    1  0.6207184E-004  0.2149479E+03  0.7818608E-02  0.1137707E+00
         -2   -1    0    0    0  501 -0.00000000000E+00  0.00000000000E+00  0.13129936214E+02  0.13129936461E+02  0.25500000000E-02 0. -1.
          2   -1    0    0  501    0  0.00000000000E+00 -0.00000000000E+00 -0.87971882340E+03  0.87971882340E+03  0.25500000000E-02 0.  1.
    5000001    1    1    2    0    0 -0.32421750748E+02  0.62462593075E+02 -0.32586398674E+03  0.34215359608E+03  0.77000000000E+02 0.  0.
   -5000001    1    1    2    0    0  0.32421750748E+02 -0.62462593075E+02 -0.54072490044E+03  0.55069516378E+03  0.77000000000E+02 0.  0.
<mgrwt>
<rscale>  0 0.21494792E+03</rscale>
<asrwt>0</asrwt>
<pdfrwt beam="1">  1        2 0.13534131E+00 0.21494792E+03</pdfrwt>
<pdfrwt beam="2">  1       -2 0.20199909E-02 0.21494792E+03</pdfrwt>
<totfact> 0.23421381E+04</totfact>
</mgrwt>
</event>
<event>
 4    1  0.6207184E-004  0.2352042E+03  0.7818608E-02  0.1123030E+00
         -2   -1    0    0    0  501 -0.00000000000E+00  0.00000000000E+00  0.47527200499E+01  0.47527207340E+01  0.25500000000E-02 0. -1.
          2   -1    0    0  501    0  0.00000000000E+00 -0.00000000000E+00 -0.29099657537E+04  0.29099657537E+04  0.25500000000E-02 0.  1.
    5000001    1    1    2    0    0 -0.30533422564E+02 -0.79617405134E+02 -0.11415545023E+04  0.11473216213E+04  0.77000000000E+02 0.  0.
   -5000001    1    1    2    0    0  0.30533422564E+02  0.79617405134E+02 -0.17636585314E+04  0.17673968531E+04  0.77000000000E+02 0.  0.
<mgrwt>
<rscale>  0 0.23520420E+03</rscale>
<asrwt>0</asrwt>
<pdfrwt beam="1">  1        2 0.44768562E+00 0.23520420E+03</pdfrwt>
<pdfrwt beam="2">  1       -2 0.73119008E-03 0.23520420E+03</pdfrwt>
<totfact> 0.79059348E+03</totfact>
</mgrwt>
</event>
<event>
 4    1  0.6207184E-004  0.1622021E+03  0.7818608E-02  0.1186233E+00
         -2   -1    0    0    0  501 -0.00000000000E+00  0.00000000000E+00  0.34334937786E+02  0.34334937881E+02  0.25500000000E-02 0. -1.
          2   -1    0    0  501    0  0.00000000000E+00 -0.00000000000E+00 -0.19156513926E+03  0.19156513927E+03  0.25500000000E-02 0.  1.
    5000001    1    1    2    0    0  0.28901852326E+01 -0.16517917143E+02 -0.51928028251E+02  0.94375393379E+02  0.77000000000E+02 0.  0.
   -5000001    1    1    2    0    0 -0.28901852326E+01  0.16517917143E+02 -0.10530217322E+03  0.13152468377E+03  0.77000000000E+02 0.  0.
<mgrwt>
<rscale>  0 0.16220206E+03</rscale>
<asrwt>0</asrwt>
<pdfrwt beam="1">  1        2 0.29471559E-01 0.16220206E+03</pdfrwt>
<pdfrwt beam="2">  1       -2 0.52822983E-02 0.16220206E+03</pdfrwt>
<totfact> 0.30303446E+04</totfact>
</mgrwt>
</event>
<event>
 4    1  0.6207184E-004  0.1611972E+03  0.7818608E-02  0.1187352E+00
         -2   -1    0    0    0  501 -0.00000000000E+00  0.00000000000E+00  0.28865779186E+02  0.28865779299E+02  0.25500000000E-02 0. -1.
          2   -1    0    0  501    0  0.00000000000E+00 -0.00000000000E+00 -0.22504607416E+03  0.22504607418E+03  0.25500000000E-02 0.  1.
    5000001    1    1    2    0    0  0.15115467436E+02  0.16070858566E+02 -0.83967997190E+02  0.11604470864E+03  0.77000000000E+02 0.  0.
   -5000001    1    1    2    0    0 -0.15115467436E+02 -0.16070858566E+02 -0.11221229778E+03  0.13786714484E+03  0.77000000000E+02 0.  0.
<mgrwt>
<rscale>  0 0.16119715E+03</rscale>
<asrwt>0</asrwt>
<pdfrwt beam="1">  1        2 0.34622472E-01 0.16119715E+03</pdfrwt>
<pdfrwt beam="2">  1       -2 0.44408893E-02 0.16119715E+03</pdfrwt>
<totfact> 0.33028071E+04</totfact>
</mgrwt>
</event>
<event>
 4    1  0.6207184E-004  0.8496002E+03  0.7818608E-02  0.9490874E-01
          2   -1    0    0  501    0  0.00000000000E+00  0.00000000000E+00  0.65371146694E+03  0.65371146694E+03  0.25500000000E-02 0.  1.
         -2   -1    0    0    0  501 -0.00000000000E+00 -0.00000000000E+00 -0.27604703713E+03  0.27604703714E+03  0.25500000000E-02 0. -1.
    5000001    1    1    2    0    0 -0.30424813902E+03  0.92806927793E+02  0.48520884441E+03  0.58526633137E+03  0.77000000000E+02 0.  0.
   -5000001    1    1    2    0    0  0.30424813902E+03 -0.92806927793E+02 -0.10754441460E+03  0.34449217271E+03  0.77000000000E+02 0.  0.
<mgrwt>
<rscale>  0 0.84960017E+03</rscale>
<asrwt>0</asrwt>
<pdfrwt beam="1">  1        2 0.10057099E+00 0.84960017E+03</pdfrwt>
<pdfrwt beam="2">  1       -2 0.42468776E-01 0.84960017E+03</pdfrwt>
<totfact> 0.23572824E+02</totfact>
</mgrwt>
</event>
<event>
 4    1  0.6207184E-004  0.2405683E+03  0.7818608E-02  0.1119415E+00
         -2   -1    0    0    0  501 -0.00000000000E+00  0.00000000000E+00  0.22344170494E+02  0.22344170640E+02  0.25500000000E-02 0. -1.
          2   -1    0    0  501    0  0.00000000000E+00 -0.00000000000E+00 -0.64751883222E+03  0.64751883222E+03  0.25500000000E-02 0.  1.
    5000001    1    1    2    0    0 -0.56784193716E+02  0.61063793120E+02 -0.20169418367E+03  0.23143633079E+03  0.77000000000E+02 0.  0.
   -5000001    1    1    2    0    0  0.56784193716E+02 -0.61063793120E+02 -0.42348047806E+03  0.43842667207E+03  0.77000000000E+02 0.  0.
<mgrwt>
<rscale>  0 0.24056825E+03</rscale>
<asrwt>0</asrwt>
<pdfrwt beam="1">  1        2 0.99618268E-01 0.24056825E+03</pdfrwt>
<pdfrwt beam="2">  1       -2 0.34375652E-02 0.24056825E+03</pdfrwt>
<totfact> 0.15718193E+04</totfact>
</mgrwt>
</event>
<event>
 4    1  0.6207184E-004  0.6043860E+03  0.7818608E-02  0.9896348E-01
          2   -1    0    0  501    0  0.00000000000E+00  0.00000000000E+00  0.12393251242E+04  0.12393251242E+04  0.25500000000E-02 0.  1.
         -2   -1    0    0    0  501 -0.00000000000E+00 -0.00000000000E+00 -0.73685752789E+02  0.73685752833E+02  0.25500000000E-02 0. -1.
    5000001    1    1    2    0    0  0.40716340043E+02  0.20231327106E+03  0.13335903497E+03  0.25749196531E+03  0.77000000000E+02 0.  0.
   -5000001    1    1    2    0    0 -0.40716340043E+02 -0.20231327106E+03  0.10322803364E+04  0.10555189117E+04  0.77000000000E+02 0.  0.
<mgrwt>
<rscale>  0 0.60438599E+03</rscale>
<asrwt>0</asrwt>
<pdfrwt beam="1">  1        2 0.19066539E+00 0.60438599E+03</pdfrwt>
<pdfrwt beam="2">  1       -2 0.11336271E-01 0.60438599E+03</pdfrwt>
<totfact> 0.10158120E+03</totfact>
</mgrwt>
</event>
<event>
 4    1  0.6207184E-004  0.1688177E+03  0.7818608E-02  0.1179086E+00
          2   -1    0    0  501    0  0.00000000000E+00  0.00000000000E+00  0.14118518841E+04  0.14118518841E+04  0.25500000000E-02 0.  1.
         -2   -1    0    0    0  501 -0.00000000000E+00 -0.00000000000E+00 -0.50464625328E+01  0.50464631770E+01  0.25500000000E-02 0. -1.
    5000001    1    1    2    0    0  0.16400450148E+02 -0.28117882216E+02  0.80137823000E+03  0.80572678843E+03  0.77000000000E+02 0.  0.
   -5000001    1    1    2    0    0 -0.16400450148E+02  0.28117882216E+02  0.60542719158E+03  0.61117155887E+03  0.77000000000E+02 0.  0.
<mgrwt>
<rscale>  0 0.16881775E+03</rscale>
<asrwt>0</asrwt>
<pdfrwt beam="1">  1        2 0.21720799E+00 0.16881775E+03</pdfrwt>
<pdfrwt beam="2">  1       -2 0.77637889E-03 0.16881775E+03</pdfrwt>
<totfact> 0.45316711E+04</totfact>
</mgrwt>
</event>
<event>
 4    1  0.6207184E-004  0.5252219E+03  0.7818608E-02  0.1007398E+00
         -2   -1    0    0    0  501 -0.00000000000E+00  0.00000000000E+00  0.12442498993E+03  0.12442498996E+03  0.25500000000E-02 0. -1.
          2   -1    0    0  501    0  0.00000000000E+00 -0.00000000000E+00 -0.55426567651E+03  0.55426567651E+03  0.25500000000E-02 0.  1.
    5000001    1    1    2    0    0  0.19699896758E+02 -0.24976334963E+03 -0.23598295257E+03  0.35268508709E+03  0.77000000000E+02 0.  0.
   -5000001    1    1    2    0    0 -0.19699896758E+02  0.24976334963E+03 -0.19385773400E+03  0.32600557938E+03  0.77000000000E+02 0.  0.
<mgrwt>
<rscale>  0 0.52522186E+03</rscale>
<asrwt>0</asrwt>
<pdfrwt beam="1">  1        2 0.85271641E-01 0.52522186E+03</pdfrwt>
<pdfrwt beam="2">  1       -2 0.19142306E-01 0.52522186E+03</pdfrwt>
<totfact> 0.12584263E+03</totfact>
</mgrwt>
</event>
<event>
 4    1  0.6207184E-004  0.1833717E+03  0.7818608E-02  0.1164579E+00
         -2   -1    0    0    0  501 -0.00000000000E+00  0.00000000000E+00  0.75561230159E+02  0.75561230202E+02  0.25500000000E-02 0. -1.
          2   -1    0    0  501    0  0.00000000000E+00 -0.00000000000E+00 -0.11125147934E+03  0.11125147936E+03  0.25500000000E-02 0.  1.
    5000001    1    1    2    0    0  0.28221827435E+02  0.15554492569E+02 -0.56489566340E+02  0.10078930939E+03  0.77000000000E+02 0.  0.
   -5000001    1    1    2    0    0 -0.28221827435E+02 -0.15554492569E+02  0.20799317163E+02  0.86023400173E+02  0.77000000000E+02 0.  0.
<mgrwt>
<rscale>  0 0.18337174E+03</rscale>
<asrwt>0</asrwt>
<pdfrwt beam="1">  1        2 0.17115612E-01 0.18337174E+03</pdfrwt>
<pdfrwt beam="2">  1       -2 0.11624805E-01 0.18337174E+03</pdfrwt>
<totfact> 0.16583019E+04</totfact>
</mgrwt>
</event>
<event>
 4    1  0.6207184E-004  0.2963581E+03  0.7818608E-02  0.1087075E+00
         -2   -1    0    0    0  501 -0.00000000000E+00  0.00000000000E+00  0.54452082615E+02  0.54452082675E+02  0.25500000000E-02 0. -1.
          2   -1    0    0  501    0  0.00000000000E+00 -0.00000000000E+00 -0.40323578502E+03  0.40323578503E+03  0.25500000000E-02 0.  1.
    5000001    1    1    2    0    0  0.41516945748E+02 -0.11516617730E+03 -0.22422331777E+03  0.26681829287E+03  0.77000000000E+02 0.  0.
   -5000001    1    1    2    0    0 -0.41516945748E+02  0.11516617730E+03 -0.12456038463E+03  0.19086957483E+03  0.77000000000E+02 0.  0.
<mgrwt>
<rscale>  0 0.29635808E+03</rscale>
<asrwt>0</asrwt>
<pdfrwt beam="1">  1        2 0.62036273E-01 0.29635808E+03</pdfrwt>
<pdfrwt beam="2">  1       -2 0.83772438E-02 0.29635808E+03</pdfrwt>
<totfact> 0.69385889E+03</totfact>
</mgrwt>
</event>
<event>
 4    1  0.6207184E-004  0.2073416E+03  0.7818608E-02  0.1143689E+00
         -2   -1    0    0    0  501 -0.00000000000E+00  0.00000000000E+00  0.10275884524E+02  0.10275884840E+02  0.25500000000E-02 0. -1.
          2   -1    0    0  501    0  0.00000000000E+00 -0.00000000000E+00 -0.10459085188E+04  0.10459085188E+04  0.25500000000E-02 0.  1.
    5000001    1    1    2    0    0 -0.27964984494E+02  0.60447491236E+02 -0.41816566904E+03  0.43038060635E+03  0.77000000000E+02 0.  0.
   -5000001    1    1    2    0    0  0.27964984494E+02 -0.60447491236E+02 -0.61746696525E+03  0.62580379731E+03  0.77000000000E+02 0.  0.
<mgrwt>
<rscale>  0 0.20734161E+03</rscale>
<asrwt>0</asrwt>
<pdfrwt beam="1">  1        2 0.16090892E+00 0.20734161E+03</pdfrwt>
<pdfrwt beam="2">  1       -2 0.15809062E-02 0.20734161E+03</pdfrwt>
<totfact> 0.26368469E+04</totfact>
</mgrwt>
</event>
<event>
 4    1  0.6207184E-004  0.7691028E+03  0.7818608E-02  0.9605849E-01
         -2   -1    0    0    0  501 -0.00000000000E+00  0.00000000000E+00  0.46887281404E+02  0.46887281474E+02  0.25500000000E-02 0. -1.
          2   -1    0    0  501    0  0.00000000000E+00 -0.00000000000E+00 -0.31539425046E+04  0.31539425046E+04  0.25500000000E-02 0.  1.
    5000001    1    1    2    0    0  0.36411071604E+03 -0.43874289946E+02 -0.11943298185E+04  0.12517405012E+04  0.77000000000E+02 0.  0.
   -5000001    1    1    2    0    0 -0.36411071604E+03  0.43874289946E+02 -0.19127254046E+04  0.19490892849E+04  0.77000000000E+02 0.  0.
<mgrwt>
<rscale>  0 0.76910283E+03</rscale>
<asrwt>0</asrwt>
<pdfrwt beam="1">  1        2 0.48522176E+00 0.76910283E+03</pdfrwt>
<pdfrwt beam="2">  1       -2 0.72134304E-02 0.76910283E+03</pdfrwt>
<totfact> 0.17074165E+02</totfact>
</mgrwt>
</event>
<event>
 4    1  0.6207184E-004  0.2616026E+03  0.7818608E-02  0.1106184E+00
         -2   -1    0    0    0  501 -0.00000000000E+00  0.00000000000E+00  0.93650908143E+01  0.93650911615E+01  0.25500000000E-02 0. -1.
          2   -1    0    0  501    0  0.00000000000E+00 -0.00000000000E+00 -0.18268883959E+04  0.18268883959E+04  0.25500000000E-02 0.  1.
    5000001    1    1    2    0    0 -0.81167513863E+02 -0.76393263023E+01 -0.13813740533E+04  0.13859183958E+04  0.77000000000E+02 0.  0.
   -5000001    1    1    2    0    0  0.81167513863E+02  0.76393263023E+01 -0.43614925176E+03  0.45033509126E+03  0.77000000000E+02 0.  0.
<mgrwt>
<rscale>  0 0.26160257E+03</rscale>
<asrwt>0</asrwt>
<pdfrwt beam="1">  1        2 0.28105947E+00 0.26160257E+03</pdfrwt>
<pdfrwt beam="2">  1       -2 0.14407847E-02 0.26160257E+03</pdfrwt>
<totfact> 0.11452327E+04</totfact>
</mgrwt>
</event>
<event>
 4    1  0.6207184E-004  0.7611839E+03  0.7818608E-02  0.9617966E-01
         -2   -1    0    0    0  501 -0.00000000000E+00  0.00000000000E+00  0.82021004929E+02  0.82021004968E+02  0.25500000000E-02 0. -1.
          2   -1    0    0  501    0  0.00000000000E+00 -0.00000000000E+00 -0.17660136700E+04  0.17660136700E+04  0.25500000000E-02 0.  1.
    5000001    1    1    2    0    0 -0.88427506812E+02  0.33349339990E+03 -0.11843475012E+04  0.12359794801E+04  0.77000000000E+02 0.  0.
   -5000001    1    1    2    0    0  0.88427506812E+02 -0.33349339990E+03 -0.49964516388E+03  0.61205519484E+03  0.77000000000E+02 0.  0.
<mgrwt>
<rscale>  0 0.76118386E+03</rscale>
<asrwt>0</asrwt>
<pdfrwt beam="1">  1        2 0.27169438E+00 0.76118386E+03</pdfrwt>
<pdfrwt beam="2">  1       -2 0.12618617E-01 0.76118386E+03</pdfrwt>
<totfact> 0.42923128E+02</totfact>
</mgrwt>
</event>
<event>
 4    1  0.6207184E-004  0.2039459E+03  0.7818608E-02  0.1146452E+00
         -2   -1    0    0    0  501 -0.00000000000E+00  0.00000000000E+00  0.66873865152E+02  0.66873865201E+02  0.25500000000E-02 0. -1.
          2   -1    0    0  501    0  0.00000000000E+00 -0.00000000000E+00 -0.15549397381E+03  0.15549397384E+03  0.25500000000E-02 0.  1.
    5000001    1    1    2    0    0 -0.66826849343E+01  0.58246705979E+02 -0.92810692159E+01  0.97223841115E+02  0.77000000000E+02 0.  0.
   -5000001    1    1    2    0    0  0.66826849343E+01 -0.58246705979E+02 -0.79339039447E+02  0.12514399792E+03  0.77000000000E+02 0.  0.
<mgrwt>
<rscale>  0 0.20394591E+03</rscale>
<asrwt>0</asrwt>
<pdfrwt beam="1">  1        2 0.23922150E-01 0.20394591E+03</pdfrwt>
<pdfrwt beam="2">  1       -2 0.10288287E-01 0.20394591E+03</pdfrwt>
<totfact> 0.13873176E+04</totfact>
</mgrwt>
</event>
<event>
 4    1  0.6207184E-004  0.2194981E+03  0.7818608E-02  0.1134258E+00
         -2   -1    0    0    0  501 -0.00000000000E+00  0.00000000000E+00  0.15298949887E+02  0.15298950100E+02  0.25500000000E-02 0. -1.
          2   -1    0    0  501    0  0.00000000000E+00 -0.00000000000E+00 -0.78729971924E+03  0.78729971925E+03  0.25500000000E-02 0.  1.
    5000001    1    1    2    0    0 -0.75436451685E+02  0.40116009839E+01 -0.31204215846E+03  0.33016065762E+03  0.77000000000E+02 0.  0.
   -5000001    1    1    2    0    0  0.75436451685E+02 -0.40116009839E+01 -0.45995861090E+03  0.47243801173E+03  0.77000000000E+02 0.  0.
<mgrwt>
<rscale>  0 0.21949815E+03</rscale>
<asrwt>0</asrwt>
<pdfrwt beam="1">  1        2 0.12112300E+00 0.21949815E+03</pdfrwt>
<pdfrwt beam="2">  1       -2 0.23536852E-02 0.21949815E+03</pdfrwt>
<totfact> 0.21607662E+04</totfact>
</mgrwt>
</event>
<event>
 4    1  0.6207184E-004  0.1040583E+04  0.7818608E-02  0.9265121E-01
         -2   -1    0    0    0  501 -0.00000000000E+00  0.00000000000E+00  0.90090772058E+02  0.90090772094E+02  0.25500000000E-02 0. -1.
          2   -1    0    0  501    0  0.00000000000E+00 -0.00000000000E+00 -0.30047831916E+04  0.30047831916E+04  0.25500000000E-02 0.  1.
    5000001    1    1    2    0    0 -0.47172230092E+02 -0.28114230109E+03 -0.27314176400E+04  0.27473328042E+04  0.77000000000E+02 0.  0.
   -5000001    1    1    2    0    0  0.47172230092E+02  0.28114230109E+03 -0.18327477956E+03  0.34754115954E+03  0.77000000000E+02 0.  0.
<mgrwt>
<rscale>  0 0.10405830E+04</rscale>
<asrwt>0</asrwt>
<pdfrwt beam="1">  1        2 0.46227426E+00 0.10405830E+04</pdfrwt>
<pdfrwt beam="2">  1       -2 0.13860121E-01 0.10405830E+04</pdfrwt>
<totfact> 0.70654363E+01</totfact>
</mgrwt>
</event>
<event>
 4    1  0.6207184E-004  0.2555987E+03  0.7818608E-02  0.1109817E+00
         -2   -1    0    0    0  501 -0.00000000000E+00  0.00000000000E+00  0.18410589209E+02  0.18410589385E+02  0.25500000000E-02 0.  1.
          2   -1    0    0  501    0  0.00000000000E+00 -0.00000000000E+00 -0.88713462181E+03  0.88713462181E+03  0.25500000000E-02 0. -1.
    5000001    1    1    2    0    0 -0.96484675727E+02  0.79046008367E+01 -0.54816914285E+03  0.56195211943E+03  0.77000000000E+02 0.  0.
   -5000001    1    1    2    0    0  0.96484675727E+02 -0.79046008367E+01 -0.32055488975E+03  0.34359309177E+03  0.77000000000E+02 0.  0.
<mgrwt>
<rscale>  0 0.25559868E+03</rscale>
<asrwt>0</asrwt>
<pdfrwt beam="1">  1        2 0.13648222E+00 0.25559868E+03</pdfrwt>
<pdfrwt beam="2">  1       -2 0.28323991E-02 0.25559868E+03</pdfrwt>
<totfact> 0.14197910E+04</totfact>
</mgrwt>
</event>
<event>
 4    1  0.6207184E-004  0.2004901E+03  0.7818608E-02  0.1149326E+00
         -2   -1    0    0    0  501 -0.00000000000E+00  0.00000000000E+00  0.72132393921E+02  0.72132393966E+02  0.25500000000E-02 0. -1.
          2   -1    0    0  501    0  0.00000000000E+00 -0.00000000000E+00 -0.13931421037E+03  0.13931421040E+03  0.25500000000E-02 0.  1.
    5000001    1    1    2    0    0  0.94917242410E+01 -0.62695419753E+02 -0.23083567095E+02  0.10238486000E+03  0.77000000000E+02 0.  0.
   -5000001    1    1    2    0    0 -0.94917242410E+01  0.62695419753E+02 -0.44098249357E+02  0.10906174436E+03  0.77000000000E+02 0.  0.
<mgrwt>
<rscale>  0 0.20049007E+03</rscale>
<asrwt>0</asrwt>
<pdfrwt beam="1">  1        2 0.21432955E-01 0.20049007E+03</pdfrwt>
<pdfrwt beam="2">  1       -2 0.11097291E-01 0.20049007E+03</pdfrwt>
<totfact> 0.13899048E+04</totfact>
</mgrwt>
</event>
<event>
 4    1  0.6207184E-004  0.2658120E+03  0.7818608E-02  0.1103701E+00
         -2   -1    0    0    0  501 -0.00000000000E+00  0.00000000000E+00  0.38186427985E+02  0.38186428070E+02  0.25500000000E-02 0. -1.
          2   -1    0    0  501    0  0.00000000000E+00 -0.00000000000E+00 -0.46257272029E+03  0.46257272029E+03  0.25500000000E-02 0.  1.
    5000001    1    1    2    0    0  0.97765900380E+02 -0.46545371780E+02 -0.21825591484E+03  0.25551768486E+03  0.77000000000E+02 0.  0.
   -5000001    1    1    2    0    0 -0.97765900380E+02  0.46545371780E+02 -0.20613037746E+03  0.24524146351E+03  0.77000000000E+02 0.  0.
<mgrwt>
<rscale>  0 0.26581196E+03</rscale>
<asrwt>0</asrwt>
<pdfrwt beam="1">  1        2 0.71165030E-01 0.26581196E+03</pdfrwt>
<pdfrwt beam="2">  1       -2 0.58748354E-02 0.26581196E+03</pdfrwt>
<totfact> 0.10304776E+04</totfact>
</mgrwt>
</event>
<event>
 4    1  0.6207184E-004  0.2255169E+03  0.7818608E-02  0.1129836E+00
         -2   -1    0    0    0  501 -0.00000000000E+00  0.00000000000E+00  0.21566032987E+04  0.21566032987E+04  0.25500000000E-02 0.  1.
          2   -1    0    0  501    0  0.00000000000E+00 -0.00000000000E+00 -0.58955973496E+01  0.58955979011E+01  0.25500000000E-02 0. -1.
    5000001    1    1    2    0    0  0.79420114712E+02  0.31618106529E+01  0.12827781792E+04  0.12875427794E+04  0.77000000000E+02 0.  0.
   -5000001    1    1    2    0    0 -0.79420114712E+02 -0.31618106529E+01  0.86792952208E+03  0.87495611716E+03  0.77000000000E+02 0.  0.
<mgrwt>
<rscale>  0 0.22551688E+03</rscale>
<asrwt>0</asrwt>
<pdfrwt beam="1">  1        2 0.90701651E-03 0.22551688E+03</pdfrwt>
<pdfrwt beam="2">  1       -2 0.33178458E+00 0.22551688E+03</pdfrwt>
<totfact> 0.39309676E+02</totfact>
</mgrwt>
</event>
<event>
 4    1  0.6207184E-004  0.1897578E+03  0.7818608E-02  0.1158680E+00
          2   -1    0    0  501    0  0.00000000000E+00  0.00000000000E+00  0.13624921953E+04  0.13624921953E+04  0.25500000000E-02 0.  1.
         -2   -1    0    0    0  501 -0.00000000000E+00 -0.00000000000E+00 -0.66070116886E+01  0.66070121807E+01  0.25500000000E-02 0. -1.
    5000001    1    1    2    0    0 -0.40732212760E+02 -0.37568737235E+02  0.66658265793E+03  0.67329931162E+03  0.77000000000E+02 0.  0.
   -5000001    1    1    2    0    0  0.40732212760E+02  0.37568737235E+02  0.68930252570E+03  0.69579989588E+03  0.77000000000E+02 0.  0.
<mgrwt>
<rscale>  0 0.18975776E+03</rscale>
<asrwt>0</asrwt>
<pdfrwt beam="1">  1        2 0.20961413E+00 0.18975776E+03</pdfrwt>
<pdfrwt beam="2">  1       -2 0.10164636E-02 0.18975776E+03</pdfrwt>
<totfact> 0.32973530E+04</totfact>
</mgrwt>
</event>
<event>
 4    1  0.6207184E-004  0.2870811E+03  0.7818608E-02  0.1091883E+00
          2   -1    0    0  501    0  0.00000000000E+00  0.00000000000E+00  0.10954078535E+04  0.10954078535E+04  0.25500000000E-02 0.  1.
         -2   -1    0    0    0  501 -0.00000000000E+00 -0.00000000000E+00 -0.18809332429E+02  0.18809332602E+02  0.25500000000E-02 0. -1.
    5000001    1    1    2    0    0 -0.62702361151E+02  0.94977222555E+02  0.69938661632E+03  0.71275725040E+03  0.77000000000E+02 0.  0.
   -5000001    1    1    2    0    0  0.62702361151E+02 -0.94977222555E+02  0.37721190477E+03  0.40145993573E+03  0.77000000000E+02 0.  0.
<mgrwt>
<rscale>  0 0.28708111E+03</rscale>
<asrwt>0</asrwt>
<pdfrwt beam="1">  1        2 0.16852426E+00 0.28708111E+03</pdfrwt>
<pdfrwt beam="2">  1       -2 0.28937439E-02 0.28708111E+03</pdfrwt>
<totfact> 0.10272866E+04</totfact>
</mgrwt>
</event>
<event>
 4    1  0.6207184E-004  0.1829219E+03  0.7818608E-02  0.1165005E+00
          2   -1    0    0  501    0  0.00000000000E+00  0.00000000000E+00  0.10146548704E+04  0.10146548704E+04  0.25500000000E-02 0.  1.
         -2   -1    0    0    0  501 -0.00000000000E+00 -0.00000000000E+00 -0.82442830075E+01  0.82442834019E+01  0.25500000000E-02 0. -1.
    5000001    1    1    2    0    0  0.35626801862E+02 -0.30690647792E+02  0.58706987253E+03  0.59396230529E+03  0.77000000000E+02 0.  0.
   -5000001    1    1    2    0    0 -0.35626801862E+02  0.30690647792E+02  0.41934071486E+03  0.42893684852E+03  0.77000000000E+02 0.  0.
<mgrwt>
<rscale>  0 0.18292186E+03</rscale>
<asrwt>0</asrwt>
<pdfrwt beam="1">  1        2 0.15610078E+00 0.18292186E+03</pdfrwt>
<pdfrwt beam="2">  1       -2 0.12683510E-02 0.18292186E+03</pdfrwt>
<totfact> 0.37565039E+04</totfact>
</mgrwt>
</event>
<event>
 4    1  0.6207184E-004  0.3664667E+03  0.7818608E-02  0.1056052E+00
         -2   -1    0    0    0  501 -0.00000000000E+00  0.00000000000E+00  0.11183385379E+02  0.11183385670E+02  0.25500000000E-02 0. -1.
          2   -1    0    0  501    0  0.00000000000E+00 -0.00000000000E+00 -0.30021734621E+04  0.30021734621E+04  0.25500000000E-02 0.  1.
    5000001    1    1    2    0    0 -0.38720840423E+02  0.14892044621E+03 -0.97747215509E+03  0.99250058779E+03  0.77000000000E+02 0.  0.
   -5000001    1    1    2    0    0  0.38720840423E+02 -0.14892044621E+03 -0.20135179216E+04  0.20208562600E+04  0.77000000000E+02 0.  0.
<mgrwt>
<rscale>  0 0.36646671E+03</rscale>
<asrwt>0</asrwt>
<pdfrwt beam="1">  1        2 0.46187220E+00 0.36646671E+03</pdfrwt>
<pdfrwt beam="2">  1       -2 0.17205232E-02 0.36646671E+03</pdfrwt>
<totfact> 0.19827054E+03</totfact>
</mgrwt>
</event>
<event>
 4    1  0.6207184E-004  0.3617904E+03  0.7818608E-02  0.1057877E+00
         -2   -1    0    0    0  501 -0.00000000000E+00  0.00000000000E+00  0.48737367003E+02  0.48737367070E+02  0.25500000000E-02 0. -1.
          2   -1    0    0  501    0  0.00000000000E+00 -0.00000000000E+00 -0.67141668914E+03  0.67141668914E+03  0.25500000000E-02 0.  1.
    5000001    1    1    2    0    0 -0.10638048221E+03  0.12000521185E+03 -0.24604476327E+03  0.30361996541E+03  0.77000000000E+02 0.  0.
   -5000001    1    1    2    0    0  0.10638048221E+03 -0.12000521185E+03 -0.37663455887E+03  0.41653409080E+03  0.77000000000E+02 0.  0.
<mgrwt>
<rscale>  0 0.36179045E+03</rscale>
<asrwt>0</asrwt>
<pdfrwt beam="1">  1        2 0.10329487E+00 0.36179045E+03</pdfrwt>
<pdfrwt beam="2">  1       -2 0.74980570E-02 0.36179045E+03</pdfrwt>
<totfact> 0.46403654E+03</totfact>
</mgrwt>
</event>
<event>
 4    1  0.6207184E-004  0.1940869E+03  0.7818608E-02  0.1154826E+00
          2   -1    0    0  501    0  0.00000000000E+00  0.00000000000E+00  0.56244920492E+03  0.56244920492E+03  0.25500000000E-02 0.  1.
         -2   -1    0    0    0  501 -0.00000000000E+00 -0.00000000000E+00 -0.16743606793E+02  0.16743606987E+02  0.25500000000E-02 0. -1.
    5000001    1    1    2    0    0  0.14076507821E+02 -0.50291056182E+02  0.19052528397E+03  0.21202882407E+03  0.77000000000E+02 0.  0.
   -5000001    1    1    2    0    0 -0.14076507821E+02  0.50291056182E+02  0.35518031416E+03  0.36716398784E+03  0.77000000000E+02 0.  0.
<mgrwt>
<rscale>  0 0.19408687E+03</rscale>
<asrwt>0</asrwt>
<pdfrwt beam="1">  1        2 0.86530657E-01 0.19408687E+03</pdfrwt>
<pdfrwt beam="2">  1       -2 0.25759392E-02 0.19408687E+03</pdfrwt>
<totfact> 0.27983033E+04</totfact>
</mgrwt>
</event>
<event>
 4    1  0.6207184E-004  0.2071946E+03  0.7818608E-02  0.1143807E+00
          2   -1    0    0  501    0  0.00000000000E+00  0.00000000000E+00  0.49871851767E+03  0.49871851768E+03  0.25500000000E-02 0.  1.
         -2   -1    0    0    0  501 -0.00000000000E+00 -0.00000000000E+00 -0.21519949075E+02  0.21519949226E+02  0.25500000000E-02 0. -1.
    5000001    1    1    2    0    0 -0.32955829300E+02  0.47313855713E+02  0.14204633773E+03  0.17155421793E+03  0.77000000000E+02 0.  0.
   -5000001    1    1    2    0    0  0.32955829300E+02 -0.47313855713E+02  0.33515223086E+03  0.34868424897E+03  0.77000000000E+02 0.  0.
<mgrwt>
<rscale>  0 0.20719457E+03</rscale>
<asrwt>0</asrwt>
<pdfrwt beam="1">  1        2 0.76725929E-01 0.20719457E+03</pdfrwt>
<pdfrwt beam="2">  1       -2 0.33107613E-02 0.20719457E+03</pdfrwt>
<totfact> 0.22198900E+04</totfact>
</mgrwt>
</event>
<event>
 4    1  0.6207184E-004  0.2067053E+03  0.7818608E-02  0.1144202E+00
          2   -1    0    0  501    0  0.00000000000E+00  0.00000000000E+00  0.20945376582E+03  0.20945376583E+03  0.25500000000E-02 0.  1.
         -2   -1    0    0    0  501 -0.00000000000E+00 -0.00000000000E+00 -0.50998208427E+02  0.50998208491E+02  0.25500000000E-02 0. -1.
    5000001    1    1    2    0    0 -0.61054428069E+02  0.14903843785E+02  0.11493315648E+03  0.15194866964E+03  0.77000000000E+02 0.  0.
   -5000001    1    1    2    0    0  0.61054428069E+02 -0.14903843785E+02  0.43522400909E+02  0.10850330468E+03  0.77000000000E+02 0.  0.
<mgrwt>
<rscale>  0 0.20670527E+03</rscale>
<asrwt>0</asrwt>
<pdfrwt beam="1">  1        2 0.32223656E-01 0.20670527E+03</pdfrwt>
<pdfrwt beam="2">  1       -2 0.78458782E-02 0.20670527E+03</pdfrwt>
<totfact> 0.15306540E+04</totfact>
</mgrwt>
</event>
<event>
 4    1  0.6207184E-004  0.5049165E+03  0.7818608E-02  0.1012504E+00
         -2   -1    0    0    0  501 -0.00000000000E+00  0.00000000000E+00  0.72423368223E+02  0.72423368268E+02  0.25500000000E-02 0. -1.
          2   -1    0    0  501    0  0.00000000000E+00 -0.00000000000E+00 -0.88003580516E+03  0.88003580516E+03  0.25500000000E-02 0.  1.
    5000001    1    1    2    0    0 -0.48840548526E+02  0.21978259139E+03 -0.24467473223E+03  0.34129827315E+03  0.77000000000E+02 0.  0.
   -5000001    1    1    2    0    0  0.48840548526E+02 -0.21978259139E+03 -0.56293770470E+03  0.61116090028E+03  0.77000000000E+02 0.  0.
<mgrwt>
<rscale>  0 0.50491646E+03</rscale>
<asrwt>0</asrwt>
<pdfrwt beam="1">  1        2 0.13539012E+00 0.50491646E+03</pdfrwt>
<pdfrwt beam="2">  1       -2 0.11142057E-01 0.50491646E+03</pdfrwt>
<totfact> 0.17471232E+03</totfact>
</mgrwt>
</event>
<event>
 4    1  0.6207184E-004  0.1672573E+03  0.7818608E-02  0.1180739E+00
         -2   -1    0    0    0  501 -0.00000000000E+00  0.00000000000E+00  0.42654225155E+02  0.42654225231E+02  0.25500000000E-02 0. -1.
          2   -1    0    0  501    0  0.00000000000E+00 -0.00000000000E+00 -0.16396379093E+03  0.16396379095E+03  0.25500000000E-02 0.  1.
    5000001    1    1    2    0    0 -0.13128196643E+02  0.22258841537E+02 -0.36042766131E+02  0.88858801275E+02  0.77000000000E+02 0.  0.
   -5000001    1    1    2    0    0  0.13128196643E+02 -0.22258841537E+02 -0.85266799644E+02  0.11775921491E+03  0.77000000000E+02 0.  0.
<mgrwt>
<rscale>  0 0.16725727E+03</rscale>
<asrwt>0</asrwt>
<pdfrwt beam="1">  1        2 0.25225198E-01 0.16725727E+03</pdfrwt>
<pdfrwt beam="2">  1       -2 0.65621886E-02 0.16725727E+03</pdfrwt>
<totfact> 0.25921412E+04</totfact>
</mgrwt>
</event>
<event>
 4    1  0.6207184E-004  0.1727577E+03  0.7818608E-02  0.1175002E+00
          2   -1    0    0  501    0  0.00000000000E+00  0.00000000000E+00  0.85539959461E+03  0.85539959461E+03  0.25500000000E-02 0.  1.
         -2   -1    0    0    0  501 -0.00000000000E+00 -0.00000000000E+00 -0.87225916912E+01  0.87225920640E+01  0.25500000000E-02 0. -1.
    5000001    1    1    2    0    0  0.24620428033E+02  0.21279274538E+02  0.53216113152E+03  0.53868677624E+03  0.77000000000E+02 0.  0.
   -5000001    1    1    2    0    0 -0.24620428033E+02 -0.21279274538E+02  0.31451587140E+03  0.32543541044E+03  0.77000000000E+02 0.  0.
<mgrwt>
<rscale>  0 0.17275765E+03</rscale>
<asrwt>0</asrwt>
<pdfrwt beam="1">  1        2 0.13160000E+00 0.17275765E+03</pdfrwt>
<pdfrwt beam="2">  1       -2 0.13419366E-02 0.17275765E+03</pdfrwt>
<totfact> 0.43345796E+04</totfact>
</mgrwt>
</event>
<event>
 4    1  0.6207184E-004  0.2886766E+03  0.7818608E-02  0.1091042E+00
          2   -1    0    0  501    0  0.00000000000E+00  0.00000000000E+00  0.11754375236E+04  0.11754375236E+04  0.25500000000E-02 0.  1.
         -2   -1    0    0    0  501 -0.00000000000E+00 -0.00000000000E+00 -0.17724074637E+02  0.17724074820E+02  0.25500000000E-02 0. -1.
    5000001    1    1    2    0    0 -0.11783918087E+03  0.30862965903E+02  0.54529175818E+03  0.56401302888E+03  0.77000000000E+02 0.  0.
   -5000001    1    1    2    0    0  0.11783918087E+03 -0.30862965903E+02  0.61242169082E+03  0.62914856957E+03  0.77000000000E+02 0.  0.
<mgrwt>
<rscale>  0 0.28867658E+03</rscale>
<asrwt>0</asrwt>
<pdfrwt beam="1">  1        2 0.18083660E+00 0.28867658E+03</pdfrwt>
<pdfrwt beam="2">  1       -2 0.27267799E-02 0.28867658E+03</pdfrwt>
<totfact> 0.10083462E+04</totfact>
</mgrwt>
</event>
<event>
 4    1  0.6207184E-004  0.3073955E+03  0.7818608E-02  0.1081601E+00
          2   -1    0    0  501    0  0.00000000000E+00  0.00000000000E+00  0.10751667950E+04  0.10751667950E+04  0.25500000000E-02 0.  1.
         -2   -1    0    0    0  501 -0.00000000000E+00 -0.00000000000E+00 -0.21971479743E+02  0.21971479891E+02  0.25500000000E-02 0. -1.
    5000001    1    1    2    0    0  0.12547107549E+03  0.36434094872E+02  0.61572417130E+03  0.63412592533E+03  0.77000000000E+02 0.  0.
   -5000001    1    1    2    0    0 -0.12547107549E+03 -0.36434094872E+02  0.43747114397E+03  0.46301234958E+03  0.77000000000E+02 0.  0.
<mgrwt>
<rscale>  0 0.30739555E+03</rscale>
<asrwt>0</asrwt>
<pdfrwt beam="1">  1        2 0.16541025E+00 0.30739555E+03</pdfrwt>
<pdfrwt beam="2">  1       -2 0.33802282E-02 0.30739555E+03</pdfrwt>
<totfact> 0.83864396E+03</totfact>
</mgrwt>
</event>
<event>
 4    1  0.6207184E-004  0.2525079E+03  0.7818608E-02  0.1111730E+00
         -2   -1    0    0    0  501 -0.00000000000E+00  0.00000000000E+00  0.16088582281E+02  0.16088582483E+02  0.25500000000E-02 0. -1.
          2   -1    0    0  501    0  0.00000000000E+00 -0.00000000000E+00 -0.99076814444E+03  0.99076814444E+03  0.25500000000E-02 0.  1.
    5000001    1    1    2    0    0  0.42563094418E+02 -0.90413971160E+02 -0.46750188802E+03  0.48422445052E+03  0.77000000000E+02 0.  0.
   -5000001    1    1    2    0    0 -0.42563094418E+02  0.90413971160E+02 -0.50717767414E+03  0.52263227640E+03  0.77000000000E+02 0.  0.
<mgrwt>
<rscale>  0 0.25250786E+03</rscale>
<asrwt>0</asrwt>
<pdfrwt beam="1">  1        2 0.15242582E+00 0.25250786E+03</pdfrwt>
<pdfrwt beam="2">  1       -2 0.24751673E-02 0.25250786E+03</pdfrwt>
<totfact> 0.14904410E+04</totfact>
</mgrwt>
</event>
<event>
 4    1  0.6207184E-004  0.2292540E+03  0.7818608E-02  0.1127166E+00
         -2   -1    0    0    0  501 -0.00000000000E+00  0.00000000000E+00  0.84152621734E+02  0.84152621773E+02  0.25500000000E-02 0. -1.
          2   -1    0    0  501    0  0.00000000000E+00 -0.00000000000E+00 -0.15613709756E+03  0.15613709758E+03  0.25500000000E-02 0.  1.
    5000001    1    1    2    0    0  0.80366695482E+02  0.15197483364E+02 -0.59906707541E+02  0.12730900538E+03  0.77000000000E+02 0.  0.
   -5000001    1    1    2    0    0 -0.80366695482E+02 -0.15197483364E+02 -0.12077768288E+02  0.11298071397E+03  0.77000000000E+02 0.  0.
<mgrwt>
<rscale>  0 0.22925397E+03</rscale>
<asrwt>0</asrwt>
<pdfrwt beam="1">  1        2 0.24021092E-01 0.22925397E+03</pdfrwt>
<pdfrwt beam="2">  1       -2 0.12946557E-01 0.22925397E+03</pdfrwt>
<totfact> 0.96215440E+03</totfact>
</mgrwt>
</event>
<event>
 4    1  0.6207184E-004  0.3993023E+03  0.7818608E-02  0.1044022E+00
         -2   -1    0    0    0  501 -0.00000000000E+00  0.00000000000E+00  0.28076173769E+03  0.28076173770E+03  0.25500000000E-02 0. -1.
          2   -1    0    0  501    0  0.00000000000E+00 -0.00000000000E+00 -0.14197298527E+03  0.14197298530E+03  0.25500000000E-02 0.  1.
    5000001    1    1    2    0    0 -0.45375077783E+02 -0.17848347957E+03  0.73672805553E+02  0.21277201988E+03  0.77000000000E+02 0.  0.
   -5000001    1    1    2    0    0  0.45375077783E+02  0.17848347957E+03  0.65115946863E+02  0.20996270312E+03  0.77000000000E+02 0.  0.
<mgrwt>
<rscale>  0 0.39930230E+03</rscale>
<asrwt>0</asrwt>
<pdfrwt beam="1">  1        2 0.21841998E-01 0.39930230E+03</pdfrwt>
<pdfrwt beam="2">  1       -2 0.43194113E-01 0.39930230E+03</pdfrwt>
<totfact> 0.12969232E+03</totfact>
</mgrwt>
</event>
<event>
 4    1  0.6207184E-004  0.3596919E+03  0.7818608E-02  0.1058706E+00
          2   -1    0    0  501    0  0.00000000000E+00  0.00000000000E+00  0.39804773912E+03  0.39804773912E+03  0.25500000000E-02 0.  1.
         -2   -1    0    0    0  501 -0.00000000000E+00 -0.00000000000E+00 -0.81257984099E+02  0.81257984139E+02  0.25500000000E-02 0. -1.
    5000001    1    1    2    0    0  0.14848308438E+03  0.46913389892E+02  0.96356847307E+02  0.19864977856E+03  0.77000000000E+02 0.  0.
   -5000001    1    1    2    0    0 -0.14848308438E+03 -0.46913389892E+02  0.22043290771E+03  0.28065594471E+03  0.77000000000E+02 0.  0.
<mgrwt>
<rscale>  0 0.35969185E+03</rscale>
<asrwt>0</asrwt>
<pdfrwt beam="1">  1        2 0.61238115E-01 0.35969185E+03</pdfrwt>
<pdfrwt beam="2">  1       -2 0.12501228E-01 0.35969185E+03</pdfrwt>
<totfact> 0.37274120E+03</totfact>
</mgrwt>
</event>
<event>
 4    1  0.6207184E-004  0.2062618E+03  0.7818608E-02  0.1144561E+00
          2   -1    0    0  501    0  0.00000000000E+00  0.00000000000E+00  0.15526867912E+04  0.15526867912E+04  0.25500000000E-02 0.  1.
         -2   -1    0    0    0  501 -0.00000000000E+00 -0.00000000000E+00 -0.68500478610E+01  0.68500483357E+01  0.25500000000E-02 0. -1.
    5000001    1    1    2    0    0 -0.46151794283E+02  0.41045197792E+02  0.54706417220E+03  0.55589828646E+03  0.77000000000E+02 0.  0.
   -5000001    1    1    2    0    0  0.46151794283E+02 -0.41045197792E+02  0.99877257116E+03  0.10036385531E+04  0.77000000000E+02 0.  0.
<mgrwt>
<rscale>  0 0.20626177E+03</rscale>
<asrwt>0</asrwt>
<pdfrwt beam="1">  1        2 0.23887457E+00 0.20626177E+03</pdfrwt>
<pdfrwt beam="2">  1       -2 0.10538550E-02 0.20626177E+03</pdfrwt>
<totfact> 0.24908050E+04</totfact>
</mgrwt>
</event>
<event>
 4    1  0.6207184E-004  0.4605355E+03  0.7818608E-02  0.1024626E+00
         -2   -1    0    0    0  501 -0.00000000000E+00  0.00000000000E+00  0.11404781097E+03  0.11404781100E+03  0.25500000000E-02 0. -1.
          2   -1    0    0  501    0  0.00000000000E+00 -0.00000000000E+00 -0.46492114197E+03  0.46492114198E+03  0.25500000000E-02 0.  1.
    5000001    1    1    2    0    0  0.15428656256E+03  0.64164940690E+02 -0.13624597932E+01  0.18399005217E+03  0.77000000000E+02 0.  0.
   -5000001    1    1    2    0    0 -0.15428656256E+03 -0.64164940690E+02 -0.34951087121E+03  0.39497890082E+03  0.77000000000E+02 0.  0.
<mgrwt>
<rscale>  0 0.46053551E+03</rscale>
<asrwt>0</asrwt>
<pdfrwt beam="1">  1        2 0.71526328E-01 0.46053551E+03</pdfrwt>
<pdfrwt beam="2">  1       -2 0.17545817E-01 0.46053551E+03</pdfrwt>
<totfact> 0.17877272E+03</totfact>
</mgrwt>
</event>
<event>
 4    1  0.6207184E-004  0.1854224E+03  0.7818608E-02  0.1162656E+00
          2   -1    0    0  501    0  0.00000000000E+00  0.00000000000E+00  0.14983995613E+04  0.14983995613E+04  0.25500000000E-02 0.  1.
         -2   -1    0    0    0  501 -0.00000000000E+00 -0.00000000000E+00 -0.57363621015E+01  0.57363626683E+01  0.25500000000E-02 0. -1.
    5000001    1    1    2    0    0 -0.19885598439E+02 -0.33286659835E+02  0.10229624883E+04  0.10265888618E+04  0.77000000000E+02 0.  0.
   -5000001    1    1    2    0    0  0.19885598439E+02  0.33286659835E+02  0.46970071092E+03  0.47754706217E+03  0.77000000000E+02 0.  0.
<mgrwt>
<rscale>  0 0.18542236E+03</rscale>
<asrwt>0</asrwt>
<pdfrwt beam="1">  1        2 0.23052329E+00 0.18542236E+03</pdfrwt>
<pdfrwt beam="2">  1       -2 0.88251621E-03 0.18542236E+03</pdfrwt>
<totfact> 0.34149159E+04</totfact>
</mgrwt>
</event>
<event>
 4    1  0.6207184E-004  0.2808265E+03  0.7818608E-02  0.1095238E+00
         -2   -1    0    0    0  501 -0.00000000000E+00  0.00000000000E+00  0.28584675812E+03  0.28584675813E+03  0.25500000000E-02 0. -1.
          2   -1    0    0  501    0  0.00000000000E+00 -0.00000000000E+00 -0.68973593666E+02  0.68973593714E+02  0.25500000000E-02 0.  1.
    5000001    1    1    2    0    0  0.23134156622E+02 -0.67884773778E+02 -0.90292132673E+01  0.10561277577E+03  0.77000000000E+02 0.  0.
   -5000001    1    1    2    0    0 -0.23134156622E+02  0.67884773778E+02  0.22590237772E+03  0.24920757607E+03  0.77000000000E+02 0.  0.
<mgrwt>
<rscale>  0 0.28082648E+03</rscale>
<asrwt>0</asrwt>
<pdfrwt beam="1">  1        2 0.10611322E-01 0.28082648E+03</pdfrwt>
<pdfrwt beam="2">  1       -2 0.43976424E-01 0.28082648E+03</pdfrwt>
<totfact> 0.29398406E+03</totfact>
</mgrwt>
</event>
<event>
 4    1  0.6207184E-004  0.2412964E+03  0.7818608E-02  0.1118932E+00
         -2   -1    0    0    0  501 -0.00000000000E+00  0.00000000000E+00  0.71625206480E+02  0.71625206525E+02  0.25500000000E-02 0. -1.
          2   -1    0    0  501    0  0.00000000000E+00 -0.00000000000E+00 -0.20322445946E+03  0.20322445947E+03  0.25500000000E-02 0.  1.
    5000001    1    1    2    0    0  0.31026696321E+02  0.85635223234E+02 -0.45078030333E+02  0.12750323981E+03  0.77000000000E+02 0.  0.
   -5000001    1    1    2    0    0 -0.31026696321E+02 -0.85635223234E+02 -0.86521222642E+02  0.14734642619E+03  0.77000000000E+02 0.  0.
<mgrwt>
<rscale>  0 0.24129645E+03</rscale>
<asrwt>0</asrwt>
<pdfrwt beam="1">  1        2 0.31265301E-01 0.24129645E+03</pdfrwt>
<pdfrwt beam="2">  1       -2 0.11019263E-01 0.24129645E+03</pdfrwt>
<totfact> 0.93480330E+03</totfact>
</mgrwt>
</event>
<event>
 4    1  0.6207184E-004  0.2393180E+03  0.7818608E-02  0.1120248E+00
         -2   -1    0    0    0  501 -0.00000000000E+00  0.00000000000E+00  0.20998254859E+03  0.20998254860E+03  0.25500000000E-02 0. -1.
          2   -1    0    0  501    0  0.00000000000E+00 -0.00000000000E+00 -0.68187914174E+02  0.68187914221E+02  0.25500000000E-02 0.  1.
    5000001    1    1    2    0    0  0.96014742112E+01 -0.90595418508E+02  0.59897693223E+02  0.13347828219E+03  0.77000000000E+02 0.  0.
   -5000001    1    1    2    0    0 -0.96014742112E+01  0.90595418508E+02  0.81896941190E+02  0.14469218064E+03  0.77000000000E+02 0.  0.
<mgrwt>
<rscale>  0 0.23931796E+03</rscale>
<asrwt>0</asrwt>
<pdfrwt beam="1">  1        2 0.10490448E-01 0.23931796E+03</pdfrwt>
<pdfrwt beam="2">  1       -2 0.32305007E-01 0.23931796E+03</pdfrwt>
<totfact> 0.53079646E+03</totfact>
</mgrwt>
</event>
<event>
 4    1  0.6207184E-004  0.2736013E+03  0.7818608E-02  0.1099236E+00
          2   -1    0    0  501    0  0.00000000000E+00  0.00000000000E+00  0.12741674626E+04  0.12741674626E+04  0.25500000000E-02 0.  1.
         -2   -1    0    0    0  501 -0.00000000000E+00 -0.00000000000E+00 -0.14687565283E+02  0.14687565504E+02  0.25500000000E-02 0. -1.
    5000001    1    1    2    0    0  0.18967241985E+02  0.10824918936E+03  0.50441618781E+03  0.52196008832E+03  0.77000000000E+02 0.  0.
   -5000001    1    1    2    0    0 -0.18967241985E+02 -0.10824918936E+03  0.75506370946E+03  0.76689493974E+03  0.77000000000E+02 0.  0.
<mgrwt>
<rscale>  0 0.27360130E+03</rscale>
<asrwt>0</asrwt>
<pdfrwt beam="1">  1        2 0.19602581E+00 0.27360130E+03</pdfrwt>
<pdfrwt beam="2">  1       -2 0.22596249E-02 0.27360130E+03</pdfrwt>
<totfact> 0.11697132E+04</totfact>
</mgrwt>
</event>
<event>
 4    1  0.6207184E-004  0.2186000E+03  0.7818608E-02  0.1134931E+00
         -2   -1    0    0    0  501 -0.00000000000E+00  0.00000000000E+00  0.39817381920E+01  0.39817390085E+01  0.25500000000E-02 0. -1.
          2   -1    0    0  501    0  0.00000000000E+00 -0.00000000000E+00 -0.30003207453E+04  0.30003207453E+04  0.25500000000E-02 0.  1.
    5000001    1    1    2    0    0 -0.13575944844E+02 -0.74098195332E+02 -0.17525683125E+04  0.17558757185E+04  0.77000000000E+02 0.  0.
   -5000001    1    1    2    0    0  0.13575944844E+02  0.74098195332E+02 -0.12437706945E+04  0.12484267657E+04  0.77000000000E+02 0.  0.
<mgrwt>
<rscale>  0 0.21860003E+03</rscale>
<asrwt>0</asrwt>
<pdfrwt beam="1">  1        2 0.46158600E+00 0.21860003E+03</pdfrwt>
<pdfrwt beam="2">  1       -2 0.61257757E-03 0.21860003E+03</pdfrwt>
<totfact> 0.90323254E+03</totfact>
</mgrwt>
</event>
<event>
 4    1  0.6207184E-004  0.3202533E+03  0.7818608E-02  0.1075533E+00
         -2   -1    0    0    0  501 -0.00000000000E+00  0.00000000000E+00  0.12042457088E+02  0.12042457358E+02  0.25500000000E-02 0. -1.
          2   -1    0    0  501    0  0.00000000000E+00 -0.00000000000E+00 -0.21291782802E+04  0.21291782802E+04  0.25500000000E-02 0.  1.
    5000001    1    1    2    0    0  0.90975229058E+02  0.68682751222E+02 -0.16065659578E+04  0.16124444144E+04  0.77000000000E+02 0.  0.
   -5000001    1    1    2    0    0 -0.90975229058E+02 -0.68682751222E+02 -0.51056986526E+03  0.52877632315E+03  0.77000000000E+02 0.  0.
<mgrwt>
<rscale>  0 0.32025326E+03</rscale>
<asrwt>0</asrwt>
<pdfrwt beam="1">  1        2 0.32756559E+00 0.32025326E+03</pdfrwt>
<pdfrwt beam="2">  1       -2 0.18526874E-02 0.32025326E+03</pdfrwt>
<totfact> 0.54929738E+03</totfact>
</mgrwt>
</event>
<event>
 4    1  0.6207184E-004  0.2775279E+03  0.7818608E-02  0.1097047E+00
         -2   -1    0    0    0  501 -0.00000000000E+00  0.00000000000E+00  0.15845259594E+03  0.15845259596E+03  0.25500000000E-02 0. -1.
          2   -1    0    0  501    0  0.00000000000E+00 -0.00000000000E+00 -0.12152176830E+03  0.12152176832E+03  0.25500000000E-02 0.  1.
    5000001    1    1    2    0    0 -0.34080267207E+02 -0.80267228896E+02 -0.57846273707E+02  0.12992106846E+03  0.77000000000E+02 0.  0.
   -5000001    1    1    2    0    0  0.34080267207E+02  0.80267228896E+02  0.94777101351E+02  0.15005329583E+03  0.77000000000E+02 0.  0.
<mgrwt>
<rscale>  0 0.27752794E+03</rscale>
<asrwt>0</asrwt>
<pdfrwt beam="1">  1        2 0.18695657E-01 0.27752794E+03</pdfrwt>
<pdfrwt beam="2">  1       -2 0.24377322E-01 0.27752794E+03</pdfrwt>
<totfact> 0.44391574E+03</totfact>
</mgrwt>
</event>
<event>
 4    1  0.6207184E-004  0.2098856E+03  0.7818608E-02  0.1141657E+00
         -2   -1    0    0    0  501 -0.00000000000E+00  0.00000000000E+00  0.64086408808E+01  0.64086413882E+01  0.25500000000E-02 0. -1.
          2   -1    0    0  501    0  0.00000000000E+00 -0.00000000000E+00 -0.17184594403E+04  0.17184594403E+04  0.25500000000E-02 0.  1.
    5000001    1    1    2    0    0  0.70398211710E+02  0.47231695752E+01 -0.94054575868E+03  0.94632633944E+03  0.77000000000E+02 0.  0.
   -5000001    1    1    2    0    0 -0.70398211710E+02 -0.47231695752E+01 -0.77150504071E+03  0.77854174223E+03  0.77000000000E+02 0.  0.
<mgrwt>
<rscale>  0 0.20988559E+03</rscale>
<asrwt>0</asrwt>
<pdfrwt beam="1">  1        2 0.26437801E+00 0.20988559E+03</pdfrwt>
<pdfrwt beam="2">  1       -2 0.98594616E-03 0.20988559E+03</pdfrwt>
<totfact> 0.22474511E+04</totfact>
</mgrwt>
</event>
<event>
 4    1  0.6207184E-004  0.2619682E+03  0.7818608E-02  0.1105966E+00
         -2   -1    0    0    0  501 -0.00000000000E+00  0.00000000000E+00  0.88661378463E+01  0.88661382130E+01  0.25500000000E-02 0. -1.
          2   -1    0    0  501    0  0.00000000000E+00 -0.00000000000E+00 -0.19350965217E+04  0.19350965217E+04  0.25500000000E-02 0.  1.
    5000001    1    1    2    0    0 -0.44576580847E+02  0.66691867885E+02 -0.14768524774E+04  0.14810324496E+04  0.77000000000E+02 0.  0.
   -5000001    1    1    2    0    0  0.44576580847E+02 -0.66691867885E+02 -0.44937790646E+03  0.46293021031E+03  0.77000000000E+02 0.  0.
<mgrwt>
<rscale>  0 0.26196819E+03</rscale>
<asrwt>0</asrwt>
<pdfrwt beam="1">  1        2 0.29770682E+00 0.26196819E+03</pdfrwt>
<pdfrwt beam="2">  1       -2 0.13640228E-02 0.26196819E+03</pdfrwt>
<totfact> 0.10886862E+04</totfact>
</mgrwt>
</event>
<event>
 4    1  0.6207184E-004  0.2035992E+03  0.7818608E-02  0.1146737E+00
         -2   -1    0    0    0  501 -0.00000000000E+00  0.00000000000E+00  0.81314058180E+02  0.81314058220E+02  0.25500000000E-02 0. -1.
          2   -1    0    0  501    0  0.00000000000E+00 -0.00000000000E+00 -0.12744608623E+03  0.12744608626E+03  0.25500000000E-02 0.  1.
    5000001    1    1    2    0    0  0.19935412970E+02  0.62559508682E+02 -0.34439790117E+02  0.10689346079E+03  0.77000000000E+02 0.  0.
   -5000001    1    1    2    0    0 -0.19935412970E+02 -0.62559508682E+02 -0.11692237933E+02  0.10186668368E+03  0.77000000000E+02 0.  0.
<mgrwt>
<rscale>  0 0.20359920E+03</rscale>
<asrwt>0</asrwt>
<pdfrwt beam="1">  1        2 0.19607090E-01 0.20359920E+03</pdfrwt>
<pdfrwt beam="2">  1       -2 0.12509855E-01 0.20359920E+03</pdfrwt>
<totfact> 0.12701625E+04</totfact>
</mgrwt>
</event>
<event>
 4    1  0.6207184E-004  0.4047065E+03  0.7818608E-02  0.1042162E+00
         -2   -1    0    0    0  501 -0.00000000000E+00  0.00000000000E+00  0.36719157990E+02  0.36719158079E+02  0.25500000000E-02 0. -1.
          2   -1    0    0  501    0  0.00000000000E+00 -0.00000000000E+00 -0.11151353543E+04  0.11151353543E+04  0.25500000000E-02 0.  1.
    5000001    1    1    2    0    0 -0.14327788959E+03 -0.20531279314E+02 -0.87678266149E+03  0.89197921644E+03  0.77000000000E+02 0.  0.
   -5000001    1    1    2    0    0  0.14327788959E+03  0.20531279314E+02 -0.20163353481E+03  0.25987529593E+03  0.77000000000E+02 0.  0.
<mgrwt>
<rscale>  0 0.40470647E+03</rscale>
<asrwt>0</asrwt>
<pdfrwt beam="1">  1        2 0.17155926E+00 0.40470647E+03</pdfrwt>
<pdfrwt beam="2">  1       -2 0.56491021E-02 0.40470647E+03</pdfrwt>
<totfact> 0.36474356E+03</totfact>
</mgrwt>
</event>
<event>
 4    1  0.6207184E-004  0.1995612E+03  0.7818608E-02  0.1150110E+00
         -2   -1    0    0    0  501 -0.00000000000E+00  0.00000000000E+00  0.16184623262E+02  0.16184623462E+02  0.25500000000E-02 0. -1.
          2   -1    0    0  501    0  0.00000000000E+00 -0.00000000000E+00 -0.61516188377E+03  0.61516188377E+03  0.25500000000E-02 0.  1.
    5000001    1    1    2    0    0  0.31526831151E+02  0.49114698847E+02 -0.22065225927E+03  0.24087883728E+03  0.77000000000E+02 0.  0.
   -5000001    1    1    2    0    0 -0.31526831151E+02 -0.49114698847E+02 -0.37832500123E+03  0.39046766996E+03  0.77000000000E+02 0.  0.
<mgrwt>
<rscale>  0 0.19956115E+03</rscale>
<asrwt>0</asrwt>
<pdfrwt beam="1">  1        2 0.94640272E-01 0.19956115E+03</pdfrwt>
<pdfrwt beam="2">  1       -2 0.24899425E-02 0.19956115E+03</pdfrwt>
<totfact> 0.26601492E+04</totfact>
</mgrwt>
</event>
<event>
 4    1  0.6207184E-004  0.4031180E+03  0.7818608E-02  0.1042705E+00
         -2   -1    0    0    0  501 -0.00000000000E+00  0.00000000000E+00  0.25809755151E+02  0.25809755277E+02  0.25500000000E-02 0.  1.
          2   -1    0    0  501    0  0.00000000000E+00 -0.00000000000E+00 -0.15740574518E+04  0.15740574518E+04  0.25500000000E-02 0. -1.
    5000001    1    1    2    0    0 -0.12357703252E+03  0.13309576240E+03 -0.93830046649E+03  0.95881308416E+03  0.77000000000E+02 0.  0.
   -5000001    1    1    2    0    0  0.12357703252E+03 -0.13309576240E+03 -0.60994723012E+03  0.64105412289E+03  0.77000000000E+02 0.  0.
<mgrwt>
<rscale>  0 0.40311803E+03</rscale>
<asrwt>0</asrwt>
<pdfrwt beam="1">  1        2 0.24216261E+00 0.40311803E+03</pdfrwt>
<pdfrwt beam="2">  1       -2 0.39707328E-02 0.40311803E+03</pdfrwt>
<totfact> 0.34618614E+03</totfact>
</mgrwt>
</event>
<event>
 4    1  0.6207184E-004  0.2420450E+03  0.7818608E-02  0.1118438E+00
          2   -1    0    0  501    0  0.00000000000E+00  0.00000000000E+00  0.26403987220E+04  0.26403987220E+04  0.25500000000E-02 0.  1.
         -2   -1    0    0    0  501 -0.00000000000E+00 -0.00000000000E+00 -0.55470581880E+01  0.55470587741E+01  0.25500000000E-02 0. -1.
    5000001    1    1    2    0    0 -0.39300820353E+01  0.90801138012E+02  0.15511566822E+04  0.15557237367E+04  0.77000000000E+02 0.  0.
   -5000001    1    1    2    0    0  0.39300820353E+01 -0.90801138012E+02  0.10836949816E+04  0.10902220440E+04  0.77000000000E+02 0.  0.
<mgrwt>
<rscale>  0 0.24204501E+03</rscale>
<asrwt>0</asrwt>
<pdfrwt beam="1">  1        2 0.40621475E+00 0.24204501E+03</pdfrwt>
<pdfrwt beam="2">  1       -2 0.85339454E-03 0.24204501E+03</pdfrwt>
<totfact> 0.89968717E+03</totfact>
</mgrwt>
</event>
<event>
 4    1  0.6207184E-004  0.1980878E+03  0.7818608E-02  0.1151362E+00
         -2   -1    0    0    0  501 -0.00000000000E+00  0.00000000000E+00  0.71558073747E+01  0.71558078290E+01  0.25500000000E-02 0. -1.
          2   -1    0    0  501    0  0.00000000000E+00 -0.00000000000E+00 -0.13708712811E+04  0.13708712811E+04  0.25500000000E-02 0.  1.
    5000001    1    1    2    0    0 -0.12427123727E+02 -0.47713073383E+02 -0.41698197931E+03  0.42688867617E+03  0.77000000000E+02 0.  0.
   -5000001    1    1    2    0    0  0.12427123727E+02  0.47713073383E+02 -0.94673349441E+03  0.95113841276E+03  0.77000000000E+02 0.  0.
<mgrwt>
<rscale>  0 0.19808777E+03</rscale>
<asrwt>0</asrwt>
<pdfrwt beam="1">  1        2 0.21090307E+00 0.19808777E+03</pdfrwt>
<pdfrwt beam="2">  1       -2 0.11008946E-02 0.19808777E+03</pdfrwt>
<totfact> 0.29160342E+04</totfact>
</mgrwt>
</event>
<event>
 4    1  0.6207184E-004  0.2979786E+03  0.7818608E-02  0.1086255E+00
          2   -1    0    0  501    0  0.00000000000E+00  0.00000000000E+00  0.25137137910E+04  0.25137137910E+04  0.25500000000E-02 0.  1.
         -2   -1    0    0    0  501 -0.00000000000E+00 -0.00000000000E+00 -0.88306818344E+01  0.88306822026E+01  0.25500000000E-02 0. -1.
    5000001    1    1    2    0    0  0.32013618868E+02  0.10411675844E+03  0.69067030988E+03  0.70343418180E+03  0.77000000000E+02 0.  0.
   -5000001    1    1    2    0    0 -0.32013618868E+02 -0.10411675844E+03  0.18142127993E+04  0.18191102914E+04  0.77000000000E+02 0.  0.
<mgrwt>
<rscale>  0 0.29797857E+03</rscale>
<asrwt>0</asrwt>
<pdfrwt beam="1">  1        2 0.38672571E+00 0.29797857E+03</pdfrwt>
<pdfrwt beam="2">  1       -2 0.13585647E-02 0.29797857E+03</pdfrwt>
<totfact> 0.53731436E+03</totfact>
</mgrwt>
</event>
<event>
 4    1  0.6207184E-004  0.2065005E+03  0.7818608E-02  0.1144368E+00
          2   -1    0    0  501    0  0.00000000000E+00  0.00000000000E+00  0.95738032949E+03  0.95738032949E+03  0.25500000000E-02 0.  1.
         -2   -1    0    0    0  501 -0.00000000000E+00 -0.00000000000E+00 -0.11135191377E+02  0.11135191669E+02  0.25500000000E-02 0. -1.
    5000001    1    1    2    0    0 -0.53583605810E+02  0.22399870745E+02  0.30024434245E+03  0.31535475610E+03  0.77000000000E+02 0.  0.
   -5000001    1    1    2    0    0  0.53583605810E+02 -0.22399870745E+02  0.64600079566E+03  0.65316076506E+03  0.77000000000E+02 0.  0.
<mgrwt>
<rscale>  0 0.20650049E+03</rscale>
<asrwt>0</asrwt>
<pdfrwt beam="1">  1        2 0.14728927E+00 0.20650049E+03</pdfrwt>
<pdfrwt beam="2">  1       -2 0.17131065E-02 0.20650049E+03</pdfrwt>
<totfact> 0.26538496E+04</totfact>
</mgrwt>
</event>
<event>
 4    1  0.6207184E-004  0.2243661E+03  0.7818608E-02  0.1130669E+00
          2   -1    0    0  501    0  0.00000000000E+00  0.00000000000E+00  0.16024496065E+04  0.16024496065E+04  0.25500000000E-02 0.  1.
         -2   -1    0    0    0  501 -0.00000000000E+00 -0.00000000000E+00 -0.78536255604E+01  0.78536259744E+01  0.25500000000E-02 0. -1.
    5000001    1    1    2    0    0  0.80988258274E+02 -0.67532984021E+01  0.84872071365E+03  0.85607275088E+03  0.77000000000E+02 0.  0.
   -5000001    1    1    2    0    0 -0.80988258274E+02  0.67532984021E+01  0.74587526729E+03  0.75423048160E+03  0.77000000000E+02 0.  0.
<mgrwt>
<rscale>  0 0.22436613E+03</rscale>
<asrwt>0</asrwt>
<pdfrwt beam="1">  1        2 0.24653069E+00 0.22436613E+03</pdfrwt>
<pdfrwt beam="2">  1       -2 0.12082502E-02 0.22436613E+03</pdfrwt>
<totfact> 0.19312747E+04</totfact>
</mgrwt>
</event>
<event>
 4    1  0.6207184E-004  0.5290901E+03  0.7818608E-02  0.1006453E+00
          2   -1    0    0  501    0  0.00000000000E+00  0.00000000000E+00  0.19095354304E+04  0.19095354304E+04  0.25500000000E-02 0.  1.
         -2   -1    0    0    0  501 -0.00000000000E+00 -0.00000000000E+00 -0.36649794234E+02  0.36649794323E+02  0.25500000000E-02 0. -1.
    5000001    1    1    2    0    0  0.66297347205E+02  0.17470315854E+03  0.15643399568E+04  0.15773411274E+04  0.77000000000E+02 0.  0.
   -5000001    1    1    2    0    0 -0.66297347205E+02 -0.17470315854E+03  0.30854567935E+03  0.36884409728E+03  0.77000000000E+02 0.  0.
<mgrwt>
<rscale>  0 0.52909009E+03</rscale>
<asrwt>0</asrwt>
<pdfrwt beam="1">  1        2 0.29377473E+00 0.52909009E+03</pdfrwt>
<pdfrwt beam="2">  1       -2 0.56384290E-02 0.52909009E+03</pdfrwt>
<totfact> 0.13260987E+03</totfact>
</mgrwt>
</event>
<event>
 4    1  0.6207184E-004  0.4990410E+03  0.7818608E-02  0.1014030E+00
         -2   -1    0    0    0  501 -0.00000000000E+00  0.00000000000E+00  0.14748747263E+03  0.14748747265E+03  0.25500000000E-02 0. -1.
          2   -1    0    0  501    0  0.00000000000E+00 -0.00000000000E+00 -0.42214080608E+03  0.42214080609E+03  0.25500000000E-02 0.  1.
    5000001    1    1    2    0    0  0.55650346617E+02  0.18405723180E+03  0.21483916187E+02  0.20824164884E+03  0.77000000000E+02 0.  0.
   -5000001    1    1    2    0    0 -0.55650346617E+02 -0.18405723180E+03 -0.29613724963E+03  0.36138662991E+03  0.77000000000E+02 0.  0.
<mgrwt>
<rscale>  0 0.49904100E+03</rscale>
<asrwt>0</asrwt>
<pdfrwt beam="1">  1        2 0.64944739E-01 0.49904100E+03</pdfrwt>
<pdfrwt beam="2">  1       -2 0.22690381E-01 0.49904100E+03</pdfrwt>
<totfact> 0.12761559E+03</totfact>
</mgrwt>
</event>
<event>
 4    1  0.6207184E-004  0.1807663E+03  0.7818608E-02  0.1167063E+00
         -2   -1    0    0    0  501 -0.00000000000E+00  0.00000000000E+00  0.57729586214E+01  0.57729591846E+01  0.25500000000E-02 0. -1.
          2   -1    0    0  501    0  0.00000000000E+00 -0.00000000000E+00 -0.14150655964E+04  0.14150655964E+04  0.25500000000E-02 0.  1.
    5000001    1    1    2    0    0 -0.44433124080E+02  0.16042136329E+02 -0.72751211787E+03  0.73309926633E+03  0.77000000000E+02 0.  0.
   -5000001    1    1    2    0    0  0.44433124080E+02 -0.16042136329E+02 -0.68178051990E+03  0.68773928925E+03  0.77000000000E+02 0.  0.
<mgrwt>
<rscale>  0 0.18076632E+03</rscale>
<asrwt>0</asrwt>
<pdfrwt beam="1">  1        2 0.21770212E+00 0.18076632E+03</pdfrwt>
<pdfrwt beam="2">  1       -2 0.88814865E-03 0.18076632E+03</pdfrwt>
<totfact> 0.37402493E+04</totfact>
</mgrwt>
</event>
<event>
 4    1  0.6207184E-004  0.3966140E+03  0.7818608E-02  0.1044958E+00
          2   -1    0    0  501    0  0.00000000000E+00  0.00000000000E+00  0.10078567901E+03  0.10078567905E+03  0.25500000000E-02 0.  1.
         -2   -1    0    0    0  501 -0.00000000000E+00 -0.00000000000E+00 -0.39019099607E+03  0.39019099608E+03  0.25500000000E-02 0. -1.
    5000001    1    1    2    0    0 -0.16824957937E+03 -0.79359670600E+01 -0.23246210474E+03  0.29721798511E+03  0.77000000000E+02 0.  0.
   -5000001    1    1    2    0    0  0.16824957937E+03  0.79359670600E+01 -0.56943212316E+02  0.19375869002E+03  0.77000000000E+02 0.  0.
<mgrwt>
<rscale>  0 0.39661399E+03</rscale>
<asrwt>0</asrwt>
<pdfrwt beam="1">  1        2 0.15505489E-01 0.39661399E+03</pdfrwt>
<pdfrwt beam="2">  1       -2 0.60029383E-01 0.39661399E+03</pdfrwt>
<totfact> 0.99639046E+02</totfact>
</mgrwt>
</event>
<event>
 4    1  0.6207184E-004  0.2173776E+03  0.7818608E-02  0.1135853E+00
         -2   -1    0    0    0  501 -0.00000000000E+00  0.00000000000E+00  0.13279707728E+02  0.13279707973E+02  0.25500000000E-02 0. -1.
          2   -1    0    0  501    0  0.00000000000E+00 -0.00000000000E+00 -0.88957152374E+03  0.88957152374E+03  0.25500000000E-02 0.  1.
    5000001    1    1    2    0    0 -0.66185495305E+02  0.38031011082E+02 -0.46960548300E+03  0.48195973614E+03  0.77000000000E+02 0.  0.
   -5000001    1    1    2    0    0  0.66185495305E+02 -0.38031011082E+02 -0.40668633301E+03  0.42089149557E+03  0.77000000000E+02 0.  0.
<mgrwt>
<rscale>  0 0.21737755E+03</rscale>
<asrwt>0</asrwt>
<pdfrwt beam="1">  1        2 0.13685711E+00 0.21737755E+03</pdfrwt>
<pdfrwt beam="2">  1       -2 0.20430327E-02 0.21737755E+03</pdfrwt>
<totfact> 0.22714858E+04</totfact>
</mgrwt>
</event>
<event>
 4    1  0.6207184E-004  0.2034323E+03  0.7818608E-02  0.1146875E+00
         -2   -1    0    0    0  501 -0.00000000000E+00  0.00000000000E+00  0.96179537907E+01  0.96179541288E+01  0.25500000000E-02 0. -1.
          2   -1    0    0  501    0  0.00000000000E+00 -0.00000000000E+00 -0.10757142486E+04  0.10757142486E+04  0.25500000000E-02 0.  1.
    5000001    1    1    2    0    0  0.10279049192E+02 -0.64472838547E+02 -0.59941914739E+03  0.60786077355E+03  0.77000000000E+02 0.  0.
   -5000001    1    1    2    0    0 -0.10279049192E+02  0.64472838547E+02 -0.46667714745E+03  0.47747142922E+03  0.77000000000E+02 0.  0.
<mgrwt>
<rscale>  0 0.20343225E+03</rscale>
<asrwt>0</asrwt>
<pdfrwt beam="1">  1        2 0.16549440E+00 0.20343225E+03</pdfrwt>
<pdfrwt beam="2">  1       -2 0.14796861E-02 0.20343225E+03</pdfrwt>
<totfact> 0.27845823E+04</totfact>
</mgrwt>
</event>
<event>
 4    1  0.6207184E-004  0.3228169E+03  0.7818608E-02  0.1074360E+00
          2   -1    0    0  501    0  0.00000000000E+00  0.00000000000E+00  0.42498818956E+03  0.42498818956E+03  0.25500000000E-02 0.  1.
         -2   -1    0    0    0  501 -0.00000000000E+00 -0.00000000000E+00 -0.61302132029E+02  0.61302132082E+02  0.25500000000E-02 0. -1.
    5000001    1    1    2    0    0  0.49056886395E+02  0.91948924599E+02  0.32682149600E+03  0.35157143383E+03  0.77000000000E+02 0.  0.
   -5000001    1    1    2    0    0 -0.49056886395E+02 -0.91948924599E+02  0.36864561527E+02  0.13471888782E+03  0.77000000000E+02 0.  0.
<mgrwt>
<rscale>  0 0.32281687E+03</rscale>
<asrwt>0</asrwt>
<pdfrwt beam="1">  1        2 0.65382799E-01 0.32281687E+03</pdfrwt>
<pdfrwt beam="2">  1       -2 0.94310972E-02 0.32281687E+03</pdfrwt>
<totfact> 0.54461312E+03</totfact>
</mgrwt>
</event>
<event>
 4    1  0.6207184E-004  0.1885422E+03  0.7818608E-02  0.1159783E+00
          2   -1    0    0  501    0  0.00000000000E+00  0.00000000000E+00  0.41382569355E+02  0.41382569433E+02  0.25500000000E-02 0.  1.
         -2   -1    0    0    0  501 -0.00000000000E+00 -0.00000000000E+00 -0.21475321820E+03  0.21475321822E+03  0.25500000000E-02 0. -1.
    5000001    1    1    2    0    0  0.18870019521E+02 -0.44548545572E+02 -0.52930077564E+02  0.10521997748E+03  0.77000000000E+02 0.  0.
   -5000001    1    1    2    0    0 -0.18870019521E+02  0.44548545572E+02 -0.12044057128E+03  0.15091581017E+03  0.77000000000E+02 0.  0.
<mgrwt>
<rscale>  0 0.18854220E+03</rscale>
<asrwt>0</asrwt>
<pdfrwt beam="1">  1        2 0.63665493E-02 0.18854220E+03</pdfrwt>
<pdfrwt beam="2">  1       -2 0.33038956E-01 0.18854220E+03</pdfrwt>
<totfact> 0.94373539E+03</totfact>
</mgrwt>
</event>
<event>
 4    1  0.6207184E-004  0.2563561E+03  0.7818608E-02  0.1109353E+00
          2   -1    0    0  501    0  0.00000000000E+00  0.00000000000E+00  0.93630717397E+03  0.93630717397E+03  0.25500000000E-02 0.  1.
         -2   -1    0    0    0  501 -0.00000000000E+00 -0.00000000000E+00 -0.17547249558E+02  0.17547249744E+02  0.25500000000E-02 0. -1.
    5000001    1    1    2    0    0 -0.81897937826E+02 -0.61399623069E+02  0.47739033517E+03  0.49427494176E+03  0.77000000000E+02 0.  0.
   -5000001    1    1    2    0    0  0.81897937826E+02  0.61399623069E+02  0.44136958924E+03  0.45957948196E+03  0.77000000000E+02 0.  0.
<mgrwt>
<rscale>  0 0.25635613E+03</rscale>
<asrwt>0</asrwt>
<pdfrwt beam="1">  1        2 0.14404727E+00 0.25635613E+03</pdfrwt>
<pdfrwt beam="2">  1       -2 0.26995766E-02 0.25635613E+03</pdfrwt>
<totfact> 0.14181196E+04</totfact>
</mgrwt>
</event>
<event>
 4    1  0.6207184E-004  0.2772991E+03  0.7818608E-02  0.1097173E+00
         -2   -1    0    0    0  501 -0.00000000000E+00  0.00000000000E+00  0.14808078864E+02  0.14808079084E+02  0.25500000000E-02 0. -1.
          2   -1    0    0  501    0  0.00000000000E+00 -0.00000000000E+00 -0.12981897704E+04  0.12981897704E+04  0.25500000000E-02 0.  1.
    5000001    1    1    2    0    0  0.70932308413E+02  0.84947044434E+02 -0.48845797797E+03  0.50672239834E+03  0.77000000000E+02 0.  0.
   -5000001    1    1    2    0    0 -0.70932308413E+02 -0.84947044434E+02 -0.79492371355E+03  0.80627545114E+03  0.77000000000E+02 0.  0.
<mgrwt>
<rscale>  0 0.27729909E+03</rscale>
<asrwt>0</asrwt>
<pdfrwt beam="1">  1        2 0.19972141E+00 0.27729909E+03</pdfrwt>
<pdfrwt beam="2">  1       -2 0.22781670E-02 0.27729909E+03</pdfrwt>
<totfact> 0.11210966E+04</totfact>
</mgrwt>
</event>
<event>
 4    1  0.6207184E-004  0.2835215E+03  0.7818608E-02  0.1093781E+00
          2   -1    0    0  501    0  0.00000000000E+00  0.00000000000E+00  0.34879804228E+03  0.34879804229E+03  0.25500000000E-02 0.  1.
         -2   -1    0    0    0  501 -0.00000000000E+00 -0.00000000000E+00 -0.57615333237E+02  0.57615333293E+02  0.25500000000E-02 0. -1.
    5000001    1    1    2    0    0  0.59777637875E+02 -0.19846554712E+02  0.29036153748E+03  0.30693008026E+03  0.77000000000E+02 0.  0.
   -5000001    1    1    2    0    0 -0.59777637875E+02  0.19846554712E+02  0.82117156034E+00  0.99483295314E+02  0.77000000000E+02 0.  0.
<mgrwt>
<rscale>  0 0.28352154E+03</rscale>
<asrwt>0</asrwt>
<pdfrwt beam="1">  1        2 0.53661238E-01 0.28352154E+03</pdfrwt>
<pdfrwt beam="2">  1       -2 0.88638972E-02 0.28352154E+03</pdfrwt>
<totfact> 0.74199710E+03</totfact>
</mgrwt>
</event>
<event>
 4    1  0.6207184E-004  0.2442184E+03  0.7818608E-02  0.1117014E+00
         -2   -1    0    0    0  501 -0.00000000000E+00  0.00000000000E+00  0.97180079263E+01  0.97180082608E+01  0.25500000000E-02 0. -1.
          2   -1    0    0  501    0  0.00000000000E+00 -0.00000000000E+00 -0.15343322156E+04  0.15343322156E+04  0.25500000000E-02 0.  1.
    5000001    1    1    2    0    0 -0.17083763018E+02 -0.92783185200E+02 -0.70537779778E+03  0.71581241399E+03  0.77000000000E+02 0.  0.
   -5000001    1    1    2    0    0  0.17083763018E+02  0.92783185200E+02 -0.81923640987E+03  0.82823780986E+03  0.77000000000E+02 0.  0.
<mgrwt>
<rscale>  0 0.24421837E+03</rscale>
<asrwt>0</asrwt>
<pdfrwt beam="1">  1        2 0.23605092E+00 0.24421837E+03</pdfrwt>
<pdfrwt beam="2">  1       -2 0.14950794E-02 0.24421837E+03</pdfrwt>
<totfact> 0.15439354E+04</totfact>
</mgrwt>
</event>
<event>
 4    1  0.6207184E-004  0.2350648E+03  0.7818608E-02  0.1123125E+00
          2   -1    0    0  501    0  0.00000000000E+00  0.00000000000E+00  0.11989481504E+04  0.11989481504E+04  0.25500000000E-02 0.  1.
         -2   -1    0    0    0  501 -0.00000000000E+00 -0.00000000000E+00 -0.11521648739E+02  0.11521649021E+02  0.25500000000E-02 0. -1.
    5000001    1    1    2    0    0  0.38510250380E+02 -0.24150959222E+02  0.98651542354E+03  0.99055943239E+03  0.77000000000E+02 0.  0.
   -5000001    1    1    2    0    0 -0.38510250380E+02  0.24150959222E+02  0.20091107809E+03  0.21991036700E+03  0.77000000000E+02 0.  0.
<mgrwt>
<rscale>  0 0.23506475E+03</rscale>
<asrwt>0</asrwt>
<pdfrwt beam="1">  1        2 0.18445354E+00 0.23506475E+03</pdfrwt>
<pdfrwt beam="2">  1       -2 0.17725616E-02 0.23506475E+03</pdfrwt>
<totfact> 0.18317194E+04</totfact>
</mgrwt>
</event>
<event>
 4    1  0.6207184E-004  0.5329678E+03  0.7818608E-02  0.1005515E+00
          2   -1    0    0  501    0  0.00000000000E+00  0.00000000000E+00  0.24642954586E+03  0.24642954587E+03  0.25500000000E-02 0.  1.
         -2   -1    0    0    0  501 -0.00000000000E+00 -0.00000000000E+00 -0.28817032049E+03  0.28817032051E+03  0.25500000000E-02 0. -1.
    5000001    1    1    2    0    0 -0.11834435798E+03 -0.21198474332E+03  0.57738989808E+02  0.26116222815E+03  0.77000000000E+02 0.  0.
   -5000001    1    1    2    0    0  0.11834435798E+03  0.21198474332E+03 -0.99479764442E+02  0.27343763823E+03  0.77000000000E+02 0.  0.
<mgrwt>
<rscale>  0 0.53296785E+03</rscale>
<asrwt>0</asrwt>
<pdfrwt beam="1">  1        2 0.37912238E-01 0.53296785E+03</pdfrwt>
<pdfrwt beam="2">  1       -2 0.44333896E-01 0.53296785E+03</pdfrwt>
<totfact> 0.66386109E+02</totfact>
</mgrwt>
</event>
<event>
 4    1  0.6207184E-004  0.2170195E+03  0.7818608E-02  0.1136125E+00
         -2   -1    0    0    0  501 -0.00000000000E+00  0.00000000000E+00  0.39784581656E+01  0.39784589828E+01  0.25500000000E-02 0. -1.
          2   -1    0    0  501    0  0.00000000000E+00 -0.00000000000E+00 -0.29595305402E+04  0.29595305402E+04  0.25500000000E-02 0.  1.
    5000001    1    1    2    0    0  0.46272598134E+02  0.50977506563E+02 -0.19318104712E+04  0.19345698633E+04  0.77000000000E+02 0.  0.
   -5000001    1    1    2    0    0 -0.46272598134E+02 -0.50977506563E+02 -0.10237416109E+04  0.10289391359E+04  0.77000000000E+02 0.  0.
<mgrwt>
<rscale>  0 0.21701954E+03</rscale>
<asrwt>0</asrwt>
<pdfrwt beam="1">  1        2 0.45531063E+00 0.21701954E+03</pdfrwt>
<pdfrwt beam="2">  1       -2 0.61207292E-03 0.21701954E+03</pdfrwt>
<totfact> 0.95546951E+03</totfact>
</mgrwt>
</event>
<event>
 4    1  0.6207184E-004  0.1727678E+03  0.7818608E-02  0.1174992E+00
          2   -1    0    0  501    0  0.00000000000E+00  0.00000000000E+00  0.25829347806E+03  0.25829347807E+03  0.25500000000E-02 0.  1.
         -2   -1    0    0    0  501 -0.00000000000E+00 -0.00000000000E+00 -0.28890292293E+02  0.28890292406E+02  0.25500000000E-02 0. -1.
    5000001    1    1    2    0    0 -0.29196142330E+02 -0.22498508902E+02  0.13666451181E+03  0.16113592529E+03  0.77000000000E+02 0.  0.
   -5000001    1    1    2    0    0  0.29196142330E+02  0.22498508902E+02  0.92738673954E+02  0.12604784519E+03  0.77000000000E+02 0.  0.
<mgrwt>
<rscale>  0 0.17276775E+03</rscale>
<asrwt>0</asrwt>
<pdfrwt beam="1">  1        2 0.39737458E-01 0.17276775E+03</pdfrwt>
<pdfrwt beam="2">  1       -2 0.44446603E-02 0.17276775E+03</pdfrwt>
<totfact> 0.28638234E+04</totfact>
</mgrwt>
</event>
<event>
 4    1  0.6207184E-004  0.3014028E+03  0.7818608E-02  0.1084541E+00
         -2   -1    0    0    0  501 -0.00000000000E+00  0.00000000000E+00  0.49663778285E+02  0.49663778351E+02  0.25500000000E-02 0. -1.
          2   -1    0    0  501    0  0.00000000000E+00 -0.00000000000E+00 -0.45729313274E+03  0.45729313275E+03  0.25500000000E-02 0.  1.
    5000001    1    1    2    0    0  0.99792514213E+02 -0.60139552022E+02 -0.29906046218E+03  0.33006282985E+03  0.77000000000E+02 0.  0.
   -5000001    1    1    2    0    0 -0.99792514213E+02  0.60139552022E+02 -0.10856889228E+03  0.17689408125E+03  0.77000000000E+02 0.  0.
<mgrwt>
<rscale>  0 0.30140275E+03</rscale>
<asrwt>0</asrwt>
<pdfrwt beam="1">  1        2 0.70352787E-01 0.30140275E+03</pdfrwt>
<pdfrwt beam="2">  1       -2 0.76405816E-02 0.30140275E+03</pdfrwt>
<totfact> 0.69834459E+03</totfact>
</mgrwt>
</event>
<event>
 4    1  0.6207184E-004  0.1736619E+03  0.7818608E-02  0.1174082E+00
          2   -1    0    0  501    0  0.00000000000E+00  0.00000000000E+00  0.26934837280E+02  0.26934837400E+02  0.25500000000E-02 0.  1.
         -2   -1    0    0    0  501 -0.00000000000E+00 -0.00000000000E+00 -0.27992067955E+03  0.27992067956E+03  0.25500000000E-02 0. -1.
    5000001    1    1    2    0    0  0.38859577930E+02  0.99310419946E+01 -0.12404097795E+03  0.15140626342E+03  0.77000000000E+02 0.  0.
   -5000001    1    1    2    0    0 -0.38859577930E+02 -0.99310419946E+01 -0.12894486432E+03  0.15544925354E+03  0.77000000000E+02 0.  0.
<mgrwt>
<rscale>  0 0.17366195E+03</rscale>
<asrwt>0</asrwt>
<pdfrwt beam="1">  1        2 0.41438213E-02 0.17366195E+03</pdfrwt>
<pdfrwt beam="2">  1       -2 0.43064718E-01 0.17366195E+03</pdfrwt>
<totfact> 0.10000547E+04</totfact>
</mgrwt>
</event>
<event>
 4    1  0.6207184E-004  0.2174994E+03  0.7818608E-02  0.1135761E+00
         -2   -1    0    0    0  501 -0.00000000000E+00  0.00000000000E+00  0.16333342027E+02  0.16333342226E+02  0.25500000000E-02 0. -1.
          2   -1    0    0  501    0  0.00000000000E+00 -0.00000000000E+00 -0.72407059831E+03  0.72407059831E+03  0.25500000000E-02 0.  1.
    5000001    1    1    2    0    0 -0.13729221033E+02  0.63952956708E+02 -0.21689500906E+03  0.23927163881E+03  0.77000000000E+02 0.  0.
   -5000001    1    1    2    0    0  0.13729221033E+02 -0.63952956708E+02 -0.49084224722E+03  0.50113230173E+03  0.77000000000E+02 0.  0.
<mgrwt>
<rscale>  0 0.21749936E+03</rscale>
<asrwt>0</asrwt>
<pdfrwt beam="1">  1        2 0.11139545E+00 0.21749936E+03</pdfrwt>
<pdfrwt beam="2">  1       -2 0.25128224E-02 0.21749936E+03</pdfrwt>
<totfact> 0.21752328E+04</totfact>
</mgrwt>
</event>
<event>
 4    1  0.6207184E-004  0.3170637E+03  0.7818608E-02  0.1077009E+00
         -2   -1    0    0    0  501 -0.00000000000E+00  0.00000000000E+00  0.11509524230E+03  0.11509524233E+03  0.25500000000E-02 0. -1.
          2   -1    0    0  501    0  0.00000000000E+00 -0.00000000000E+00 -0.21836136963E+03  0.21836136965E+03  0.25500000000E-02 0.  1.
    5000001    1    1    2    0    0  0.37455278803E+02  0.11165243423E+03  0.25178572990E+02  0.14294098264E+03  0.77000000000E+02 0.  0.
   -5000001    1    1    2    0    0 -0.37455278803E+02 -0.11165243423E+03 -0.12844470032E+03  0.19051562934E+03  0.77000000000E+02 0.  0.
<mgrwt>
<rscale>  0 0.31706375E+03</rscale>
<asrwt>0</asrwt>
<pdfrwt beam="1">  1        2 0.33594057E-01 0.31706375E+03</pdfrwt>
<pdfrwt beam="2">  1       -2 0.17706960E-01 0.31706375E+03</pdfrwt>
<totfact> 0.40070696E+03</totfact>
</mgrwt>
</event>
<event>
 4    1  0.6207184E-004  0.2801301E+03  0.7818608E-02  0.1095618E+00
         -2   -1    0    0    0  501 -0.00000000000E+00  0.00000000000E+00  0.26358297146E+02  0.26358297269E+02  0.25500000000E-02 0. -1.
          2   -1    0    0  501    0  0.00000000000E+00 -0.00000000000E+00 -0.74428996138E+03  0.74428996139E+03  0.25500000000E-02 0.  1.
    5000001    1    1    2    0    0 -0.11036156735E+03 -0.38852602113E+02 -0.35862029497E+03  0.38500222883E+03  0.77000000000E+02 0.  0.
   -5000001    1    1    2    0    0  0.11036156735E+03  0.38852602113E+02 -0.35931136927E+03  0.38564602983E+03  0.77000000000E+02 0.  0.
<mgrwt>
<rscale>  0 0.28013008E+03</rscale>
<asrwt>0</asrwt>
<pdfrwt beam="1">  1        2 0.11450613E+00 0.28013008E+03</pdfrwt>
<pdfrwt beam="2">  1       -2 0.40551232E-02 0.28013008E+03</pdfrwt>
<totfact> 0.10435854E+04</totfact>
</mgrwt>
</event>
<event>
 4    1  0.6207184E-004  0.1982460E+03  0.7818608E-02  0.1151227E+00
         -2   -1    0    0    0  501 -0.00000000000E+00  0.00000000000E+00  0.32115839814E+03  0.32115839815E+03  0.25500000000E-02 0. -1.
          2   -1    0    0  501    0  0.00000000000E+00 -0.00000000000E+00 -0.30593545028E+02  0.30593545135E+02  0.25500000000E-02 0.  1.
    5000001    1    1    2    0    0 -0.58152979749E+02 -0.80079012846E+01  0.18294144109E+03  0.20698421776E+03  0.77000000000E+02 0.  0.
   -5000001    1    1    2    0    0  0.58152979749E+02  0.80079012846E+01  0.10762341203E+03  0.14476772552E+03  0.77000000000E+02 0.  0.
<mgrwt>
<rscale>  0 0.19824605E+03</rscale>
<asrwt>0</asrwt>
<pdfrwt beam="1">  1        2 0.47066991E-02 0.19824605E+03</pdfrwt>
<pdfrwt beam="2">  1       -2 0.49408986E-01 0.19824605E+03</pdfrwt>
<totfact> 0.65220133E+03</totfact>
</mgrwt>
</event>
<event>
 4    1  0.6207184E-004  0.5620872E+03  0.7818608E-02  0.9987343E-01
          2   -1    0    0  501    0  0.00000000000E+00  0.00000000000E+00  0.15455679048E+03  0.15455679050E+03  0.25500000000E-02 0.  1.
         -2   -1    0    0    0  501 -0.00000000000E+00 -0.00000000000E+00 -0.51104528360E+03  0.51104528361E+03  0.25500000000E-02 0. -1.
    5000001    1    1    2    0    0  0.92096612140E+02 -0.11985553518E+03  0.87096152512E+02  0.19068789962E+03  0.77000000000E+02 0.  0.
   -5000001    1    1    2    0    0 -0.92096612140E+02  0.11985553518E+03 -0.44358464564E+03  0.47491417448E+03  0.77000000000E+02 0.  0.
<mgrwt>
<rscale>  0 0.56208725E+03</rscale>
<asrwt>0</asrwt>
<pdfrwt beam="1">  1        2 0.23777968E-01 0.56208725E+03</pdfrwt>
<pdfrwt beam="2">  1       -2 0.78622350E-01 0.56208725E+03</pdfrwt>
<totfact> 0.33731682E+02</totfact>
</mgrwt>
</event>
<event>
 4    1  0.6207184E-004  0.2823467E+03  0.7818608E-02  0.1094414E+00
          2   -1    0    0  501    0  0.00000000000E+00  0.00000000000E+00  0.47125918802E+03  0.47125918803E+03  0.25500000000E-02 0.  1.
         -2   -1    0    0    0  501 -0.00000000000E+00 -0.00000000000E+00 -0.42290758996E+02  0.42290759073E+02  0.25500000000E-02 0. -1.
    5000001    1    1    2    0    0  0.18147997886E+02 -0.85599884435E+02  0.69610661423E+02  0.13576205002E+03  0.77000000000E+02 0.  0.
   -5000001    1    1    2    0    0 -0.18147997886E+02  0.85599884435E+02  0.35935776760E+03  0.37778789708E+03  0.77000000000E+02 0.  0.
<mgrwt>
<rscale>  0 0.28234666E+03</rscale>
<asrwt>0</asrwt>
<pdfrwt beam="1">  1        2 0.72501413E-01 0.28234666E+03</pdfrwt>
<pdfrwt beam="2">  1       -2 0.65062707E-02 0.28234666E+03</pdfrwt>
<totfact> 0.86491741E+03</totfact>
</mgrwt>
</event>
<event>
 4    1  0.6207184E-004  0.1896928E+03  0.7818608E-02  0.1158739E+00
         -2   -1    0    0    0  501 -0.00000000000E+00  0.00000000000E+00  0.76176308642E+01  0.76176312910E+01  0.25500000000E-02 0. -1.
          2   -1    0    0  501    0  0.00000000000E+00 -0.00000000000E+00 -0.11809240579E+04  0.11809240579E+04  0.25500000000E-02 0.  1.
    5000001    1    1    2    0    0  0.54463808482E+01  0.38742063096E+02 -0.34107374407E+03  0.35183932328E+03  0.77000000000E+02 0.  0.
   -5000001    1    1    2    0    0 -0.54463808482E+01 -0.38742063096E+02 -0.83223268299E+03  0.83670236593E+03  0.77000000000E+02 0.  0.
<mgrwt>
<rscale>  0 0.18969284E+03</rscale>
<asrwt>0</asrwt>
<pdfrwt beam="1">  1        2 0.18168048E+00 0.18969284E+03</pdfrwt>
<pdfrwt beam="2">  1       -2 0.11719442E-02 0.18969284E+03</pdfrwt>
<totfact> 0.33804405E+04</totfact>
</mgrwt>
</event>
<event>
 4    1  0.6207184E-004  0.2860941E+03  0.7818608E-02  0.1092406E+00
          2   -1    0    0  501    0  0.00000000000E+00  0.00000000000E+00  0.82434128486E+03  0.82434128487E+03  0.25500000000E-02 0.  1.
         -2   -1    0    0    0  501 -0.00000000000E+00 -0.00000000000E+00 -0.24822792395E+02  0.24822792526E+02  0.25500000000E-02 0. -1.
    5000001    1    1    2    0    0 -0.65467345341E+02 -0.30990192429E+02  0.11372203279E+03  0.15526772387E+03  0.77000000000E+02 0.  0.
   -5000001    1    1    2    0    0  0.65467345341E+02  0.30990192429E+02  0.68579645967E+03  0.69389635352E+03  0.77000000000E+02 0.  0.
<mgrwt>
<rscale>  0 0.28609406E+03</rscale>
<asrwt>0</asrwt>
<pdfrwt beam="1">  1        2 0.12682175E+00 0.28609406E+03</pdfrwt>
<pdfrwt beam="2">  1       -2 0.38188908E-02 0.28609406E+03</pdfrwt>
<totfact> 0.10044711E+04</totfact>
</mgrwt>
</event>
<event>
 4    1  0.6207184E-004  0.2176202E+03  0.7818608E-02  0.1135670E+00
          2   -1    0    0  501    0  0.00000000000E+00  0.00000000000E+00  0.52550117016E+03  0.52550117016E+03  0.25500000000E-02 0.  1.
         -2   -1    0    0    0  501 -0.00000000000E+00 -0.00000000000E+00 -0.22530185042E+02  0.22530185186E+02  0.25500000000E-02 0. -1.
    5000001    1    1    2    0    0 -0.50588737306E+02 -0.33049854321E+02  0.13179039584E+03  0.16416218094E+03  0.77000000000E+02 0.  0.
   -5000001    1    1    2    0    0  0.50588737306E+02  0.33049854321E+02  0.37118058927E+03  0.38386917441E+03  0.77000000000E+02 0.  0.
<mgrwt>
<rscale>  0 0.21762021E+03</rscale>
<asrwt>0</asrwt>
<pdfrwt beam="1">  1        2 0.80846324E-01 0.21762021E+03</pdfrwt>
<pdfrwt beam="2">  1       -2 0.34661827E-02 0.21762021E+03</pdfrwt>
<totfact> 0.19621785E+04</totfact>
</mgrwt>
</event>
<event>
 4    1  0.6207184E-004  0.2226880E+03  0.7818608E-02  0.1131895E+00
          2   -1    0    0  501    0  0.00000000000E+00  0.00000000000E+00  0.15504310231E+03  0.15504310233E+03  0.25500000000E-02 0.  1.
         -2   -1    0    0    0  501 -0.00000000000E+00 -0.00000000000E+00 -0.79961572937E+02  0.79961572977E+02  0.25500000000E-02 0. -1.
    5000001    1    1    2    0    0 -0.39126918742E+02 -0.70246988208E+02  0.39348770589E+02  0.11807997658E+03  0.77000000000E+02 0.  0.
   -5000001    1    1    2    0    0  0.39126918742E+02  0.70246988208E+02  0.35732758788E+02  0.11692469873E+03  0.77000000000E+02 0.  0.
<mgrwt>
<rscale>  0 0.22268804E+03</rscale>
<asrwt>0</asrwt>
<pdfrwt beam="1">  1        2 0.23852785E-01 0.22268804E+03</pdfrwt>
<pdfrwt beam="2">  1       -2 0.12301781E-01 0.22268804E+03</pdfrwt>
<totfact> 0.10515577E+04</totfact>
</mgrwt>
</event>
<event>
 4    1  0.6207184E-004  0.2571407E+03  0.7818608E-02  0.1108873E+00
          2   -1    0    0  501    0  0.00000000000E+00  0.00000000000E+00  0.13519166542E+03  0.13519166544E+03  0.25500000000E-02 0.  1.
         -2   -1    0    0    0  501 -0.00000000000E+00 -0.00000000000E+00 -0.12227329293E+03  0.12227329296E+03  0.25500000000E-02 0. -1.
    5000001    1    1    2    0    0 -0.98038041394E+02  0.27684264343E+02  0.21426418440E+02  0.12948346404E+03  0.77000000000E+02 0.  0.
   -5000001    1    1    2    0    0  0.98038041394E+02 -0.27684264343E+02 -0.85080459521E+01  0.12798149436E+03  0.77000000000E+02 0.  0.
<mgrwt>
<rscale>  0 0.25714066E+03</rscale>
<asrwt>0</asrwt>
<pdfrwt beam="1">  1        2 0.20798718E-01 0.25714066E+03</pdfrwt>
<pdfrwt beam="2">  1       -2 0.18811276E-01 0.25714066E+03</pdfrwt>
<totfact> 0.61275853E+03</totfact>
</mgrwt>
</event>
<event>
 4    1  0.6207184E-004  0.2236137E+03  0.7818608E-02  0.1131217E+00
         -2   -1    0    0    0  501 -0.00000000000E+00  0.00000000000E+00  0.33708764641E+02  0.33708764738E+02  0.25500000000E-02 0. -1.
          2   -1    0    0  501    0  0.00000000000E+00 -0.00000000000E+00 -0.37084646876E+03  0.37084646876E+03  0.25500000000E-02 0.  1.
    5000001    1    1    2    0    0 -0.48852905451E+02 -0.63707147265E+02 -0.18892256505E+03  0.21923946398E+03  0.77000000000E+02 0.  0.
   -5000001    1    1    2    0    0  0.48852905451E+02  0.63707147265E+02 -0.14821513907E+03  0.18531576952E+03  0.77000000000E+02 0.  0.
<mgrwt>
<rscale>  0 0.22361374E+03</rscale>
<asrwt>0</asrwt>
<pdfrwt beam="1">  1        2 0.57053300E-01 0.22361374E+03</pdfrwt>
<pdfrwt beam="2">  1       -2 0.51859641E-02 0.22361374E+03</pdfrwt>
<totfact> 0.15713395E+04</totfact>
</mgrwt>
</event>
<event>
 4    1  0.6207184E-004  0.1978276E+03  0.7818608E-02  0.1151585E+00
          2   -1    0    0  501    0  0.00000000000E+00  0.00000000000E+00  0.17107652609E+04  0.17107652609E+04  0.25500000000E-02 0.  1.
         -2   -1    0    0    0  501 -0.00000000000E+00 -0.00000000000E+00 -0.57190423574E+01  0.57190429259E+01  0.25500000000E-02 0. -1.
    5000001    1    1    2    0    0 -0.49548295732E+02  0.14226374413E+02  0.11527804610E+04  0.11564986877E+04  0.77000000000E+02 0.  0.
   -5000001    1    1    2    0    0  0.49548295732E+02 -0.14226374413E+02  0.55226575748E+03  0.55998561608E+03  0.77000000000E+02 0.  0.
<mgrwt>
<rscale>  0 0.19782760E+03</rscale>
<asrwt>0</asrwt>
<pdfrwt beam="1">  1        2 0.26319484E+00 0.19782760E+03</pdfrwt>
<pdfrwt beam="2">  1       -2 0.87985211E-03 0.19782760E+03</pdfrwt>
<totfact> 0.26653067E+04</totfact>
</mgrwt>
</event>
<event>
 4    1  0.6207184E-004  0.3567617E+03  0.7818608E-02  0.1059873E+00
         -2   -1    0    0    0  501 -0.00000000000E+00  0.00000000000E+00  0.60574784775E+02  0.60574784829E+02  0.25500000000E-02 0. -1.
          2   -1    0    0  501    0  0.00000000000E+00 -0.00000000000E+00 -0.52529670235E+03  0.52529670235E+03  0.25500000000E-02 0.  1.
    5000001    1    1    2    0    0  0.15618796694E+03 -0.14911088251E+02 -0.29096936395E+03  0.33942479627E+03  0.77000000000E+02 0.  0.
   -5000001    1    1    2    0    0 -0.15618796694E+03  0.14911088251E+02 -0.17375255362E+03  0.24644669091E+03  0.77000000000E+02 0.  0.
<mgrwt>
<rscale>  0 0.35676174E+03</rscale>
<asrwt>0</asrwt>
<pdfrwt beam="1">  1        2 0.80814874E-01 0.35676174E+03</pdfrwt>
<pdfrwt beam="2">  1       -2 0.93191980E-02 0.35676174E+03</pdfrwt>
<totfact> 0.43891775E+03</totfact>
</mgrwt>
</event>
<event>
 4    1  0.6207184E-004  0.2178547E+03  0.7818608E-02  0.1135493E+00
          2   -1    0    0  501    0  0.00000000000E+00  0.00000000000E+00  0.63009189596E+03  0.63009189597E+03  0.25500000000E-02 0.  1.
         -2   -1    0    0    0  501 -0.00000000000E+00 -0.00000000000E+00 -0.18830853631E+02  0.18830853804E+02  0.25500000000E-02 0. -1.
    5000001    1    1    2    0    0  0.40542020868E+02  0.35174301659E+02  0.47027670093E+03  0.47955193920E+03  0.77000000000E+02 0.  0.
   -5000001    1    1    2    0    0 -0.40542020868E+02 -0.35174301659E+02  0.14098434140E+03  0.16937081057E+03  0.77000000000E+02 0.  0.
<mgrwt>
<rscale>  0 0.21785471E+03</rscale>
<asrwt>0</asrwt>
<pdfrwt beam="1">  1        2 0.96937214E-01 0.21785471E+03</pdfrwt>
<pdfrwt beam="2">  1       -2 0.28970544E-02 0.21785471E+03</pdfrwt>
<totfact> 0.20810978E+04</totfact>
</mgrwt>
</event>
<event>
 4    1  0.6207184E-004  0.4424384E+03  0.7818608E-02  0.1030001E+00
          2   -1    0    0  501    0  0.00000000000E+00  0.00000000000E+00  0.38669898465E+02  0.38669898549E+02  0.25500000000E-02 0.  1.
         -2   -1    0    0    0  501 -0.00000000000E+00 -0.00000000000E+00 -0.12655304555E+04  0.12655304555E+04  0.25500000000E-02 0. -1.
    5000001    1    1    2    0    0  0.12573588116E+03  0.16417788048E+03 -0.65957428845E+03  0.69550782183E+03  0.77000000000E+02 0.  0.
   -5000001    1    1    2    0    0 -0.12573588116E+03 -0.16417788048E+03 -0.56728626861E+03  0.60869253224E+03  0.77000000000E+02 0.  0.
<mgrwt>
<rscale>  0 0.44243840E+03</rscale>
<asrwt>0</asrwt>
<pdfrwt beam="1">  1        2 0.59492161E-02 0.44243840E+03</pdfrwt>
<pdfrwt beam="2">  1       -2 0.19469696E+00 0.44243840E+03</pdfrwt>
<totfact> 0.19403354E+02</totfact>
</mgrwt>
</event>
<event>
 4    1  0.6207184E-004  0.2523327E+03  0.7818608E-02  0.1111839E+00
          2   -1    0    0  501    0  0.00000000000E+00  0.00000000000E+00  0.77194845187E+03  0.77194845187E+03  0.25500000000E-02 0.  1.
         -2   -1    0    0    0  501 -0.00000000000E+00 -0.00000000000E+00 -0.20620476840E+02  0.20620476998E+02  0.25500000000E-02 0. -1.
    5000001    1    1    2    0    0 -0.96577716358E+02  0.17271771212E+02  0.43553844345E+03  0.45304338103E+03  0.77000000000E+02 0.  0.
   -5000001    1    1    2    0    0  0.96577716358E+02 -0.17271771212E+02  0.31578953158E+03  0.33952554784E+03  0.77000000000E+02 0.  0.
<mgrwt>
<rscale>  0 0.25233268E+03</rscale>
<asrwt>0</asrwt>
<pdfrwt beam="1">  1        2 0.11876129E+00 0.25233268E+03</pdfrwt>
<pdfrwt beam="2">  1       -2 0.31723814E-02 0.25233268E+03</pdfrwt>
<totfact> 0.14342491E+04</totfact>
</mgrwt>
</event>
<event>
 4    1  0.6207184E-004  0.3651652E+03  0.7818608E-02  0.1056557E+00
          2   -1    0    0  501    0  0.00000000000E+00  0.00000000000E+00  0.32760452266E+04  0.32760452266E+04  0.25500000000E-02 0.  1.
         -2   -1    0    0    0  501 -0.00000000000E+00 -0.00000000000E+00 -0.10175808044E+02  0.10175808363E+02  0.25500000000E-02 0. -1.
    5000001    1    1    2    0    0  0.16374177529E+03  0.16768684325E+02  0.14732514733E+04  0.14844162021E+04  0.77000000000E+02 0.  0.
   -5000001    1    1    2    0    0 -0.16374177529E+03 -0.16768684325E+02  0.17926179453E+04  0.18018048328E+04  0.77000000000E+02 0.  0.
<mgrwt>
<rscale>  0 0.36516521E+03</rscale>
<asrwt>0</asrwt>
<pdfrwt beam="1">  1        2 0.50400704E+00 0.36516521E+03</pdfrwt>
<pdfrwt beam="2">  1       -2 0.15655087E-02 0.36516521E+03</pdfrwt>
<totfact> 0.15464587E+03</totfact>
</mgrwt>
</event>
<event>
 4    1  0.6207184E-004  0.1763198E+03  0.7818608E-02  0.1171413E+00
         -2   -1    0    0    0  501 -0.00000000000E+00  0.00000000000E+00  0.73303363175E+01  0.73303367610E+01  0.25500000000E-02 0. -1.
          2   -1    0    0  501    0  0.00000000000E+00 -0.00000000000E+00 -0.10602748912E+04  0.10602748912E+04  0.25500000000E-02 0.  1.
    5000001    1    1    2    0    0 -0.23403261219E+02  0.32705299889E+02 -0.61746216105E+03  0.62354299740E+03  0.77000000000E+02 0.  0.
   -5000001    1    1    2    0    0  0.23403261219E+02 -0.32705299889E+02 -0.43548239383E+03  0.44406223057E+03  0.77000000000E+02 0.  0.
<mgrwt>
<rscale>  0 0.17631984E+03</rscale>
<asrwt>0</asrwt>
<pdfrwt beam="1">  1        2 0.16311909E+00 0.17631984E+03</pdfrwt>
<pdfrwt beam="2">  1       -2 0.11277449E-02 0.17631984E+03</pdfrwt>
<totfact> 0.41698053E+04</totfact>
</mgrwt>
</event>
<event>
 4    1  0.6207184E-004  0.1972731E+03  0.7818608E-02  0.1152060E+00
         -2   -1    0    0    0  501 -0.00000000000E+00  0.00000000000E+00  0.36550545745E+02  0.36550545834E+02  0.25500000000E-02 0. -1.
          2   -1    0    0  501    0  0.00000000000E+00 -0.00000000000E+00 -0.26618393600E+03  0.26618393601E+03  0.25500000000E-02 0.  1.
    5000001    1    1    2    0    0  0.68448403478E-02  0.53772633547E+02 -0.16107584084E+03  0.18645622185E+03  0.77000000000E+02 0.  0.
   -5000001    1    1    2    0    0 -0.68448403478E-02 -0.53772633547E+02 -0.68557549419E+02  0.11627826000E+03  0.77000000000E+02 0.  0.
<mgrwt>
<rscale>  0 0.19727309E+03</rscale>
<asrwt>0</asrwt>
<pdfrwt beam="1">  1        2 0.40951374E-01 0.19727309E+03</pdfrwt>
<pdfrwt beam="2">  1       -2 0.56231610E-02 0.19727309E+03</pdfrwt>
<totfact> 0.19656642E+04</totfact>
</mgrwt>
</event>
<event>
 4    1  0.6207184E-004  0.1695888E+03  0.7818608E-02  0.1178277E+00
          2   -1    0    0  501    0  0.00000000000E+00  0.00000000000E+00  0.14840760213E+04  0.14840760213E+04  0.25500000000E-02 0.  1.
         -2   -1    0    0    0  501 -0.00000000000E+00 -0.00000000000E+00 -0.48448274820E+01  0.48448281531E+01  0.25500000000E-02 0. -1.
    5000001    1    1    2    0    0  0.32711435386E+02  0.10753741847E+02  0.66337362920E+03  0.66871462739E+03  0.77000000000E+02 0.  0.
   -5000001    1    1    2    0    0 -0.32711435386E+02 -0.10753741847E+02  0.81585756464E+03  0.82020622208E+03  0.77000000000E+02 0.  0.
<mgrwt>
<rscale>  0 0.16958883E+03</rscale>
<asrwt>0</asrwt>
<pdfrwt beam="1">  1        2 0.22831939E+00 0.16958883E+03</pdfrwt>
<pdfrwt beam="2">  1       -2 0.74535811E-03 0.16958883E+03</pdfrwt>
<totfact> 0.44005668E+04</totfact>
</mgrwt>
</event>
<event>
 4    1  0.6207184E-004  0.2072310E+03  0.7818608E-02  0.1143778E+00
         -2   -1    0    0    0  501 -0.00000000000E+00  0.00000000000E+00  0.52130383183E+01  0.52130389419E+01  0.25500000000E-02 0. -1.
          2   -1    0    0  501    0  0.00000000000E+00 -0.00000000000E+00 -0.20594848980E+04  0.20594848980E+04  0.25500000000E-02 0.  1.
    5000001    1    1    2    0    0  0.43280204795E+02 -0.54166360050E+02 -0.10265342962E+04  0.10317503729E+04  0.77000000000E+02 0.  0.
   -5000001    1    1    2    0    0 -0.43280204795E+02  0.54166360050E+02 -0.10277375635E+04  0.10329475640E+04  0.77000000000E+02 0.  0.
<mgrwt>
<rscale>  0 0.20723102E+03</rscale>
<asrwt>0</asrwt>
<pdfrwt beam="1">  1        2 0.31684318E+00 0.20723102E+03</pdfrwt>
<pdfrwt beam="2">  1       -2 0.80200758E-03 0.20723102E+03</pdfrwt>
<totfact> 0.20104012E+04</totfact>
</mgrwt>
</event>
<event>
 4    1  0.6207184E-004  0.1665023E+03  0.7818608E-02  0.1181545E+00
         -2   -1    0    0    0  501 -0.00000000000E+00  0.00000000000E+00  0.93005920641E+02  0.93005920676E+02  0.25500000000E-02 0. -1.
          2   -1    0    0  501    0  0.00000000000E+00 -0.00000000000E+00 -0.74519483419E+02  0.74519483462E+02  0.25500000000E-02 0.  1.
    5000001    1    1    2    0    0 -0.48238598492E+00  0.14506535636E+02  0.37542206986E+02  0.86885496936E+02  0.77000000000E+02 0.  0.
   -5000001    1    1    2    0    0  0.48238598492E+00 -0.14506535636E+02 -0.19055769764E+02  0.80639907203E+02  0.77000000000E+02 0.  0.
<mgrwt>
<rscale>  0 0.16650229E+03</rscale>
<asrwt>0</asrwt>
<pdfrwt beam="1">  1        2 0.11464536E-01 0.16650229E+03</pdfrwt>
<pdfrwt beam="2">  1       -2 0.14308603E-01 0.16650229E+03</pdfrwt>
<totfact> 0.18918312E+04</totfact>
</mgrwt>
</event>
<event>
 4    1  0.6207184E-004  0.3205431E+03  0.7818608E-02  0.1075400E+00
         -2   -1    0    0    0  501 -0.00000000000E+00  0.00000000000E+00  0.21205006122E+02  0.21205006276E+02  0.25500000000E-02 0. -1.
          2   -1    0    0  501    0  0.00000000000E+00 -0.00000000000E+00 -0.12113632261E+04  0.12113632261E+04  0.25500000000E-02 0.  1.
    5000001    1    1    2    0    0  0.11553597807E+03  0.70869502677E+02 -0.45187691592E+03  0.47800920051E+03  0.77000000000E+02 0.  0.
   -5000001    1    1    2    0    0 -0.11553597807E+03 -0.70869502677E+02 -0.73828130402E+03  0.75455903182E+03  0.77000000000E+02 0.  0.
<mgrwt>
<rscale>  0 0.32054307E+03</rscale>
<asrwt>0</asrwt>
<pdfrwt beam="1">  1        2 0.18636352E+00 0.32054307E+03</pdfrwt>
<pdfrwt beam="2">  1       -2 0.32623096E-02 0.32054307E+03</pdfrwt>
<totfact> 0.73748397E+03</totfact>
</mgrwt>
</event>
<event>
 4    1  0.6207184E-004  0.2210132E+03  0.7818608E-02  0.1133130E+00
         -2   -1    0    0    0  501 -0.00000000000E+00  0.00000000000E+00  0.12322147471E+02  0.12322147735E+02  0.25500000000E-02 0. -1.
          2   -1    0    0  501    0  0.00000000000E+00 -0.00000000000E+00 -0.99103729634E+03  0.99103729634E+03  0.25500000000E-02 0.  1.
    5000001    1    1    2    0    0 -0.65281956209E+02 -0.37771561853E+02 -0.37868626323E+03  0.39372669537E+03  0.77000000000E+02 0.  0.
   -5000001    1    1    2    0    0  0.65281956209E+02  0.37771561853E+02 -0.60002888564E+03  0.60963274870E+03  0.77000000000E+02 0.  0.
<mgrwt>
<rscale>  0 0.22101319E+03</rscale>
<asrwt>0</asrwt>
<pdfrwt beam="1">  1        2 0.15246721E+00 0.22101319E+03</pdfrwt>
<pdfrwt beam="2">  1       -2 0.18957158E-02 0.22101319E+03</pdfrwt>
<totfact> 0.21911417E+04</totfact>
</mgrwt>
</event>
<event>
 4    1  0.6207184E-004  0.3183732E+03  0.7818608E-02  0.1076400E+00
         -2   -1    0    0    0  501 -0.00000000000E+00  0.00000000000E+00  0.32010962996E+02  0.32010963097E+02  0.25500000000E-02 0. -1.
          2   -1    0    0  501    0  0.00000000000E+00 -0.00000000000E+00 -0.79161532226E+03  0.79161532226E+03  0.25500000000E-02 0.  1.
    5000001    1    1    2    0    0  0.52648753960E+02  0.12886744996E+03 -0.36501832382E+03  0.39817846210E+03  0.77000000000E+02 0.  0.
   -5000001    1    1    2    0    0 -0.52648753960E+02 -0.12886744996E+03 -0.39458603544E+03  0.42544782326E+03  0.77000000000E+02 0.  0.
<mgrwt>
<rscale>  0 0.31837317E+03</rscale>
<asrwt>0</asrwt>
<pdfrwt beam="1">  1        2 0.12178696E+00 0.31837317E+03</pdfrwt>
<pdfrwt beam="2">  1       -2 0.49247641E-02 0.31837317E+03</pdfrwt>
<totfact> 0.72211067E+03</totfact>
</mgrwt>
</event>
<event>
 4    1  0.6207184E-004  0.3180128E+03  0.7818608E-02  0.1076568E+00
          2   -1    0    0  501    0  0.00000000000E+00  0.00000000000E+00  0.67170336791E+02  0.67170336840E+02  0.25500000000E-02 0.  1.
         -2   -1    0    0    0  501 -0.00000000000E+00 -0.00000000000E+00 -0.37640182247E+03  0.37640182248E+03  0.25500000000E-02 0. -1.
    5000001    1    1    2    0    0 -0.12377778328E+03 -0.19236214039E+02 -0.70196391170E+02  0.16293405076E+03  0.77000000000E+02 0.  0.
   -5000001    1    1    2    0    0  0.12377778328E+03  0.19236214039E+02 -0.23903509451E+03  0.28063810855E+03  0.77000000000E+02 0.  0.
<mgrwt>
<rscale>  0 0.31801281E+03</rscale>
<asrwt>0</asrwt>
<pdfrwt beam="1">  1        2 0.10333898E-01 0.31801281E+03</pdfrwt>
<pdfrwt beam="2">  1       -2 0.57907971E-01 0.31801281E+03</pdfrwt>
<totfact> 0.17556214E+03</totfact>
</mgrwt>
</event>
<event>
 4    1  0.6207184E-004  0.2080754E+03  0.7818608E-02  0.1143099E+00
         -2   -1    0    0    0  501 -0.00000000000E+00  0.00000000000E+00  0.54371564904E+02  0.54371564964E+02  0.25500000000E-02 0. -1.
          2   -1    0    0  501    0  0.00000000000E+00 -0.00000000000E+00 -0.19907179679E+03  0.19907179680E+03  0.25500000000E-02 0.  1.
    5000001    1    1    2    0    0 -0.50838440916E+01 -0.69452106160E+02 -0.80557601117E+02  0.13140763912E+03  0.77000000000E+02 0.  0.
   -5000001    1    1    2    0    0  0.50838440916E+01  0.69452106160E+02 -0.64142630764E+02  0.12203572265E+03  0.77000000000E+02 0.  0.
<mgrwt>
<rscale>  0 0.20807542E+03</rscale>
<asrwt>0</asrwt>
<pdfrwt beam="1">  1        2 0.30626430E-01 0.20807542E+03</pdfrwt>
<pdfrwt beam="2">  1       -2 0.83648562E-02 0.20807542E+03</pdfrwt>
<totfact> 0.14648321E+04</totfact>
</mgrwt>
</event>
<event>
 4    1  0.6207184E-004  0.4030357E+03  0.7818608E-02  0.1042734E+00
          2   -1    0    0  501    0  0.00000000000E+00  0.00000000000E+00  0.60937661910E+03  0.60937661910E+03  0.25500000000E-02 0.  1.
         -2   -1    0    0    0  501 -0.00000000000E+00 -0.00000000000E+00 -0.66640949722E+02  0.66640949770E+02  0.25500000000E-02 0. -1.
    5000001    1    1    2    0    0 -0.12486728046E+03  0.13429754744E+03  0.21694504802E+03  0.29431585557E+03  0.77000000000E+02 0.  0.
   -5000001    1    1    2    0    0  0.12486728046E+03 -0.13429754744E+03  0.32579062135E+03  0.38170171330E+03  0.77000000000E+02 0.  0.
<mgrwt>
<rscale>  0 0.40303566E+03</rscale>
<asrwt>0</asrwt>
<pdfrwt beam="1">  1        2 0.93750254E-01 0.40303566E+03</pdfrwt>
<pdfrwt beam="2">  1       -2 0.10252453E-01 0.40303566E+03</pdfrwt>
<totfact> 0.31770528E+03</totfact>
</mgrwt>
</event>
<event>
 4    1  0.6207184E-004  0.2162192E+03  0.7818608E-02  0.1136734E+00
          2   -1    0    0  501    0  0.00000000000E+00  0.00000000000E+00  0.10630348078E+03  0.10630348081E+03  0.25500000000E-02 0.  1.
         -2   -1    0    0    0  501 -0.00000000000E+00 -0.00000000000E+00 -0.10994640503E+03  0.10994640506E+03  0.25500000000E-02 0. -1.
    5000001    1    1    2    0    0 -0.69501873768E+02  0.11116868225E+02 -0.30190789555E+02  0.10860284983E+03  0.77000000000E+02 0.  0.
   -5000001    1    1    2    0    0  0.69501873768E+02 -0.11116868225E+02  0.26547865305E+02  0.10764703604E+03  0.77000000000E+02 0.  0.
<mgrwt>
<rscale>  0 0.21621920E+03</rscale>
<asrwt>0</asrwt>
<pdfrwt beam="1">  1        2 0.16354382E-01 0.21621920E+03</pdfrwt>
<pdfrwt beam="2">  1       -2 0.16914832E-01 0.21621920E+03</pdfrwt>
<totfact> 0.95848256E+03</totfact>
</mgrwt>
</event>
<event>
 4    1  0.6207184E-004  0.1733627E+03  0.7818608E-02  0.1174386E+00
          2   -1    0    0  501    0  0.00000000000E+00  0.00000000000E+00  0.31522513795E+04  0.31522513795E+04  0.25500000000E-02 0.  1.
         -2   -1    0    0    0  501 -0.00000000000E+00 -0.00000000000E+00 -0.23835823872E+01  0.23835837512E+01  0.25500000000E-02 0. -1.
    5000001    1    1    2    0    0  0.26398674991E+02 -0.28983502974E+02  0.17006357433E+04  0.17028293704E+04  0.77000000000E+02 0.  0.
   -5000001    1    1    2    0    0 -0.26398674991E+02  0.28983502974E+02  0.14492320538E+04  0.14518055928E+04  0.77000000000E+02 0.  0.
<mgrwt>
<rscale>  0 0.17336266E+03</rscale>
<asrwt>0</asrwt>
<pdfrwt beam="1">  1        2 0.48496352E+00 0.17336266E+03</pdfrwt>
<pdfrwt beam="2">  1       -2 0.36670375E-03 0.17336266E+03</pdfrwt>
<totfact> 0.15226566E+04</totfact>
</mgrwt>
</event>
<event>
 4    1  0.6207184E-004  0.1630339E+03  0.7818608E-02  0.1185313E+00
         -2   -1    0    0    0  501 -0.00000000000E+00  0.00000000000E+00  0.30639373875E+01  0.30639384487E+01  0.25500000000E-02 0. -1.
          2   -1    0    0  501    0  0.00000000000E+00 -0.00000000000E+00 -0.21687821021E+04  0.21687821021E+04  0.25500000000E-02 0.  1.
    5000001    1    1    2    0    0  0.10025982186E+02 -0.24798237609E+02 -0.10926556808E+04  0.10956919776E+04  0.77000000000E+02 0.  0.
   -5000001    1    1    2    0    0 -0.10025982186E+02  0.24798237609E+02 -0.10730624839E+04  0.10761540630E+04  0.77000000000E+02 0.  0.
<mgrwt>
<rscale>  0 0.16303391E+03</rscale>
<asrwt>0</asrwt>
<pdfrwt beam="1">  1        2 0.33365756E+00 0.16303391E+03</pdfrwt>
<pdfrwt beam="2">  1       -2 0.47137680E-03 0.16303391E+03</pdfrwt>
<totfact> 0.37287874E+04</totfact>
</mgrwt>
</event>
<event>
 4    1  0.6207184E-004  0.2816865E+03  0.7818608E-02  0.1094771E+00
          2   -1    0    0  501    0  0.00000000000E+00  0.00000000000E+00  0.95278951424E+03  0.95278951425E+03  0.25500000000E-02 0. -1.
         -2   -1    0    0    0  501 -0.00000000000E+00 -0.00000000000E+00 -0.20819734320E+02  0.20819734476E+02  0.25500000000E-02 0.  1.
    5000001    1    1    2    0    0  0.10644354067E+03  0.23339299139E+02  0.31014670162E+03  0.33763134742E+03  0.77000000000E+02 0.  0.
   -5000001    1    1    2    0    0 -0.10644354067E+03 -0.23339299139E+02  0.62182307830E+03  0.63597790130E+03  0.77000000000E+02 0.  0.
<mgrwt>
<rscale>  0 0.28168653E+03</rscale>
<asrwt>0</asrwt>
<pdfrwt beam="1">  1        2 0.14658301E+00 0.28168653E+03</pdfrwt>
<pdfrwt beam="2">  1       -2 0.32030359E-02 0.28168653E+03</pdfrwt>
<totfact> 0.10773371E+04</totfact>
</mgrwt>
</event>
<event>
 4    1  0.6207184E-004  0.3923164E+03  0.7818608E-02  0.1046473E+00
          2   -1    0    0  501    0  0.00000000000E+00  0.00000000000E+00  0.33682071726E+03  0.33682071727E+03  0.25500000000E-02 0.  1.
         -2   -1    0    0    0  501 -0.00000000000E+00 -0.00000000000E+00 -0.11423895746E+03  0.11423895749E+03  0.25500000000E-02 0. -1.
    5000001    1    1    2    0    0 -0.36193066426E+02 -0.15943310481E+03  0.23577419040E+02  0.18224639271E+03  0.77000000000E+02 0.  0.
   -5000001    1    1    2    0    0  0.36193066426E+02  0.15943310481E+03  0.19900434075E+03  0.26881328205E+03  0.77000000000E+02 0.  0.
<mgrwt>
<rscale>  0 0.39231644E+03</rscale>
<asrwt>0</asrwt>
<pdfrwt beam="1">  1        2 0.51818572E-01 0.39231644E+03</pdfrwt>
<pdfrwt beam="2">  1       -2 0.17575224E-01 0.39231644E+03</pdfrwt>
<totfact> 0.25425988E+03</totfact>
</mgrwt>
</event>
<event>
 4    1  0.6207184E-004  0.2883600E+03  0.7818608E-02  0.1091209E+00
          2   -1    0    0  501    0  0.00000000000E+00  0.00000000000E+00  0.35768818635E+03  0.35768818636E+03  0.25500000000E-02 0. -1.
         -2   -1    0    0    0  501 -0.00000000000E+00 -0.00000000000E+00 -0.58117296742E+02  0.58117296798E+02  0.25500000000E-02 0.  1.
    5000001    1    1    2    0    0  0.95761681060E+02  0.53356635812E+01  0.41301035336E+02  0.12974414971E+03  0.77000000000E+02 0.  0.
   -5000001    1    1    2    0    0 -0.95761681060E+02 -0.53356635812E+01  0.25826985427E+03  0.28606133344E+03  0.77000000000E+02 0.  0.
<mgrwt>
<rscale>  0 0.28835999E+03</rscale>
<asrwt>0</asrwt>
<pdfrwt beam="1">  1        2 0.55028952E-01 0.28835999E+03</pdfrwt>
<pdfrwt beam="2">  1       -2 0.89411226E-02 0.28835999E+03</pdfrwt>
<totfact> 0.71267234E+03</totfact>
</mgrwt>
</event>
<event>
 4    1  0.6207184E-004  0.3089530E+03  0.7818608E-02  0.1080849E+00
          2   -1    0    0  501    0  0.00000000000E+00  0.00000000000E+00  0.84386395828E+02  0.84386395866E+02  0.25500000000E-02 0.  1.
         -2   -1    0    0    0  501 -0.00000000000E+00 -0.00000000000E+00 -0.28278237940E+03  0.28278237942E+03  0.25500000000E-02 0. -1.
    5000001    1    1    2    0    0 -0.11575542191E+03 -0.49264423851E+02 -0.15375821898E+03  0.21306546192E+03  0.77000000000E+02 0.  0.
   -5000001    1    1    2    0    0  0.11575542191E+03  0.49264423851E+02 -0.44637764593E+02  0.15410331336E+03  0.77000000000E+02 0.  0.
<mgrwt>
<rscale>  0 0.30895298E+03</rscale>
<asrwt>0</asrwt>
<pdfrwt beam="1">  1        2 0.12982523E-01 0.30895298E+03</pdfrwt>
<pdfrwt beam="2">  1       -2 0.43504981E-01 0.30895298E+03</pdfrwt>
<totfact> 0.23513662E+03</totfact>
</mgrwt>
</event>
<event>
 4    1  0.6207184E-004  0.2937732E+03  0.7818608E-02  0.1088395E+00
          2   -1    0    0  501    0  0.00000000000E+00  0.00000000000E+00  0.55306068432E+03  0.55306068432E+03  0.25500000000E-02 0.  1.
         -2   -1    0    0    0  501 -0.00000000000E+00 -0.00000000000E+00 -0.39011397686E+02  0.39011397770E+02  0.25500000000E-02 0. -1.
    5000001    1    1    2    0    0  0.49811284301E+01  0.90599089322E+02  0.43055636663E+03  0.44669988972E+03  0.77000000000E+02 0.  0.
   -5000001    1    1    2    0    0 -0.49811284301E+01 -0.90599089322E+02  0.83492920002E+02  0.14537219238E+03  0.77000000000E+02 0.  0.
<mgrwt>
<rscale>  0 0.29377318E+03</rscale>
<asrwt>0</asrwt>
<pdfrwt beam="1">  1        2 0.85086255E-01 0.29377318E+03</pdfrwt>
<pdfrwt beam="2">  1       -2 0.60017538E-02 0.29377318E+03</pdfrwt>
<totfact> 0.81903308E+03</totfact>
</mgrwt>
</event>
<event>
 4    1  0.6207184E-004  0.2162743E+03  0.7818608E-02  0.1136692E+00
         -2   -1    0    0    0  501 -0.00000000000E+00  0.00000000000E+00  0.15474160416E+02  0.15474160626E+02  0.25500000000E-02 0. -1.
          2   -1    0    0  501    0  0.00000000000E+00 -0.00000000000E+00 -0.75568843271E+03  0.75568843271E+03  0.25500000000E-02 0.  1.
    5000001    1    1    2    0    0  0.36023717634E+02  0.66292247833E+02 -0.33979396670E+03  0.35648465628E+03  0.77000000000E+02 0.  0.
   -5000001    1    1    2    0    0 -0.36023717634E+02 -0.66292247833E+02 -0.40042030559E+03  0.41467793706E+03  0.77000000000E+02 0.  0.
<mgrwt>
<rscale>  0 0.21627431E+03</rscale>
<asrwt>0</asrwt>
<pdfrwt beam="1">  1        2 0.11625973E+00 0.21627431E+03</pdfrwt>
<pdfrwt beam="2">  1       -2 0.23806407E-02 0.21627431E+03</pdfrwt>
<totfact> 0.22342203E+04</totfact>
</mgrwt>
</event>
<event>
 4    1  0.6207184E-004  0.1763424E+03  0.7818608E-02  0.1171391E+00
         -2   -1    0    0    0  501 -0.00000000000E+00  0.00000000000E+00  0.11533976634E+03  0.11533976637E+03  0.25500000000E-02 0. -1.
          2   -1    0    0  501    0  0.00000000000E+00 -0.00000000000E+00 -0.67402252999E+02  0.67402253047E+02  0.25500000000E-02 0.  1.
    5000001    1    1    2    0    0 -0.33367944153E+02 -0.21668268032E+02  0.40749841819E+02  0.95773081525E+02  0.77000000000E+02 0.  0.
   -5000001    1    1    2    0    0  0.33367944153E+02  0.21668268032E+02  0.71876715269E+01  0.86968937894E+02  0.77000000000E+02 0.  0.
<mgrwt>
<rscale>  0 0.17634240E+03</rscale>
<asrwt>0</asrwt>
<pdfrwt beam="1">  1        2 0.10369578E-01 0.17634240E+03</pdfrwt>
<pdfrwt beam="2">  1       -2 0.17744579E-01 0.17634240E+03</pdfrwt>
<totfact> 0.15060439E+04</totfact>
</mgrwt>
</event>
<event>
 4    1  0.6207184E-004  0.2673044E+03  0.7818608E-02  0.1102832E+00
          2   -1    0    0  501    0  0.00000000000E+00  0.00000000000E+00  0.40537668935E+02  0.40537669016E+02  0.25500000000E-02 0.  1.
         -2   -1    0    0    0  501 -0.00000000000E+00 -0.00000000000E+00 -0.44064953537E+03  0.44064953537E+03  0.25500000000E-02 0. -1.
    5000001    1    1    2    0    0 -0.65634219077E+02 -0.83352359249E+02 -0.24694410199E+03  0.27958157309E+03  0.77000000000E+02 0.  0.
   -5000001    1    1    2    0    0  0.65634219077E+02  0.83352359249E+02 -0.15316776445E+03  0.20160563130E+03  0.77000000000E+02 0.  0.
<mgrwt>
<rscale>  0 0.26730436E+03</rscale>
<asrwt>0</asrwt>
<pdfrwt beam="1">  1        2 0.62365648E-02 0.26730436E+03</pdfrwt>
<pdfrwt beam="2">  1       -2 0.67792233E-01 0.26730436E+03</pdfrwt>
<totfact> 0.23901982E+03</totfact>
</mgrwt>
</event>
<event>
 4    1  0.6207184E-004  0.2003056E+03  0.7818608E-02  0.1149481E+00
          2   -1    0    0  501    0  0.00000000000E+00  0.00000000000E+00  0.90014412727E+03  0.90014412727E+03  0.25500000000E-02 0.  1.
         -2   -1    0    0    0  501 -0.00000000000E+00 -0.00000000000E+00 -0.11143307362E+02  0.11143307654E+02  0.25500000000E-02 0. -1.
    5000001    1    1    2    0    0 -0.15797909946E+02 -0.40624528277E+02  0.23103029242E+03  0.24739426484E+03  0.77000000000E+02 0.  0.
   -5000001    1    1    2    0    0  0.15797909946E+02  0.40624528277E+02  0.65797052748E+03  0.66389317009E+03  0.77000000000E+02 0.  0.
<mgrwt>
<rscale>  0 0.20030559E+03</rscale>
<asrwt>0</asrwt>
<pdfrwt beam="1">  1        2 0.13848369E+00 0.20030559E+03</pdfrwt>
<pdfrwt beam="2">  1       -2 0.17143552E-02 0.20030559E+03</pdfrwt>
<totfact> 0.28746005E+04</totfact>
</mgrwt>
</event>
<event>
 4    1  0.6207184E-004  0.2201727E+03  0.7818608E-02  0.1133754E+00
          2   -1    0    0  501    0  0.00000000000E+00  0.00000000000E+00  0.19786922976E+02  0.19786923141E+02  0.25500000000E-02 0.  1.
         -2   -1    0    0    0  501 -0.00000000000E+00 -0.00000000000E+00 -0.61247543158E+03  0.61247543159E+03  0.25500000000E-02 0. -1.
    5000001    1    1    2    0    0 -0.42200239646E+02 -0.57193168567E+02 -0.39322139282E+03  0.40694469222E+03  0.77000000000E+02 0.  0.
   -5000001    1    1    2    0    0  0.42200239646E+02  0.57193168567E+02 -0.19946711578E+03  0.22531766250E+03  0.77000000000E+02 0.  0.
<mgrwt>
<rscale>  0 0.22017270E+03</rscale>
<asrwt>0</asrwt>
<pdfrwt beam="1">  1        2 0.30441425E-02 0.22017270E+03</pdfrwt>
<pdfrwt beam="2">  1       -2 0.94226975E-01 0.22017270E+03</pdfrwt>
<totfact> 0.29810712E+03</totfact>
</mgrwt>
</event>
<event>
 4    1  0.6207184E-004  0.1739058E+03  0.7818608E-02  0.1173835E+00
         -2   -1    0    0    0  501 -0.00000000000E+00  0.00000000000E+00  0.13356385139E+02  0.13356385383E+02  0.25500000000E-02 0. -1.
          2   -1    0    0  501    0  0.00000000000E+00 -0.00000000000E+00 -0.56608176766E+03  0.56608176767E+03  0.25500000000E-02 0.  1.
    5000001    1    1    2    0    0  0.11613563682E+02  0.32167371216E+02 -0.34799419030E+03  0.35804828042E+03  0.77000000000E+02 0.  0.
   -5000001    1    1    2    0    0 -0.11613563682E+02 -0.32167371216E+02 -0.20473119222E+03  0.22138987263E+03  0.77000000000E+02 0.  0.
<mgrwt>
<rscale>  0 0.17390579E+03</rscale>
<asrwt>0</asrwt>
<pdfrwt beam="1">  1        2 0.87089484E-01 0.17390579E+03</pdfrwt>
<pdfrwt beam="2">  1       -2 0.20548289E-02 0.17390579E+03</pdfrwt>
<totfact> 0.38338520E+04</totfact>
</mgrwt>
</event>
<event>
 4    1  0.6207184E-004  0.4270539E+03  0.7818608E-02  0.1034795E+00
          2   -1    0    0  501    0  0.00000000000E+00  0.00000000000E+00  0.32219575222E+04  0.32219575222E+04  0.25500000000E-02 0.  1.
         -2   -1    0    0    0  501 -0.00000000000E+00 -0.00000000000E+00 -0.14150946154E+02  0.14150946384E+02  0.25500000000E-02 0. -1.
    5000001    1    1    2    0    0 -0.13988722679E+03 -0.74327016859E+02  0.25186421293E+04  0.25247930840E+04  0.77000000000E+02 0.  0.
   -5000001    1    1    2    0    0  0.13988722679E+03  0.74327016859E+02  0.68916444673E+03  0.71131538455E+03  0.77000000000E+02 0.  0.
<mgrwt>
<rscale>  0 0.42705385E+03</rscale>
<asrwt>0</asrwt>
<pdfrwt beam="1">  1        2 0.49568614E+00 0.42705385E+03</pdfrwt>
<pdfrwt beam="2">  1       -2 0.21770670E-02 0.42705385E+03</pdfrwt>
<totfact> 0.10170949E+03</totfact>
</mgrwt>
</event>
<event>
 4    1  0.6207184E-004  0.1844213E+03  0.7818608E-02  0.1163591E+00
         -2   -1    0    0    0  501 -0.00000000000E+00  0.00000000000E+00  0.60009026607E+01  0.60009032025E+01  0.25500000000E-02 0. -1.
          2   -1    0    0  501    0  0.00000000000E+00 -0.00000000000E+00 -0.14169212313E+04  0.14169212313E+04  0.25500000000E-02 0.  1.
    5000001    1    1    2    0    0  0.92967006598E+01 -0.49727495154E+02 -0.67602499835E+03  0.68227417569E+03  0.77000000000E+02 0.  0.
   -5000001    1    1    2    0    0 -0.92967006598E+01  0.49727495154E+02 -0.73489533027E+03  0.74064795880E+03  0.77000000000E+02 0.  0.
<mgrwt>
<rscale>  0 0.18442133E+03</rscale>
<asrwt>0</asrwt>
<pdfrwt beam="1">  1        2 0.21798761E+00 0.18442133E+03</pdfrwt>
<pdfrwt beam="2">  1       -2 0.92321697E-03 0.18442133E+03</pdfrwt>
<totfact> 0.35344130E+04</totfact>
</mgrwt>
</event>
<event>
 4    1  0.6207184E-004  0.4223653E+03  0.7818608E-02  0.1036299E+00
          2   -1    0    0  501    0  0.00000000000E+00  0.00000000000E+00  0.85054031807E+03  0.85054031808E+03  0.25500000000E-02 0.  1.
         -2   -1    0    0    0  501 -0.00000000000E+00 -0.00000000000E+00 -0.52435039177E+02  0.52435039239E+02  0.25500000000E-02 0. -1.
    5000001    1    1    2    0    0 -0.17720207878E+02  0.18324594227E+03  0.54680054989E+03  0.58207638887E+03  0.77000000000E+02 0.  0.
   -5000001    1    1    2    0    0  0.17720207878E+02 -0.18324594227E+03  0.25130472901E+03  0.32089896844E+03  0.77000000000E+02 0.  0.
<mgrwt>
<rscale>  0 0.42236532E+03</rscale>
<asrwt>0</asrwt>
<pdfrwt beam="1">  1        2 0.13085235E+00 0.42236532E+03</pdfrwt>
<pdfrwt beam="2">  1       -2 0.80669293E-02 0.42236532E+03</pdfrwt>
<totfact> 0.30709621E+03</totfact>
</mgrwt>
</event>
<event>
 4    1  0.6207184E-004  0.1679542E+03  0.7818608E-02  0.1179998E+00
          2   -1    0    0  501    0  0.00000000000E+00  0.00000000000E+00  0.71316130465E+03  0.71316130466E+03  0.25500000000E-02 0.  1.
         -2   -1    0    0    0  501 -0.00000000000E+00 -0.00000000000E+00 -0.98885832476E+01  0.98885835764E+01  0.25500000000E-02 0. -1.
    5000001    1    1    2    0    0  0.92887313118E+01  0.31026602530E+02  0.31454687127E+03  0.32544994211E+03  0.77000000000E+02 0.  0.
   -5000001    1    1    2    0    0 -0.92887313118E+01 -0.31026602530E+02  0.38872585014E+03  0.39759994613E+03  0.77000000000E+02 0.  0.
<mgrwt>
<rscale>  0 0.16795422E+03</rscale>
<asrwt>0</asrwt>
<pdfrwt beam="1">  1        2 0.10971713E+00 0.16795422E+03</pdfrwt>
<pdfrwt beam="2">  1       -2 0.15213205E-02 0.16795422E+03</pdfrwt>
<totfact> 0.45212457E+04</totfact>
</mgrwt>
</event>
<event>
 4    1  0.6207184E-004  0.2038718E+03  0.7818608E-02  0.1146513E+00
         -2   -1    0    0    0  501 -0.00000000000E+00  0.00000000000E+00  0.17503324733E+02  0.17503324919E+02  0.25500000000E-02 0. -1.
          2   -1    0    0  501    0  0.00000000000E+00 -0.00000000000E+00 -0.59365443069E+03  0.59365443070E+03  0.25500000000E-02 0.  1.
    5000001    1    1    2    0    0  0.43876195604E+02  0.44135936135E+02 -0.36081823283E+03  0.37415491249E+03  0.77000000000E+02 0.  0.
   -5000001    1    1    2    0    0 -0.43876195604E+02 -0.44135936135E+02 -0.21533287313E+03  0.23700284313E+03  0.77000000000E+02 0.  0.
<mgrwt>
<rscale>  0 0.20387179E+03</rscale>
<asrwt>0</asrwt>
<pdfrwt beam="1">  1        2 0.91331436E-01 0.20387179E+03</pdfrwt>
<pdfrwt beam="2">  1       -2 0.26928197E-02 0.20387179E+03</pdfrwt>
<totfact> 0.24733312E+04</totfact>
</mgrwt>
</event>
<event>
 4    1  0.6207184E-004  0.2497071E+03  0.7818608E-02  0.1113490E+00
          2   -1    0    0  501    0  0.00000000000E+00  0.00000000000E+00  0.69508614832E+03  0.69508614832E+03  0.25500000000E-02 0.  1.
         -2   -1    0    0    0  501 -0.00000000000E+00 -0.00000000000E+00 -0.22426580821E+02  0.22426580966E+02  0.25500000000E-02 0. -1.
    5000001    1    1    2    0    0 -0.85361136712E+01 -0.96094560906E+02  0.39026865338E+03  0.40932340720E+03  0.77000000000E+02 0.  0.
   -5000001    1    1    2    0    0  0.85361136712E+01  0.96094560906E+02  0.28239091411E+03  0.30818932208E+03  0.77000000000E+02 0.  0.
<mgrwt>
<rscale>  0 0.24970707E+03</rscale>
<asrwt>0</asrwt>
<pdfrwt beam="1">  1        2 0.10693631E+00 0.24970707E+03</pdfrwt>
<pdfrwt beam="2">  1       -2 0.34502440E-02 0.24970707E+03</pdfrwt>
<totfact> 0.14389198E+04</totfact>
</mgrwt>
</event>
<event>
 4    1  0.6207184E-004  0.3431153E+03  0.7818608E-02  0.1065477E+00
         -2   -1    0    0    0  501 -0.00000000000E+00  0.00000000000E+00  0.69163816072E+02  0.69163816119E+02  0.25500000000E-02 0. -1.
          2   -1    0    0  501    0  0.00000000000E+00 -0.00000000000E+00 -0.42554091005E+03  0.42554091006E+03  0.25500000000E-02 0.  1.
    5000001    1    1    2    0    0 -0.45270203134E+02  0.12835935665E+03 -0.27990994716E+03  0.32063077558E+03  0.77000000000E+02 0.  0.
   -5000001    1    1    2    0    0  0.45270203134E+02 -0.12835935665E+03 -0.76467146819E+02  0.17407395059E+03  0.77000000000E+02 0.  0.
<mgrwt>
<rscale>  0 0.34311533E+03</rscale>
<asrwt>0</asrwt>
<pdfrwt beam="1">  1        2 0.65467831E-01 0.34311533E+03</pdfrwt>
<pdfrwt beam="2">  1       -2 0.10640587E-01 0.34311533E+03</pdfrwt>
<totfact> 0.44916719E+03</totfact>
</mgrwt>
</event>
<event>
 4    1  0.6207184E-004  0.2192714E+03  0.7818608E-02  0.1134427E+00
         -2   -1    0    0    0  501 -0.00000000000E+00  0.00000000000E+00  0.97197533159E+01  0.97197536504E+01  0.25500000000E-02 0. -1.
          2   -1    0    0  501    0  0.00000000000E+00 -0.00000000000E+00 -0.12366554343E+04  0.12366554343E+04  0.25500000000E-02 0.  1.
    5000001    1    1    2    0    0 -0.71899344365E+02  0.28221031079E+01 -0.78526758624E+03  0.79230780760E+03  0.77000000000E+02 0.  0.
   -5000001    1    1    2    0    0  0.71899344365E+02 -0.28221031079E+01 -0.44166809479E+03  0.45406738039E+03  0.77000000000E+02 0.  0.
<mgrwt>
<rscale>  0 0.21927139E+03</rscale>
<asrwt>0</asrwt>
<pdfrwt beam="1">  1        2 0.19025456E+00 0.21927139E+03</pdfrwt>
<pdfrwt beam="2">  1       -2 0.14953477E-02 0.21927139E+03</pdfrwt>
<totfact> 0.22284169E+04</totfact>
</mgrwt>
</event>
<event>
 4    1  0.6207184E-004  0.2167721E+03  0.7818608E-02  0.1136313E+00
          2   -1    0    0  501    0  0.00000000000E+00  0.00000000000E+00  0.26925822377E+03  0.26925822379E+03  0.25500000000E-02 0.  1.
         -2   -1    0    0    0  501 -0.00000000000E+00 -0.00000000000E+00 -0.43629261494E+02  0.43629261569E+02  0.25500000000E-02 0. -1.
    5000001    1    1    2    0    0  0.38812184694E+02 -0.45469598105E+02  0.44429492226E+02  0.10713006026E+03  0.77000000000E+02 0.  0.
   -5000001    1    1    2    0    0 -0.38812184694E+02  0.45469598105E+02  0.18119947005E+03  0.20575742509E+03  0.77000000000E+02 0.  0.
<mgrwt>
<rscale>  0 0.21677212E+03</rscale>
<asrwt>0</asrwt>
<pdfrwt beam="1">  1        2 0.41424342E-01 0.21677212E+03</pdfrwt>
<pdfrwt beam="2">  1       -2 0.67121941E-02 0.21677212E+03</pdfrwt>
<totfact> 0.14906374E+04</totfact>
</mgrwt>
</event>
<event>
 4    1  0.6207184E-004  0.2369237E+03  0.7818608E-02  0.1121859E+00
          2   -1    0    0  501    0  0.00000000000E+00  0.00000000000E+00  0.26482862280E+04  0.26482862280E+04  0.25500000000E-02 0.  1.
         -2   -1    0    0    0  501 -0.00000000000E+00 -0.00000000000E+00 -0.52989773202E+01  0.52989779338E+01  0.25500000000E-02 0. -1.
    5000001    1    1    2    0    0  0.28257320919E+02 -0.84951309828E+02  0.14271606952E+04  0.14320376570E+04  0.77000000000E+02 0.  0.
   -5000001    1    1    2    0    0 -0.28257320919E+02  0.84951309828E+02  0.12158265555E+04  0.12215475489E+04  0.77000000000E+02 0.  0.
<mgrwt>
<rscale>  0 0.23692370E+03</rscale>
<asrwt>0</asrwt>
<pdfrwt beam="1">  1        2 0.40742819E+00 0.23692370E+03</pdfrwt>
<pdfrwt beam="2">  1       -2 0.81522825E-03 0.23692370E+03</pdfrwt>
<totfact> 0.95138245E+03</totfact>
</mgrwt>
</event>
<event>
 4    1  0.6207184E-004  0.2689517E+03  0.7818608E-02  0.1101881E+00
          2   -1    0    0  501    0  0.00000000000E+00  0.00000000000E+00  0.91373748452E+03  0.91373748453E+03  0.25500000000E-02 0.  1.
         -2   -1    0    0    0  501 -0.00000000000E+00 -0.00000000000E+00 -0.19790968920E+02  0.19790969084E+02  0.25500000000E-02 0. -1.
    5000001    1    1    2    0    0 -0.18689592326E+02  0.10418885520E+03  0.55396376511E+03  0.56921829860E+03  0.77000000000E+02 0.  0.
   -5000001    1    1    2    0    0  0.18689592326E+02 -0.10418885520E+03  0.33998275050E+03  0.36431015501E+03  0.77000000000E+02 0.  0.
<mgrwt>
<rscale>  0 0.26895167E+03</rscale>
<asrwt>0</asrwt>
<pdfrwt beam="1">  1        2 0.14057500E+00 0.26895167E+03</pdfrwt>
<pdfrwt beam="2">  1       -2 0.30447644E-02 0.26895167E+03</pdfrwt>
<totfact> 0.12281493E+04</totfact>
</mgrwt>
</event>
<event>
 4    1  0.6207184E-004  0.2681813E+03  0.7818608E-02  0.1102325E+00
         -2   -1    0    0    0  501 -0.00000000000E+00  0.00000000000E+00  0.13168036870E+03  0.13168036873E+03  0.25500000000E-02 0. -1.
          2   -1    0    0  501    0  0.00000000000E+00 -0.00000000000E+00 -0.13654503037E+03  0.13654503039E+03  0.25500000000E-02 0.  1.
    5000001    1    1    2    0    0 -0.64006929790E+02 -0.61942906665E+02 -0.66610551600E+02  0.13527666588E+03  0.77000000000E+02 0.  0.
   -5000001    1    1    2    0    0  0.64006929790E+02  0.61942906665E+02  0.61745889932E+02  0.13294873324E+03  0.77000000000E+02 0.  0.
<mgrwt>
<rscale>  0 0.26818128E+03</rscale>
<asrwt>0</asrwt>
<pdfrwt beam="1">  1        2 0.21006928E-01 0.26818128E+03</pdfrwt>
<pdfrwt beam="2">  1       -2 0.20258518E-01 0.26818128E+03</pdfrwt>
<totfact> 0.53483299E+03</totfact>
</mgrwt>
</event>
<event>
 4    1  0.6207184E-004  0.2553819E+03  0.7818608E-02  0.1109950E+00
         -2   -1    0    0    0  501 -0.00000000000E+00  0.00000000000E+00  0.23150359710E+02  0.23150359850E+02  0.25500000000E-02 0. -1.
          2   -1    0    0  501    0  0.00000000000E+00 -0.00000000000E+00 -0.70430777098E+03  0.70430777098E+03  0.25500000000E-02 0.  1.
    5000001    1    1    2    0    0  0.24884641082E+02 -0.81904392239E+02 -0.49785168628E+03  0.51099205118E+03  0.77000000000E+02 0.  0.
   -5000001    1    1    2    0    0 -0.24884641082E+02  0.81904392239E+02 -0.18330572499E+03  0.21646607966E+03  0.77000000000E+02 0.  0.
<mgrwt>
<rscale>  0 0.25538190E+03</rscale>
<asrwt>0</asrwt>
<pdfrwt beam="1">  1        2 0.10835503E+00 0.25538190E+03</pdfrwt>
<pdfrwt beam="2">  1       -2 0.35615943E-02 0.25538190E+03</pdfrwt>
<totfact> 0.13518615E+04</totfact>
</mgrwt>
</event>
<event>
 4    1  0.6207184E-004  0.3522933E+03  0.7818608E-02  0.1061678E+00
          2   -1    0    0  501    0  0.00000000000E+00  0.00000000000E+00  0.76289314320E+03  0.76289314321E+03  0.25500000000E-02 0.  1.
         -2   -1    0    0    0  501 -0.00000000000E+00 -0.00000000000E+00 -0.40671018470E+02  0.40671018550E+02  0.25500000000E-02 0. -1.
    5000001    1    1    2    0    0 -0.63143834307E+02  0.11135682890E+03  0.14822166656E+03  0.21044274659E+03  0.77000000000E+02 0.  0.
   -5000001    1    1    2    0    0  0.63143834307E+02 -0.11135682890E+03  0.57400045817E+03  0.59312141517E+03  0.77000000000E+02 0.  0.
<mgrwt>
<rscale>  0 0.35229329E+03</rscale>
<asrwt>0</asrwt>
<pdfrwt beam="1">  1        2 0.11736819E+00 0.35229329E+03</pdfrwt>
<pdfrwt beam="2">  1       -2 0.62570792E-02 0.35229329E+03</pdfrwt>
<totfact> 0.52500853E+03</totfact>
</mgrwt>
</event>
<event>
 4    1  0.6207184E-004  0.2331827E+03  0.7818608E-02  0.1124419E+00
         -2   -1    0    0    0  501 -0.00000000000E+00  0.00000000000E+00  0.64664358976E+02  0.64664359027E+02  0.25500000000E-02 0. -1.
          2   -1    0    0  501    0  0.00000000000E+00 -0.00000000000E+00 -0.21021688328E+03  0.21021688330E+03  0.25500000000E-02 0.  1.
    5000001    1    1    2    0    0  0.73065488516E+02 -0.20884789912E+02 -0.12402188087E+03  0.16457571813E+03  0.77000000000E+02 0.  0.
   -5000001    1    1    2    0    0 -0.73065488516E+02  0.20884789912E+02 -0.21530643433E+02  0.11030552420E+03  0.77000000000E+02 0.  0.
<mgrwt>
<rscale>  0 0.23318268E+03</rscale>
<asrwt>0</asrwt>
<pdfrwt beam="1">  1        2 0.32341059E-01 0.23318268E+03</pdfrwt>
<pdfrwt beam="2">  1       -2 0.99483630E-02 0.23318268E+03</pdfrwt>
<totfact> 0.10583799E+04</totfact>
</mgrwt>
</event>
<event>
 4    1  0.6207184E-004  0.4275020E+03  0.7818608E-02  0.1034652E+00
          2   -1    0    0  501    0  0.00000000000E+00  0.00000000000E+00  0.90856341436E+03  0.90856341437E+03  0.25500000000E-02 0.  1.
         -2   -1    0    0    0  501 -0.00000000000E+00 -0.00000000000E+00 -0.50287625424E+02  0.50287625489E+02  0.25500000000E-02 0. -1.
    5000001    1    1    2    0    0 -0.11272948689E+03  0.81109438864E+02  0.75006942285E+03  0.76669408331E+03  0.77000000000E+02 0.  0.
   -5000001    1    1    2    0    0  0.11272948689E+03 -0.81109438864E+02  0.10820636609E+03  0.19215695654E+03  0.77000000000E+02 0.  0.
<mgrwt>
<rscale>  0 0.42750203E+03</rscale>
<asrwt>0</asrwt>
<pdfrwt beam="1">  1        2 0.13977899E+00 0.42750203E+03</pdfrwt>
<pdfrwt beam="2">  1       -2 0.77365577E-02 0.42750203E+03</pdfrwt>
<totfact> 0.30012283E+03</totfact>
</mgrwt>
</event>
<event>
 4    1  0.6207184E-004  0.2218192E+03  0.7818608E-02  0.1132534E+00
          2   -1    0    0  501    0  0.00000000000E+00  0.00000000000E+00  0.73317347387E+03  0.73317347387E+03  0.25500000000E-02 0.  1.
         -2   -1    0    0    0  501 -0.00000000000E+00 -0.00000000000E+00 -0.16777668943E+02  0.16777669137E+02  0.25500000000E-02 0. -1.
    5000001    1    1    2    0    0  0.65044047142E+02 -0.42540979509E+02  0.29664312996E+03  0.31617496668E+03  0.77000000000E+02 0.  0.
   -5000001    1    1    2    0    0 -0.65044047142E+02  0.42540979509E+02  0.41975267496E+03  0.43377617632E+03  0.77000000000E+02 0.  0.
<mgrwt>
<rscale>  0 0.22181922E+03</rscale>
<asrwt>0</asrwt>
<pdfrwt beam="1">  1        2 0.11279590E+00 0.22181922E+03</pdfrwt>
<pdfrwt beam="2">  1       -2 0.25811802E-02 0.22181922E+03</pdfrwt>
<totfact> 0.20616016E+04</totfact>
</mgrwt>
</event>
<event>
 4    1  0.6207184E-004  0.2900368E+03  0.7818608E-02  0.1090330E+00
         -2   -1    0    0    0  501 -0.00000000000E+00  0.00000000000E+00  0.15102531453E+02  0.15102531668E+02  0.25500000000E-02 0. -1.
          2   -1    0    0  501    0  0.00000000000E+00 -0.00000000000E+00 -0.13925041701E+04  0.13925041701E+04  0.25500000000E-02 0.  1.
    5000001    1    1    2    0    0  0.59809066894E+02  0.35795946644E+02 -0.19752282305E+03  0.22316527486E+03  0.77000000000E+02 0.  0.
   -5000001    1    1    2    0    0 -0.59809066894E+02 -0.35795946644E+02 -0.11798788156E+04  0.11844414269E+04  0.77000000000E+02 0.  0.
<mgrwt>
<rscale>  0 0.29003681E+03</rscale>
<asrwt>0</asrwt>
<pdfrwt beam="1">  1        2 0.21423131E+00 0.29003681E+03</pdfrwt>
<pdfrwt beam="2">  1       -2 0.23234675E-02 0.29003681E+03</pdfrwt>
<totfact> 0.96742175E+03</totfact>
</mgrwt>
</event>
<event>
 4    1  0.6207184E-004  0.2282046E+03  0.7818608E-02  0.1127910E+00
         -2   -1    0    0    0  501 -0.00000000000E+00  0.00000000000E+00  0.99298378603E+01  0.99298381878E+01  0.25500000000E-02 0. -1.
          2   -1    0    0  501    0  0.00000000000E+00 -0.00000000000E+00 -0.13111327713E+04  0.13111327713E+04  0.25500000000E-02 0.  1.
    5000001    1    1    2    0    0  0.78206335114E+02  0.11722347176E+02 -0.48315278357E+03  0.49559989563E+03  0.77000000000E+02 0.  0.
   -5000001    1    1    2    0    0 -0.78206335114E+02 -0.11722347176E+02 -0.81805014990E+03  0.82546271389E+03  0.77000000000E+02 0.  0.
<mgrwt>
<rscale>  0 0.22820461E+03</rscale>
<asrwt>0</asrwt>
<pdfrwt beam="1">  1        2 0.20171260E+00 0.22820461E+03</pdfrwt>
<pdfrwt beam="2">  1       -2 0.15276684E-02 0.22820461E+03</pdfrwt>
<totfact> 0.19683153E+04</totfact>
</mgrwt>
</event>
<event>
 4    1  0.6207184E-004  0.2819251E+03  0.7818608E-02  0.1094642E+00
          2   -1    0    0  501    0  0.00000000000E+00  0.00000000000E+00  0.15097539611E+04  0.15097539611E+04  0.25500000000E-02 0.  1.
         -2   -1    0    0    0  501 -0.00000000000E+00 -0.00000000000E+00 -0.13161376312E+02  0.13161376559E+02  0.25500000000E-02 0. -1.
    5000001    1    1    2    0    0  0.10399857999E+03 -0.54184283283E+02  0.82271617785E+03  0.83459124755E+03  0.77000000000E+02 0.  0.
   -5000001    1    1    2    0    0 -0.10399857999E+03  0.54184283283E+02  0.67387640696E+03  0.68832409013E+03  0.77000000000E+02 0.  0.
<mgrwt>
<rscale>  0 0.28192510E+03</rscale>
<asrwt>0</asrwt>
<pdfrwt beam="1">  1        2 0.23226974E+00 0.28192510E+03</pdfrwt>
<pdfrwt beam="2">  1       -2 0.20248280E-02 0.28192510E+03</pdfrwt>
<totfact> 0.10239638E+04</totfact>
</mgrwt>
</event>
<event>
 4    1  0.6207184E-004  0.3385496E+03  0.7818608E-02  0.1067415E+00
         -2   -1    0    0    0  501 -0.00000000000E+00  0.00000000000E+00  0.12961064170E+03  0.12961064173E+03  0.25500000000E-02 0. -1.
          2   -1    0    0  501    0  0.00000000000E+00 -0.00000000000E+00 -0.22107725510E+03  0.22107725512E+03  0.25500000000E-02 0.  1.
    5000001    1    1    2    0    0 -0.57016843086E+02  0.10806600383E+03  0.45726083099E+02  0.15148945922E+03  0.77000000000E+02 0.  0.
   -5000001    1    1    2    0    0  0.57016843086E+02 -0.10806600383E+03 -0.13719269650E+03  0.19919843763E+03  0.77000000000E+02 0.  0.
<mgrwt>
<rscale>  0 0.33854964E+03</rscale>
<asrwt>0</asrwt>
<pdfrwt beam="1">  1        2 0.34011885E-01 0.33854964E+03</pdfrwt>
<pdfrwt beam="2">  1       -2 0.19940099E-01 0.33854964E+03</pdfrwt>
<totfact> 0.32341244E+03</totfact>
</mgrwt>
</event>
<event>
 4    1  0.6207184E-004  0.5581189E+03  0.7818608E-02  0.9996320E-01
         -2   -1    0    0    0  501 -0.00000000000E+00  0.00000000000E+00  0.15492889978E+03  0.15492889980E+03  0.25500000000E-02 0. -1.
          2   -1    0    0  501    0  0.00000000000E+00 -0.00000000000E+00 -0.50264466156E+03  0.50264466157E+03  0.25500000000E-02 0.  1.
    5000001    1    1    2    0    0 -0.20269935265E+03 -0.15503360292E+03 -0.27117673018E+03  0.38024763587E+03  0.77000000000E+02 0.  0.
   -5000001    1    1    2    0    0  0.20269935265E+03  0.15503360292E+03 -0.76539031604E+02  0.27732592550E+03  0.77000000000E+02 0.  0.
<mgrwt>
<rscale>  0 0.55811893E+03</rscale>
<asrwt>0</asrwt>
<pdfrwt beam="1">  1        2 0.77329947E-01 0.55811893E+03</pdfrwt>
<pdfrwt beam="2">  1       -2 0.23835216E-01 0.55811893E+03</pdfrwt>
<totfact> 0.95927878E+02</totfact>
</mgrwt>
</event>
<event>
 4    1  0.6207184E-004  0.2051861E+03  0.7818608E-02  0.1145436E+00
         -2   -1    0    0    0  501 -0.00000000000E+00  0.00000000000E+00  0.18533491748E+02  0.18533491923E+02  0.25500000000E-02 0. -1.
          2   -1    0    0  501    0  0.00000000000E+00 -0.00000000000E+00 -0.56790897698E+03  0.56790897699E+03  0.25500000000E-02 0.  1.
    5000001    1    1    2    0    0 -0.60779806009E+02 -0.21171463616E+02 -0.21379473571E+03  0.23617706220E+03  0.77000000000E+02 0.  0.
   -5000001    1    1    2    0    0  0.60779806009E+02  0.21171463616E+02 -0.33558074952E+03  0.35026540671E+03  0.77000000000E+02 0.  0.
<mgrwt>
<rscale>  0 0.20518612E+03</rscale>
<asrwt>0</asrwt>
<pdfrwt beam="1">  1        2 0.87370599E-01 0.20518612E+03</pdfrwt>
<pdfrwt beam="2">  1       -2 0.28513069E-02 0.20518612E+03</pdfrwt>
<totfact> 0.23923056E+04</totfact>
</mgrwt>
</event>
<event>
 4    1  0.6207184E-004  0.4087888E+03  0.7818608E-02  0.1040778E+00
         -2   -1    0    0    0  501 -0.00000000000E+00  0.00000000000E+00  0.28364896620E+02  0.28364896735E+02  0.25500000000E-02 0. -1.
          2   -1    0    0  501    0  0.00000000000E+00 -0.00000000000E+00 -0.14728441283E+04  0.14728441283E+04  0.25500000000E-02 0.  1.
    5000001    1    1    2    0    0 -0.13177264319E+03  0.92373329631E+02 -0.35590317653E+03  0.39811170867E+03  0.77000000000E+02 0.  0.
   -5000001    1    1    2    0    0  0.13177264319E+03 -0.92373329631E+02 -0.10885760551E+04  0.11030973164E+04  0.77000000000E+02 0.  0.
<mgrwt>
<rscale>  0 0.40878880E+03</rscale>
<asrwt>0</asrwt>
<pdfrwt beam="1">  1        2 0.22659135E+00 0.40878880E+03</pdfrwt>
<pdfrwt beam="2">  1       -2 0.43638314E-02 0.40878880E+03</pdfrwt>
<totfact> 0.34020389E+03</totfact>
</mgrwt>
</event>
<event>
 4    1  0.6207184E-004  0.1930388E+03  0.7818608E-02  0.1155749E+00
         -2   -1    0    0    0  501 -0.00000000000E+00  0.00000000000E+00  0.11508033508E+02  0.11508033791E+02  0.25500000000E-02 0. -1.
          2   -1    0    0  501    0  0.00000000000E+00 -0.00000000000E+00 -0.80952106596E+03  0.80952106596E+03  0.25500000000E-02 0.  1.
    5000001    1    1    2    0    0 -0.36732803867E+02 -0.31230108525E+02 -0.53763525376E+03  0.54525708124E+03  0.77000000000E+02 0.  0.
   -5000001    1    1    2    0    0  0.36732803867E+02  0.31230108525E+02 -0.26037777869E+03  0.27577201851E+03  0.77000000000E+02 0.  0.
<mgrwt>
<rscale>  0 0.19303881E+03</rscale>
<asrwt>0</asrwt>
<pdfrwt beam="1">  1        2 0.12454166E+00 0.19303881E+03</pdfrwt>
<pdfrwt beam="2">  1       -2 0.17704673E-02 0.19303881E+03</pdfrwt>
<totfact> 0.31384888E+04</totfact>
</mgrwt>
</event>
<event>
 4    1  0.6207184E-004  0.2787638E+03  0.7818608E-02  0.1096366E+00
         -2   -1    0    0    0  501 -0.00000000000E+00  0.00000000000E+00  0.10735427253E+02  0.10735427556E+02  0.25500000000E-02 0. -1.
          2   -1    0    0  501    0  0.00000000000E+00 -0.00000000000E+00 -0.18096445582E+04  0.18096445582E+04  0.25500000000E-02 0.  1.
    5000001    1    1    2    0    0  0.36263797720E+02  0.90682950152E+02 -0.13103818385E+04  0.13162704977E+04  0.77000000000E+02 0.  0.
   -5000001    1    1    2    0    0 -0.36263797720E+02 -0.90682950152E+02 -0.48852729244E+03  0.50410948804E+03  0.77000000000E+02 0.  0.
<mgrwt>
<rscale>  0 0.27876376E+03</rscale>
<asrwt>0</asrwt>
<pdfrwt beam="1">  1        2 0.27840661E+00 0.27876376E+03</pdfrwt>
<pdfrwt beam="2">  1       -2 0.16516057E-02 0.27876376E+03</pdfrwt>
<totfact> 0.95853580E+03</totfact>
</mgrwt>
</event>
<event>
 4    1  0.6207184E-004  0.3019834E+03  0.7818608E-02  0.1084253E+00
         -2   -1    0    0    0  501 -0.00000000000E+00  0.00000000000E+00  0.11284596157E+03  0.11284596159E+03  0.25500000000E-02 0. -1.
          2   -1    0    0  501    0  0.00000000000E+00 -0.00000000000E+00 -0.20203194102E+03  0.20203194103E+03  0.25500000000E-02 0.  1.
    5000001    1    1    2    0    0  0.99708302364E+02 -0.59212994216E+02  0.16398819962E+02  0.14016363844E+03  0.77000000000E+02 0.  0.
   -5000001    1    1    2    0    0 -0.99708302364E+02  0.59212994216E+02 -0.10558479941E+03  0.17471426419E+03  0.77000000000E+02 0.  0.
<mgrwt>
<rscale>  0 0.30198337E+03</rscale>
<asrwt>0</asrwt>
<pdfrwt beam="1">  1        2 0.31081837E-01 0.30198337E+03</pdfrwt>
<pdfrwt beam="2">  1       -2 0.17360917E-01 0.30198337E+03</pdfrwt>
<totfact> 0.45049817E+03</totfact>
</mgrwt>
</event>
<event>
 4    1  0.6207184E-004  0.2095748E+03  0.7818608E-02  0.1141903E+00
          2   -1    0    0  501    0  0.00000000000E+00  0.00000000000E+00  0.53950981812E+03  0.53950981812E+03  0.25500000000E-02 0.  1.
         -2   -1    0    0    0  501 -0.00000000000E+00 -0.00000000000E+00 -0.20352550772E+02  0.20352550931E+02  0.25500000000E-02 0. -1.
    5000001    1    1    2    0    0  0.15457516685E+02  0.61371129411E+02  0.34597958833E+03  0.36005031022E+03  0.77000000000E+02 0.  0.
   -5000001    1    1    2    0    0 -0.15457516685E+02 -0.61371129411E+02  0.17317767901E+03  0.19981205884E+03  0.77000000000E+02 0.  0.
<mgrwt>
<rscale>  0 0.20957482E+03</rscale>
<asrwt>0</asrwt>
<pdfrwt beam="1">  1        2 0.83001514E-01 0.20957482E+03</pdfrwt>
<pdfrwt beam="2">  1       -2 0.31311615E-02 0.20957482E+03</pdfrwt>
<totfact> 0.22102806E+04</totfact>
</mgrwt>
</event>
<event>
 4    1  0.6207184E-004  0.2198233E+03  0.7818608E-02  0.1134015E+00
          2   -1    0    0  501    0  0.00000000000E+00  0.00000000000E+00  0.13319174189E+02  0.13319174433E+02  0.25500000000E-02 0.  1.
         -2   -1    0    0    0  501 -0.00000000000E+00 -0.00000000000E+00 -0.90700598467E+03  0.90700598467E+03  0.25500000000E-02 0. -1.
    5000001    1    1    2    0    0  0.11020766677E+02 -0.34629693509E+02 -0.15585110463E+03  0.17759290466E+03  0.77000000000E+02 0.  0.
   -5000001    1    1    2    0    0 -0.11020766677E+02  0.34629693509E+02 -0.73783570584E+03  0.74273225444E+03  0.77000000000E+02 0.  0.
<mgrwt>
<rscale>  0 0.21982330E+03</rscale>
<asrwt>0</asrwt>
<pdfrwt beam="1">  1        2 0.20491044E-02 0.21982330E+03</pdfrwt>
<pdfrwt beam="2">  1       -2 0.13953933E+00 0.21982330E+03</pdfrwt>
<totfact> 0.19986185E+03</totfact>
</mgrwt>
</event>
<event>
 4    1  0.6207184E-004  0.1936422E+03  0.7818608E-02  0.1155217E+00
         -2   -1    0    0    0  501 -0.00000000000E+00  0.00000000000E+00  0.43454123703E+02  0.43454123778E+02  0.25500000000E-02 0. -1.
          2   -1    0    0  501    0  0.00000000000E+00 -0.00000000000E+00 -0.21572914954E+03  0.21572914955E+03  0.25500000000E-02 0.  1.
    5000001    1    1    2    0    0 -0.56914452706E+02  0.13888132444E+02 -0.81277204818E+02  0.12636106668E+03  0.77000000000E+02 0.  0.
   -5000001    1    1    2    0    0  0.56914452706E+02 -0.13888132444E+02 -0.90997821014E+02  0.13282220665E+03  0.77000000000E+02 0.  0.
<mgrwt>
<rscale>  0 0.19364216E+03</rscale>
<asrwt>0</asrwt>
<pdfrwt beam="1">  1        2 0.33189099E-01 0.19364216E+03</pdfrwt>
<pdfrwt beam="2">  1       -2 0.66852499E-02 0.19364216E+03</pdfrwt>
<totfact> 0.18894791E+04</totfact>
</mgrwt>
</event>
<event>
 4    1  0.6207184E-004  0.3566031E+03  0.7818608E-02  0.1059937E+00
          2   -1    0    0  501    0  0.00000000000E+00  0.00000000000E+00  0.16077107960E+04  0.16077107960E+04  0.25500000000E-02 0.  1.
         -2   -1    0    0    0  501 -0.00000000000E+00 -0.00000000000E+00 -0.19774349196E+02  0.19774349360E+02  0.25500000000E-02 0. -1.
    5000001    1    1    2    0    0  0.15255663274E+03 -0.48490500535E+02  0.72362262947E+03  0.74510641168E+03  0.77000000000E+02 0.  0.
   -5000001    1    1    2    0    0 -0.15255663274E+03  0.48490500535E+02  0.86431381737E+03  0.88237873373E+03  0.77000000000E+02 0.  0.
<mgrwt>
<rscale>  0 0.35660306E+03</rscale>
<asrwt>0</asrwt>
<pdfrwt beam="1">  1        2 0.24734018E+00 0.35660306E+03</pdfrwt>
<pdfrwt beam="2">  1       -2 0.30422068E-02 0.35660306E+03</pdfrwt>
<totfact> 0.49667684E+03</totfact>
</mgrwt>
</event>
<event>
 4    1  0.6207184E-004  0.2347251E+03  0.7818608E-02  0.1123358E+00
         -2   -1    0    0    0  501 -0.00000000000E+00  0.00000000000E+00  0.25545335589E+02  0.25545335716E+02  0.25500000000E-02 0. -1.
          2   -1    0    0  501    0  0.00000000000E+00 -0.00000000000E+00 -0.53919682379E+03  0.53919682379E+03  0.25500000000E-02 0.  1.
    5000001    1    1    2    0    0 -0.13323073813E+00  0.88164789567E+02 -0.27722918654E+03  0.30092867882E+03  0.77000000000E+02 0.  0.
   -5000001    1    1    2    0    0  0.13323073813E+00 -0.88164789567E+02 -0.23642230166E+03  0.26381348069E+03  0.77000000000E+02 0.  0.
<mgrwt>
<rscale>  0 0.23472506E+03</rscale>
<asrwt>0</asrwt>
<pdfrwt beam="1">  1        2 0.82953349E-01 0.23472506E+03</pdfrwt>
<pdfrwt beam="2">  1       -2 0.39300520E-02 0.23472506E+03</pdfrwt>
<totfact> 0.15870867E+04</totfact>
</mgrwt>
</event>
<event>
 4    1  0.6207184E-004  0.1954683E+03  0.7818608E-02  0.1153620E+00
          2   -1    0    0  501    0  0.00000000000E+00  0.00000000000E+00  0.12440590207E+03  0.12440590210E+03  0.25500000000E-02 0.  1.
         -2   -1    0    0    0  501 -0.00000000000E+00 -0.00000000000E+00 -0.76780641558E+02  0.76780641600E+02  0.25500000000E-02 0. -1.
    5000001    1    1    2    0    0  0.16318685520E+02 -0.54596599866E+02  0.38579251182E+01  0.95869556170E+02  0.77000000000E+02 0.  0.
   -5000001    1    1    2    0    0 -0.16318685520E+02  0.54596599866E+02  0.43767335393E+02  0.10531698753E+03  0.77000000000E+02 0.  0.
<mgrwt>
<rscale>  0 0.19546831E+03</rscale>
<asrwt>0</asrwt>
<pdfrwt beam="1">  1        2 0.19139370E-01 0.19546831E+03</pdfrwt>
<pdfrwt beam="2">  1       -2 0.11812406E-01 0.19546831E+03</pdfrwt>
<totfact> 0.14279913E+04</totfact>
</mgrwt>
</event>
<event>
 4    1  0.6207184E-004  0.2324765E+03  0.7818608E-02  0.1124909E+00
         -2   -1    0    0    0  501 -0.00000000000E+00  0.00000000000E+00  0.24679380896E+02  0.24679381028E+02  0.25500000000E-02 0. -1.
          2   -1    0    0  501    0  0.00000000000E+00 -0.00000000000E+00 -0.54747429780E+03  0.54747429780E+03  0.25500000000E-02 0.  1.
    5000001    1    1    2    0    0 -0.67910999287E+02  0.49169796368E+02 -0.31926028884E+03  0.33894793808E+03  0.77000000000E+02 0.  0.
   -5000001    1    1    2    0    0  0.67910999287E+02 -0.49169796368E+02 -0.20353462806E+03  0.23320574075E+03  0.77000000000E+02 0.  0.
<mgrwt>
<rscale>  0 0.23247647E+03</rscale>
<asrwt>0</asrwt>
<pdfrwt beam="1">  1        2 0.84226806E-01 0.23247647E+03</pdfrwt>
<pdfrwt beam="2">  1       -2 0.37968283E-02 0.23247647E+03</pdfrwt>
<totfact> 0.16418178E+04</totfact>
</mgrwt>
</event>
<event>
 4    1  0.6207184E-004  0.2140246E+03  0.7818608E-02  0.1138418E+00
          2   -1    0    0  501    0  0.00000000000E+00  0.00000000000E+00  0.86442084261E+03  0.86442084262E+03  0.25500000000E-02 0.  1.
         -2   -1    0    0    0  501 -0.00000000000E+00 -0.00000000000E+00 -0.13247754277E+02  0.13247754522E+02  0.25500000000E-02 0. -1.
    5000001    1    1    2    0    0 -0.19658618968E+02 -0.62261218572E+02  0.57113341053E+03  0.57998732164E+03  0.77000000000E+02 0.  0.
   -5000001    1    1    2    0    0  0.19658618968E+02  0.62261218572E+02  0.28003967781E+03  0.29768127550E+03  0.77000000000E+02 0.  0.
<mgrwt>
<rscale>  0 0.21402462E+03</rscale>
<asrwt>0</asrwt>
<pdfrwt beam="1">  1        2 0.13298782E+00 0.21402462E+03</pdfrwt>
<pdfrwt beam="2">  1       -2 0.20381161E-02 0.21402462E+03</pdfrwt>
<totfact> 0.23647890E+04</totfact>
</mgrwt>
</event>
<event>
 4    1  0.6207184E-004  0.3528431E+03  0.7818608E-02  0.1061454E+00
         -2   -1    0    0    0  501 -0.00000000000E+00  0.00000000000E+00  0.91791974642E+01  0.91791978184E+01  0.25500000000E-02 0.  1.
          2   -1    0    0  501    0  0.00000000000E+00 -0.00000000000E+00 -0.33907708126E+04  0.33907708126E+04  0.25500000000E-02 0. -1.
    5000001    1    1    2    0    0 -0.12178383662E+03  0.10133898890E+03 -0.15970442262E+04  0.16067296456E+04  0.77000000000E+02 0.  0.
   -5000001    1    1    2    0    0  0.12178383662E+03 -0.10133898890E+03 -0.17845473890E+04  0.17932203649E+04  0.77000000000E+02 0.  0.
<mgrwt>
<rscale>  0 0.35284306E+03</rscale>
<asrwt>0</asrwt>
<pdfrwt beam="1">  1        2 0.52165605E+00 0.35284306E+03</pdfrwt>
<pdfrwt beam="2">  1       -2 0.14121869E-02 0.35284306E+03</pdfrwt>
<totfact> 0.15220064E+03</totfact>
</mgrwt>
</event>
<event>
 4    1  0.6207184E-004  0.2571768E+03  0.7818608E-02  0.1108851E+00
          2   -1    0    0  501    0  0.00000000000E+00  0.00000000000E+00  0.72881845295E+03  0.72881845296E+03  0.25500000000E-02 0.  1.
         -2   -1    0    0    0  501 -0.00000000000E+00 -0.00000000000E+00 -0.22687369798E+02  0.22687369942E+02  0.25500000000E-02 0. -1.
    5000001    1    1    2    0    0  0.98960987819E+02 -0.24713825372E+02  0.39458905308E+03  0.41476929863E+03  0.77000000000E+02 0.  0.
   -5000001    1    1    2    0    0 -0.98960987819E+02  0.24713825372E+02  0.31154203008E+03  0.33673652427E+03  0.77000000000E+02 0.  0.
<mgrwt>
<rscale>  0 0.25717678E+03</rscale>
<asrwt>0</asrwt>
<pdfrwt beam="1">  1        2 0.11212593E+00 0.25717678E+03</pdfrwt>
<pdfrwt beam="2">  1       -2 0.34903642E-02 0.25717678E+03</pdfrwt>
<totfact> 0.13367483E+04</totfact>
</mgrwt>
</event>
<event>
 4    1  0.6207184E-004  0.2388108E+03  0.7818608E-02  0.1120588E+00
         -2   -1    0    0    0  501 -0.00000000000E+00  0.00000000000E+00  0.14223801664E+03  0.14223801666E+03  0.25500000000E-02 0. -1.
          2   -1    0    0  501    0  0.00000000000E+00 -0.00000000000E+00 -0.10023793812E+03  0.10023793815E+03  0.25500000000E-02 0.  1.
    5000001    1    1    2    0    0 -0.33323333481E+02 -0.84386392573E+02  0.31007150087E+02  0.12297134285E+03  0.77000000000E+02 0.  0.
   -5000001    1    1    2    0    0  0.33323333481E+02  0.84386392573E+02  0.10992928430E+02  0.11950461197E+03  0.77000000000E+02 0.  0.
<mgrwt>
<rscale>  0 0.23881077E+03</rscale>
<asrwt>0</asrwt>
<pdfrwt beam="1">  1        2 0.15421221E-01 0.23881077E+03</pdfrwt>
<pdfrwt beam="2">  1       -2 0.21882772E-01 0.23881077E+03</pdfrwt>
<totfact> 0.66682449E+03</totfact>
</mgrwt>
</event>
<event>
 4    1  0.6207184E-004  0.3590913E+03  0.7818608E-02  0.1058944E+00
          2   -1    0    0  501    0  0.00000000000E+00  0.00000000000E+00  0.44987002356E+03  0.44987002357E+03  0.25500000000E-02 0. -1.
         -2   -1    0    0    0  501 -0.00000000000E+00 -0.00000000000E+00 -0.71657693973E+02  0.71657694019E+02  0.25500000000E-02 0.  1.
    5000001    1    1    2    0    0  0.61932188802E+02 -0.76453378896E+02  0.37638061684E+03  0.39657544539E+03  0.77000000000E+02 0.  0.
   -5000001    1    1    2    0    0 -0.61932188802E+02  0.76453378896E+02  0.18317127435E+01  0.12495227219E+03  0.77000000000E+02 0.  0.
<mgrwt>
<rscale>  0 0.35909134E+03</rscale>
<asrwt>0</asrwt>
<pdfrwt beam="1">  1        2 0.69210773E-01 0.35909134E+03</pdfrwt>
<pdfrwt beam="2">  1       -2 0.11024261E-01 0.35909134E+03</pdfrwt>
<totfact> 0.39929304E+03</totfact>
</mgrwt>
</event>
<event>
 4    1  0.6207184E-004  0.6882266E+03  0.7818608E-02  0.9737581E-01
         -2   -1    0    0    0  501 -0.00000000000E+00  0.00000000000E+00  0.87093784720E+02  0.87093784757E+02  0.25500000000E-02 0. -1.
          2   -1    0    0  501    0  0.00000000000E+00 -0.00000000000E+00 -0.13596142480E+04  0.13596142480E+04  0.25500000000E-02 0.  1.
    5000001    1    1    2    0    0 -0.15370986974E+03 -0.29671204935E+03 -0.69646151262E+03  0.77630689991E+03  0.77000000000E+02 0.  0.
   -5000001    1    1    2    0    0  0.15370986974E+03  0.29671204935E+03 -0.57605895065E+03  0.67040113284E+03  0.77000000000E+02 0.  0.
<mgrwt>
<rscale>  0 0.68822656E+03</rscale>
<asrwt>0</asrwt>
<pdfrwt beam="1">  1        2 0.20917141E+00 0.68822656E+03</pdfrwt>
<pdfrwt beam="2">  1       -2 0.13399045E-01 0.68822656E+03</pdfrwt>
<totfact> 0.65487375E+02</totfact>
</mgrwt>
</event>
<event>
 4    1  0.6207184E-004  0.2241703E+03  0.7818608E-02  0.1130812E+00
         -2   -1    0    0    0  501 -0.00000000000E+00  0.00000000000E+00  0.15030017447E+02  0.15030017663E+02  0.25500000000E-02 0. -1.
          2   -1    0    0  501    0  0.00000000000E+00 -0.00000000000E+00 -0.83586589825E+03  0.83586589825E+03  0.25500000000E-02 0.  1.
    5000001    1    1    2    0    0 -0.12839765507E+02 -0.44361390895E+02 -0.15575442714E+03  0.17978107284E+03  0.77000000000E+02 0.  0.
   -5000001    1    1    2    0    0  0.12839765507E+02  0.44361390895E+02 -0.66508145366E+03  0.67111484307E+03  0.77000000000E+02 0.  0.
<mgrwt>
<rscale>  0 0.22417028E+03</rscale>
<asrwt>0</asrwt>
<pdfrwt beam="1">  1        2 0.12859472E+00 0.22417028E+03</pdfrwt>
<pdfrwt beam="2">  1       -2 0.23123110E-02 0.22417028E+03</pdfrwt>
<totfact> 0.20578249E+04</totfact>
</mgrwt>
</event>
<event>
 4    1  0.6207184E-004  0.2179243E+03  0.7818608E-02  0.1135440E+00
         -2   -1    0    0    0  501 -0.00000000000E+00  0.00000000000E+00  0.32881578300E+02  0.32881578399E+02  0.25500000000E-02 0. -1.
          2   -1    0    0  501    0  0.00000000000E+00 -0.00000000000E+00 -0.36107605638E+03  0.36107605639E+03  0.25500000000E-02 0.  1.
    5000001    1    1    2    0    0  0.38385922165E+02 -0.59219187203E+02 -0.10798752674E+03  0.15023547212E+03  0.77000000000E+02 0.  0.
   -5000001    1    1    2    0    0 -0.38385922165E+02  0.59219187203E+02 -0.22020695134E+03  0.24372216266E+03  0.77000000000E+02 0.  0.
<mgrwt>
<rscale>  0 0.21792430E+03</rscale>
<asrwt>0</asrwt>
<pdfrwt beam="1">  1        2 0.55550160E-01 0.21792430E+03</pdfrwt>
<pdfrwt beam="2">  1       -2 0.50587046E-02 0.21792430E+03</pdfrwt>
<totfact> 0.16765363E+04</totfact>
</mgrwt>
</event>
<event>
 4    1  0.6207184E-004  0.2022848E+03  0.7818608E-02  0.1147825E+00
         -2   -1    0    0    0  501 -0.00000000000E+00  0.00000000000E+00  0.95572338041E+01  0.95572341443E+01  0.25500000000E-02 0. -1.
          2   -1    0    0  501    0  0.00000000000E+00 -0.00000000000E+00 -0.10703711161E+04  0.10703711161E+04  0.25500000000E-02 0.  1.
    5000001    1    1    2    0    0  0.65067053317E+02  0.53824616729E+00 -0.48678127700E+03  0.49711067457E+03  0.77000000000E+02 0.  0.
   -5000001    1    1    2    0    0 -0.65067053317E+02 -0.53824616729E+00 -0.57403260532E+03  0.58281767569E+03  0.77000000000E+02 0.  0.
<mgrwt>
<rscale>  0 0.20228482E+03</rscale>
<asrwt>0</asrwt>
<pdfrwt beam="1">  1        2 0.16467238E+00 0.20228482E+03</pdfrwt>
<pdfrwt beam="2">  1       -2 0.14703445E-02 0.20228482E+03</pdfrwt>
<totfact> 0.28297027E+04</totfact>
</mgrwt>
</event>
<event>
 4    1  0.6207184E-004  0.2680804E+03  0.7818608E-02  0.1102383E+00
         -2   -1    0    0    0  501 -0.00000000000E+00  0.00000000000E+00  0.11245873059E+03  0.11245873062E+03  0.25500000000E-02 0. -1.
          2   -1    0    0  501    0  0.00000000000E+00 -0.00000000000E+00 -0.15976324924E+03  0.15976324926E+03  0.25500000000E-02 0.  1.
    5000001    1    1    2    0    0  0.28689941613E+02 -0.91475874340E+02  0.30527673416E+02  0.12669604248E+03  0.77000000000E+02 0.  0.
   -5000001    1    1    2    0    0 -0.28689941613E+02  0.91475874340E+02 -0.77832192066E+02  0.14552593741E+03  0.77000000000E+02 0.  0.
<mgrwt>
<rscale>  0 0.26808038E+03</rscale>
<asrwt>0</asrwt>
<pdfrwt beam="1">  1        2 0.24578961E-01 0.26808038E+03</pdfrwt>
<pdfrwt beam="2">  1       -2 0.17301343E-01 0.26808038E+03</pdfrwt>
<totfact> 0.58537024E+03</totfact>
</mgrwt>
</event>
<event>
 4    1  0.6207184E-004  0.2600538E+03  0.7818608E-02  0.1107111E+00
         -2   -1    0    0    0  501 -0.00000000000E+00  0.00000000000E+00  0.90367078090E+01  0.90367081688E+01  0.25500000000E-02 0. -1.
          2   -1    0    0  501    0  0.00000000000E+00 -0.00000000000E+00 -0.18709244521E+04  0.18709244521E+04  0.25500000000E-02 0.  1.
    5000001    1    1    2    0    0 -0.70236810068E+02 -0.75948916774E+02 -0.10511628010E+04  0.10590437582E+04  0.77000000000E+02 0.  0.
   -5000001    1    1    2    0    0  0.70236810068E+02  0.75948916774E+02 -0.81072494329E+03  0.82091740213E+03  0.77000000000E+02 0.  0.
<mgrwt>
<rscale>  0 0.26005382E+03</rscale>
<asrwt>0</asrwt>
<pdfrwt beam="1">  1        2 0.28783422E+00 0.26005382E+03</pdfrwt>
<pdfrwt beam="2">  1       -2 0.13902643E-02 0.26005382E+03</pdfrwt>
<totfact> 0.11439391E+04</totfact>
</mgrwt>
</event>
<event>
 4    1  0.6207184E-004  0.1877380E+03  0.7818608E-02  0.1160517E+00
          2   -1    0    0  501    0  0.00000000000E+00  0.00000000000E+00  0.30116905865E+03  0.30116905866E+03  0.25500000000E-02 0.  1.
         -2   -1    0    0    0  501 -0.00000000000E+00 -0.00000000000E+00 -0.29257298999E+02  0.29257299110E+02  0.25500000000E-02 0. -1.
    5000001    1    1    2    0    0  0.16066905024E+02  0.46861235889E+02  0.99532317760E+02  0.13523979867E+03  0.77000000000E+02 0.  0.
   -5000001    1    1    2    0    0 -0.16066905024E+02 -0.46861235889E+02  0.17237944189E+03  0.19518655910E+03  0.77000000000E+02 0.  0.
<mgrwt>
<rscale>  0 0.18773804E+03</rscale>
<asrwt>0</asrwt>
<pdfrwt beam="1">  1        2 0.46333701E-01 0.18773804E+03</pdfrwt>
<pdfrwt beam="2">  1       -2 0.45011230E-02 0.18773804E+03</pdfrwt>
<totfact> 0.24023518E+04</totfact>
</mgrwt>
</event>
<event>
 4    1  0.6207184E-004  0.1829289E+03  0.7818608E-02  0.1164998E+00
         -2   -1    0    0    0  501 -0.00000000000E+00  0.00000000000E+00  0.93612530805E+01  0.93612534278E+01  0.25500000000E-02 0. -1.
          2   -1    0    0  501    0  0.00000000000E+00 -0.00000000000E+00 -0.89365695975E+03  0.89365695976E+03  0.25500000000E-02 0.  1.
    5000001    1    1    2    0    0 -0.25851318228E+02 -0.40213819410E+02 -0.38142615733E+03  0.39204636897E+03  0.77000000000E+02 0.  0.
   -5000001    1    1    2    0    0  0.25851318228E+02  0.40213819410E+02 -0.50286954934E+03  0.51097184421E+03  0.77000000000E+02 0.  0.
<mgrwt>
<rscale>  0 0.18292894E+03</rscale>
<asrwt>0</asrwt>
<pdfrwt beam="1">  1        2 0.13748562E+00 0.18292894E+03</pdfrwt>
<pdfrwt beam="2">  1       -2 0.14401935E-02 0.18292894E+03</pdfrwt>
<totfact> 0.37137578E+04</totfact>
</mgrwt>
</event>
<event>
 4    1  0.6207184E-004  0.2469405E+03  0.7818608E-02  0.1115254E+00
         -2   -1    0    0    0  501 -0.00000000000E+00  0.00000000000E+00  0.24053720478E+02  0.24053720614E+02  0.25500000000E-02 0. -1.
          2   -1    0    0  501    0  0.00000000000E+00 -0.00000000000E+00 -0.63378562267E+03  0.63378562268E+03  0.25500000000E-02 0.  1.
    5000001    1    1    2    0    0  0.22589113145E+02  0.93775704033E+02 -0.29573375476E+03  0.32045530796E+03  0.77000000000E+02 0.  0.
   -5000001    1    1    2    0    0 -0.22589113145E+02 -0.93775704033E+02 -0.31399814744E+03  0.33738403533E+03  0.77000000000E+02 0.  0.
<mgrwt>
<rscale>  0 0.24694050E+03</rscale>
<asrwt>0</asrwt>
<pdfrwt beam="1">  1        2 0.97505468E-01 0.24694050E+03</pdfrwt>
<pdfrwt beam="2">  1       -2 0.37005729E-02 0.24694050E+03</pdfrwt>
<totfact> 0.14456985E+04</totfact>
</mgrwt>
</event>
<event>
 4    1  0.6207184E-004  0.2105704E+03  0.7818608E-02  0.1141115E+00
          2   -1    0    0  501    0  0.00000000000E+00  0.00000000000E+00  0.10437430427E+04  0.10437430427E+04  0.25500000000E-02 0.  1.
         -2   -1    0    0    0  501 -0.00000000000E+00 -0.00000000000E+00 -0.10620404107E+02  0.10620404413E+02  0.25500000000E-02 0. -1.
    5000001    1    1    2    0    0 -0.34526248237E+02  0.52020830236E+02  0.33898329004E+03  0.35318111433E+03  0.77000000000E+02 0.  0.
   -5000001    1    1    2    0    0  0.34526248237E+02 -0.52020830236E+02  0.69413934851E+03  0.70118233274E+03  0.77000000000E+02 0.  0.
<mgrwt>
<rscale>  0 0.21057040E+03</rscale>
<asrwt>0</asrwt>
<pdfrwt beam="1">  1        2 0.16057587E+00 0.21057040E+03</pdfrwt>
<pdfrwt beam="2">  1       -2 0.16339081E-02 0.21057040E+03</pdfrwt>
<totfact> 0.25230246E+04</totfact>
</mgrwt>
</event>
<event>
 4    1  0.6207184E-004  0.2262454E+03  0.7818608E-02  0.1129311E+00
          2   -1    0    0  501    0  0.00000000000E+00  0.00000000000E+00  0.13525893576E+03  0.13525893578E+03  0.25500000000E-02 0.  1.
         -2   -1    0    0    0  501 -0.00000000000E+00 -0.00000000000E+00 -0.94609282590E+02  0.94609282624E+02  0.25500000000E-02 0. -1.
    5000001    1    1    2    0    0 -0.30745704104E+02  0.73503168742E+02  0.43487612240E+02  0.11903019178E+03  0.77000000000E+02 0.  0.
   -5000001    1    1    2    0    0  0.30745704104E+02 -0.73503168742E+02 -0.28379590710E+01  0.11083802663E+03  0.77000000000E+02 0.  0.
<mgrwt>
<rscale>  0 0.22624545E+03</rscale>
<asrwt>0</asrwt>
<pdfrwt beam="1">  1        2 0.20809067E-01 0.22624545E+03</pdfrwt>
<pdfrwt beam="2">  1       -2 0.14555274E-01 0.22624545E+03</pdfrwt>
<totfact> 0.93361251E+03</totfact>
</mgrwt>
</event>
<event>
 4    1  0.6207184E-004  0.2411921E+03  0.7818608E-02  0.1119001E+00
          2   -1    0    0  501    0  0.00000000000E+00  0.00000000000E+00  0.43149025936E+03  0.43149025937E+03  0.25500000000E-02 0.  1.
         -2   -1    0    0    0  501 -0.00000000000E+00 -0.00000000000E+00 -0.33705057621E+02  0.33705057718E+02  0.25500000000E-02 0. -1.
    5000001    1    1    2    0    0  0.74579868307E+02 -0.37044195826E+02  0.11983862864E+03  0.16499917005E+03  0.77000000000E+02 0.  0.
   -5000001    1    1    2    0    0 -0.74579868307E+02  0.37044195826E+02  0.27794657310E+03  0.30019614704E+03  0.77000000000E+02 0.  0.
<mgrwt>
<rscale>  0 0.24119207E+03</rscale>
<asrwt>0</asrwt>
<pdfrwt beam="1">  1        2 0.66383121E-01 0.24119207E+03</pdfrwt>
<pdfrwt beam="2">  1       -2 0.51853932E-02 0.24119207E+03</pdfrwt>
<totfact> 0.13394759E+04</totfact>
</mgrwt>
</event>
<event>
 4    1  0.6207184E-004  0.1934999E+03  0.7818608E-02  0.1155342E+00
         -2   -1    0    0    0  501 -0.00000000000E+00  0.00000000000E+00  0.22055541255E+02  0.22055541402E+02  0.25500000000E-02 0. -1.
          2   -1    0    0  501    0  0.00000000000E+00 -0.00000000000E+00 -0.42440836889E+03  0.42440836890E+03  0.25500000000E-02 0.  1.
    5000001    1    1    2    0    0 -0.45243739480E+02 -0.37119506785E+02 -0.20714988064E+03  0.22861523745E+03  0.77000000000E+02 0.  0.
   -5000001    1    1    2    0    0  0.45243739480E+02  0.37119506785E+02 -0.19520294700E+03  0.21784867285E+03  0.77000000000E+02 0.  0.
<mgrwt>
<rscale>  0 0.19349994E+03</rscale>
<asrwt>0</asrwt>
<pdfrwt beam="1">  1        2 0.65293589E-01 0.19349994E+03</pdfrwt>
<pdfrwt beam="2">  1       -2 0.33931605E-02 0.19349994E+03</pdfrwt>
<totfact> 0.25419076E+04</totfact>
</mgrwt>
</event>
<event>
 4    1  0.6207184E-004  0.2882486E+03  0.7818608E-02  0.1091267E+00
          2   -1    0    0  501    0  0.00000000000E+00  0.00000000000E+00  0.14384395238E+04  0.14384395238E+04  0.25500000000E-02 0.  1.
         -2   -1    0    0    0  501 -0.00000000000E+00 -0.00000000000E+00 -0.14440523235E+02  0.14440523461E+02  0.25500000000E-02 0. -1.
    5000001    1    1    2    0    0  0.72092016735E+02 -0.53282415681E+02  0.29615989659E+03  0.31886667911E+03  0.77000000000E+02 0.  0.
   -5000001    1    1    2    0    0 -0.72092016735E+02  0.53282415681E+02  0.11278391040E+04  0.11340133682E+04  0.77000000000E+02 0.  0.
<mgrwt>
<rscale>  0 0.28824864E+03</rscale>
<asrwt>0</asrwt>
<pdfrwt beam="1">  1        2 0.22129847E+00 0.28824864E+03</pdfrwt>
<pdfrwt beam="2">  1       -2 0.22216181E-02 0.28824864E+03</pdfrwt>
<totfact> 0.97590193E+03</totfact>
</mgrwt>
</event>
<event>
 4    1  0.6207184E-004  0.3047499E+03  0.7818608E-02  0.1082890E+00
         -2   -1    0    0    0  501 -0.00000000000E+00  0.00000000000E+00  0.28277871967E+02  0.28277872082E+02  0.25500000000E-02 0. -1.
          2   -1    0    0  501    0  0.00000000000E+00 -0.00000000000E+00 -0.82107036347E+03  0.82107036348E+03  0.25500000000E-02 0.  1.
    5000001    1    1    2    0    0 -0.70610482315E+02  0.85756942579E+02 -0.20033026191E+03  0.24166362418E+03  0.77000000000E+02 0.  0.
   -5000001    1    1    2    0    0  0.70610482315E+02 -0.85756942579E+02 -0.59246222960E+03  0.60768461138E+03  0.77000000000E+02 0.  0.
<mgrwt>
<rscale>  0 0.30474988E+03</rscale>
<asrwt>0</asrwt>
<pdfrwt beam="1">  1        2 0.12631850E+00 0.30474988E+03</pdfrwt>
<pdfrwt beam="2">  1       -2 0.43504425E-02 0.30474988E+03</pdfrwt>
<totfact> 0.83094878E+03</totfact>
</mgrwt>
</event>
<event>
 4    1  0.6207184E-004  0.2759837E+03  0.7818608E-02  0.1097903E+00
          2   -1    0    0  501    0  0.00000000000E+00  0.00000000000E+00  0.28705766230E+02  0.28705766343E+02  0.25500000000E-02 0.  1.
         -2   -1    0    0    0  501 -0.00000000000E+00 -0.00000000000E+00 -0.66334252246E+03  0.66334252247E+03  0.25500000000E-02 0. -1.
    5000001    1    1    2    0    0  0.10744326545E+03 -0.26884487607E+02 -0.24438628083E+03  0.27914241029E+03  0.77000000000E+02 0.  0.
   -5000001    1    1    2    0    0 -0.10744326545E+03  0.26884487607E+02 -0.39025047540E+03  0.41290587852E+03  0.77000000000E+02 0.  0.
<mgrwt>
<rscale>  0 0.27598373E+03</rscale>
<asrwt>0</asrwt>
<pdfrwt beam="1">  1        2 0.44162723E-02 0.27598373E+03</pdfrwt>
<pdfrwt beam="2">  1       -2 0.10205268E+00 0.27598373E+03</pdfrwt>
<totfact> 0.15163543E+03</totfact>
</mgrwt>
</event>
<event>
 4    1  0.6207184E-004  0.2068766E+03  0.7818608E-02  0.1144064E+00
         -2   -1    0    0    0  501 -0.00000000000E+00  0.00000000000E+00  0.16436269568E+03  0.16436269570E+03  0.25500000000E-02 0. -1.
          2   -1    0    0  501    0  0.00000000000E+00 -0.00000000000E+00 -0.65096772801E+02  0.65096772851E+02  0.25500000000E-02 0.  1.
    5000001    1    1    2    0    0 -0.44449559541E+02 -0.18548971921E+02 -0.52750320441E+01  0.90976115908E+02  0.77000000000E+02 0.  0.
   -5000001    1    1    2    0    0  0.44449559541E+02  0.18548971921E+02  0.10454095492E+03  0.13848335264E+03  0.77000000000E+02 0.  0.
<mgrwt>
<rscale>  0 0.20687659E+03</rscale>
<asrwt>0</asrwt>
<pdfrwt beam="1">  1        2 0.10014888E-01 0.20687659E+03</pdfrwt>
<pdfrwt beam="2">  1       -2 0.25286568E-01 0.20687659E+03</pdfrwt>
<totfact> 0.86612588E+03</totfact>
</mgrwt>
</event>
<event>
 4    1  0.6207184E-004  0.2016318E+03  0.7818608E-02  0.1148369E+00
          2   -1    0    0  501    0  0.00000000000E+00  0.00000000000E+00  0.11905719844E+04  0.11905719844E+04  0.25500000000E-02 0.  1.
         -2   -1    0    0    0  501 -0.00000000000E+00 -0.00000000000E+00 -0.85369471594E+01  0.85369475403E+01  0.25500000000E-02 0. -1.
    5000001    1    1    2    0    0  0.55924924139E+02 -0.31439795313E+02  0.52619976318E+03  0.53565963880E+03  0.77000000000E+02 0.  0.
   -5000001    1    1    2    0    0 -0.55924924139E+02  0.31439795313E+02  0.65583527408E+03  0.66344929316E+03  0.77000000000E+02 0.  0.
<mgrwt>
<rscale>  0 0.20163185E+03</rscale>
<asrwt>0</asrwt>
<pdfrwt beam="1">  1        2 0.18316486E+00 0.20163185E+03</pdfrwt>
<pdfrwt beam="2">  1       -2 0.13133770E-02 0.20163185E+03</pdfrwt>
<totfact> 0.28421585E+04</totfact>
</mgrwt>
</event>
<event>
 4    1  0.6207184E-004  0.2078082E+03  0.7818608E-02  0.1143314E+00
          2   -1    0    0  501    0  0.00000000000E+00  0.00000000000E+00  0.29346481628E+04  0.29346481628E+04  0.25500000000E-02 0.  1.
         -2   -1    0    0    0  501 -0.00000000000E+00 -0.00000000000E+00 -0.36788262054E+01  0.36788270892E+01  0.25500000000E-02 0. -1.
    5000001    1    1    2    0    0  0.23438789271E+02 -0.64348333005E+02  0.12773815752E+04  0.12815314172E+04  0.77000000000E+02 0.  0.
   -5000001    1    1    2    0    0 -0.23438789271E+02  0.64348333005E+02  0.16535877615E+04  0.16567955727E+04  0.77000000000E+02 0.  0.
<mgrwt>
<rscale>  0 0.20780820E+03</rscale>
<asrwt>0</asrwt>
<pdfrwt beam="1">  1        2 0.45148477E+00 0.20780820E+03</pdfrwt>
<pdfrwt beam="2">  1       -2 0.56597278E-03 0.20780820E+03</pdfrwt>
<totfact> 0.11049783E+04</totfact>
</mgrwt>
</event>
<event>
 4    1  0.6207184E-004  0.2713097E+03  0.7818608E-02  0.1100532E+00
          2   -1    0    0  501    0  0.00000000000E+00  0.00000000000E+00  0.42857432021E+03  0.42857432021E+03  0.25500000000E-02 0.  1.
         -2   -1    0    0    0  501 -0.00000000000E+00 -0.00000000000E+00 -0.42938277189E+02  0.42938277265E+02  0.25500000000E-02 0. -1.
    5000001    1    1    2    0    0  0.42759946183E+02  0.80449468451E+02  0.30508116067E+03  0.32757296068E+03  0.77000000000E+02 0.  0.
   -5000001    1    1    2    0    0 -0.42759946183E+02 -0.80449468451E+02  0.80554882342E+02  0.14393963680E+03  0.77000000000E+02 0.  0.
<mgrwt>
<rscale>  0 0.27130973E+03</rscale>
<asrwt>0</asrwt>
<pdfrwt beam="1">  1        2 0.65934511E-01 0.27130973E+03</pdfrwt>
<pdfrwt beam="2">  1       -2 0.66058888E-02 0.27130973E+03</pdfrwt>
<totfact> 0.93659169E+03</totfact>
</mgrwt>
</event>
<event>
 4    1  0.6207184E-004  0.4545014E+03  0.7818608E-02  0.1026388E+00
         -2   -1    0    0    0  501 -0.00000000000E+00  0.00000000000E+00  0.38423104608E+02  0.38423104693E+02  0.25500000000E-02 0. -1.
          2   -1    0    0  501    0  0.00000000000E+00 -0.00000000000E+00 -0.13440578155E+04  0.13440578155E+04  0.25500000000E-02 0.  1.
    5000001    1    1    2    0    0  0.96646768843E+02  0.12873111936E+03 -0.10808469689E+04  0.10954777356E+04  0.77000000000E+02 0.  0.
   -5000001    1    1    2    0    0 -0.96646768843E+02 -0.12873111936E+03 -0.22478774202E+03  0.28700318462E+03  0.77000000000E+02 0.  0.
<mgrwt>
<rscale>  0 0.45450137E+03</rscale>
<asrwt>0</asrwt>
<pdfrwt beam="1">  1        2 0.20677809E+00 0.45450137E+03</pdfrwt>
<pdfrwt beam="2">  1       -2 0.59112479E-02 0.45450137E+03</pdfrwt>
<totfact> 0.25096880E+03</totfact>
</mgrwt>
</event>
<event>
 4    1  0.6207184E-004  0.2081412E+03  0.7818608E-02  0.1143046E+00
         -2   -1    0    0    0  501 -0.00000000000E+00  0.00000000000E+00  0.10368494981E+03  0.10368494984E+03  0.25500000000E-02 0. -1.
          2   -1    0    0  501    0  0.00000000000E+00 -0.00000000000E+00 -0.10445765347E+03  0.10445765350E+03  0.25500000000E-02 0.  1.
    5000001    1    1    2    0    0 -0.53253425302E+02  0.43653588155E+02 -0.13040430440E+02  0.10411827837E+03  0.77000000000E+02 0.  0.
   -5000001    1    1    2    0    0  0.53253425302E+02 -0.43653588155E+02  0.12267726773E+02  0.10402432497E+03  0.77000000000E+02 0.  0.
<mgrwt>
<rscale>  0 0.20814117E+03</rscale>
<asrwt>0</asrwt>
<pdfrwt beam="1">  1        2 0.16070408E-01 0.20814117E+03</pdfrwt>
<pdfrwt beam="2">  1       -2 0.15951531E-01 0.20814117E+03</pdfrwt>
<totfact> 0.10759899E+04</totfact>
</mgrwt>
</event>
<event>
 4    1  0.6207184E-004  0.2970240E+03  0.7818608E-02  0.1086738E+00
          2   -1    0    0  501    0  0.00000000000E+00  0.00000000000E+00  0.14325354398E+04  0.14325354398E+04  0.25500000000E-02 0.  1.
         -2   -1    0    0    0  501 -0.00000000000E+00 -0.00000000000E+00 -0.15396350610E+02  0.15396350821E+02  0.25500000000E-02 0. -1.
    5000001    1    1    2    0    0 -0.76570537218E+02 -0.97587652451E+02  0.84121606939E+03  0.85379146897E+03  0.77000000000E+02 0.  0.
   -5000001    1    1    2    0    0  0.76570537218E+02  0.97587652451E+02  0.57592301976E+03  0.59414032162E+03  0.77000000000E+02 0.  0.
<mgrwt>
<rscale>  0 0.29702403E+03</rscale>
<asrwt>0</asrwt>
<pdfrwt beam="1">  1        2 0.22039016E+00 0.29702403E+03</pdfrwt>
<pdfrwt beam="2">  1       -2 0.23686683E-02 0.29702403E+03</pdfrwt>
<totfact> 0.89466204E+03</totfact>
</mgrwt>
</event>
<event>
 4    1  0.6207184E-004  0.1979701E+03  0.7818608E-02  0.1151463E+00
          2   -1    0    0  501    0  0.00000000000E+00  0.00000000000E+00  0.70210602212E+03  0.70210602213E+03  0.25500000000E-02 0.  1.
         -2   -1    0    0    0  501 -0.00000000000E+00 -0.00000000000E+00 -0.13955216347E+02  0.13955216580E+02  0.25500000000E-02 0. -1.
    5000001    1    1    2    0    0  0.34828581872E+02  0.49672381103E+02  0.29439360432E+03  0.31028530392E+03  0.77000000000E+02 0.  0.
   -5000001    1    1    2    0    0 -0.34828581872E+02 -0.49672381103E+02  0.39375720145E+03  0.40577593479E+03  0.77000000000E+02 0.  0.
<mgrwt>
<rscale>  0 0.19797011E+03</rscale>
<asrwt>0</asrwt>
<pdfrwt beam="1">  1        2 0.10801632E+00 0.19797011E+03</pdfrwt>
<pdfrwt beam="2">  1       -2 0.21469563E-02 0.19797011E+03</pdfrwt>
<totfact> 0.28274622E+04</totfact>
</mgrwt>
</event>
<event>
 4    1  0.6207184E-004  0.2789813E+03  0.7818608E-02  0.1096247E+00
         -2   -1    0    0    0  501 -0.00000000000E+00  0.00000000000E+00  0.51506715447E+02  0.51506715510E+02  0.25500000000E-02 0. -1.
          2   -1    0    0  501    0  0.00000000000E+00 -0.00000000000E+00 -0.37776896420E+03  0.37776896421E+03  0.25500000000E-02 0.  1.
    5000001    1    1    2    0    0  0.70166197341E+02 -0.59620959516E+02 -0.27248554477E+03  0.29775044278E+03  0.77000000000E+02 0.  0.
   -5000001    1    1    2    0    0 -0.70166197341E+02  0.59620959516E+02 -0.53776703985E+02  0.13152523695E+03  0.77000000000E+02 0.  0.
<mgrwt>
<rscale>  0 0.27898128E+03</rscale>
<asrwt>0</asrwt>
<pdfrwt beam="1">  1        2 0.58118300E-01 0.27898128E+03</pdfrwt>
<pdfrwt beam="2">  1       -2 0.79241103E-02 0.27898128E+03</pdfrwt>
<totfact> 0.81095475E+03</totfact>
</mgrwt>
</event>
<event>
 4    1  0.6207184E-004  0.3851834E+03  0.7818608E-02  0.1049034E+00
          2   -1    0    0  501    0  0.00000000000E+00  0.00000000000E+00  0.99922567838E+03  0.99922567838E+03  0.25500000000E-02 0.  1.
         -2   -1    0    0    0  501 -0.00000000000E+00 -0.00000000000E+00 -0.37120307811E+02  0.37120307899E+02  0.25500000000E-02 0. -1.
    5000001    1    1    2    0    0  0.16896618523E+03 -0.35748167395E+02  0.38274491518E+03  0.42690768711E+03  0.77000000000E+02 0.  0.
   -5000001    1    1    2    0    0 -0.16896618523E+03  0.35748167395E+02  0.57936045539E+03  0.60943829917E+03  0.77000000000E+02 0.  0.
<mgrwt>
<rscale>  0 0.38518341E+03</rscale>
<asrwt>0</asrwt>
<pdfrwt beam="1">  1        2 0.15372704E+00 0.38518341E+03</pdfrwt>
<pdfrwt beam="2">  1       -2 0.57108162E-02 0.38518341E+03</pdfrwt>
<totfact> 0.42163085E+03</totfact>
</mgrwt>
</event>
<event>
 4    1  0.6207184E-004  0.1795635E+03  0.7818608E-02  0.1168226E+00
          2   -1    0    0  501    0  0.00000000000E+00  0.00000000000E+00  0.12293822986E+02  0.12293823251E+02  0.25500000000E-02 0.  1.
         -2   -1    0    0    0  501 -0.00000000000E+00 -0.00000000000E+00 -0.65567581560E+03  0.65567581561E+03  0.25500000000E-02 0. -1.
    5000001    1    1    2    0    0 -0.36854544791E+02  0.75956733035E+01 -0.22216471409E+03  0.23812205255E+03  0.77000000000E+02 0.  0.
   -5000001    1    1    2    0    0  0.36854544791E+02 -0.75956733035E+01 -0.42121727853E+03  0.42984758631E+03  0.77000000000E+02 0.  0.
<mgrwt>
<rscale>  0 0.17956350E+03</rscale>
<asrwt>0</asrwt>
<pdfrwt beam="1">  1        2 0.18913579E-02 0.17956350E+03</pdfrwt>
<pdfrwt beam="2">  1       -2 0.10087318E+00 0.17956350E+03</pdfrwt>
<totfact> 0.48188609E+03</totfact>
</mgrwt>
</event>
<event>
 4    1  0.6207184E-004  0.3733349E+03  0.7818608E-02  0.1053425E+00
          2   -1    0    0  501    0  0.00000000000E+00  0.00000000000E+00  0.10155415469E+04  0.10155415469E+04  0.25500000000E-02 0.  1.
         -2   -1    0    0    0  501 -0.00000000000E+00 -0.00000000000E+00 -0.34311485572E+02  0.34311485667E+02  0.25500000000E-02 0. -1.
    5000001    1    1    2    0    0 -0.85968581859E+02 -0.13993492475E+03  0.61458212314E+03  0.64079057914E+03  0.77000000000E+02 0.  0.
   -5000001    1    1    2    0    0  0.85968581859E+02  0.13993492475E+03  0.36664793822E+03  0.40906245346E+03  0.77000000000E+02 0.  0.
<mgrwt>
<rscale>  0 0.37333491E+03</rscale>
<asrwt>0</asrwt>
<pdfrwt beam="1">  1        2 0.15623715E+00 0.37333491E+03</pdfrwt>
<pdfrwt beam="2">  1       -2 0.52786905E-02 0.37333491E+03</pdfrwt>
<totfact> 0.46488465E+03</totfact>
</mgrwt>
</event>
<event>
 4    1  0.6207184E-004  0.2484996E+03  0.7818608E-02  0.1114257E+00
          2   -1    0    0  501    0  0.00000000000E+00  0.00000000000E+00  0.40727254425E+04  0.40727254425E+04  0.25500000000E-02 0.  1.
         -2   -1    0    0    0  501 -0.00000000000E+00 -0.00000000000E+00 -0.37905859184E+01  0.37905867762E+01  0.25500000000E-02 0. -1.
    5000001    1    1    2    0    0  0.93986663185E+02 -0.16174981630E+02  0.23682074282E+04  0.23713773520E+04  0.77000000000E+02 0.  0.
   -5000001    1    1    2    0    0 -0.93986663185E+02  0.16174981630E+02  0.17007274284E+04  0.17051386772E+04  0.77000000000E+02 0.  0.
<mgrwt>
<rscale>  0 0.24849964E+03</rscale>
<asrwt>0</asrwt>
<pdfrwt beam="1">  1        2 0.62657381E+00 0.24849964E+03</pdfrwt>
<pdfrwt beam="2">  1       -2 0.58316652E-03 0.24849964E+03</pdfrwt>
<totfact> 0.18377759E+03</totfact>
</mgrwt>
</event>
<event>
 4    1  0.6207184E-004  0.2142687E+03  0.7818608E-02  0.1138230E+00
         -2   -1    0    0    0  501 -0.00000000000E+00  0.00000000000E+00  0.32314783562E+02  0.32314783663E+02  0.25500000000E-02 0. -1.
          2   -1    0    0  501    0  0.00000000000E+00 -0.00000000000E+00 -0.35518615911E+03  0.35518615912E+03  0.25500000000E-02 0.  1.
    5000001    1    1    2    0    0  0.14812209484E+02  0.36412905289E+02 -0.27586361092E+03  0.28909346768E+03  0.77000000000E+02 0.  0.
   -5000001    1    1    2    0    0 -0.14812209484E+02 -0.36412905289E+02 -0.47007764622E+02  0.98407475103E+02  0.77000000000E+02 0.  0.
<mgrwt>
<rscale>  0 0.21426865E+03</rscale>
<asrwt>0</asrwt>
<pdfrwt beam="1">  1        2 0.54644022E-01 0.21426865E+03</pdfrwt>
<pdfrwt beam="2">  1       -2 0.49715054E-02 0.21426865E+03</pdfrwt>
<totfact> 0.17500419E+04</totfact>
</mgrwt>
</event>
<event>
 4    1  0.6207184E-004  0.1927599E+03  0.7818608E-02  0.1155995E+00
         -2   -1    0    0    0  501 -0.00000000000E+00  0.00000000000E+00  0.17055366941E+02  0.17055367131E+02  0.25500000000E-02 0. -1.
          2   -1    0    0  501    0  0.00000000000E+00 -0.00000000000E+00 -0.54464345930E+03  0.54464345931E+03  0.25500000000E-02 0.  1.
    5000001    1    1    2    0    0 -0.26415293809E+02  0.34252750859E+02 -0.15134774183E+03  0.17523172557E+03  0.77000000000E+02 0.  0.
   -5000001    1    1    2    0    0  0.26415293809E+02 -0.34252750859E+02 -0.37624035053E+03  0.38646710087E+03  0.77000000000E+02 0.  0.
<mgrwt>
<rscale>  0 0.19275989E+03</rscale>
<asrwt>0</asrwt>
<pdfrwt beam="1">  1        2 0.83791288E-01 0.19275989E+03</pdfrwt>
<pdfrwt beam="2">  1       -2 0.26239030E-02 0.19275989E+03</pdfrwt>
<totfact> 0.28226265E+04</totfact>
</mgrwt>
</event>
<event>
 4    1  0.6207184E-004  0.2730249E+03  0.7818608E-02  0.1099561E+00
         -2   -1    0    0    0  501 -0.00000000000E+00  0.00000000000E+00  0.34823149677E+02  0.34823149771E+02  0.25500000000E-02 0. -1.
          2   -1    0    0  501    0  0.00000000000E+00 -0.00000000000E+00 -0.53515127262E+03  0.53515127262E+03  0.25500000000E-02 0.  1.
    5000001    1    1    2    0    0  0.12479913537E+02 -0.97611042140E+02 -0.36494541879E+03  0.38574320796E+03  0.77000000000E+02 0.  0.
   -5000001    1    1    2    0    0 -0.12479913537E+02  0.97611042140E+02 -0.13538270415E+03  0.18423121444E+03  0.77000000000E+02 0.  0.
<mgrwt>
<rscale>  0 0.27302493E+03</rscale>
<asrwt>0</asrwt>
<pdfrwt beam="1">  1        2 0.82330959E-01 0.27302493E+03</pdfrwt>
<pdfrwt beam="2">  1       -2 0.53574080E-02 0.27302493E+03</pdfrwt>
<totfact> 0.10091265E+04</totfact>
</mgrwt>
</event>
<event>
 4    1  0.6207184E-004  0.2857149E+03  0.7818608E-02  0.1092608E+00
          2   -1    0    0  501    0  0.00000000000E+00  0.00000000000E+00  0.53077540593E+03  0.53077540593E+03  0.25500000000E-02 0.  1.
         -2   -1    0    0    0  501 -0.00000000000E+00 -0.00000000000E+00 -0.38449880632E+02  0.38449880716E+02  0.25500000000E-02 0. -1.
    5000001    1    1    2    0    0 -0.46964153057E+02  0.98983165203E+02  0.34529671860E+03  0.37035405026E+03  0.77000000000E+02 0.  0.
   -5000001    1    1    2    0    0  0.46964153057E+02 -0.98983165203E+02  0.14702880670E+03  0.19887123640E+03  0.77000000000E+02 0.  0.
<mgrwt>
<rscale>  0 0.28571490E+03</rscale>
<asrwt>0</asrwt>
<pdfrwt beam="1">  1        2 0.81657757E-01 0.28571490E+03</pdfrwt>
<pdfrwt beam="2">  1       -2 0.59153661E-02 0.28571490E+03</pdfrwt>
<totfact> 0.87679227E+03</totfact>
</mgrwt>
</event>
<event>
 4    1  0.6207184E-004  0.3832401E+03  0.7818608E-02  0.1049743E+00
          2   -1    0    0  501    0  0.00000000000E+00  0.00000000000E+00  0.33497859652E+03  0.33497859653E+03  0.25500000000E-02 0.  1.
         -2   -1    0    0    0  501 -0.00000000000E+00 -0.00000000000E+00 -0.10961368834E+03  0.10961368837E+03  0.25500000000E-02 0. -1.
    5000001    1    1    2    0    0 -0.99532791901E+02  0.13930310972E+03  0.15726828841E+03  0.24489681007E+03  0.77000000000E+02 0.  0.
   -5000001    1    1    2    0    0  0.99532791901E+02 -0.13930310972E+03  0.68096619768E+02  0.19969547483E+03  0.77000000000E+02 0.  0.
<mgrwt>
<rscale>  0 0.38324008E+03</rscale>
<asrwt>0</asrwt>
<pdfrwt beam="1">  1        2 0.51535169E-01 0.38324008E+03</pdfrwt>
<pdfrwt beam="2">  1       -2 0.16863644E-01 0.38324008E+03</pdfrwt>
<totfact> 0.27422113E+03</totfact>
</mgrwt>
</event>
<event>
 4    1  0.6207184E-004  0.2678837E+03  0.7818608E-02  0.1102497E+00
         -2   -1    0    0    0  501 -0.00000000000E+00  0.00000000000E+00  0.59162956453E+01  0.59162961949E+01  0.25500000000E-02 0. -1.
          2   -1    0    0  501    0  0.00000000000E+00 -0.00000000000E+00 -0.30323729931E+04  0.30323729931E+04  0.25500000000E-02 0.  1.
    5000001    1    1    2    0    0 -0.63291739005E+02  0.32173778969E+02 -0.24601462714E+04  0.24623748035E+04  0.77000000000E+02 0.  0.
   -5000001    1    1    2    0    0  0.63291739005E+02 -0.32173778969E+02 -0.56631042605E+03  0.57591448578E+03  0.77000000000E+02 0.  0.
<mgrwt>
<rscale>  0 0.26788368E+03</rscale>
<asrwt>0</asrwt>
<pdfrwt beam="1">  1        2 0.46651768E+00 0.26788368E+03</pdfrwt>
<pdfrwt beam="2">  1       -2 0.91020179E-03 0.26788368E+03</pdfrwt>
<totfact> 0.48745371E+03</totfact>
</mgrwt>
</event>
<event>
 4    1  0.6207184E-004  0.3675345E+03  0.7818608E-02  0.1055640E+00
         -2   -1    0    0    0  501 -0.00000000000E+00  0.00000000000E+00  0.77083596781E+02  0.77083596823E+02  0.25500000000E-02 0. -1.
          2   -1    0    0  501    0  0.00000000000E+00 -0.00000000000E+00 -0.43810096556E+03  0.43810096557E+03  0.25500000000E-02 0.  1.
    5000001    1    1    2    0    0  0.32661651684E+02  0.11002645891E+03 -0.35027907388E+03  0.37655947041E+03  0.77000000000E+02 0.  0.
   -5000001    1    1    2    0    0 -0.32661651684E+02 -0.11002645891E+03 -0.10738294900E+02  0.13862509199E+03  0.77000000000E+02 0.  0.
<mgrwt>
<rscale>  0 0.36753448E+03</rscale>
<asrwt>0</asrwt>
<pdfrwt beam="1">  1        2 0.67400147E-01 0.36753448E+03</pdfrwt>
<pdfrwt beam="2">  1       -2 0.11859015E-01 0.36753448E+03</pdfrwt>
<totfact> 0.36554398E+03</totfact>
</mgrwt>
</event>
<event>
 4    1  0.6207184E-004  0.4663654E+03  0.7818608E-02  0.1022951E+00
          2   -1    0    0  501    0  0.00000000000E+00  0.00000000000E+00  0.18927552197E+04  0.18927552197E+04  0.25500000000E-02 0.  1.
         -2   -1    0    0    0  501 -0.00000000000E+00 -0.00000000000E+00 -0.28727522151E+02  0.28727522265E+02  0.25500000000E-02 0. -1.
    5000001    1    1    2    0    0 -0.18350815484E+03  0.11573639567E+03  0.10847927341E+04  0.11089519522E+04  0.77000000000E+02 0.  0.
   -5000001    1    1    2    0    0  0.18350815484E+03 -0.11573639567E+03  0.77923496347E+03  0.81253078986E+03  0.77000000000E+02 0.  0.
<mgrwt>
<rscale>  0 0.46636538E+03</rscale>
<asrwt>0</asrwt>
<pdfrwt beam="1">  1        2 0.29119308E+00 0.46636538E+03</pdfrwt>
<pdfrwt beam="2">  1       -2 0.44196192E-02 0.46636538E+03</pdfrwt>
<totfact> 0.19789606E+03</totfact>
</mgrwt>
</event>
<event>
 4    1  0.6207184E-004  0.2149848E+03  0.7818608E-02  0.1137678E+00
          2   -1    0    0  501    0  0.00000000000E+00  0.00000000000E+00  0.21009824685E+04  0.21009824685E+04  0.25500000000E-02 0.  1.
         -2   -1    0    0    0  501 -0.00000000000E+00 -0.00000000000E+00 -0.54996250522E+01  0.54996256434E+01  0.25500000000E-02 0. -1.
    5000001    1    1    2    0    0 -0.51429045892E+02  0.49101786985E+02  0.81387541773E+03  0.82059620266E+03  0.77000000000E+02 0.  0.
   -5000001    1    1    2    0    0  0.51429045892E+02 -0.49101786985E+02  0.12816074257E+04  0.12858858915E+04  0.77000000000E+02 0.  0.
<mgrwt>
<rscale>  0 0.21498480E+03</rscale>
<asrwt>0</asrwt>
<pdfrwt beam="1">  1        2 0.32322853E+00 0.21498480E+03</pdfrwt>
<pdfrwt beam="2">  1       -2 0.84609500E-03 0.21498480E+03</pdfrwt>
<totfact> 0.17727375E+04</totfact>
</mgrwt>
</event>
<event>
 4    1  0.6207184E-004  0.6539781E+03  0.7818608E-02  0.9799343E-01
         -2   -1    0    0    0  501 -0.00000000000E+00  0.00000000000E+00  0.21358723624E+03  0.21358723626E+03  0.25500000000E-02 0. -1.
          2   -1    0    0  501    0  0.00000000000E+00 -0.00000000000E+00 -0.50060036460E+03  0.50060036461E+03  0.25500000000E-02 0.  1.
    5000001    1    1    2    0    0  0.12263698317E+03 -0.11681595154E+03  0.15014979484E+03  0.23908106798E+03  0.77000000000E+02 0.  0.
   -5000001    1    1    2    0    0 -0.12263698317E+03  0.11681595154E+03 -0.43716292320E+03  0.47510653289E+03  0.77000000000E+02 0.  0.
<mgrwt>
<rscale>  0 0.65397813E+03</rscale>
<asrwt>0</asrwt>
<pdfrwt beam="1">  1        2 0.77015440E-01 0.65397813E+03</pdfrwt>
<pdfrwt beam="2">  1       -2 0.32859575E-01 0.65397813E+03</pdfrwt>
<totfact> 0.53484955E+02</totfact>
</mgrwt>
</event>
<event>
 4    1  0.6207184E-004  0.2556470E+03  0.7818608E-02  0.1109787E+00
          2   -1    0    0  501    0  0.00000000000E+00  0.00000000000E+00  0.85842643302E+02  0.85842643339E+02  0.25500000000E-02 0.  1.
         -2   -1    0    0    0  501 -0.00000000000E+00 -0.00000000000E+00 -0.19033485910E+03  0.19033485912E+03  0.25500000000E-02 0. -1.
    5000001    1    1    2    0    0  0.34580352601E+02  0.91894449024E+02 -0.22279351560E+02  0.12675077930E+03  0.77000000000E+02 0.  0.
   -5000001    1    1    2    0    0 -0.34580352601E+02 -0.91894449024E+02 -0.82212864242E+02  0.14942672316E+03  0.77000000000E+02 0.  0.
<mgrwt>
<rscale>  0 0.25564700E+03</rscale>
<asrwt>0</asrwt>
<pdfrwt beam="1">  1        2 0.13206561E-01 0.25564700E+03</pdfrwt>
<pdfrwt beam="2">  1       -2 0.29282286E-01 0.25564700E+03</pdfrwt>
<totfact> 0.48086256E+03</totfact>
</mgrwt>
</event>
<event>
 4    1  0.6207184E-004  0.3120133E+03  0.7818608E-02  0.1079385E+00
          2   -1    0    0  501    0  0.00000000000E+00  0.00000000000E+00  0.41959984442E+04  0.41959984442E+04  0.25500000000E-02 0.  1.
         -2   -1    0    0    0  501 -0.00000000000E+00 -0.00000000000E+00 -0.58003051772E+01  0.58003057377E+01  0.25500000000E-02 0. -1.
    5000001    1    1    2    0    0 -0.12874559171E+03 -0.41636796298E+02  0.22297815123E+04  0.22352099774E+04  0.77000000000E+02 0.  0.
   -5000001    1    1    2    0    0  0.12874559171E+03  0.41636796298E+02  0.19604166267E+04  0.19665887726E+04  0.77000000000E+02 0.  0.
<mgrwt>
<rscale>  0 0.31201329E+03</rscale>
<asrwt>0</asrwt>
<pdfrwt beam="1">  1        2 0.64553784E+00 0.31201329E+03</pdfrwt>
<pdfrwt beam="2">  1       -2 0.89235521E-03 0.31201329E+03</pdfrwt>
<totfact> 0.77928280E+02</totfact>
</mgrwt>
</event>
<event>
 4    1  0.6207184E-004  0.2260885E+03  0.7818608E-02  0.1129424E+00
          2   -1    0    0  501    0  0.00000000000E+00  0.00000000000E+00  0.20616921484E+04  0.20616921484E+04  0.25500000000E-02 0.  1.
         -2   -1    0    0    0  501 -0.00000000000E+00 -0.00000000000E+00 -0.61983088857E+01  0.61983094102E+01  0.25500000000E-02 0. -1.
    5000001    1    1    2    0    0  0.63844120882E+02 -0.37962951362E+02  0.69384185611E+03  0.70204186395E+03  0.77000000000E+02 0.  0.
   -5000001    1    1    2    0    0 -0.63844120882E+02  0.37962951362E+02  0.13616519834E+04  0.13658485939E+04  0.77000000000E+02 0.  0.
<mgrwt>
<rscale>  0 0.22608853E+03</rscale>
<asrwt>0</asrwt>
<pdfrwt beam="1">  1        2 0.31718344E+00 0.22608853E+03</pdfrwt>
<pdfrwt beam="2">  1       -2 0.95358594E-03 0.22608853E+03</pdfrwt>
<totfact> 0.15663710E+04</totfact>
</mgrwt>
</event>
<event>
 4    1  0.6207184E-004  0.2939202E+03  0.7818608E-02  0.1088320E+00
          2   -1    0    0  501    0  0.00000000000E+00  0.00000000000E+00  0.11820238632E+04  0.11820238632E+04  0.25500000000E-02 0.  1.
         -2   -1    0    0    0  501 -0.00000000000E+00 -0.00000000000E+00 -0.18271428299E+02  0.18271428477E+02  0.25500000000E-02 0. -1.
    5000001    1    1    2    0    0  0.95477179707E+02  0.73618236795E+02  0.71931886183E+03  0.73340586418E+03  0.77000000000E+02 0.  0.
   -5000001    1    1    2    0    0 -0.95477179707E+02 -0.73618236795E+02  0.44443357303E+03  0.46688942746E+03  0.77000000000E+02 0.  0.
<mgrwt>
<rscale>  0 0.29392015E+03</rscale>
<asrwt>0</asrwt>
<pdfrwt beam="1">  1        2 0.18184986E+00 0.29392015E+03</pdfrwt>
<pdfrwt beam="2">  1       -2 0.28109885E-02 0.29392015E+03</pdfrwt>
<totfact> 0.95581794E+03</totfact>
</mgrwt>
</event>
<event>
 4    1  0.6207184E-004  0.2545599E+03  0.7818608E-02  0.1110457E+00
          2   -1    0    0  501    0  0.00000000000E+00  0.00000000000E+00  0.96443872049E+02  0.96443872082E+02  0.25500000000E-02 0.  1.
         -2   -1    0    0    0  501 -0.00000000000E+00 -0.00000000000E+00 -0.16797525620E+03  0.16797525622E+03  0.25500000000E-02 0. -1.
    5000001    1    1    2    0    0 -0.10129532013E+03 -0.32172418741E+01 -0.35451318139E+02  0.13212451886E+03  0.77000000000E+02 0.  0.
   -5000001    1    1    2    0    0  0.10129532013E+03  0.32172418741E+01 -0.36080066012E+02  0.13229460945E+03  0.77000000000E+02 0.  0.
<mgrwt>
<rscale>  0 0.25455989E+03</rscale>
<asrwt>0</asrwt>
<pdfrwt beam="1">  1        2 0.14837519E-01 0.25455989E+03</pdfrwt>
<pdfrwt beam="2">  1       -2 0.25842347E-01 0.25455989E+03</pdfrwt>
<totfact> 0.52320668E+03</totfact>
</mgrwt>
</event>
<event>
 4    1  0.6207184E-004  0.2326202E+03  0.7818608E-02  0.1124809E+00
         -2   -1    0    0    0  501 -0.00000000000E+00  0.00000000000E+00  0.46606587560E+02  0.46606587630E+02  0.25500000000E-02 0. -1.
          2   -1    0    0  501    0  0.00000000000E+00 -0.00000000000E+00 -0.29026011871E+03  0.29026011872E+03  0.25500000000E-02 0.  1.
    5000001    1    1    2    0    0  0.54348692900E+02 -0.61111706235E+02 -0.16552637779E+03  0.20004100280E+03  0.77000000000E+02 0.  0.
   -5000001    1    1    2    0    0 -0.54348692900E+02  0.61111706235E+02 -0.78127153363E+02  0.13682570355E+03  0.77000000000E+02 0.  0.
<mgrwt>
<rscale>  0 0.23262015E+03</rscale>
<asrwt>0</asrwt>
<pdfrwt beam="1">  1        2 0.44655402E-01 0.23262015E+03</pdfrwt>
<pdfrwt beam="2">  1       -2 0.71702444E-02 0.23262015E+03</pdfrwt>
<totfact> 0.12474864E+04</totfact>
</mgrwt>
</event>
<event>
 4    1  0.6207184E-004  0.2556307E+03  0.7818608E-02  0.1109797E+00
         -2   -1    0    0    0  501 -0.00000000000E+00  0.00000000000E+00  0.79660497065E+02  0.79660497105E+02  0.25500000000E-02 0. -1.
          2   -1    0    0  501    0  0.00000000000E+00 -0.00000000000E+00 -0.20507983185E+03  0.20507983187E+03  0.25500000000E-02 0.  1.
    5000001    1    1    2    0    0 -0.53853677979E+02  0.70762507716E+02 -0.11840570094E+03  0.16690254984E+03  0.77000000000E+02 0.  0.
   -5000001    1    1    2    0    0  0.53853677979E+02 -0.70762507716E+02 -0.70136338505E+01  0.11783777913E+03  0.77000000000E+02 0.  0.
<mgrwt>
<rscale>  0 0.25563068E+03</rscale>
<asrwt>0</asrwt>
<pdfrwt beam="1">  1        2 0.31550743E-01 0.25563068E+03</pdfrwt>
<pdfrwt beam="2">  1       -2 0.12255461E-01 0.25563068E+03</pdfrwt>
<totfact> 0.78222435E+03</totfact>
</mgrwt>
</event>
<event>
 4    1  0.6207184E-004  0.2341369E+03  0.7818608E-02  0.1123761E+00
         -2   -1    0    0    0  501 -0.00000000000E+00  0.00000000000E+00  0.21309533600E+02  0.21309533752E+02  0.25500000000E-02 0. -1.
          2   -1    0    0  501    0  0.00000000000E+00 -0.00000000000E+00 -0.64314035060E+03  0.64314035060E+03  0.25500000000E-02 0.  1.
    5000001    1    1    2    0    0  0.87337282905E+02  0.10968578875E+02 -0.29592290067E+03  0.31819408205E+03  0.77000000000E+02 0.  0.
   -5000001    1    1    2    0    0 -0.87337282905E+02 -0.10968578875E+02 -0.32590791633E+03  0.34625580231E+03  0.77000000000E+02 0.  0.
<mgrwt>
<rscale>  0 0.23413689E+03</rscale>
<asrwt>0</asrwt>
<pdfrwt beam="1">  1        2 0.98944655E-01 0.23413689E+03</pdfrwt>
<pdfrwt beam="2">  1       -2 0.32783903E-02 0.23413689E+03</pdfrwt>
<totfact> 0.16980812E+04</totfact>
</mgrwt>
</event>
<event>
 4    1  0.6207184E-004  0.2189231E+03  0.7818608E-02  0.1134688E+00
         -2   -1    0    0    0  501 -0.00000000000E+00  0.00000000000E+00  0.35729579270E+02  0.35729579361E+02  0.25500000000E-02 0. -1.
          2   -1    0    0  501    0  0.00000000000E+00 -0.00000000000E+00 -0.33534769711E+03  0.33534769712E+03  0.25500000000E-02 0.  1.
    5000001    1    1    2    0    0 -0.26083008410E+02 -0.73297399801E+02 -0.14980891265E+03  0.18553852014E+03  0.77000000000E+02 0.  0.
   -5000001    1    1    2    0    0  0.26083008410E+02  0.73297399801E+02 -0.14980920519E+03  0.18553875634E+03  0.77000000000E+02 0.  0.
<mgrwt>
<rscale>  0 0.21892311E+03</rscale>
<asrwt>0</asrwt>
<pdfrwt beam="1">  1        2 0.51591951E-01 0.21892311E+03</pdfrwt>
<pdfrwt beam="2">  1       -2 0.54968586E-02 0.21892311E+03</pdfrwt>
<totfact> 0.16005156E+04</totfact>
</mgrwt>
</event>
<event>
 4    1  0.6207184E-004  0.1944148E+03  0.7818608E-02  0.1154539E+00
         -2   -1    0    0    0  501 -0.00000000000E+00  0.00000000000E+00  0.38688414320E+02  0.38688414404E+02  0.25500000000E-02 0. -1.
          2   -1    0    0  501    0  0.00000000000E+00 -0.00000000000E+00 -0.24424055918E+03  0.24424055919E+03  0.25500000000E-02 0.  1.
    5000001    1    1    2    0    0 -0.49419208756E+02  0.83991121981E+01 -0.56584199520E+02  0.10790539799E+03  0.77000000000E+02 0.  0.
   -5000001    1    1    2    0    0  0.49419208756E+02 -0.83991121981E+01 -0.14896794534E+03  0.17502357561E+03  0.77000000000E+02 0.  0.
<mgrwt>
<rscale>  0 0.19441481E+03</rscale>
<asrwt>0</asrwt>
<pdfrwt beam="1">  1        2 0.37575470E-01 0.19441481E+03</pdfrwt>
<pdfrwt beam="2">  1       -2 0.59520639E-02 0.19441481E+03</pdfrwt>
<totfact> 0.19748164E+04</totfact>
</mgrwt>
</event>
<event>
 4    1  0.6207184E-004  0.5474015E+03  0.7818608E-02  0.1002097E+00
         -2   -1    0    0    0  501 -0.00000000000E+00  0.00000000000E+00  0.46180065586E+03  0.46180065587E+03  0.25500000000E-02 0. -1.
          2   -1    0    0  501    0  0.00000000000E+00 -0.00000000000E+00 -0.16221740372E+03  0.16221740374E+03  0.25500000000E-02 0.  1.
    5000001    1    1    2    0    0 -0.26262847102E+03 -0.19102936898E+01  0.15252288757E+03  0.31332027423E+03  0.77000000000E+02 0.  0.
   -5000001    1    1    2    0    0  0.26262847102E+03  0.19102936898E+01  0.14706036458E+03  0.31069778538E+03  0.77000000000E+02 0.  0.
<mgrwt>
<rscale>  0 0.54740151E+03</rscale>
<asrwt>0</asrwt>
<pdfrwt beam="1">  1        2 0.24956524E-01 0.54740151E+03</pdfrwt>
<pdfrwt beam="2">  1       -2 0.71046254E-01 0.54740151E+03</pdfrwt>
<totfact> 0.39906323E+02</totfact>
</mgrwt>
</event>
<event>
 4    1  0.6207184E-004  0.1824733E+03  0.7818608E-02  0.1165431E+00
          2   -1    0    0  501    0  0.00000000000E+00  0.00000000000E+00  0.12355440020E+04  0.12355440020E+04  0.25500000000E-02 0.  1.
         -2   -1    0    0    0  501 -0.00000000000E+00 -0.00000000000E+00 -0.67372151649E+01  0.67372156474E+01  0.25500000000E-02 0. -1.
    5000001    1    1    2    0    0  0.17769741163E+02 -0.20160387788E+02  0.89286051821E+03  0.89657744223E+03  0.77000000000E+02 0.  0.
   -5000001    1    1    2    0    0 -0.17769741163E+02  0.20160387788E+02  0.33594626862E+03  0.34570377542E+03  0.77000000000E+02 0.  0.
<mgrwt>
<rscale>  0 0.18247330E+03</rscale>
<asrwt>0</asrwt>
<pdfrwt beam="1">  1        2 0.19008377E+00 0.18247330E+03</pdfrwt>
<pdfrwt beam="2">  1       -2 0.10364943E-02 0.18247330E+03</pdfrwt>
<totfact> 0.37513531E+04</totfact>
</mgrwt>
</event>
<event>
 4    1  0.6207184E-004  0.2696524E+03  0.7818608E-02  0.1101479E+00
          2   -1    0    0  501    0  0.00000000000E+00  0.00000000000E+00  0.81208371436E+03  0.81208371436E+03  0.25500000000E-02 0.  1.
         -2   -1    0    0    0  501 -0.00000000000E+00 -0.00000000000E+00 -0.22384525698E+02  0.22384525844E+02  0.25500000000E-02 0. -1.
    5000001    1    1    2    0    0 -0.58384228009E+02 -0.31556072122E+02  0.12076097141E+03  0.15785029612E+03  0.77000000000E+02 0.  0.
   -5000001    1    1    2    0    0  0.58384228009E+02  0.31556072122E+02  0.66893821725E+03  0.67661794409E+03  0.77000000000E+02 0.  0.
<mgrwt>
<rscale>  0 0.26965243E+03</rscale>
<asrwt>0</asrwt>
<pdfrwt beam="1">  1        2 0.12493592E+00 0.26965243E+03</pdfrwt>
<pdfrwt beam="2">  1       -2 0.34437741E-02 0.26965243E+03</pdfrwt>
<totfact> 0.11932598E+04</totfact>
</mgrwt>
</event>
<event>
 4    1  0.6207184E-004  0.7134814E+03  0.7818608E-02  0.9694451E-01
         -2   -1    0    0    0  501 -0.00000000000E+00  0.00000000000E+00  0.20049171140E+04  0.20049171140E+04  0.25500000000E-02 0.  1.
          2   -1    0    0  501    0  0.00000000000E+00 -0.00000000000E+00 -0.63475907606E+02  0.63475907657E+02  0.25500000000E-02 0. -1.
    5000001    1    1    2    0    0  0.63642417504E+02 -0.16761456757E+03  0.10493907498E+03  0.22155407923E+03  0.77000000000E+02 0.  0.
   -5000001    1    1    2    0    0 -0.63642417504E+02  0.16761456757E+03  0.18365021314E+04  0.18468389425E+04  0.77000000000E+02 0.  0.
<mgrwt>
<rscale>  0 0.71348142E+03</rscale>
<asrwt>0</asrwt>
<pdfrwt beam="1">  1        2 0.97655251E-02 0.71348142E+03</pdfrwt>
<pdfrwt beam="2">  1       -2 0.30844876E+00 0.71348142E+03</pdfrwt>
<totfact> 0.20232196E+01</totfact>
</mgrwt>
</event>
<event>
 4    1  0.6207184E-004  0.2216684E+03  0.7818608E-02  0.1132645E+00
         -2   -1    0    0    0  501 -0.00000000000E+00  0.00000000000E+00  0.26683669829E+02  0.26683669951E+02  0.25500000000E-02 0. -1.
          2   -1    0    0  501    0  0.00000000000E+00 -0.00000000000E+00 -0.46036466497E+03  0.46036466498E+03  0.25500000000E-02 0.  1.
    5000001    1    1    2    0    0  0.37624521481E+02 -0.14605298309E+02 -0.36789334321E+03  0.37802570195E+03  0.77000000000E+02 0.  0.
   -5000001    1    1    2    0    0 -0.37624521481E+02  0.14605298309E+02 -0.65787651933E+02  0.10902263298E+03  0.77000000000E+02 0.  0.
<mgrwt>
<rscale>  0 0.22166839E+03</rscale>
<asrwt>0</asrwt>
<pdfrwt beam="1">  1        2 0.70825327E-01 0.22166839E+03</pdfrwt>
<pdfrwt beam="2">  1       -2 0.41051803E-02 0.22166839E+03</pdfrwt>
<totfact> 0.17667677E+04</totfact>
</mgrwt>
</event>
<event>
 4    1  0.6207184E-004  0.5722858E+03  0.7818608E-02  0.9964633E-01
          2   -1    0    0  501    0  0.00000000000E+00  0.00000000000E+00  0.12353199686E+03  0.12353199688E+03  0.25500000000E-02 0.  1.
         -2   -1    0    0    0  501 -0.00000000000E+00 -0.00000000000E+00 -0.66280613011E+03  0.66280613011E+03  0.25500000000E-02 0. -1.
    5000001    1    1    2    0    0 -0.12101519395E+03 -0.23467978107E+03 -0.16118882242E+03  0.31879478240E+03  0.77000000000E+02 0.  0.
   -5000001    1    1    2    0    0  0.12101519395E+03  0.23467978107E+03 -0.37808531083E+03  0.46754334460E+03  0.77000000000E+02 0.  0.
<mgrwt>
<rscale>  0 0.57228582E+03</rscale>
<asrwt>0</asrwt>
<pdfrwt beam="1">  1        2 0.19004923E-01 0.57228582E+03</pdfrwt>
<pdfrwt beam="2">  1       -2 0.10197017E+00 0.57228582E+03</pdfrwt>
<totfact> 0.24092600E+02</totfact>
</mgrwt>
</event>
<event>
 4    1  0.6207184E-004  0.2497474E+03  0.7818608E-02  0.1113465E+00
          2   -1    0    0  501    0  0.00000000000E+00  0.00000000000E+00  0.77850669996E+02  0.77850670037E+02  0.25500000000E-02 0.  1.
         -2   -1    0    0    0  501 -0.00000000000E+00 -0.00000000000E+00 -0.20029933357E+03  0.20029933359E+03  0.25500000000E-02 0. -1.
    5000001    1    1    2    0    0 -0.39210258770E+00 -0.70820166337E+02 -0.13716038096E+03  0.17250397042E+03  0.77000000000E+02 0.  0.
   -5000001    1    1    2    0    0  0.39210258770E+00  0.70820166337E+02  0.14711717383E+02  0.10564603321E+03  0.77000000000E+02 0.  0.
<mgrwt>
<rscale>  0 0.24974737E+03</rscale>
<asrwt>0</asrwt>
<pdfrwt beam="1">  1        2 0.11977026E-01 0.24974737E+03</pdfrwt>
<pdfrwt beam="2">  1       -2 0.30815282E-01 0.24974737E+03</pdfrwt>
<totfact> 0.49285796E+03</totfact>
</mgrwt>
</event>
<event>
 4    1  0.6207184E-004  0.1614676E+03  0.7818608E-02  0.1187050E+00
         -2   -1    0    0    0  501 -0.00000000000E+00  0.00000000000E+00  0.34319890095E+01  0.34319899568E+01  0.25500000000E-02 0. -1.
          2   -1    0    0  501    0  0.00000000000E+00 -0.00000000000E+00 -0.18991750259E+04  0.18991750259E+04  0.25500000000E-02 0.  1.
    5000001    1    1    2    0    0 -0.16594976864E+02 -0.11405885238E+02 -0.78827044972E+03  0.79227822725E+03  0.77000000000E+02 0.  0.
   -5000001    1    1    2    0    0  0.16594976864E+02  0.11405885238E+02 -0.11074725872E+04  0.11103287886E+04  0.77000000000E+02 0.  0.
<mgrwt>
<rscale>  0 0.16146763E+03</rscale>
<asrwt>0</asrwt>
<pdfrwt beam="1">  1        2 0.29217993E+00 0.16146763E+03</pdfrwt>
<pdfrwt beam="2">  1       -2 0.52799990E-03 0.16146763E+03</pdfrwt>
<totfact> 0.43711375E+04</totfact>
</mgrwt>
</event>
<event>
 4    1  0.6207184E-004  0.3424674E+03  0.7818608E-02  0.1065750E+00
         -2   -1    0    0    0  501 -0.00000000000E+00  0.00000000000E+00  0.77581611044E+03  0.77581611044E+03  0.25500000000E-02 0. -1.
          2   -1    0    0  501    0  0.00000000000E+00 -0.00000000000E+00 -0.37793723712E+02  0.37793723798E+02  0.25500000000E-02 0.  1.
    5000001    1    1    2    0    0 -0.11516951812E+03  0.46293860509E+02  0.58130145530E+03  0.59937260644E+03  0.77000000000E+02 0.  0.
   -5000001    1    1    2    0    0  0.11516951812E+03 -0.46293860509E+02  0.15672093143E+03  0.21423722780E+03  0.77000000000E+02 0.  0.
<mgrwt>
<rscale>  0 0.34246740E+03</rscale>
<asrwt>0</asrwt>
<pdfrwt beam="1">  1        2 0.58144192E-02 0.34246740E+03</pdfrwt>
<pdfrwt beam="2">  1       -2 0.11935632E+00 0.34246740E+03</pdfrwt>
<totfact> 0.72802694E+02</totfact>
</mgrwt>
</event>
<event>
 4    1  0.6207184E-004  0.1639962E+03  0.7818608E-02  0.1184258E+00
          2   -1    0    0  501    0  0.00000000000E+00  0.00000000000E+00  0.26149371373E+02  0.26149371498E+02  0.25500000000E-02 0.  1.
         -2   -1    0    0    0  501 -0.00000000000E+00 -0.00000000000E+00 -0.25712607660E+03  0.25712607662E+03  0.25500000000E-02 0. -1.
    5000001    1    1    2    0    0 -0.23996125815E+02 -0.14346322221E+02 -0.12172931495E+03  0.14672647046E+03  0.77000000000E+02 0.  0.
   -5000001    1    1    2    0    0  0.23996125815E+02  0.14346322221E+02 -0.10924739028E+03  0.13654897766E+03  0.77000000000E+02 0.  0.
<mgrwt>
<rscale>  0 0.16399616E+03</rscale>
<asrwt>0</asrwt>
<pdfrwt beam="1">  1        2 0.40229804E-02 0.16399616E+03</pdfrwt>
<pdfrwt beam="2">  1       -2 0.39557856E-01 0.16399616E+03</pdfrwt>
<totfact> 0.12174428E+04</totfact>
</mgrwt>
</event>
<event>
 4    1  0.6207184E-004  0.1930550E+03  0.7818608E-02  0.1155734E+00
          2   -1    0    0  501    0  0.00000000000E+00  0.00000000000E+00  0.65163860101E+03  0.65163860101E+03  0.25500000000E-02 0.  1.
         -2   -1    0    0    0  501 -0.00000000000E+00 -0.00000000000E+00 -0.14298655458E+02  0.14298655685E+02  0.25500000000E-02 0. -1.
    5000001    1    1    2    0    0  0.55156654152E+02  0.13181347783E+02  0.36398180979E+03  0.37633464136E+03  0.77000000000E+02 0.  0.
   -5000001    1    1    2    0    0 -0.55156654152E+02 -0.13181347783E+02  0.27335813576E+03  0.28960261534E+03  0.77000000000E+02 0.  0.
<mgrwt>
<rscale>  0 0.19305498E+03</rscale>
<asrwt>0</asrwt>
<pdfrwt beam="1">  1        2 0.10025208E+00 0.19305498E+03</pdfrwt>
<pdfrwt beam="2">  1       -2 0.21997933E-02 0.19305498E+03</pdfrwt>
<totfact> 0.29761341E+04</totfact>
</mgrwt>
</event>
<event>
 4    1  0.6207184E-004  0.3377561E+03  0.7818608E-02  0.1067756E+00
          2   -1    0    0  501    0  0.00000000000E+00  0.00000000000E+00  0.26252217635E+03  0.26252217636E+03  0.25500000000E-02 0.  1.
         -2   -1    0    0    0  501 -0.00000000000E+00 -0.00000000000E+00 -0.10863769058E+03  0.10863769061E+03  0.25500000000E-02 0. -1.
    5000001    1    1    2    0    0  0.13943326393E+03 -0.56099069750E+02  0.78520322677E+02  0.18623421219E+03  0.77000000000E+02 0.  0.
   -5000001    1    1    2    0    0 -0.13943326393E+03  0.56099069750E+02  0.75364163099E+02  0.18492565478E+03  0.77000000000E+02 0.  0.
<mgrwt>
<rscale>  0 0.33775614E+03</rscale>
<asrwt>0</asrwt>
<pdfrwt beam="1">  1        2 0.40388027E-01 0.33775614E+03</pdfrwt>
<pdfrwt beam="2">  1       -2 0.16713491E-01 0.33775614E+03</pdfrwt>
<totfact> 0.36192808E+03</totfact>
</mgrwt>
</event>
<event>
 4    1  0.6207184E-004  0.2754571E+03  0.7818608E-02  0.1098196E+00
         -2   -1    0    0    0  501 -0.00000000000E+00  0.00000000000E+00  0.79665789527E+01  0.79665793608E+01  0.25500000000E-02 0. -1.
          2   -1    0    0  501    0  0.00000000000E+00 -0.00000000000E+00 -0.23810916736E+04  0.23810916736E+04  0.25500000000E-02 0.  1.
    5000001    1    1    2    0    0 -0.82173035455E+02  0.78060195402E+02 -0.10656506985E+04  0.10744236655E+04  0.77000000000E+02 0.  0.
   -5000001    1    1    2    0    0  0.82173035455E+02 -0.78060195402E+02 -0.13074743962E+04  0.13146345875E+04  0.77000000000E+02 0.  0.
<mgrwt>
<rscale>  0 0.27545711E+03</rscale>
<asrwt>0</asrwt>
<pdfrwt beam="1">  1        2 0.36632123E+00 0.27545711E+03</pdfrwt>
<pdfrwt beam="2">  1       -2 0.12256295E-02 0.27545711E+03</pdfrwt>
<totfact> 0.73802715E+03</totfact>
</mgrwt>
</event>
<event>
 4    1  0.6207184E-004  0.2763294E+03  0.7818608E-02  0.1097711E+00
         -2   -1    0    0    0  501 -0.00000000000E+00  0.00000000000E+00  0.45649794693E+02  0.45649794765E+02  0.25500000000E-02 0. -1.
          2   -1    0    0  501    0  0.00000000000E+00 -0.00000000000E+00 -0.41817240605E+03  0.41817240606E+03  0.25500000000E-02 0.  1.
    5000001    1    1    2    0    0  0.54932541483E+02 -0.36668883068E+02 -0.34370441447E+03  0.35836282679E+03  0.77000000000E+02 0.  0.
   -5000001    1    1    2    0    0 -0.54932541483E+02  0.36668883068E+02 -0.28818196886E+02  0.10545937403E+03  0.77000000000E+02 0.  0.
<mgrwt>
<rscale>  0 0.27632940E+03</rscale>
<asrwt>0</asrwt>
<pdfrwt beam="1">  1        2 0.64334214E-01 0.27632940E+03</pdfrwt>
<pdfrwt beam="2">  1       -2 0.70230456E-02 0.27632940E+03</pdfrwt>
<totfact> 0.87581667E+03</totfact>
</mgrwt>
</event>
<event>
 4    1  0.6207184E-004  0.2079217E+03  0.7818608E-02  0.1143222E+00
          2   -1    0    0  501    0  0.00000000000E+00  0.00000000000E+00  0.50389114589E+03  0.50389114590E+03  0.25500000000E-02 0.  1.
         -2   -1    0    0    0  501 -0.00000000000E+00 -0.00000000000E+00 -0.21448788767E+02  0.21448788919E+02  0.25500000000E-02 0. -1.
    5000001    1    1    2    0    0 -0.26562826105E+02  0.63929492136E+02  0.21775060721E+03  0.24111592780E+03  0.77000000000E+02 0.  0.
   -5000001    1    1    2    0    0  0.26562826105E+02 -0.63929492136E+02  0.26469174991E+03  0.28422400702E+03  0.77000000000E+02 0.  0.
<mgrwt>
<rscale>  0 0.20792167E+03</rscale>
<asrwt>0</asrwt>
<pdfrwt beam="1">  1        2 0.77521716E-01 0.20792167E+03</pdfrwt>
<pdfrwt beam="2">  1       -2 0.32998136E-02 0.20792167E+03</pdfrwt>
<totfact> 0.22059335E+04</totfact>
</mgrwt>
</event>
<event>
 4    1  0.6207184E-004  0.3245811E+03  0.7818608E-02  0.1073560E+00
          2   -1    0    0  501    0  0.00000000000E+00  0.00000000000E+00  0.28553704529E+04  0.28553704529E+04  0.25500000000E-02 0.  1.
         -2   -1    0    0    0  501 -0.00000000000E+00 -0.00000000000E+00 -0.92241017917E+01  0.92241021441E+01  0.25500000000E-02 0. -1.
    5000001    1    1    2    0    0 -0.12478824509E+03 -0.34466280396E+02  0.88993647524E+03  0.90259401757E+03  0.77000000000E+02 0.  0.
   -5000001    1    1    2    0    0  0.12478824509E+03  0.34466280396E+02  0.19562098758E+04  0.19620005374E+04  0.77000000000E+02 0.  0.
<mgrwt>
<rscale>  0 0.32458113E+03</rscale>
<asrwt>0</asrwt>
<pdfrwt beam="1">  1        2 0.43928816E+00 0.32458113E+03</pdfrwt>
<pdfrwt beam="2">  1       -2 0.14190913E-02 0.32458113E+03</pdfrwt>
<totfact> 0.32270429E+03</totfact>
</mgrwt>
</event>
<event>
 4    1  0.6207184E-004  0.5614691E+03  0.7818608E-02  0.9988736E-01
          2   -1    0    0  501    0  0.00000000000E+00  0.00000000000E+00  0.14203205357E+04  0.14203205357E+04  0.25500000000E-02 0.  1.
         -2   -1    0    0    0  501 -0.00000000000E+00 -0.00000000000E+00 -0.55488798107E+02  0.55488798165E+02  0.25500000000E-02 0. -1.
    5000001    1    1    2    0    0 -0.31215621154E+01 -0.25666074721E+03  0.46252678123E+03  0.53455075219E+03  0.77000000000E+02 0.  0.
   -5000001    1    1    2    0    0  0.31215621154E+01  0.25666074721E+03  0.90230495633E+03  0.94125858164E+03  0.77000000000E+02 0.  0.
<mgrwt>
<rscale>  0 0.56146907E+03</rscale>
<asrwt>0</asrwt>
<pdfrwt beam="1">  1        2 0.21851081E+00 0.56146907E+03</pdfrwt>
<pdfrwt beam="2">  1       -2 0.85367396E-02 0.56146907E+03</pdfrwt>
<totfact> 0.12707300E+03</totfact>
</mgrwt>
</event>
<event>
 4    1  0.6207184E-004  0.2257124E+03  0.7818608E-02  0.1129694E+00
          2   -1    0    0  501    0  0.00000000000E+00  0.00000000000E+00  0.17783511135E+04  0.17783511135E+04  0.25500000000E-02 0.  1.
         -2   -1    0    0    0  501 -0.00000000000E+00 -0.00000000000E+00 -0.71619836663E+01  0.71619841203E+01  0.25500000000E-02 0. -1.
    5000001    1    1    2    0    0 -0.63246987448E+02 -0.44965766895E+02  0.66389812789E+03  0.67283863283E+03  0.77000000000E+02 0.  0.
   -5000001    1    1    2    0    0  0.63246987448E+02  0.44965766895E+02  0.11072910020E+04  0.11126744648E+04  0.77000000000E+02 0.  0.
<mgrwt>
<rscale>  0 0.22571240E+03</rscale>
<asrwt>0</asrwt>
<pdfrwt beam="1">  1        2 0.27359215E+00 0.22571240E+03</pdfrwt>
<pdfrwt beam="2">  1       -2 0.11018450E-02 0.22571240E+03</pdfrwt>
<totfact> 0.17861354E+04</totfact>
</mgrwt>
</event>
<event>
 4    1  0.6207184E-004  0.1863673E+03  0.7818608E-02  0.1161779E+00
          2   -1    0    0  501    0  0.00000000000E+00  0.00000000000E+00  0.16229635407E+03  0.16229635409E+03  0.25500000000E-02 0.  1.
         -2   -1    0    0    0  501 -0.00000000000E+00 -0.00000000000E+00 -0.53502091686E+02  0.53502091747E+02  0.25500000000E-02 0. -1.
    5000001    1    1    2    0    0 -0.21467951813E+02  0.33980064251E+02  0.93470312435E+02  0.12759787235E+03  0.77000000000E+02 0.  0.
   -5000001    1    1    2    0    0  0.21467951813E+02 -0.33980064251E+02  0.15323949951E+02  0.88200573488E+02  0.77000000000E+02 0.  0.
<mgrwt>
<rscale>  0 0.18636732E+03</rscale>
<asrwt>0</asrwt>
<pdfrwt beam="1">  1        2 0.24968669E-01 0.18636732E+03</pdfrwt>
<pdfrwt beam="2">  1       -2 0.82310912E-02 0.18636732E+03</pdfrwt>
<totfact> 0.18654118E+04</totfact>
</mgrwt>
</event>
<event>
 4    1  0.6207184E-004  0.3011106E+03  0.7818608E-02  0.1084687E+00
         -2   -1    0    0    0  501 -0.00000000000E+00  0.00000000000E+00  0.24734238438E+02  0.24734238570E+02  0.25500000000E-02 0. -1.
          2   -1    0    0  501    0  0.00000000000E+00 -0.00000000000E+00 -0.91641769343E+03  0.91641769344E+03  0.25500000000E-02 0.  1.
    5000001    1    1    2    0    0 -0.54900745401E+02 -0.10425861565E+03 -0.27886483038E+03  0.31237564631E+03  0.77000000000E+02 0.  0.
   -5000001    1    1    2    0    0  0.54900745401E+02  0.10425861565E+03 -0.61281862461E+03  0.62877628570E+03  0.77000000000E+02 0.  0.
<mgrwt>
<rscale>  0 0.30111057E+03</rscale>
<asrwt>0</asrwt>
<pdfrwt beam="1">  1        2 0.14098731E+00 0.30111057E+03</pdfrwt>
<pdfrwt beam="2">  1       -2 0.38052682E-02 0.30111057E+03</pdfrwt>
<totfact> 0.87922892E+03</totfact>
</mgrwt>
</event>
<event>
 4    1  0.6207184E-004  0.3900220E+03  0.7818608E-02  0.1047291E+00
          2   -1    0    0  501    0  0.00000000000E+00  0.00000000000E+00  0.22794773471E+03  0.22794773472E+03  0.25500000000E-02 0.  1.
         -2   -1    0    0    0  501 -0.00000000000E+00 -0.00000000000E+00 -0.16683341647E+03  0.16683341649E+03  0.25500000000E-02 0. -1.
    5000001    1    1    2    0    0  0.15236946648E+03 -0.47605384908E+02 -0.51783928907E+02  0.18464371714E+03  0.77000000000E+02 0.  0.
   -5000001    1    1    2    0    0 -0.15236946648E+03  0.47605384908E+02  0.11289824715E+03  0.21013743407E+03  0.77000000000E+02 0.  0.
<mgrwt>
<rscale>  0 0.39002205E+03</rscale>
<asrwt>0</asrwt>
<pdfrwt beam="1">  1        2 0.35068882E-01 0.39002205E+03</pdfrwt>
<pdfrwt beam="2">  1       -2 0.25666680E-01 0.39002205E+03</pdfrwt>
<totfact> 0.20145932E+03</totfact>
</mgrwt>
</event>
<event>
 4    1  0.6207184E-004  0.2225437E+03  0.7818608E-02  0.1132001E+00
         -2   -1    0    0    0  501 -0.00000000000E+00  0.00000000000E+00  0.79551103043E+01  0.79551107130E+01  0.25500000000E-02 0. -1.
          2   -1    0    0  501    0  0.00000000000E+00 -0.00000000000E+00 -0.15564116942E+04  0.15564116942E+04  0.25500000000E-02 0.  1.
    5000001    1    1    2    0    0  0.16290967019E+02 -0.78477043555E+02 -0.73677688610E+03  0.74511289202E+03  0.77000000000E+02 0.  0.
   -5000001    1    1    2    0    0 -0.16290967019E+02  0.78477043555E+02 -0.81167969782E+03  0.81925391291E+03  0.77000000000E+02 0.  0.
<mgrwt>
<rscale>  0 0.22254372E+03</rscale>
<asrwt>0</asrwt>
<pdfrwt beam="1">  1        2 0.23944771E+00 0.22254372E+03</pdfrwt>
<pdfrwt beam="2">  1       -2 0.12238644E-02 0.22254372E+03</pdfrwt>
<totfact> 0.20038930E+04</totfact>
</mgrwt>
</event>
<event>
 4    1  0.6207184E-004  0.2713363E+03  0.7818608E-02  0.1100517E+00
          2   -1    0    0  501    0  0.00000000000E+00  0.00000000000E+00  0.16199673908E+04  0.16199673908E+04  0.25500000000E-02 0. -1.
         -2   -1    0    0    0  501 -0.00000000000E+00 -0.00000000000E+00 -0.11361866106E+02  0.11361866392E+02  0.25500000000E-02 0.  1.
    5000001    1    1    2    0    0  0.87382516028E+02  0.13907783570E+02  0.39442558065E+03  0.41149686417E+03  0.77000000000E+02 0.  0.
   -5000001    1    1    2    0    0 -0.87382516028E+02 -0.13907783570E+02  0.12141799441E+04  0.12198323931E+04  0.77000000000E+02 0.  0.
<mgrwt>
<rscale>  0 0.27133634E+03</rscale>
<asrwt>0</asrwt>
<pdfrwt beam="1">  1        2 0.24922569E+00 0.27133634E+03</pdfrwt>
<pdfrwt beam="2">  1       -2 0.17479799E-02 0.27133634E+03</pdfrwt>
<totfact> 0.11096423E+04</totfact>
</mgrwt>
</event>
<event>
 4    1  0.6207184E-004  0.2613011E+03  0.7818608E-02  0.1106364E+00
          2   -1    0    0  501    0  0.00000000000E+00  0.00000000000E+00  0.24158973815E+04  0.24158973815E+04  0.25500000000E-02 0.  1.
         -2   -1    0    0    0  501 -0.00000000000E+00 -0.00000000000E+00 -0.70655185454E+01  0.70655190055E+01  0.25500000000E-02 0. -1.
    5000001    1    1    2    0    0  0.77874489297E+02  0.79775949360E+01  0.54791965321E+03  0.55881394442E+03  0.77000000000E+02 0.  0.
   -5000001    1    1    2    0    0 -0.77874489297E+02 -0.79775949360E+01  0.18609122097E+04  0.18641489560E+04  0.77000000000E+02 0.  0.
<mgrwt>
<rscale>  0 0.26130112E+03</rscale>
<asrwt>0</asrwt>
<pdfrwt beam="1">  1        2 0.37167665E+00 0.26130112E+03</pdfrwt>
<pdfrwt beam="2">  1       -2 0.10870025E-02 0.26130112E+03</pdfrwt>
<totfact> 0.84155067E+03</totfact>
</mgrwt>
</event>
<event>
 4    1  0.6207184E-004  0.1915381E+03  0.7818608E-02  0.1157081E+00
          2   -1    0    0  501    0  0.00000000000E+00  0.00000000000E+00  0.63751677928E+02  0.63751677979E+02  0.25500000000E-02 0.  1.
         -2   -1    0    0    0  501 -0.00000000000E+00 -0.00000000000E+00 -0.14386612307E+03  0.14386612309E+03  0.25500000000E-02 0. -1.
    5000001    1    1    2    0    0 -0.29433570969E+02  0.45677469457E+02 -0.58514341199E+02  0.11093103462E+03  0.77000000000E+02 0.  0.
   -5000001    1    1    2    0    0  0.29433570969E+02 -0.45677469457E+02 -0.21600103941E+02  0.96686766449E+02  0.77000000000E+02 0.  0.
<mgrwt>
<rscale>  0 0.19153806E+03</rscale>
<asrwt>0</asrwt>
<pdfrwt beam="1">  1        2 0.98079505E-02 0.19153806E+03</pdfrwt>
<pdfrwt beam="2">  1       -2 0.22133250E-01 0.19153806E+03</pdfrwt>
<totfact> 0.11153046E+04</totfact>
</mgrwt>
</event>
<event>
 4    1  0.6207184E-004  0.1840565E+03  0.7818608E-02  0.1163934E+00
          2   -1    0    0  501    0  0.00000000000E+00  0.00000000000E+00  0.65101772468E+03  0.65101772469E+03  0.25500000000E-02 0.  1.
         -2   -1    0    0    0  501 -0.00000000000E+00 -0.00000000000E+00 -0.13009172696E+02  0.13009172946E+02  0.25500000000E-02 0. -1.
    5000001    1    1    2    0    0  0.15918892993E+02  0.47494183204E+02  0.29888699696E+03  0.31268441846E+03  0.77000000000E+02 0.  0.
   -5000001    1    1    2    0    0 -0.15918892993E+02 -0.47494183204E+02  0.33912155502E+03  0.35134247918E+03  0.77000000000E+02 0.  0.
<mgrwt>
<rscale>  0 0.18405654E+03</rscale>
<asrwt>0</asrwt>
<pdfrwt beam="1">  1        2 0.10015657E+00 0.18405654E+03</pdfrwt>
<pdfrwt beam="2">  1       -2 0.20014113E-02 0.18405654E+03</pdfrwt>
<totfact> 0.34082076E+04</totfact>
</mgrwt>
</event>
<event>
 4    1  0.6207184E-004  0.2338513E+03  0.7818608E-02  0.1123958E+00
          2   -1    0    0  501    0  0.00000000000E+00  0.00000000000E+00  0.11864576266E+03  0.11864576269E+03  0.25500000000E-02 0.  1.
         -2   -1    0    0    0  501 -0.00000000000E+00 -0.00000000000E+00 -0.11523050680E+03  0.11523050683E+03  0.25500000000E-02 0. -1.
    5000001    1    1    2    0    0 -0.64094945549E+02  0.60121655881E+02  0.61618446957E+01  0.11700317893E+03  0.77000000000E+02 0.  0.
   -5000001    1    1    2    0    0  0.64094945549E+02 -0.60121655881E+02 -0.27465888352E+01  0.11687309058E+03  0.77000000000E+02 0.  0.
<mgrwt>
<rscale>  0 0.23385133E+03</rscale>
<asrwt>0</asrwt>
<pdfrwt beam="1">  1        2 0.18253194E-01 0.23385133E+03</pdfrwt>
<pdfrwt beam="2">  1       -2 0.17727770E-01 0.23385133E+03</pdfrwt>
<totfact> 0.78328732E+03</totfact>
</mgrwt>
</event>
<event>
 4    1  0.6207184E-004  0.1990496E+03  0.7818608E-02  0.1150543E+00
          2   -1    0    0  501    0  0.00000000000E+00  0.00000000000E+00  0.87269565950E+03  0.87269565950E+03  0.25500000000E-02 0.  1.
         -2   -1    0    0    0  501 -0.00000000000E+00 -0.00000000000E+00 -0.11350108491E+02  0.11350108778E+02  0.25500000000E-02 0. -1.
    5000001    1    1    2    0    0  0.32491530577E+02 -0.36994266663E+02  0.60563622511E+03  0.61249368363E+03  0.77000000000E+02 0.  0.
   -5000001    1    1    2    0    0 -0.32491530577E+02  0.36994266663E+02  0.25570932589E+03  0.27155208464E+03  0.77000000000E+02 0.  0.
<mgrwt>
<rscale>  0 0.19904965E+03</rscale>
<asrwt>0</asrwt>
<pdfrwt beam="1">  1        2 0.13426083E+00 0.19904965E+03</pdfrwt>
<pdfrwt beam="2">  1       -2 0.17461712E-02 0.19904965E+03</pdfrwt>
<totfact> 0.29137620E+04</totfact>
</mgrwt>
</event>
<event>
 4    1  0.6207184E-004  0.2006508E+03  0.7818608E-02  0.1149191E+00
         -2   -1    0    0    0  501 -0.00000000000E+00  0.00000000000E+00  0.50722529718E+01  0.50722536127E+01  0.25500000000E-02 0. -1.
          2   -1    0    0  501    0  0.00000000000E+00 -0.00000000000E+00 -0.19843627709E+04  0.19843627709E+04  0.25500000000E-02 0.  1.
    5000001    1    1    2    0    0  0.30025796653E+02 -0.56644498546E+02 -0.10402432888E+04  0.10450575331E+04  0.77000000000E+02 0.  0.
   -5000001    1    1    2    0    0 -0.30025796653E+02  0.56644498546E+02 -0.93904722912E+03  0.94437749136E+03  0.77000000000E+02 0.  0.
<mgrwt>
<rscale>  0 0.20065085E+03</rscale>
<asrwt>0</asrwt>
<pdfrwt beam="1">  1        2 0.30528596E+00 0.20065085E+03</pdfrwt>
<pdfrwt beam="2">  1       -2 0.78034824E-03 0.20065085E+03</pdfrwt>
<totfact> 0.22854314E+04</totfact>
</mgrwt>
</event>
<event>
 4    1  0.6207184E-004  0.2129757E+03  0.7818608E-02  0.1139231E+00
          2   -1    0    0  501    0  0.00000000000E+00  0.00000000000E+00  0.86415160499E+02  0.86415160537E+02  0.25500000000E-02 0.  1.
         -2   -1    0    0    0  501 -0.00000000000E+00 -0.00000000000E+00 -0.13122309312E+03  0.13122309314E+03  0.25500000000E-02 0. -1.
    5000001    1    1    2    0    0 -0.39019771786E+02 -0.43773687967E+02 -0.67783191768E+02  0.11816192041E+03  0.77000000000E+02 0.  0.
   -5000001    1    1    2    0    0  0.39019771786E+02  0.43773687967E+02  0.22975259147E+02  0.99476333272E+02  0.77000000000E+02 0.  0.
<mgrwt>
<rscale>  0 0.21297572E+03</rscale>
<asrwt>0</asrwt>
<pdfrwt beam="1">  1        2 0.13294640E-01 0.21297572E+03</pdfrwt>
<pdfrwt beam="2">  1       -2 0.20188168E-01 0.21297572E+03</pdfrwt>
<totfact> 0.90784548E+03</totfact>
</mgrwt>
</event>
<event>
 4    1  0.6207184E-004  0.2838662E+03  0.7818608E-02  0.1093596E+00
         -2   -1    0    0    0  501 -0.00000000000E+00  0.00000000000E+00  0.42096413135E+02  0.42096413213E+02  0.25500000000E-02 0. -1.
          2   -1    0    0  501    0  0.00000000000E+00 -0.00000000000E+00 -0.47854433328E+03  0.47854433329E+03  0.25500000000E-02 0.  1.
    5000001    1    1    2    0    0  0.10805050991E+03  0.30294617663E+02 -0.14432691869E+03  0.19837322402E+03  0.77000000000E+02 0.  0.
   -5000001    1    1    2    0    0 -0.10805050991E+03 -0.30294617663E+02 -0.29212100146E+03  0.32226752248E+03  0.77000000000E+02 0.  0.
<mgrwt>
<rscale>  0 0.28386617E+03</rscale>
<asrwt>0</asrwt>
<pdfrwt beam="1">  1        2 0.73622201E-01 0.28386617E+03</pdfrwt>
<pdfrwt beam="2">  1       -2 0.64763716E-02 0.28386617E+03</pdfrwt>
<totfact> 0.85652480E+03</totfact>
</mgrwt>
</event>
<event>
 4    1  0.6207184E-004  0.3903260E+03  0.7818608E-02  0.1047182E+00
          2   -1    0    0  501    0  0.00000000000E+00  0.00000000000E+00  0.22070102621E+04  0.22070102621E+04  0.25500000000E-02 0.  1.
         -2   -1    0    0    0  501 -0.00000000000E+00 -0.00000000000E+00 -0.17258003426E+02  0.17258003614E+02  0.25500000000E-02 0. -1.
    5000001    1    1    2    0    0  0.89453395693E+02 -0.93469967616E+02  0.18025230706E+04  0.18087998687E+04  0.77000000000E+02 0.  0.
   -5000001    1    1    2    0    0 -0.89453395693E+02  0.93469967616E+02  0.38722918805E+03  0.41546839702E+03  0.77000000000E+02 0.  0.
<mgrwt>
<rscale>  0 0.39032597E+03</rscale>
<asrwt>0</asrwt>
<pdfrwt beam="1">  1        2 0.33954002E+00 0.39032597E+03</pdfrwt>
<pdfrwt beam="2">  1       -2 0.26550776E-02 0.39032597E+03</pdfrwt>
<totfact> 0.29154685E+03</totfact>
</mgrwt>
</event>
<event>
 4    1  0.6207184E-004  0.2127664E+03  0.7818608E-02  0.1139394E+00
         -2   -1    0    0    0  501 -0.00000000000E+00  0.00000000000E+00  0.98786123899E+02  0.98786123932E+02  0.25500000000E-02 0.  1.
          2   -1    0    0  501    0  0.00000000000E+00 -0.00000000000E+00 -0.11456448947E+03  0.11456448950E+03  0.25500000000E-02 0. -1.
    5000001    1    1    2    0    0 -0.72271484886E+02  0.36357367447E+01  0.44733266365E+01  0.10576103612E+03  0.77000000000E+02 0.  0.
   -5000001    1    1    2    0    0  0.72271484886E+02 -0.36357367447E+01 -0.20251692207E+02  0.10758957731E+03  0.77000000000E+02 0.  0.
<mgrwt>
<rscale>  0 0.21276637E+03</rscale>
<asrwt>0</asrwt>
<pdfrwt beam="1">  1        2 0.17625306E-01 0.21276637E+03</pdfrwt>
<pdfrwt beam="2">  1       -2 0.15197865E-01 0.21276637E+03</pdfrwt>
<totfact> 0.10481848E+04</totfact>
</mgrwt>
</event>
<event>
 4    1  0.6207184E-004  0.2765440E+03  0.7818608E-02  0.1097592E+00
         -2   -1    0    0    0  501 -0.00000000000E+00  0.00000000000E+00  0.19308547390E+02  0.19308547559E+02  0.25500000000E-02 0. -1.
          2   -1    0    0  501    0  0.00000000000E+00 -0.00000000000E+00 -0.99019099345E+03  0.99019099345E+03  0.25500000000E-02 0.  1.
    5000001    1    1    2    0    0 -0.48597141344E+02  0.75474687634E+02 -0.22393211217E+03  0.25324435133E+03  0.77000000000E+02 0.  0.
   -5000001    1    1    2    0    0  0.48597141344E+02 -0.75474687634E+02 -0.74695033389E+03  0.75625518968E+03  0.77000000000E+02 0.  0.
<mgrwt>
<rscale>  0 0.27654403E+03</rscale>
<asrwt>0</asrwt>
<pdfrwt beam="1">  1        2 0.15233704E+00 0.27654403E+03</pdfrwt>
<pdfrwt beam="2">  1       -2 0.29705465E-02 0.27654403E+03</pdfrwt>
<totfact> 0.11419015E+04</totfact>
</mgrwt>
</event>
<event>
 4    1  0.6207184E-004  0.2422106E+03  0.7818608E-02  0.1118329E+00
         -2   -1    0    0    0  501 -0.00000000000E+00  0.00000000000E+00  0.30630074015E+02  0.30630074121E+02  0.25500000000E-02 0. -1.
          2   -1    0    0  501    0  0.00000000000E+00 -0.00000000000E+00 -0.47882661463E+03  0.47882661464E+03  0.25500000000E-02 0.  1.
    5000001    1    1    2    0    0  0.84093614389E+02 -0.97339210278E+01 -0.14072947792E+03  0.18138431893E+03  0.77000000000E+02 0.  0.
   -5000001    1    1    2    0    0 -0.84093614389E+02  0.97339210278E+01 -0.30746706270E+03  0.32807236983E+03  0.77000000000E+02 0.  0.
<mgrwt>
<rscale>  0 0.24221061E+03</rscale>
<asrwt>0</asrwt>
<pdfrwt beam="1">  1        2 0.73665628E-01 0.24221061E+03</pdfrwt>
<pdfrwt beam="2">  1       -2 0.47123194E-02 0.24221061E+03</pdfrwt>
<totfact> 0.13813062E+04</totfact>
</mgrwt>
</event>
<event>
 4    1  0.6207184E-004  0.5195074E+03  0.7818608E-02  0.1008809E+00
          2   -1    0    0  501    0  0.00000000000E+00  0.00000000000E+00  0.26371370327E+03  0.26371370328E+03  0.25500000000E-02 0.  1.
         -2   -1    0    0    0  501 -0.00000000000E+00 -0.00000000000E+00 -0.25585318089E+03  0.25585318091E+03  0.25500000000E-02 0. -1.
    5000001    1    1    2    0    0  0.14671633620E+03 -0.93740845761E+02  0.18067049461E+03  0.26245734338E+03  0.77000000000E+02 0.  0.
   -5000001    1    1    2    0    0 -0.14671633620E+03  0.93740845761E+02 -0.17280997223E+03  0.25710954081E+03  0.77000000000E+02 0.  0.
<mgrwt>
<rscale>  0 0.51950742E+03</rscale>
<asrwt>0</asrwt>
<pdfrwt beam="1">  1        2 0.40571339E-01 0.51950742E+03</pdfrwt>
<pdfrwt beam="2">  1       -2 0.39362028E-01 0.51950742E+03</pdfrwt>
<totfact> 0.77719639E+02</totfact>
</mgrwt>
</event>
<event>
 4    1  0.6207184E-004  0.2983071E+03  0.7818608E-02  0.1086090E+00
         -2   -1    0    0    0  501 -0.00000000000E+00  0.00000000000E+00  0.51777767686E+03  0.51777767686E+03  0.25500000000E-02 0. -1.
          2   -1    0    0  501    0  0.00000000000E+00 -0.00000000000E+00 -0.42965896100E+02  0.42965896176E+02  0.25500000000E-02 0.  1.
    5000001    1    1    2    0    0 -0.37791988412E+02 -0.11769778733E+03  0.17687965365E+03  0.22912096239E+03  0.77000000000E+02 0.  0.
   -5000001    1    1    2    0    0  0.37791988412E+02  0.11769778733E+03  0.29793212710E+03  0.33162261065E+03  0.77000000000E+02 0.  0.
<mgrwt>
<rscale>  0 0.29830710E+03</rscale>
<asrwt>0</asrwt>
<pdfrwt beam="1">  1        2 0.66101382E-02 0.29830710E+03</pdfrwt>
<pdfrwt beam="2">  1       -2 0.79658100E-01 0.29830710E+03</pdfrwt>
<totfact> 0.15671842E+03</totfact>
</mgrwt>
</event>
<event>
 4    1  0.6207184E-004  0.1862937E+03  0.7818608E-02  0.1161847E+00
         -2   -1    0    0    0  501 -0.00000000000E+00  0.00000000000E+00  0.20559874893E+02  0.20559875051E+02  0.25500000000E-02 0. -1.
          2   -1    0    0  501    0  0.00000000000E+00 -0.00000000000E+00 -0.42200353337E+03  0.42200353338E+03  0.25500000000E-02 0.  1.
    5000001    1    1    2    0    0  0.49886630052E+02 -0.15526807265E+02 -0.19076055507E+03  0.21224595868E+03  0.77000000000E+02 0.  0.
   -5000001    1    1    2    0    0 -0.49886630052E+02  0.15526807265E+02 -0.21068310340E+03  0.23031744975E+03  0.77000000000E+02 0.  0.
<mgrwt>
<rscale>  0 0.18629375E+03</rscale>
<asrwt>0</asrwt>
<pdfrwt beam="1">  1        2 0.64923614E-01 0.18629375E+03</pdfrwt>
<pdfrwt beam="2">  1       -2 0.31630580E-02 0.18629375E+03</pdfrwt>
<totfact> 0.28297075E+04</totfact>
</mgrwt>
</event>
<event>
 4    1  0.6207184E-004  0.2207624E+03  0.7818608E-02  0.1133316E+00
          2   -1    0    0  501    0  0.00000000000E+00  0.00000000000E+00  0.72360487972E+03  0.72360487972E+03  0.25500000000E-02 0.  1.
         -2   -1    0    0    0  501 -0.00000000000E+00 -0.00000000000E+00 -0.16837935825E+02  0.16837936018E+02  0.25500000000E-02 0. -1.
    5000001    1    1    2    0    0  0.37436442120E+02 -0.38302313996E+02  0.54856522501E+03  0.55652615441E+03  0.77000000000E+02 0.  0.
   -5000001    1    1    2    0    0 -0.37436442120E+02  0.38302313996E+02  0.15820171889E+03  0.18391666133E+03  0.77000000000E+02 0.  0.
<mgrwt>
<rscale>  0 0.22076243E+03</rscale>
<asrwt>0</asrwt>
<pdfrwt beam="1">  1        2 0.11132386E+00 0.22076243E+03</pdfrwt>
<pdfrwt beam="2">  1       -2 0.25904508E-02 0.22076243E+03</pdfrwt>
<totfact> 0.20833104E+04</totfact>
</mgrwt>
</event>
<event>
 4    1  0.6207184E-004  0.2372732E+03  0.7818608E-02  0.1121623E+00
          2   -1    0    0  501    0  0.00000000000E+00  0.00000000000E+00  0.11221148978E+04  0.11221148978E+04  0.25500000000E-02 0.  1.
         -2   -1    0    0    0  501 -0.00000000000E+00 -0.00000000000E+00 -0.12542956892E+02  0.12542957151E+02  0.25500000000E-02 0. -1.
    5000001    1    1    2    0    0 -0.56201137582E+02  0.57256704157E+02  0.35710976091E+03  0.37402310006E+03  0.77000000000E+02 0.  0.
   -5000001    1    1    2    0    0  0.56201137582E+02 -0.57256704157E+02  0.75246218001E+03  0.76063475492E+03  0.77000000000E+02 0.  0.
<mgrwt>
<rscale>  0 0.23727317E+03</rscale>
<asrwt>0</asrwt>
<pdfrwt beam="1">  1        2 0.17263307E+00 0.23727317E+03</pdfrwt>
<pdfrwt beam="2">  1       -2 0.19296856E-02 0.23727317E+03</pdfrwt>
<totfact> 0.17906441E+04</totfact>
</mgrwt>
</event>
<event>
 4    1  0.6207184E-004  0.3951753E+03  0.7818608E-02  0.1045463E+00
          2   -1    0    0  501    0  0.00000000000E+00  0.00000000000E+00  0.95794885840E+03  0.95794885840E+03  0.25500000000E-02 0.  1.
         -2   -1    0    0    0  501 -0.00000000000E+00 -0.00000000000E+00 -0.40754654402E+02  0.40754654482E+02  0.25500000000E-02 0. -1.
    5000001    1    1    2    0    0 -0.17983865534E+03 -0.45167119767E+01  0.52778687713E+03  0.56289459965E+03  0.77000000000E+02 0.  0.
   -5000001    1    1    2    0    0  0.17983865534E+03  0.45167119767E+01  0.38940732687E+03  0.43580891324E+03  0.77000000000E+02 0.  0.
<mgrwt>
<rscale>  0 0.39517528E+03</rscale>
<asrwt>0</asrwt>
<pdfrwt beam="1">  1        2 0.14737674E+00 0.39517528E+03</pdfrwt>
<pdfrwt beam="2">  1       -2 0.62699470E-02 0.39517528E+03</pdfrwt>
<totfact> 0.38737889E+03</totfact>
</mgrwt>
</event>
<event>
 4    1  0.6207184E-004  0.2161142E+03  0.7818608E-02  0.1136814E+00
          2   -1    0    0  501    0  0.00000000000E+00  0.00000000000E+00  0.88481824739E+03  0.88481824740E+03  0.25500000000E-02 0.  1.
         -2   -1    0    0    0  501 -0.00000000000E+00 -0.00000000000E+00 -0.13196316291E+02  0.13196316538E+02  0.25500000000E-02 0. -1.
    5000001    1    1    2    0    0  0.50618321462E+02  0.86199648623E+01  0.66757052723E+03  0.67395543405E+03  0.77000000000E+02 0.  0.
   -5000001    1    1    2    0    0 -0.50618321462E+02 -0.86199648623E+01  0.20405140388E+03  0.22405912989E+03  0.77000000000E+02 0.  0.
<mgrwt>
<rscale>  0 0.21611424E+03</rscale>
<asrwt>0</asrwt>
<pdfrwt beam="1">  1        2 0.13612589E+00 0.21611424E+03</pdfrwt>
<pdfrwt beam="2">  1       -2 0.20302025E-02 0.21611424E+03</pdfrwt>
<totfact> 0.23080240E+04</totfact>
</mgrwt>
</event>
<event>
 4    1  0.6207184E-004  0.2874670E+03  0.7818608E-02  0.1091679E+00
          2   -1    0    0  501    0  0.00000000000E+00  0.00000000000E+00  0.10755878953E+04  0.10755878953E+04  0.25500000000E-02 0.  1.
         -2   -1    0    0    0  501 -0.00000000000E+00 -0.00000000000E+00 -0.19207473116E+02  0.19207473285E+02  0.25500000000E-02 0. -1.
    5000001    1    1    2    0    0  0.73596722717E+02  0.95318900167E+02  0.47066473559E+03  0.49189070295E+03  0.77000000000E+02 0.  0.
   -5000001    1    1    2    0    0 -0.73596722717E+02 -0.95318900167E+02  0.58571568664E+03  0.60290466568E+03  0.77000000000E+02 0.  0.
<mgrwt>
<rscale>  0 0.28746705E+03</rscale>
<asrwt>0</asrwt>
<pdfrwt beam="1">  1        2 0.16547513E+00 0.28746705E+03</pdfrwt>
<pdfrwt beam="2">  1       -2 0.29549946E-02 0.28746705E+03</pdfrwt>
<totfact> 0.10230347E+04</totfact>
</mgrwt>
</event>
<event>
 4    1  0.6207184E-004  0.2525432E+03  0.7818608E-02  0.1111708E+00
          2   -1    0    0  501    0  0.00000000000E+00  0.00000000000E+00  0.41526495172E+03  0.41526495173E+03  0.25500000000E-02 0.  1.
         -2   -1    0    0    0  501 -0.00000000000E+00 -0.00000000000E+00 -0.38396021243E+02  0.38396021327E+02  0.25500000000E-02 0. -1.
    5000001    1    1    2    0    0 -0.51920729763E+02 -0.50014877733E+02  0.63741682038E+02  0.12324468428E+03  0.77000000000E+02 0.  0.
   -5000001    1    1    2    0    0  0.51920729763E+02  0.50014877733E+02  0.31312724844E+03  0.33041628878E+03  0.77000000000E+02 0.  0.
<mgrwt>
<rscale>  0 0.25254324E+03</rscale>
<asrwt>0</asrwt>
<pdfrwt beam="1">  1        2 0.63886911E-01 0.25254324E+03</pdfrwt>
<pdfrwt beam="2">  1       -2 0.59070806E-02 0.25254324E+03</pdfrwt>
<totfact> 0.11475586E+04</totfact>
</mgrwt>
</event>
<event>
 4    1  0.6207184E-004  0.1884212E+03  0.7818608E-02  0.1159893E+00
         -2   -1    0    0    0  501 -0.00000000000E+00  0.00000000000E+00  0.17566605334E+02  0.17566605519E+02  0.25500000000E-02 0. -1.
          2   -1    0    0  501    0  0.00000000000E+00 -0.00000000000E+00 -0.50525622537E+03  0.50525622538E+03  0.25500000000E-02 0.  1.
    5000001    1    1    2    0    0  0.23989987753E+01 -0.49821136923E+02 -0.18441475383E+03  0.20597500409E+03  0.77000000000E+02 0.  0.
   -5000001    1    1    2    0    0 -0.23989987753E+01  0.49821136923E+02 -0.30327486621E+03  0.31684782681E+03  0.77000000000E+02 0.  0.
<mgrwt>
<rscale>  0 0.18842120E+03</rscale>
<asrwt>0</asrwt>
<pdfrwt beam="1">  1        2 0.77731716E-01 0.18842120E+03</pdfrwt>
<pdfrwt beam="2">  1       -2 0.27025551E-02 0.18842120E+03</pdfrwt>
<totfact> 0.29337187E+04</totfact>
</mgrwt>
</event>
<event>
 4    1  0.6207184E-004  0.2718839E+03  0.7818608E-02  0.1100206E+00
          2   -1    0    0  501    0  0.00000000000E+00  0.00000000000E+00  0.16451353041E+03  0.16451353043E+03  0.25500000000E-02 0. -1.
         -2   -1    0    0    0  501 -0.00000000000E+00 -0.00000000000E+00 -0.11233250097E+03  0.11233250100E+03  0.25500000000E-02 0.  1.
    5000001    1    1    2    0    0  0.71075179086E+02  0.58653193959E+01 -0.61887379740E+02  0.12184059596E+03  0.77000000000E+02 0.  0.
   -5000001    1    1    2    0    0 -0.71075179086E+02 -0.58653193959E+01  0.11406840918E+03  0.15500543547E+03  0.77000000000E+02 0.  0.
<mgrwt>
<rscale>  0 0.27188392E+03</rscale>
<asrwt>0</asrwt>
<pdfrwt beam="1">  1        2 0.25309774E-01 0.27188392E+03</pdfrwt>
<pdfrwt beam="2">  1       -2 0.17281923E-01 0.27188392E+03</pdfrwt>
<totfact> 0.56788207E+03</totfact>
</mgrwt>
</event>
<event>
 4    1  0.6207184E-004  0.1774382E+03  0.7818608E-02  0.1170306E+00
         -2   -1    0    0    0  501 -0.00000000000E+00  0.00000000000E+00  0.47710382206E+01  0.47710389021E+01  0.25500000000E-02 0. -1.
          2   -1    0    0  501    0  0.00000000000E+00 -0.00000000000E+00 -0.16497620498E+04  0.16497620498E+04  0.25500000000E-02 0.  1.
    5000001    1    1    2    0    0 -0.37624216622E+02 -0.17717547323E+02 -0.95845040317E+03  0.96243735822E+03  0.77000000000E+02 0.  0.
   -5000001    1    1    2    0    0  0.37624216622E+02  0.17717547323E+02 -0.68654060838E+03  0.69209573046E+03  0.77000000000E+02 0.  0.
<mgrwt>
<rscale>  0 0.17743820E+03</rscale>
<asrwt>0</asrwt>
<pdfrwt beam="1">  1        2 0.25380909E+00 0.17743820E+03</pdfrwt>
<pdfrwt beam="2">  1       -2 0.73400725E-03 0.17743820E+03</pdfrwt>
<totfact> 0.36964125E+04</totfact>
</mgrwt>
</event>
<event>
 4    1  0.6207184E-004  0.3379758E+03  0.7818608E-02  0.1067661E+00
          2   -1    0    0  501    0  0.00000000000E+00  0.00000000000E+00  0.15926681436E+03  0.15926681438E+03  0.25500000000E-02 0.  1.
         -2   -1    0    0    0  501 -0.00000000000E+00 -0.00000000000E+00 -0.17930227609E+03  0.17930227611E+03  0.25500000000E-02 0. -1.
    5000001    1    1    2    0    0  0.75606996727E+02  0.34567761855E+02  0.11556803853E+03  0.16185277150E+03  0.77000000000E+02 0.  0.
   -5000001    1    1    2    0    0 -0.75606996727E+02 -0.34567761855E+02 -0.13560350026E+03  0.17671631899E+03  0.77000000000E+02 0.  0.
<mgrwt>
<rscale>  0 0.33797575E+03</rscale>
<asrwt>0</asrwt>
<pdfrwt beam="1">  1        2 0.24502587E-01 0.33797575E+03</pdfrwt>
<pdfrwt beam="2">  1       -2 0.27584966E-01 0.33797575E+03</pdfrwt>
<totfact> 0.26306224E+03</totfact>
</mgrwt>
</event>
<event>
 4    1  0.6207184E-004  0.3767498E+03  0.7818608E-02  0.1052142E+00
          2   -1    0    0  501    0  0.00000000000E+00  0.00000000000E+00  0.22455708742E+03  0.22455708744E+03  0.25500000000E-02 0.  1.
         -2   -1    0    0    0  501 -0.00000000000E+00 -0.00000000000E+00 -0.15802267289E+03  0.15802267291E+03  0.25500000000E-02 0. -1.
    5000001    1    1    2    0    0 -0.93558734429E+02 -0.47830784947E+02 -0.10490854206E+03  0.16725974702E+03  0.77000000000E+02 0.  0.
   -5000001    1    1    2    0    0  0.93558734429E+02  0.47830784947E+02  0.17144295659E+03  0.21532001333E+03  0.77000000000E+02 0.  0.
<mgrwt>
<rscale>  0 0.37674984E+03</rscale>
<asrwt>0</asrwt>
<pdfrwt beam="1">  1        2 0.34547244E-01 0.37674984E+03</pdfrwt>
<pdfrwt beam="2">  1       -2 0.24311180E-01 0.37674984E+03</pdfrwt>
<totfact> 0.22543568E+03</totfact>
</mgrwt>
</event>
<event>
 4    1  0.6207184E-004  0.2221451E+03  0.7818608E-02  0.1132294E+00
         -2   -1    0    0    0  501 -0.00000000000E+00  0.00000000000E+00  0.34737553363E+03  0.34737553364E+03  0.25500000000E-02 0. -1.
          2   -1    0    0  501    0  0.00000000000E+00 -0.00000000000E+00 -0.35515196729E+02  0.35515196821E+02  0.25500000000E-02 0.  1.
    5000001    1    1    2    0    0 -0.77250255990E+02 -0.19769114688E+02  0.16808012615E+03  0.20134137368E+03  0.77000000000E+02 0.  0.
   -5000001    1    1    2    0    0  0.77250255990E+02  0.19769114688E+02  0.14378021075E+03  0.18154935678E+03  0.77000000000E+02 0.  0.
<mgrwt>
<rscale>  0 0.22214509E+03</rscale>
<asrwt>0</asrwt>
<pdfrwt beam="1">  1        2 0.54638764E-02 0.22214509E+03</pdfrwt>
<pdfrwt beam="2">  1       -2 0.53442390E-01 0.22214509E+03</pdfrwt>
<totfact> 0.46123170E+03</totfact>
</mgrwt>
</event>
<event>
 4    1  0.6207184E-004  0.1784791E+03  0.7818608E-02  0.1169283E+00
          2   -1    0    0  501    0  0.00000000000E+00  0.00000000000E+00  0.18062555400E+04  0.18062555400E+04  0.25500000000E-02 0.  1.
         -2   -1    0    0    0  501 -0.00000000000E+00 -0.00000000000E+00 -0.44089527568E+01  0.44089534943E+01  0.25500000000E-02 0. -1.
    5000001    1    1    2    0    0 -0.30294565845E+02  0.20470689131E+02  0.11689283275E+04  0.11720321006E+04  0.77000000000E+02 0.  0.
   -5000001    1    1    2    0    0  0.30294565845E+02 -0.20470689131E+02  0.63291825972E+03  0.63863239295E+03  0.77000000000E+02 0.  0.
<mgrwt>
<rscale>  0 0.17847909E+03</rscale>
<asrwt>0</asrwt>
<pdfrwt beam="1">  1        2 0.27788477E+00 0.17847909E+03</pdfrwt>
<pdfrwt beam="2">  1       -2 0.67830217E-03 0.17847909E+03</pdfrwt>
<totfact> 0.34353965E+04</totfact>
</mgrwt>
</event>
<event>
 4    1  0.6207184E-004  0.1966697E+03  0.7818608E-02  0.1152580E+00
          2   -1    0    0  501    0  0.00000000000E+00  0.00000000000E+00  0.11590078615E+02  0.11590078896E+02  0.25500000000E-02 0.  1.
         -2   -1    0    0    0  501 -0.00000000000E+00 -0.00000000000E+00 -0.83431230380E+03  0.83431230380E+03  0.25500000000E-02 0. -1.
    5000001    1    1    2    0    0 -0.52938984997E+02  0.30555031058E+02 -0.42058526557E+03  0.43192257602E+03  0.77000000000E+02 0.  0.
   -5000001    1    1    2    0    0  0.52938984997E+02 -0.30555031058E+02 -0.40213695961E+03  0.41397980668E+03  0.77000000000E+02 0.  0.
<mgrwt>
<rscale>  0 0.19666973E+03</rscale>
<asrwt>0</asrwt>
<pdfrwt beam="1">  1        2 0.17830897E-02 0.19666973E+03</pdfrwt>
<pdfrwt beam="2">  1       -2 0.12835569E+00 0.19666973E+03</pdfrwt>
<totfact> 0.29608836E+03</totfact>
</mgrwt>
</event>
<event>
 4    1  0.6207184E-004  0.4972345E+03  0.7818608E-02  0.1014503E+00
         -2   -1    0    0    0  501 -0.00000000000E+00  0.00000000000E+00  0.11884701105E+03  0.11884701107E+03  0.25500000000E-02 0. -1.
          2   -1    0    0  501    0  0.00000000000E+00 -0.00000000000E+00 -0.52008491827E+03  0.52008491827E+03  0.25500000000E-02 0.  1.
    5000001    1    1    2    0    0 -0.93960315282E+02  0.17221962478E+03 -0.37008611373E+03  0.42588833230E+03  0.77000000000E+02 0.  0.
   -5000001    1    1    2    0    0  0.93960315282E+02 -0.17221962478E+03 -0.31151793486E+02  0.21304359705E+03  0.77000000000E+02 0.  0.
<mgrwt>
<rscale>  0 0.49723450E+03</rscale>
<asrwt>0</asrwt>
<pdfrwt beam="1">  1        2 0.80013063E-01 0.49723450E+03</pdfrwt>
<pdfrwt beam="2">  1       -2 0.18284156E-01 0.49723450E+03</pdfrwt>
<totfact> 0.14664709E+03</totfact>
</mgrwt>
</event>
<event>
 4    1  0.6207184E-004  0.2337918E+03  0.7818608E-02  0.1123999E+00
          2   -1    0    0  501    0  0.00000000000E+00  0.00000000000E+00  0.26741062553E+02  0.26741062675E+02  0.25500000000E-02 0.  1.
         -2   -1    0    0    0  501 -0.00000000000E+00 -0.00000000000E+00 -0.51099892237E+03  0.51099892237E+03  0.25500000000E-02 0. -1.
    5000001    1    1    2    0    0  0.76594022784E+02 -0.24367525491E+02 -0.32426574877E+03  0.34283771153E+03  0.77000000000E+02 0.  0.
   -5000001    1    1    2    0    0 -0.76594022784E+02  0.24367525491E+02 -0.15999211104E+03  0.19490227351E+03  0.77000000000E+02 0.  0.
<mgrwt>
<rscale>  0 0.23379182E+03</rscale>
<asrwt>0</asrwt>
<pdfrwt beam="1">  1        2 0.41140100E-02 0.23379182E+03</pdfrwt>
<pdfrwt beam="2">  1       -2 0.78615211E-01 0.23379182E+03</pdfrwt>
<totfact> 0.29892576E+03</totfact>
</mgrwt>
</event>
<event>
 4    1  0.6207184E-004  0.2963669E+03  0.7818608E-02  0.1087071E+00
          2   -1    0    0  501    0  0.00000000000E+00  0.00000000000E+00  0.78686149523E+03  0.78686149523E+03  0.25500000000E-02 0.  1.
         -2   -1    0    0    0  501 -0.00000000000E+00 -0.00000000000E+00 -0.27906229359E+02  0.27906229476E+02  0.25500000000E-02 0. -1.
    5000001    1    1    2    0    0 -0.12154389120E+03  0.29415327230E+02  0.43385027658E+03  0.45803192187E+03  0.77000000000E+02 0.  0.
   -5000001    1    1    2    0    0  0.12154389120E+03 -0.29415327230E+02  0.32510498929E+03  0.35673580284E+03  0.77000000000E+02 0.  0.
<mgrwt>
<rscale>  0 0.29636692E+03</rscale>
<asrwt>0</asrwt>
<pdfrwt beam="1">  1        2 0.12105561E+00 0.29636692E+03</pdfrwt>
<pdfrwt beam="2">  1       -2 0.42932663E-02 0.29636692E+03</pdfrwt>
<totfact> 0.89452974E+03</totfact>
</mgrwt>
</event>
<event>
 4    1  0.6207184E-004  0.3511282E+03  0.7818608E-02  0.1062153E+00
         -2   -1    0    0    0  501 -0.00000000000E+00  0.00000000000E+00  0.46086182488E+02  0.46086182559E+02  0.25500000000E-02 0. -1.
          2   -1    0    0  501    0  0.00000000000E+00 -0.00000000000E+00 -0.66880695937E+03  0.66880695937E+03  0.25500000000E-02 0.  1.
    5000001    1    1    2    0    0  0.15560711281E+03  0.46398073982E+01 -0.25910808516E+03  0.31193124429E+03  0.77000000000E+02 0.  0.
   -5000001    1    1    2    0    0 -0.15560711281E+03 -0.46398073982E+01 -0.36361269172E+03  0.40296189764E+03  0.77000000000E+02 0.  0.
<mgrwt>
<rscale>  0 0.35112824E+03</rscale>
<asrwt>0</asrwt>
<pdfrwt beam="1">  1        2 0.10289337E+00 0.35112824E+03</pdfrwt>
<pdfrwt beam="2">  1       -2 0.70901824E-02 0.35112824E+03</pdfrwt>
<totfact> 0.50856618E+03</totfact>
</mgrwt>
</event>
<event>
 4    1  0.6207184E-004  0.2334596E+03  0.7818608E-02  0.1124228E+00
          2   -1    0    0  501    0  0.00000000000E+00  0.00000000000E+00  0.79588149871E+03  0.79588149871E+03  0.25500000000E-02 0.  1.
         -2   -1    0    0    0  501 -0.00000000000E+00 -0.00000000000E+00 -0.17120449812E+02  0.17120450002E+02  0.25500000000E-02 0. -1.
    5000001    1    1    2    0    0  0.48005172884E+02 -0.55021308268E+02  0.55873478954E+03  0.56872260904E+03  0.77000000000E+02 0.  0.
   -5000001    1    1    2    0    0 -0.48005172884E+02  0.55021308268E+02  0.22002625935E+03  0.24427933967E+03  0.77000000000E+02 0.  0.
<mgrwt>
<rscale>  0 0.23345963E+03</rscale>
<asrwt>0</asrwt>
<pdfrwt beam="1">  1        2 0.12244329E+00 0.23345963E+03</pdfrwt>
<pdfrwt beam="2">  1       -2 0.26339157E-02 0.23345963E+03</pdfrwt>
<totfact> 0.18119735E+04</totfact>
</mgrwt>
</event>
<event>
 4    1  0.6207184E-004  0.1672472E+03  0.7818608E-02  0.1180749E+00
          2   -1    0    0  501    0  0.00000000000E+00  0.00000000000E+00  0.16360172884E+04  0.16360172884E+04  0.25500000000E-02 0.  1.
         -2   -1    0    0    0  501 -0.00000000000E+00 -0.00000000000E+00 -0.42743479395E+01  0.42743487002E+01  0.25500000000E-02 0. -1.
    5000001    1    1    2    0    0  0.28013378805E+02  0.16101374944E+02  0.85962703308E+03  0.86367334083E+03  0.77000000000E+02 0.  0.
   -5000001    1    1    2    0    0 -0.28013378805E+02 -0.16101374944E+02  0.77211590741E+03  0.77661829630E+03  0.77000000000E+02 0.  0.
<mgrwt>
<rscale>  0 0.16724722E+03</rscale>
<asrwt>0</asrwt>
<pdfrwt beam="1">  1        2 0.25169471E+00 0.16724722E+03</pdfrwt>
<pdfrwt beam="2">  1       -2 0.65759271E-03 0.16724722E+03</pdfrwt>
<totfact> 0.43800795E+04</totfact>
</mgrwt>
</event>
<event>
 4    1  0.6207184E-004  0.4041927E+03  0.7818608E-02  0.1042337E+00
          2   -1    0    0  501    0  0.00000000000E+00  0.00000000000E+00  0.33932558320E+03  0.33932558321E+03  0.25500000000E-02 0.  1.
         -2   -1    0    0    0  501 -0.00000000000E+00 -0.00000000000E+00 -0.12036501117E+03  0.12036501120E+03  0.25500000000E-02 0. -1.
    5000001    1    1    2    0    0 -0.17458773405E+03  0.29813974898E+02  0.17718749793E+03  0.26209570657E+03  0.77000000000E+02 0.  0.
   -5000001    1    1    2    0    0  0.17458773405E+03 -0.29813974898E+02  0.41773074100E+02  0.19759488784E+03  0.77000000000E+02 0.  0.
<mgrwt>
<rscale>  0 0.40419267E+03</rscale>
<asrwt>0</asrwt>
<pdfrwt beam="1">  1        2 0.52203935E-01 0.40419267E+03</pdfrwt>
<pdfrwt beam="2">  1       -2 0.18517694E-01 0.40419267E+03</pdfrwt>
<totfact> 0.23083810E+03</totfact>
</mgrwt>
</event>
<event>
 4    1  0.6207184E-004  0.2742158E+03  0.7818608E-02  0.1098891E+00
         -2   -1    0    0    0  501 -0.00000000000E+00  0.00000000000E+00  0.47507797097E+02  0.47507797165E+02  0.25500000000E-02 0. -1.
          2   -1    0    0  501    0  0.00000000000E+00 -0.00000000000E+00 -0.39569465845E+03  0.39569465846E+03  0.25500000000E-02 0.  1.
    5000001    1    1    2    0    0 -0.10323780040E+03 -0.37571114518E+02 -0.21980655487E+03  0.25751418144E+03  0.77000000000E+02 0.  0.
   -5000001    1    1    2    0    0  0.10323780040E+03  0.37571114518E+02 -0.12838030649E+03  0.18568827419E+03  0.77000000000E+02 0.  0.
<mgrwt>
<rscale>  0 0.27421584E+03</rscale>
<asrwt>0</asrwt>
<pdfrwt beam="1">  1        2 0.60876099E-01 0.27421584E+03</pdfrwt>
<pdfrwt beam="2">  1       -2 0.73088921E-02 0.27421584E+03</pdfrwt>
<totfact> 0.87405300E+03</totfact>
</mgrwt>
</event>
<event>
 4    1  0.6207184E-004  0.2099935E+03  0.7818608E-02  0.1141571E+00
         -2   -1    0    0    0  501 -0.00000000000E+00  0.00000000000E+00  0.14118343709E+03  0.14118343712E+03  0.25500000000E-02 0. -1.
          2   -1    0    0  501    0  0.00000000000E+00 -0.00000000000E+00 -0.78085094903E+02  0.78085094945E+02  0.25500000000E-02 0.  1.
    5000001    1    1    2    0    0  0.15736565668E+02 -0.67005379546E+02  0.51304699495E+02  0.11531926369E+03  0.77000000000E+02 0.  0.
   -5000001    1    1    2    0    0 -0.15736565668E+02  0.67005379546E+02  0.11793642693E+02  0.10394926837E+03  0.77000000000E+02 0.  0.
<mgrwt>
<rscale>  0 0.20999354E+03</rscale>
<asrwt>0</asrwt>
<pdfrwt beam="1">  1        2 0.12013092E-01 0.20999354E+03</pdfrwt>
<pdfrwt beam="2">  1       -2 0.21720529E-01 0.20999354E+03</pdfrwt>
<totfact> 0.90407833E+03</totfact>
</mgrwt>
</event>
<event>
 4    1  0.6207184E-004  0.2277789E+03  0.7818608E-02  0.1128213E+00
          2   -1    0    0  501    0  0.00000000000E+00  0.00000000000E+00  0.21535240604E+02  0.21535240755E+02  0.25500000000E-02 0.  1.
         -2   -1    0    0    0  501 -0.00000000000E+00 -0.00000000000E+00 -0.60230590051E+03  0.60230590052E+03  0.25500000000E-02 0. -1.
    5000001    1    1    2    0    0 -0.36967668610E+02 -0.68511189052E+02 -0.37618508548E+03  0.39179664379E+03  0.77000000000E+02 0.  0.
   -5000001    1    1    2    0    0  0.36967668610E+02  0.68511189052E+02 -0.20458557443E+03  0.23204449748E+03  0.77000000000E+02 0.  0.
<mgrwt>
<rscale>  0 0.22777886E+03</rscale>
<asrwt>0</asrwt>
<pdfrwt beam="1">  1        2 0.33131144E-02 0.22777886E+03</pdfrwt>
<pdfrwt beam="2">  1       -2 0.92662434E-01 0.22777886E+03</pdfrwt>
<totfact> 0.27664643E+03</totfact>
</mgrwt>
</event>
<event>
 4    1  0.6207184E-004  0.3112496E+03  0.7818608E-02  0.1079748E+00
         -2   -1    0    0    0  501 -0.00000000000E+00  0.00000000000E+00  0.70573681300E+02  0.70573681346E+02  0.25500000000E-02 0. -1.
          2   -1    0    0  501    0  0.00000000000E+00 -0.00000000000E+00 -0.34317439434E+03  0.34317439435E+03  0.25500000000E-02 0.  1.
    5000001    1    1    2    0    0 -0.67850895506E+01  0.13480865095E+03 -0.14747532653E+03  0.21423674229E+03  0.77000000000E+02 0.  0.
   -5000001    1    1    2    0    0  0.67850895506E+01 -0.13480865095E+03 -0.12512538651E+03  0.19951133341E+03  0.77000000000E+02 0.  0.
<mgrwt>
<rscale>  0 0.31124961E+03</rscale>
<asrwt>0</asrwt>
<pdfrwt beam="1">  1        2 0.52796060E-01 0.31124961E+03</pdfrwt>
<pdfrwt beam="2">  1       -2 0.10857490E-01 0.31124961E+03</pdfrwt>
<totfact> 0.54853366E+03</totfact>
</mgrwt>
</event>
<event>
 4    1  0.6207184E-004  0.1679718E+03  0.7818608E-02  0.1179980E+00
          2   -1    0    0  501    0  0.00000000000E+00  0.00000000000E+00  0.98096367832E+03  0.98096367833E+03  0.25500000000E-02 0.  1.
         -2   -1    0    0    0  501 -0.00000000000E+00 -0.00000000000E+00 -0.71905137827E+01  0.71905142349E+01  0.25500000000E-02 0. -1.
    5000001    1    1    2    0    0 -0.27835481649E+02 -0.18659986756E+02  0.47938985098E+03  0.48668946811E+03  0.77000000000E+02 0.  0.
   -5000001    1    1    2    0    0  0.27835481649E+02  0.18659986756E+02  0.49438331356E+03  0.50146472446E+03  0.77000000000E+02 0.  0.
<mgrwt>
<rscale>  0 0.16797182E+03</rscale>
<asrwt>0</asrwt>
<pdfrwt beam="1">  1        2 0.15091747E+00 0.16797182E+03</pdfrwt>
<pdfrwt beam="2">  1       -2 0.11062330E-02 0.16797182E+03</pdfrwt>
<totfact> 0.47621546E+04</totfact>
</mgrwt>
</event>
<event>
 4    1  0.6207184E-004  0.2327168E+03  0.7818608E-02  0.1124742E+00
          2   -1    0    0  501    0  0.00000000000E+00  0.00000000000E+00  0.14283425349E+04  0.14283425349E+04  0.25500000000E-02 0.  1.
         -2   -1    0    0    0  501 -0.00000000000E+00 -0.00000000000E+00 -0.94790092375E+01  0.94790095805E+01  0.25500000000E-02 0. -1.
    5000001    1    1    2    0    0 -0.26148715204E+02 -0.76578899964E+02  0.91079410322E+03  0.91761810231E+03  0.77000000000E+02 0.  0.
   -5000001    1    1    2    0    0  0.26148715204E+02  0.76578899964E+02  0.50806942240E+03  0.52020344213E+03  0.77000000000E+02 0.  0.
<mgrwt>
<rscale>  0 0.23271676E+03</rscale>
<asrwt>0</asrwt>
<pdfrwt beam="1">  1        2 0.21974500E+00 0.23271676E+03</pdfrwt>
<pdfrwt beam="2">  1       -2 0.14583092E-02 0.23271676E+03</pdfrwt>
<totfact> 0.18206685E+04</totfact>
</mgrwt>
</event>
<event>
 4    1  0.6207184E-004  0.2002802E+03  0.7818608E-02  0.1149503E+00
         -2   -1    0    0    0  501 -0.00000000000E+00  0.00000000000E+00  0.27059881753E+03  0.27059881754E+03  0.25500000000E-02 0. -1.
          2   -1    0    0  501    0  0.00000000000E+00 -0.00000000000E+00 -0.37058690208E+02  0.37058690296E+02  0.25500000000E-02 0.  1.
    5000001    1    1    2    0    0  0.60277217973E+02  0.10220897485E+01  0.14988260814E+03  0.17896419725E+03  0.77000000000E+02 0.  0.
   -5000001    1    1    2    0    0 -0.60277217973E+02 -0.10220897485E+01  0.83657519174E+02  0.12869331058E+03  0.77000000000E+02 0.  0.
<mgrwt>
<rscale>  0 0.20028018E+03</rscale>
<asrwt>0</asrwt>
<pdfrwt beam="1">  1        2 0.57013369E-02 0.20028018E+03</pdfrwt>
<pdfrwt beam="2">  1       -2 0.41630588E-01 0.20028018E+03</pdfrwt>
<totfact> 0.70868711E+03</totfact>
</mgrwt>
</event>
<event>
 4    1  0.6207184E-004  0.2153841E+03  0.7818608E-02  0.1137372E+00
          2   -1    0    0  501    0  0.00000000000E+00  0.00000000000E+00  0.17335588330E+04  0.17335588330E+04  0.25500000000E-02 0.  1.
         -2   -1    0    0    0  501 -0.00000000000E+00 -0.00000000000E+00 -0.66900416017E+01  0.66900420877E+01  0.25500000000E-02 0. -1.
    5000001    1    1    2    0    0  0.60133543514E+02 -0.37047726649E+01  0.49860793863E+03  0.50810298647E+03  0.77000000000E+02 0.  0.
   -5000001    1    1    2    0    0 -0.60133543514E+02  0.37047726649E+01  0.12282608528E+04  0.12321458886E+04  0.77000000000E+02 0.  0.
<mgrwt>
<rscale>  0 0.21538413E+03</rscale>
<asrwt>0</asrwt>
<pdfrwt beam="1">  1        2 0.26670168E+00 0.21538413E+03</pdfrwt>
<pdfrwt beam="2">  1       -2 0.10292360E-02 0.21538413E+03</pdfrwt>
<totfact> 0.20765219E+04</totfact>
</mgrwt>
</event>
<event>
 4    1  0.6207184E-004  0.6266521E+03  0.7818608E-02  0.9851604E-01
          2   -1    0    0  501    0  0.00000000000E+00  0.00000000000E+00  0.38999538943E+04  0.38999538943E+04  0.25500000000E-02 0.  1.
         -2   -1    0    0    0  501 -0.00000000000E+00 -0.00000000000E+00 -0.25172912847E+02  0.25172912976E+02  0.25500000000E-02 0. -1.
    5000001    1    1    2    0    0 -0.21935512641E+03 -0.20536628378E+03  0.16606381190E+04  0.16893608094E+04  0.77000000000E+02 0.  0.
   -5000001    1    1    2    0    0  0.21935512641E+03  0.20536628378E+03  0.22141428624E+04  0.22357659978E+04  0.77000000000E+02 0.  0.
<mgrwt>
<rscale>  0 0.62665206E+03</rscale>
<asrwt>0</asrwt>
<pdfrwt beam="1">  1        2 0.59999310E+00 0.62665206E+03</pdfrwt>
<pdfrwt beam="2">  1       -2 0.38727546E-02 0.62665206E+03</pdfrwt>
<totfact> 0.14081666E+02</totfact>
</mgrwt>
</event>
<event>
 4    1  0.6207184E-004  0.3452836E+03  0.7818608E-02  0.1064568E+00
          2   -1    0    0  501    0  0.00000000000E+00  0.00000000000E+00  0.56442672115E+03  0.56442672116E+03  0.25500000000E-02 0.  1.
         -2   -1    0    0    0  501 -0.00000000000E+00 -0.00000000000E+00 -0.52806119948E+02  0.52806120010E+02  0.25500000000E-02 0. -1.
    5000001    1    1    2    0    0 -0.13912045615E+03  0.11125672188E+02  0.37435877072E+03  0.40688053666E+03  0.77000000000E+02 0.  0.
   -5000001    1    1    2    0    0  0.13912045615E+03 -0.11125672188E+02  0.13726183048E+03  0.21035230450E+03  0.77000000000E+02 0.  0.
<mgrwt>
<rscale>  0 0.34528357E+03</rscale>
<asrwt>0</asrwt>
<pdfrwt beam="1">  1        2 0.86834878E-01 0.34528357E+03</pdfrwt>
<pdfrwt beam="2">  1       -2 0.81240187E-02 0.34528357E+03</pdfrwt>
<totfact> 0.50187901E+03</totfact>
</mgrwt>
</event>
<event>
 4    1  0.6207184E-004  0.1697757E+03  0.7818608E-02  0.1178082E+00
          2   -1    0    0  501    0  0.00000000000E+00  0.00000000000E+00  0.49149342304E+03  0.49149342304E+03  0.25500000000E-02 0.  1.
         -2   -1    0    0    0  501 -0.00000000000E+00 -0.00000000000E+00 -0.14661330316E+02  0.14661330538E+02  0.25500000000E-02 0. -1.
    5000001    1    1    2    0    0 -0.25700011546E+02  0.23469589509E+02  0.26256934043E+03  0.27583141728E+03  0.77000000000E+02 0.  0.
   -5000001    1    1    2    0    0  0.25700011546E+02 -0.23469589509E+02  0.21426275229E+03  0.23032333630E+03  0.77000000000E+02 0.  0.
<mgrwt>
<rscale>  0 0.16977570E+03</rscale>
<asrwt>0</asrwt>
<pdfrwt beam="1">  1        2 0.75614355E-01 0.16977570E+03</pdfrwt>
<pdfrwt beam="2">  1       -2 0.22555898E-02 0.16977570E+03</pdfrwt>
<totfact> 0.39085750E+04</totfact>
</mgrwt>
</event>
<event>
 4    1  0.6207184E-004  0.3051117E+03  0.7818608E-02  0.1082713E+00
          2   -1    0    0  501    0  0.00000000000E+00  0.00000000000E+00  0.23999330944E+04  0.23999330944E+04  0.25500000000E-02 0.  1.
         -2   -1    0    0    0  501 -0.00000000000E+00 -0.00000000000E+00 -0.96974712459E+01  0.96974715812E+01  0.25500000000E-02 0. -1.
    5000001    1    1    2    0    0 -0.10416763900E+03 -0.79276277899E+02  0.13091975373E+04  0.13179767892E+04  0.77000000000E+02 0.  0.
   -5000001    1    1    2    0    0  0.10416763900E+03  0.79276277899E+02  0.10810380858E+04  0.10916537768E+04  0.77000000000E+02 0.  0.
<mgrwt>
<rscale>  0 0.30511167E+03</rscale>
<asrwt>0</asrwt>
<pdfrwt beam="1">  1        2 0.36922076E+00 0.30511167E+03</pdfrwt>
<pdfrwt beam="2">  1       -2 0.14919175E-02 0.30511167E+03</pdfrwt>
<totfact> 0.54050176E+03</totfact>
</mgrwt>
</event>
<event>
 4    1  0.6207184E-004  0.2450600E+03  0.7818608E-02  0.1116467E+00
          2   -1    0    0  501    0  0.00000000000E+00  0.00000000000E+00  0.12905517940E+03  0.12905517942E+03  0.25500000000E-02 0.  1.
         -2   -1    0    0    0  501 -0.00000000000E+00 -0.00000000000E+00 -0.11633471255E+03  0.11633471258E+03  0.25500000000E-02 0. -1.
    5000001    1    1    2    0    0 -0.82443251572E+02  0.30306833076E+02 -0.30692330845E+02  0.12077422338E+03  0.77000000000E+02 0.  0.
   -5000001    1    1    2    0    0  0.82443251572E+02 -0.30306833076E+02  0.43412797694E+02  0.12461566862E+03  0.77000000000E+02 0.  0.
<mgrwt>
<rscale>  0 0.24505997E+03</rscale>
<asrwt>0</asrwt>
<pdfrwt beam="1">  1        2 0.19854643E-01 0.24505997E+03</pdfrwt>
<pdfrwt beam="2">  1       -2 0.17897648E-01 0.24505997E+03</pdfrwt>
<totfact> 0.70135109E+03</totfact>
</mgrwt>
</event>
<event>
 4    1  0.6207184E-004  0.2218913E+03  0.7818608E-02  0.1132481E+00
         -2   -1    0    0    0  501 -0.00000000000E+00  0.00000000000E+00  0.19585158079E+02  0.19585158245E+02  0.25500000000E-02 0. -1.
          2   -1    0    0  501    0  0.00000000000E+00 -0.00000000000E+00 -0.62848310738E+03  0.62848310739E+03  0.25500000000E-02 0.  1.
    5000001    1    1    2    0    0 -0.12160620107E+02 -0.19795222216E+02 -0.81248749049E+02  0.11432449749E+03  0.77000000000E+02 0.  0.
   -5000001    1    1    2    0    0  0.12160620107E+02  0.19795222216E+02 -0.52764920025E+03  0.53374376814E+03  0.77000000000E+02 0.  0.
<mgrwt>
<rscale>  0 0.22189133E+03</rscale>
<asrwt>0</asrwt>
<pdfrwt beam="1">  1        2 0.96689694E-01 0.22189133E+03</pdfrwt>
<pdfrwt beam="2">  1       -2 0.30131017E-02 0.22189133E+03</pdfrwt>
<totfact> 0.19715504E+04</totfact>
</mgrwt>
</event>
<event>
 4    1  0.6207184E-004  0.2170351E+03  0.7818608E-02  0.1136113E+00
         -2   -1    0    0    0  501 -0.00000000000E+00  0.00000000000E+00  0.17716695118E+02  0.17716695302E+02  0.25500000000E-02 0. -1.
          2   -1    0    0  501    0  0.00000000000E+00 -0.00000000000E+00 -0.66468719315E+03  0.66468719316E+03  0.25500000000E-02 0.  1.
    5000001    1    1    2    0    0  0.50816419026E+02  0.39242867450E+02 -0.19290590678E+03  0.21740285177E+03  0.77000000000E+02 0.  0.
   -5000001    1    1    2    0    0 -0.50816419026E+02 -0.39242867450E+02 -0.45406459125E+03  0.46500103669E+03  0.77000000000E+02 0.  0.
<mgrwt>
<rscale>  0 0.21703512E+03</rscale>
<asrwt>0</asrwt>
<pdfrwt beam="1">  1        2 0.10225955E+00 0.21703512E+03</pdfrwt>
<pdfrwt beam="2">  1       -2 0.27256459E-02 0.21703512E+03</pdfrwt>
<totfact> 0.21380899E+04</totfact>
</mgrwt>
</event>
<event>
 4    1  0.6207184E-004  0.2354429E+03  0.7818608E-02  0.1122866E+00
         -2   -1    0    0    0  501 -0.00000000000E+00  0.00000000000E+00  0.11959047883E+02  0.11959048155E+02  0.25500000000E-02 0. -1.
          2   -1    0    0  501    0  0.00000000000E+00 -0.00000000000E+00 -0.11588159768E+04  0.11588159768E+04  0.25500000000E-02 0.  1.
    5000001    1    1    2    0    0  0.19413089654E+02  0.84638442458E+02 -0.47537744486E+03  0.48933960505E+03  0.77000000000E+02 0.  0.
   -5000001    1    1    2    0    0 -0.19413089654E+02 -0.84638442458E+02 -0.67147948402E+03  0.68143541986E+03  0.77000000000E+02 0.  0.
<mgrwt>
<rscale>  0 0.23544287E+03</rscale>
<asrwt>0</asrwt>
<pdfrwt beam="1">  1        2 0.17827929E+00 0.23544287E+03</pdfrwt>
<pdfrwt beam="2">  1       -2 0.18398545E-02 0.23544287E+03</pdfrwt>
<totfact> 0.18282813E+04</totfact>
</mgrwt>
</event>
<event>
 4    1  0.6207184E-004  0.2232396E+03  0.7818608E-02  0.1131491E+00
         -2   -1    0    0    0  501 -0.00000000000E+00  0.00000000000E+00  0.44627584865E+03  0.44627584866E+03  0.25500000000E-02 0. -1.
          2   -1    0    0  501    0  0.00000000000E+00 -0.00000000000E+00 -0.27917670262E+02  0.27917670378E+02  0.25500000000E-02 0.  1.
    5000001    1    1    2    0    0 -0.43102275420E+02 -0.57230869984E+02  0.12979161594E+03  0.16705700283E+03  0.77000000000E+02 0.  0.
   -5000001    1    1    2    0    0  0.43102275420E+02  0.57230869984E+02  0.28856656245E+03  0.30713651621E+03  0.77000000000E+02 0.  0.
<mgrwt>
<rscale>  0 0.22323962E+03</rscale>
<asrwt>0</asrwt>
<pdfrwt beam="1">  1        2 0.42950264E-02 0.22323962E+03</pdfrwt>
<pdfrwt beam="2">  1       -2 0.68657820E-01 0.22323962E+03</pdfrwt>
<totfact> 0.37732284E+03</totfact>
</mgrwt>
</event>
<event>
 4    1  0.6207184E-004  0.3089256E+03  0.7818608E-02  0.1080862E+00
          2   -1    0    0  501    0  0.00000000000E+00  0.00000000000E+00  0.47121694863E+03  0.47121694863E+03  0.25500000000E-02 0.  1.
         -2   -1    0    0    0  501 -0.00000000000E+00 -0.00000000000E+00 -0.50632212185E+02  0.50632212250E+02  0.25500000000E-02 0. -1.
    5000001    1    1    2    0    0  0.54380419424E+02  0.85150616020E+02  0.61851613825E+02  0.14128863917E+03  0.77000000000E+02 0.  0.
   -5000001    1    1    2    0    0 -0.54380419424E+02 -0.85150616020E+02  0.35873312262E+03  0.38056052171E+03  0.77000000000E+02 0.  0.
<mgrwt>
<rscale>  0 0.30892560E+03</rscale>
<asrwt>0</asrwt>
<pdfrwt beam="1">  1        2 0.72494913E-01 0.30892560E+03</pdfrwt>
<pdfrwt beam="2">  1       -2 0.77895714E-02 0.30892560E+03</pdfrwt>
<totfact> 0.65587536E+03</totfact>
</mgrwt>
</event>
<event>
 4    1  0.6207184E-004  0.2900098E+03  0.7818608E-02  0.1090344E+00
         -2   -1    0    0    0  501 -0.00000000000E+00  0.00000000000E+00  0.49302382076E+01  0.49302388670E+01  0.25500000000E-02 0. -1.
          2   -1    0    0  501    0  0.00000000000E+00 -0.00000000000E+00 -0.42647879846E+04  0.42647879846E+04  0.25500000000E-02 0.  1.
    5000001    1    1    2    0    0  0.57812944517E+02  0.10233749718E+03 -0.26570995435E+04  0.26608123353E+04  0.77000000000E+02 0.  0.
   -5000001    1    1    2    0    0 -0.57812944517E+02 -0.10233749718E+03 -0.16027582029E+04  0.16089058882E+04  0.77000000000E+02 0.  0.
<mgrwt>
<rscale>  0 0.29000981E+03</rscale>
<asrwt>0</asrwt>
<pdfrwt beam="1">  1        2 0.65611828E+00 0.29000981E+03</pdfrwt>
<pdfrwt beam="2">  1       -2 0.75850165E-03 0.29000981E+03</pdfrwt>
<totfact> 0.86916517E+02</totfact>
</mgrwt>
</event>
<event>
 4    1  0.6207184E-004  0.1843856E+03  0.7818608E-02  0.1163625E+00
          2   -1    0    0  501    0  0.00000000000E+00  0.00000000000E+00  0.14195239049E+04  0.14195239049E+04  0.25500000000E-02 0.  1.
         -2   -1    0    0    0  501 -0.00000000000E+00 -0.00000000000E+00 -0.59875768931E+01  0.59875774361E+01  0.25500000000E-02 0. -1.
    5000001    1    1    2    0    0  0.24479312045E+02 -0.35875028122E+02  0.90900145877E+03  0.91329015456E+03  0.77000000000E+02 0.  0.
   -5000001    1    1    2    0    0 -0.24479312045E+02  0.35875028122E+02  0.50453486927E+03  0.51222132782E+03  0.77000000000E+02 0.  0.
<mgrwt>
<rscale>  0 0.18438556E+03</rscale>
<asrwt>0</asrwt>
<pdfrwt beam="1">  1        2 0.21838841E+00 0.18438556E+03</pdfrwt>
<pdfrwt beam="2">  1       -2 0.92116524E-03 0.18438556E+03</pdfrwt>
<totfact> 0.35343609E+04</totfact>
</mgrwt>
</event>
<event>
 4    1  0.6207184E-004  0.5445144E+03  0.7818608E-02  0.1002772E+00
          2   -1    0    0  501    0  0.00000000000E+00  0.00000000000E+00  0.16415272829E+03  0.16415272831E+03  0.25500000000E-02 0. -1.
         -2   -1    0    0    0  501 -0.00000000000E+00 -0.00000000000E+00 -0.45155496321E+03  0.45155496322E+03  0.25500000000E-02 0.  1.
    5000001    1    1    2    0    0  0.24921435754E+02  0.23397394678E+03 -0.15621467932E+02  0.24806836959E+03  0.77000000000E+02 0.  0.
   -5000001    1    1    2    0    0 -0.24921435754E+02 -0.23397394678E+03 -0.27178076699E+03  0.36763932194E+03  0.77000000000E+02 0.  0.
<mgrwt>
<rscale>  0 0.54451439E+03</rscale>
<asrwt>0</asrwt>
<pdfrwt beam="1">  1        2 0.25254266E-01 0.54451439E+03</pdfrwt>
<pdfrwt beam="2">  1       -2 0.69469994E-01 0.54451439E+03</pdfrwt>
<totfact> 0.41338317E+02</totfact>
</mgrwt>
</event>
<event>
 4    1  0.6207184E-004  0.1747408E+03  0.7818608E-02  0.1172992E+00
          2   -1    0    0  501    0  0.00000000000E+00  0.00000000000E+00  0.18080416605E+03  0.18080416607E+03  0.25500000000E-02 0.  1.
         -2   -1    0    0    0  501 -0.00000000000E+00 -0.00000000000E+00 -0.42220199152E+02  0.42220199229E+02  0.25500000000E-02 0. -1.
    5000001    1    1    2    0    0 -0.31417464600E+02 -0.21944759717E+02  0.49686586761E+02  0.99329685719E+02  0.77000000000E+02 0.  0.
   -5000001    1    1    2    0    0  0.31417464600E+02  0.21944759717E+02  0.88897380140E+02  0.12369467958E+03  0.77000000000E+02 0.  0.
<mgrwt>
<rscale>  0 0.17474081E+03</rscale>
<asrwt>0</asrwt>
<pdfrwt beam="1">  1        2 0.27816025E-01 0.17474081E+03</pdfrwt>
<pdfrwt beam="2">  1       -2 0.64954153E-02 0.17474081E+03</pdfrwt>
<totfact> 0.23733999E+04</totfact>
</mgrwt>
</event>
<event>
 4    1  0.6207184E-004  0.3090590E+03  0.7818608E-02  0.1080798E+00
         -2   -1    0    0    0  501 -0.00000000000E+00  0.00000000000E+00  0.19822249131E+02  0.19822249295E+02  0.25500000000E-02 0.  1.
          2   -1    0    0  501    0  0.00000000000E+00 -0.00000000000E+00 -0.12046753037E+04  0.12046753037E+04  0.25500000000E-02 0. -1.
    5000001    1    1    2    0    0 -0.10896775683E+03  0.39277537729E+02 -0.85919945115E+03  0.87038462409E+03  0.77000000000E+02 0.  0.
   -5000001    1    1    2    0    0  0.10896775683E+03 -0.39277537729E+02 -0.32565360339E+03  0.35411292888E+03  0.77000000000E+02 0.  0.
<mgrwt>
<rscale>  0 0.30905905E+03</rscale>
<asrwt>0</asrwt>
<pdfrwt beam="1">  1        2 0.18533461E+00 0.30905905E+03</pdfrwt>
<pdfrwt beam="2">  1       -2 0.30495777E-02 0.30905905E+03</pdfrwt>
<totfact> 0.82247284E+03</totfact>
</mgrwt>
</event>
<event>
 4    1  0.6207184E-004  0.2640415E+03  0.7818608E-02  0.1104739E+00
         -2   -1    0    0    0  501 -0.00000000000E+00  0.00000000000E+00  0.11168770771E+02  0.11168771062E+02  0.25500000000E-02 0. -1.
          2   -1    0    0  501    0  0.00000000000E+00 -0.00000000000E+00 -0.15605553331E+04  0.15605553331E+04  0.25500000000E-02 0.  1.
    5000001    1    1    2    0    0  0.85677134909E+02 -0.63281791260E+02 -0.84888058255E+03  0.85899499416E+03  0.77000000000E+02 0.  0.
   -5000001    1    1    2    0    0 -0.85677134909E+02  0.63281791260E+02 -0.70050597980E+03  0.71272911003E+03  0.77000000000E+02 0.  0.
<mgrwt>
<rscale>  0 0.26404155E+03</rscale>
<asrwt>0</asrwt>
<pdfrwt beam="1">  1        2 0.24008526E+00 0.26404155E+03</pdfrwt>
<pdfrwt beam="2">  1       -2 0.17182737E-02 0.26404155E+03</pdfrwt>
<totfact> 0.12227030E+04</totfact>
</mgrwt>
</event>
<event>
 4    1  0.6207184E-004  0.1654102E+03  0.7818608E-02  0.1182721E+00
         -2   -1    0    0    0  501 -0.00000000000E+00  0.00000000000E+00  0.12312987864E+03  0.12312987867E+03  0.25500000000E-02 0. -1.
          2   -1    0    0  501    0  0.00000000000E+00 -0.00000000000E+00 -0.55552186713E+02  0.55552186771E+02  0.25500000000E-02 0.  1.
    5000001    1    1    2    0    0 -0.25104403958E+02 -0.20942478594E+01  0.51751876795E+02  0.96134664528E+02  0.77000000000E+02 0.  0.
   -5000001    1    1    2    0    0  0.25104403958E+02  0.20942478594E+01  0.15825815132E+02  0.82547400909E+02  0.77000000000E+02 0.  0.
<mgrwt>
<rscale>  0 0.16541021E+03</rscale>
<asrwt>0</asrwt>
<pdfrwt beam="1">  1        2 0.85464903E-02 0.16541021E+03</pdfrwt>
<pdfrwt beam="2">  1       -2 0.18943058E-01 0.16541021E+03</pdfrwt>
<totfact> 0.17060287E+04</totfact>
</mgrwt>
</event>
<event>
 4    1  0.6207184E-004  0.2244684E+03  0.7818608E-02  0.1130595E+00
          2   -1    0    0  501    0  0.00000000000E+00  0.00000000000E+00  0.13587116777E+04  0.13587116777E+04  0.25500000000E-02 0.  1.
         -2   -1    0    0    0  501 -0.00000000000E+00 -0.00000000000E+00 -0.92709252914E+01  0.92709256421E+01  0.25500000000E-02 0. -1.
    5000001    1    1    2    0    0  0.15981021763E+02  0.57094772157E+02  0.33255209700E+03  0.34646082504E+03  0.77000000000E+02 0.  0.
   -5000001    1    1    2    0    0 -0.15981021763E+02 -0.57094772157E+02  0.10168886554E+04  0.10215217783E+04  0.77000000000E+02 0.  0.
<mgrwt>
<rscale>  0 0.22446839E+03</rscale>
<asrwt>0</asrwt>
<pdfrwt beam="1">  1        2 0.20903253E+00 0.22446839E+03</pdfrwt>
<pdfrwt beam="2">  1       -2 0.14262965E-02 0.22446839E+03</pdfrwt>
<totfact> 0.20474162E+04</totfact>
</mgrwt>
</event>
<event>
 4    1  0.6207184E-004  0.3176189E+03  0.7818608E-02  0.1076750E+00
          2   -1    0    0  501    0  0.00000000000E+00  0.00000000000E+00  0.19899518419E+02  0.19899518583E+02  0.25500000000E-02 0.  1.
         -2   -1    0    0    0  501 -0.00000000000E+00 -0.00000000000E+00 -0.12673892898E+04  0.12673892898E+04  0.25500000000E-02 0. -1.
    5000001    1    1    2    0    0  0.10109608757E+03 -0.83324162790E+02 -0.43677749106E+03  0.46245747018E+03  0.77000000000E+02 0.  0.
   -5000001    1    1    2    0    0 -0.10109608757E+03  0.83324162790E+02 -0.81071228029E+03  0.82483133818E+03  0.77000000000E+02 0.  0.
<mgrwt>
<rscale>  0 0.31761887E+03</rscale>
<asrwt>0</asrwt>
<pdfrwt beam="1">  1        2 0.30614654E-02 0.31761887E+03</pdfrwt>
<pdfrwt beam="2">  1       -2 0.19498290E+00 0.31761887E+03</pdfrwt>
<totfact> 0.47401833E+02</totfact>
</mgrwt>
</event>
<event>
 4    1  0.6207184E-004  0.3848350E+03  0.7818608E-02  0.1049161E+00
          2   -1    0    0  501    0  0.00000000000E+00  0.00000000000E+00  0.12283898106E+04  0.12283898106E+04  0.25500000000E-02 0.  1.
         -2   -1    0    0    0  501 -0.00000000000E+00 -0.00000000000E+00 -0.30140665390E+02  0.30140665498E+02  0.25500000000E-02 0. -1.
    5000001    1    1    2    0    0  0.97107200998E+02  0.12015806098E+03  0.32109574626E+03  0.36455348904E+03  0.77000000000E+02 0.  0.
   -5000001    1    1    2    0    0 -0.97107200998E+02 -0.12015806098E+03  0.87715339891E+03  0.89397698702E+03  0.77000000000E+02 0.  0.
<mgrwt>
<rscale>  0 0.38483496E+03</rscale>
<asrwt>0</asrwt>
<pdfrwt beam="1">  1        2 0.18898311E+00 0.38483496E+03</pdfrwt>
<pdfrwt beam="2">  1       -2 0.46370239E-02 0.38483496E+03</pdfrwt>
<totfact> 0.42434041E+03</totfact>
</mgrwt>
</event>
<event>
 4    1  0.6207184E-004  0.3042981E+03  0.7818608E-02  0.1083112E+00
          2   -1    0    0  501    0  0.00000000000E+00  0.00000000000E+00  0.34413607215E+03  0.34413607216E+03  0.25500000000E-02 0.  1.
         -2   -1    0    0    0  501 -0.00000000000E+00 -0.00000000000E+00 -0.67267962496E+02  0.67267962544E+02  0.25500000000E-02 0. -1.
    5000001    1    1    2    0    0  0.89081931976E+02 -0.95703859651E+02  0.12328750362E+03  0.19550863895E+03  0.77000000000E+02 0.  0.
   -5000001    1    1    2    0    0 -0.89081931976E+02  0.95703859651E+02  0.15358060604E+03  0.21589539575E+03  0.77000000000E+02 0.  0.
<mgrwt>
<rscale>  0 0.30429809E+03</rscale>
<asrwt>0</asrwt>
<pdfrwt beam="1">  1        2 0.52944010E-01 0.30429809E+03</pdfrwt>
<pdfrwt beam="2">  1       -2 0.10348918E-01 0.30429809E+03</pdfrwt>
<totfact> 0.59016085E+03</totfact>
</mgrwt>
</event>
<event>
 4    1  0.6207184E-004  0.3047946E+03  0.7818608E-02  0.1082868E+00
         -2   -1    0    0    0  501 -0.00000000000E+00  0.00000000000E+00  0.70626686858E+01  0.70626691461E+01  0.25500000000E-02 0. -1.
          2   -1    0    0  501    0  0.00000000000E+00 -0.00000000000E+00 -0.32884074904E+04  0.32884074904E+04  0.25500000000E-02 0.  1.
    5000001    1    1    2    0    0 -0.27160408800E+02  0.12699151030E+03 -0.18652421129E+04  0.18713422111E+04  0.77000000000E+02 0.  0.
   -5000001    1    1    2    0    0  0.27160408800E+02 -0.12699151030E+03 -0.14161027088E+04  0.14241279484E+04  0.77000000000E+02 0.  0.
<mgrwt>
<rscale>  0 0.30479458E+03</rscale>
<asrwt>0</asrwt>
<pdfrwt beam="1">  1        2 0.50590762E+00 0.30479458E+03</pdfrwt>
<pdfrwt beam="2">  1       -2 0.10865671E-02 0.30479458E+03</pdfrwt>
<totfact> 0.26153171E+03</totfact>
</mgrwt>
</event>
<event>
 4    1  0.6207184E-004  0.5323883E+03  0.7818608E-02  0.1005655E+00
          2   -1    0    0  501    0  0.00000000000E+00  0.00000000000E+00  0.62919500403E+03  0.62919500403E+03  0.25500000000E-02 0.  1.
         -2   -1    0    0    0  501 -0.00000000000E+00 -0.00000000000E+00 -0.11261900866E+03  0.11261900868E+03  0.25500000000E-02 0. -1.
    5000001    1    1    2    0    0 -0.24161950373E+03 -0.80918534441E+02  0.26050157931E+03  0.37244847512E+03  0.77000000000E+02 0.  0.
   -5000001    1    1    2    0    0  0.24161950373E+03  0.80918534441E+02  0.25607441607E+03  0.36936553760E+03  0.77000000000E+02 0.  0.
<mgrwt>
<rscale>  0 0.53238827E+03</rscale>
<asrwt>0</asrwt>
<pdfrwt beam="1">  1        2 0.96799234E-01 0.53238827E+03</pdfrwt>
<pdfrwt beam="2">  1       -2 0.17326001E-01 0.53238827E+03</pdfrwt>
<totfact> 0.12843965E+03</totfact>
</mgrwt>
</event>
<event>
 4    1  0.6207184E-004  0.3851198E+03  0.7818608E-02  0.1049058E+00
          2   -1    0    0  501    0  0.00000000000E+00  0.00000000000E+00  0.15783238872E+04  0.15783238872E+04  0.25500000000E-02 0.  1.
         -2   -1    0    0    0  501 -0.00000000000E+00 -0.00000000000E+00 -0.23492846869E+02  0.23492847007E+02  0.25500000000E-02 0. -1.
    5000001    1    1    2    0    0 -0.11655977195E+03  0.11943927129E+03  0.10162894221E+04  0.10327754400E+04  0.77000000000E+02 0.  0.
   -5000001    1    1    2    0    0  0.11655977195E+03 -0.11943927129E+03  0.53854161822E+03  0.56904129422E+03  0.77000000000E+02 0.  0.
<mgrwt>
<rscale>  0 0.38511983E+03</rscale>
<asrwt>0</asrwt>
<pdfrwt beam="1">  1        2 0.24281909E+00 0.38511983E+03</pdfrwt>
<pdfrwt beam="2">  1       -2 0.36142838E-02 0.38511983E+03</pdfrwt>
<totfact> 0.39724281E+03</totfact>
</mgrwt>
</event>
<event>
 4    1  0.6207184E-004  0.4230593E+03  0.7818608E-02  0.1036075E+00
          2   -1    0    0  501    0  0.00000000000E+00  0.00000000000E+00  0.18135952483E+04  0.18135952483E+04  0.25500000000E-02 0.  1.
         -2   -1    0    0    0  501 -0.00000000000E+00 -0.00000000000E+00 -0.24671875045E+02  0.24671875176E+02  0.25500000000E-02 0. -1.
    5000001    1    1    2    0    0  0.14926518757E+03  0.12785333031E+03  0.95423355388E+03  0.97730100053E+03  0.77000000000E+02 0.  0.
   -5000001    1    1    2    0    0 -0.14926518757E+03 -0.12785333031E+03  0.83468981938E+03  0.86096612295E+03  0.77000000000E+02 0.  0.
<mgrwt>
<rscale>  0 0.42305931E+03</rscale>
<asrwt>0</asrwt>
<pdfrwt beam="1">  1        2 0.27901465E+00 0.42305931E+03</pdfrwt>
<pdfrwt beam="2">  1       -2 0.37956731E-02 0.42305931E+03</pdfrwt>
<totfact> 0.27571641E+03</totfact>
</mgrwt>
</event>
<event>
 4    1  0.6207184E-004  0.2913746E+03  0.7818608E-02  0.1089634E+00
         -2   -1    0    0    0  501 -0.00000000000E+00  0.00000000000E+00  0.12660413613E+03  0.12660413615E+03  0.25500000000E-02 0. -1.
          2   -1    0    0  501    0  0.00000000000E+00 -0.00000000000E+00 -0.16764692042E+03  0.16764692044E+03  0.25500000000E-02 0.  1.
    5000001    1    1    2    0    0 -0.11238106721E+03  0.22868954567E+02 -0.67274210846E+02  0.15364671424E+03  0.77000000000E+02 0.  0.
   -5000001    1    1    2    0    0  0.11238106721E+03 -0.22868954567E+02  0.26231426547E+02  0.14060434236E+03  0.77000000000E+02 0.  0.
<mgrwt>
<rscale>  0 0.29137463E+03</rscale>
<asrwt>0</asrwt>
<pdfrwt beam="1">  1        2 0.25791834E-01 0.29137463E+03</pdfrwt>
<pdfrwt beam="2">  1       -2 0.19477559E-01 0.29137463E+03</pdfrwt>
<totfact> 0.45519102E+03</totfact>
</mgrwt>
</event>
<event>
 4    1  0.6207184E-004  0.3656514E+03  0.7818608E-02  0.1056368E+00
          2   -1    0    0  501    0  0.00000000000E+00  0.00000000000E+00  0.14112572847E+04  0.14112572847E+04  0.25500000000E-02 0.  1.
         -2   -1    0    0    0  501 -0.00000000000E+00 -0.00000000000E+00 -0.23684719629E+02  0.23684719767E+02  0.25500000000E-02 0. -1.
    5000001    1    1    2    0    0 -0.96863472881E+02 -0.13386368603E+03  0.74847627178E+03  0.77035559856E+03  0.77000000000E+02 0.  0.
   -5000001    1    1    2    0    0  0.96863472881E+02  0.13386368603E+03  0.63909629325E+03  0.66458640587E+03  0.77000000000E+02 0.  0.
<mgrwt>
<rscale>  0 0.36565138E+03</rscale>
<asrwt>0</asrwt>
<pdfrwt beam="1">  1        2 0.21711644E+00 0.36565138E+03</pdfrwt>
<pdfrwt beam="2">  1       -2 0.36438041E-02 0.36565138E+03</pdfrwt>
<totfact> 0.48353448E+03</totfact>
</mgrwt>
</event>
<event>
 4    1  0.6207184E-004  0.2361035E+03  0.7818608E-02  0.1122416E+00
         -2   -1    0    0    0  501 -0.00000000000E+00  0.00000000000E+00  0.71391344987E+01  0.71391349541E+01  0.25500000000E-02 0. -1.
          2   -1    0    0  501    0  0.00000000000E+00 -0.00000000000E+00 -0.19520870503E+04  0.19520870503E+04  0.25500000000E-02 0.  1.
    5000001    1    1    2    0    0 -0.84611409666E+02 -0.28942752375E+02 -0.94566318069E+03  0.95299770455E+03  0.77000000000E+02 0.  0.
   -5000001    1    1    2    0    0  0.84611409666E+02  0.28942752375E+02 -0.99928473507E+03  0.10062284807E+04  0.77000000000E+02 0.  0.
<mgrwt>
<rscale>  0 0.23610347E+03</rscale>
<asrwt>0</asrwt>
<pdfrwt beam="1">  1        2 0.30032066E+00 0.23610347E+03</pdfrwt>
<pdfrwt beam="2">  1       -2 0.10983300E-02 0.23610347E+03</pdfrwt>
<totfact> 0.14583918E+04</totfact>
</mgrwt>
</event>
<event>
 4    1  0.6207184E-004  0.1896955E+03  0.7818608E-02  0.1158736E+00
          2   -1    0    0  501    0  0.00000000000E+00  0.00000000000E+00  0.34559273587E+03  0.34559273588E+03  0.25500000000E-02 0.  1.
         -2   -1    0    0    0  501 -0.00000000000E+00 -0.00000000000E+00 -0.26030914946E+02  0.26030915071E+02  0.25500000000E-02 0. -1.
    5000001    1    1    2    0    0 -0.26385704308E+02 -0.48558192375E+02  0.15271969735E+03  0.17973983809E+03  0.77000000000E+02 0.  0.
   -5000001    1    1    2    0    0  0.26385704308E+02  0.48558192375E+02  0.16684212358E+03  0.19188381286E+03  0.77000000000E+02 0.  0.
<mgrwt>
<rscale>  0 0.18969549E+03</rscale>
<asrwt>0</asrwt>
<pdfrwt beam="1">  1        2 0.53168110E-01 0.18969549E+03</pdfrwt>
<pdfrwt beam="2">  1       -2 0.40047564E-02 0.18969549E+03</pdfrwt>
<totfact> 0.24729556E+04</totfact>
</mgrwt>
</event>
<event>
 4    1  0.6207184E-004  0.1793537E+03  0.7818608E-02  0.1168430E+00
          2   -1    0    0  501    0  0.00000000000E+00  0.00000000000E+00  0.28277119318E+03  0.28277119320E+03  0.25500000000E-02 0.  1.
         -2   -1    0    0    0  501 -0.00000000000E+00 -0.00000000000E+00 -0.28439727539E+02  0.28439727654E+02  0.25500000000E-02 0. -1.
    5000001    1    1    2    0    0  0.21243660708E+02 -0.39486385920E+02  0.14473034185E+03  0.16995981774E+03  0.77000000000E+02 0.  0.
   -5000001    1    1    2    0    0 -0.21243660708E+02  0.39486385920E+02  0.10960112379E+03  0.14125110311E+03  0.77000000000E+02 0.  0.
<mgrwt>
<rscale>  0 0.17935368E+03</rscale>
<asrwt>0</asrwt>
<pdfrwt beam="1">  1        2 0.43503261E-01 0.17935368E+03</pdfrwt>
<pdfrwt beam="2">  1       -2 0.43753426E-02 0.17935368E+03</pdfrwt>
<totfact> 0.26708480E+04</totfact>
</mgrwt>
</event>
<event>
 4    1  0.6207184E-004  0.1788560E+03  0.7818608E-02  0.1168915E+00
          2   -1    0    0  501    0  0.00000000000E+00  0.00000000000E+00  0.19415640429E+04  0.19415640430E+04  0.25500000000E-02 0.  1.
         -2   -1    0    0    0  501 -0.00000000000E+00 -0.00000000000E+00 -0.41190317919E+01  0.41190325812E+01  0.25500000000E-02 0. -1.
    5000001    1    1    2    0    0 -0.18879826693E+02 -0.40618797490E+02  0.88304430768E+03  0.88752610321E+03  0.77000000000E+02 0.  0.
   -5000001    1    1    2    0    0  0.18879826693E+02  0.40618797490E+02  0.10544007035E+04  0.10581569723E+04  0.77000000000E+02 0.  0.
<mgrwt>
<rscale>  0 0.17885597E+03</rscale>
<asrwt>0</asrwt>
<pdfrwt beam="1">  1        2 0.29870148E+00 0.17885597E+03</pdfrwt>
<pdfrwt beam="2">  1       -2 0.63369871E-03 0.17885597E+03</pdfrwt>
<totfact> 0.32238691E+04</totfact>
</mgrwt>
</event>
<event>
 4    1  0.6207184E-004  0.3375286E+03  0.7818608E-02  0.1067853E+00
         -2   -1    0    0    0  501 -0.00000000000E+00  0.00000000000E+00  0.46292745692E+02  0.46292745762E+02  0.25500000000E-02 0. -1.
          2   -1    0    0  501    0  0.00000000000E+00 -0.00000000000E+00 -0.61524531529E+03  0.61524531530E+03  0.25500000000E-02 0.  1.
    5000001    1    1    2    0    0 -0.10019037022E+03  0.11133632093E+03 -0.26314001011E+03  0.31241887198E+03  0.77000000000E+02 0.  0.
   -5000001    1    1    2    0    0  0.10019037022E+03 -0.11133632093E+03 -0.30581255949E+03  0.34911918908E+03  0.77000000000E+02 0.  0.
<mgrwt>
<rscale>  0 0.33752864E+03</rscale>
<asrwt>0</asrwt>
<pdfrwt beam="1">  1        2 0.94653120E-01 0.33752864E+03</pdfrwt>
<pdfrwt beam="2">  1       -2 0.71219613E-02 0.33752864E+03</pdfrwt>
<totfact> 0.55748754E+03</totfact>
</mgrwt>
</event>
<event>
 4    1  0.6207184E-004  0.3981355E+03  0.7818608E-02  0.1044427E+00
          2   -1    0    0  501    0  0.00000000000E+00  0.00000000000E+00  0.26485505557E+03  0.26485505559E+03  0.25500000000E-02 0.  1.
         -2   -1    0    0    0  501 -0.00000000000E+00 -0.00000000000E+00 -0.14962133939E+03  0.14962133942E+03  0.25500000000E-02 0. -1.
    5000001    1    1    2    0    0  0.67944283514E+02 -0.16925360781E+03  0.79348471003E+02  0.21328007237E+03  0.77000000000E+02 0.  0.
   -5000001    1    1    2    0    0 -0.67944283514E+02  0.16925360781E+03  0.35885245177E+02  0.20119632263E+03  0.77000000000E+02 0.  0.
<mgrwt>
<rscale>  0 0.39813550E+03</rscale>
<asrwt>0</asrwt>
<pdfrwt beam="1">  1        2 0.40746931E-01 0.39813550E+03</pdfrwt>
<pdfrwt beam="2">  1       -2 0.23018668E-01 0.39813550E+03</pdfrwt>
<totfact> 0.20737475E+03</totfact>
</mgrwt>
</event>
<event>
 4    1  0.6207184E-004  0.3889861E+03  0.7818608E-02  0.1047662E+00
          2   -1    0    0  501    0  0.00000000000E+00  0.00000000000E+00  0.48240541618E+03  0.48240541618E+03  0.25500000000E-02 0.  1.
         -2   -1    0    0    0  501 -0.00000000000E+00 -0.00000000000E+00 -0.78414450382E+02  0.78414450424E+02  0.25500000000E-02 0. -1.
    5000001    1    1    2    0    0 -0.11344205727E+03  0.12579774744E+03  0.12038209727E+03  0.22161909431E+03  0.77000000000E+02 0.  0.
   -5000001    1    1    2    0    0  0.11344205727E+03 -0.12579774744E+03  0.28360886852E+03  0.33920077229E+03  0.77000000000E+02 0.  0.
<mgrwt>
<rscale>  0 0.38898615E+03</rscale>
<asrwt>0</asrwt>
<pdfrwt beam="1">  1        2 0.74216217E-01 0.38898615E+03</pdfrwt>
<pdfrwt beam="2">  1       -2 0.12063762E-01 0.38898615E+03</pdfrwt>
<totfact> 0.31949303E+03</totfact>
</mgrwt>
</event>
<event>
 4    1  0.6207184E-004  0.3092581E+03  0.7818608E-02  0.1080702E+00
          2   -1    0    0  501    0  0.00000000000E+00  0.00000000000E+00  0.18906395555E+03  0.18906395556E+03  0.25500000000E-02 0.  1.
         -2   -1    0    0    0  501 -0.00000000000E+00 -0.00000000000E+00 -0.12646587265E+03  0.12646587268E+03  0.25500000000E-02 0. -1.
    5000001    1    1    2    0    0 -0.26895208585E+02  0.12132043081E+03 -0.20112735774E+02  0.14756531204E+03  0.77000000000E+02 0.  0.
   -5000001    1    1    2    0    0  0.26895208585E+02 -0.12132043081E+03  0.82710818670E+02  0.16796451620E+03  0.77000000000E+02 0.  0.
<mgrwt>
<rscale>  0 0.30925807E+03</rscale>
<asrwt>0</asrwt>
<pdfrwt beam="1">  1        2 0.29086762E-01 0.30925807E+03</pdfrwt>
<pdfrwt beam="2">  1       -2 0.19456288E-01 0.30925807E+03</pdfrwt>
<totfact> 0.39973196E+03</totfact>
</mgrwt>
</event>
<event>
 4    1  0.6207184E-004  0.4065157E+03  0.7818608E-02  0.1041547E+00
         -2   -1    0    0    0  501 -0.00000000000E+00  0.00000000000E+00  0.35812623840E+03  0.35812623841E+03  0.25500000000E-02 0. -1.
          2   -1    0    0  501    0  0.00000000000E+00 -0.00000000000E+00 -0.11536088851E+03  0.11536088854E+03  0.25500000000E-02 0.  1.
    5000001    1    1    2    0    0 -0.77694801365E+02 -0.15440733314E+02 -0.77341586610E+02  0.13485406714E+03  0.77000000000E+02 0.  0.
   -5000001    1    1    2    0    0  0.77694801365E+02  0.15440733314E+02  0.32010693649E+03  0.33863305981E+03  0.77000000000E+02 0.  0.
<mgrwt>
<rscale>  0 0.40651574E+03</rscale>
<asrwt>0</asrwt>
<pdfrwt beam="1">  1        2 0.17747829E-01 0.40651574E+03</pdfrwt>
<pdfrwt beam="2">  1       -2 0.55096344E-01 0.40651574E+03</pdfrwt>
<totfact> 0.10140381E+03</totfact>
</mgrwt>
</event>
<event>
 4    1  0.6207184E-004  0.1940978E+03  0.7818608E-02  0.1154816E+00
          2   -1    0    0  501    0  0.00000000000E+00  0.00000000000E+00  0.10635808501E+04  0.10635808501E+04  0.25500000000E-02 0.  1.
         -2   -1    0    0    0  501 -0.00000000000E+00 -0.00000000000E+00 -0.88554560456E+01  0.88554564128E+01  0.25500000000E-02 0. -1.
    5000001    1    1    2    0    0 -0.55231775089E+02 -0.18940710395E+02  0.47788354960E+03  0.48755613673E+03  0.77000000000E+02 0.  0.
   -5000001    1    1    2    0    0  0.55231775089E+02  0.18940710395E+02  0.57684184449E+03  0.58488016982E+03  0.77000000000E+02 0.  0.
<mgrwt>
<rscale>  0 0.19409785E+03</rscale>
<asrwt>0</asrwt>
<pdfrwt beam="1">  1        2 0.16362778E+00 0.19409785E+03</pdfrwt>
<pdfrwt beam="2">  1       -2 0.13623783E-02 0.19409785E+03</pdfrwt>
<totfact> 0.31814175E+04</totfact>
</mgrwt>
</event>
<event>
 4    1  0.6207184E-004  0.1994189E+03  0.7818608E-02  0.1150230E+00
          2   -1    0    0  501    0  0.00000000000E+00  0.00000000000E+00  0.37134096060E+03  0.37134096061E+03  0.25500000000E-02 0.  1.
         -2   -1    0    0    0  501 -0.00000000000E+00 -0.00000000000E+00 -0.26773160021E+02  0.26773160143E+02  0.25500000000E-02 0. -1.
    5000001    1    1    2    0    0  0.54218959078E+01 -0.43596373900E+02  0.81171245642E+02  0.12019905113E+03  0.77000000000E+02 0.  0.
   -5000001    1    1    2    0    0 -0.54218959078E+01  0.43596373900E+02  0.26339655494E+03  0.27791506963E+03  0.77000000000E+02 0.  0.
<mgrwt>
<rscale>  0 0.19941887E+03</rscale>
<asrwt>0</asrwt>
<pdfrwt beam="1">  1        2 0.57129375E-01 0.19941887E+03</pdfrwt>
<pdfrwt beam="2">  1       -2 0.41189479E-02 0.19941887E+03</pdfrwt>
<totfact> 0.22035481E+04</totfact>
</mgrwt>
</event>
<event>
 4    1  0.6207184E-004  0.3788875E+03  0.7818608E-02  0.1051346E+00
         -2   -1    0    0    0  501 -0.00000000000E+00  0.00000000000E+00  0.13819943946E+03  0.13819943948E+03  0.25500000000E-02 0. -1.
          2   -1    0    0  501    0  0.00000000000E+00 -0.00000000000E+00 -0.25968947593E+03  0.25968947594E+03  0.25500000000E-02 0.  1.
    5000001    1    1    2    0    0 -0.16591653772E+03 -0.46751016419E+02 -0.44274554365E+02  0.19391542277E+03  0.77000000000E+02 0.  0.
   -5000001    1    1    2    0    0  0.16591653772E+03  0.46751016419E+02 -0.77215482108E+02  0.20397349265E+03  0.77000000000E+02 0.  0.
<mgrwt>
<rscale>  0 0.37888753E+03</rscale>
<asrwt>0</asrwt>
<pdfrwt beam="1">  1        2 0.39952227E-01 0.37888753E+03</pdfrwt>
<pdfrwt beam="2">  1       -2 0.21261452E-01 0.37888753E+03</pdfrwt>
<totfact> 0.24326085E+03</totfact>
</mgrwt>
</event>
<event>
 4    1  0.6207184E-004  0.2465420E+03  0.7818608E-02  0.1115510E+00
         -2   -1    0    0    0  501 -0.00000000000E+00  0.00000000000E+00  0.28318063279E+02  0.28318063394E+02  0.25500000000E-02 0. -1.
          2   -1    0    0  501    0  0.00000000000E+00 -0.00000000000E+00 -0.53660951864E+03  0.53660951864E+03  0.25500000000E-02 0.  1.
    5000001    1    1    2    0    0 -0.64426952422E+02  0.51353183734E+02 -0.36822825157E+03  0.38510911042E+03  0.77000000000E+02 0.  0.
   -5000001    1    1    2    0    0  0.64426952422E+02 -0.51353183734E+02 -0.14006320379E+03  0.17981847162E+03  0.77000000000E+02 0.  0.
<mgrwt>
<rscale>  0 0.24654202E+03</rscale>
<asrwt>0</asrwt>
<pdfrwt beam="1">  1        2 0.82555303E-01 0.24654202E+03</pdfrwt>
<pdfrwt beam="2">  1       -2 0.43566255E-02 0.24654202E+03</pdfrwt>
<totfact> 0.13702110E+04</totfact>
</mgrwt>
</event>
<event>
 4    1  0.6207184E-004  0.2615023E+03  0.7818608E-02  0.1106244E+00
         -2   -1    0    0    0  501 -0.00000000000E+00  0.00000000000E+00  0.24135404843E+03  0.24135404844E+03  0.25500000000E-02 0. -1.
          2   -1    0    0  501    0  0.00000000000E+00 -0.00000000000E+00 -0.70833158618E+02  0.70833158664E+02  0.25500000000E-02 0.  1.
    5000001    1    1    2    0    0  0.67322147434E+02 -0.25159048372E+01  0.18245446553E+03  0.20918229682E+03  0.77000000000E+02 0.  0.
   -5000001    1    1    2    0    0 -0.67322147434E+02  0.25159048372E+01 -0.11933575722E+02  0.10300491028E+03  0.77000000000E+02 0.  0.
<mgrwt>
<rscale>  0 0.26150235E+03</rscale>
<asrwt>0</asrwt>
<pdfrwt beam="1">  1        2 0.10897409E-01 0.26150235E+03</pdfrwt>
<pdfrwt beam="2">  1       -2 0.37131392E-01 0.26150235E+03</pdfrwt>
<totfact> 0.39237547E+03</totfact>
</mgrwt>
</event>
<event>
 4    1  0.6207184E-004  0.2425686E+03  0.7818608E-02  0.1118093E+00
         -2   -1    0    0    0  501 -0.00000000000E+00  0.00000000000E+00  0.32423082598E+01  0.32423092626E+01  0.25500000000E-02 0. -1.
          2   -1    0    0  501    0  0.00000000000E+00 -0.00000000000E+00 -0.45368548165E+04  0.45368548165E+04  0.25500000000E-02 0.  1.
    5000001    1    1    2    0    0 -0.78334201216E+02  0.30688015284E+02 -0.14944407002E+04  0.14987861782E+04  0.77000000000E+02 0.  0.
   -5000001    1    1    2    0    0  0.78334201216E+02 -0.30688015284E+02 -0.30391718080E+04  0.30413109476E+04  0.77000000000E+02 0.  0.
<mgrwt>
<rscale>  0 0.24256862E+03</rscale>
<asrwt>0</asrwt>
<pdfrwt beam="1">  1        2 0.69797258E+00 0.24256862E+03</pdfrwt>
<pdfrwt beam="2">  1       -2 0.49882036E-03 0.24256862E+03</pdfrwt>
<totfact> 0.92287199E+02</totfact>
</mgrwt>
</event>
<event>
 4    1  0.6207184E-004  0.4468621E+03  0.7818608E-02  0.1028662E+00
         -2   -1    0    0    0  501 -0.00000000000E+00  0.00000000000E+00  0.65109497341E+02  0.65109497391E+02  0.25500000000E-02 0. -1.
          2   -1    0    0  501    0  0.00000000000E+00 -0.00000000000E+00 -0.76673048778E+03  0.76673048778E+03  0.25500000000E-02 0.  1.
    5000001    1    1    2    0    0  0.19181604505E+02  0.94838783868E+02 -0.43982935465E+01  0.12373630778E+03  0.77000000000E+02 0.  0.
   -5000001    1    1    2    0    0 -0.19181604505E+02 -0.94838783868E+02 -0.69722269689E+03  0.70810367739E+03  0.77000000000E+02 0.  0.
<mgrwt>
<rscale>  0 0.44686211E+03</rscale>
<asrwt>0</asrwt>
<pdfrwt beam="1">  1        2 0.11795853E+00 0.44686211E+03</pdfrwt>
<pdfrwt beam="2">  1       -2 0.10016846E-01 0.44686211E+03</pdfrwt>
<totfact> 0.24894116E+03</totfact>
</mgrwt>
</event>
<event>
 4    1  0.6207184E-004  0.1774122E+03  0.7818608E-02  0.1170331E+00
          2   -1    0    0  501    0  0.00000000000E+00  0.00000000000E+00  0.60209365693E+03  0.60209365694E+03  0.25500000000E-02 0.  1.
         -2   -1    0    0    0  501 -0.00000000000E+00 -0.00000000000E+00 -0.13069021629E+02  0.13069021877E+02  0.25500000000E-02 0. -1.
    5000001    1    1    2    0    0 -0.23844885431E+02  0.34803549539E+02  0.25066495012E+03  0.26559703094E+03  0.77000000000E+02 0.  0.
   -5000001    1    1    2    0    0  0.23844885431E+02 -0.34803549539E+02  0.33835968518E+03  0.34956564788E+03  0.77000000000E+02 0.  0.
<mgrwt>
<rscale>  0 0.17741223E+03</rscale>
<asrwt>0</asrwt>
<pdfrwt beam="1">  1        2 0.92629802E-01 0.17741223E+03</pdfrwt>
<pdfrwt beam="2">  1       -2 0.20106185E-02 0.17741223E+03</pdfrwt>
<totfact> 0.36953320E+04</totfact>
</mgrwt>
</event>
<event>
 4    1  0.6207184E-004  0.2611993E+03  0.7818608E-02  0.1106425E+00
         -2   -1    0    0    0  501 -0.00000000000E+00  0.00000000000E+00  0.33660858792E+02  0.33660858889E+02  0.25500000000E-02 0.  1.
          2   -1    0    0  501    0  0.00000000000E+00 -0.00000000000E+00 -0.50670915835E+03  0.50670915835E+03  0.25500000000E-02 0. -1.
    5000001    1    1    2    0    0 -0.25125885615E+02  0.97401081393E+02 -0.17080959662E+03  0.21265746890E+03  0.77000000000E+02 0.  0.
   -5000001    1    1    2    0    0  0.25125885615E+02 -0.97401081393E+02 -0.30223870294E+03  0.32771254834E+03  0.77000000000E+02 0.  0.
<mgrwt>
<rscale>  0 0.26119928E+03</rscale>
<asrwt>0</asrwt>
<pdfrwt beam="1">  1        2 0.77955250E-01 0.26119928E+03</pdfrwt>
<pdfrwt beam="2">  1       -2 0.51785940E-02 0.26119928E+03</pdfrwt>
<totfact> 0.11280139E+04</totfact>
</mgrwt>
</event>
<event>
 4    1  0.6207184E-004  0.2535041E+03  0.7818608E-02  0.1111110E+00
          2   -1    0    0  501    0  0.00000000000E+00  0.00000000000E+00  0.11403655545E+04  0.11403655545E+04  0.25500000000E-02 0.  1.
         -2   -1    0    0    0  501 -0.00000000000E+00 -0.00000000000E+00 -0.14088536169E+02  0.14088536400E+02  0.25500000000E-02 0. -1.
    5000001    1    1    2    0    0 -0.80275241841E+02 -0.34379284094E+02  0.79133964453E+03  0.79985841412E+03  0.77000000000E+02 0.  0.
   -5000001    1    1    2    0    0  0.80275241841E+02  0.34379284094E+02  0.33493737381E+03  0.35459567680E+03  0.77000000000E+02 0.  0.
<mgrwt>
<rscale>  0 0.25350409E+03</rscale>
<asrwt>0</asrwt>
<pdfrwt beam="1">  1        2 0.17544090E+00 0.25350409E+03</pdfrwt>
<pdfrwt beam="2">  1       -2 0.21674665E-02 0.25350409E+03</pdfrwt>
<totfact> 0.14773684E+04</totfact>
</mgrwt>
</event>
<event>
 4    1  0.6207184E-004  0.1691945E+03  0.7818608E-02  0.1178690E+00
         -2   -1    0    0    0  501 -0.00000000000E+00  0.00000000000E+00  0.14058800474E+02  0.14058800705E+02  0.25500000000E-02 0. -1.
          2   -1    0    0  501    0  0.00000000000E+00 -0.00000000000E+00 -0.50905461840E+03  0.50905461841E+03  0.25500000000E-02 0.  1.
    5000001    1    1    2    0    0 -0.13932006123E+01  0.33593227028E+02 -0.27798792192E+03  0.29040786946E+03  0.77000000000E+02 0.  0.
   -5000001    1    1    2    0    0  0.13932006123E+01 -0.33593227028E+02 -0.21700789601E+03  0.23270554966E+03  0.77000000000E+02 0.  0.
<mgrwt>
<rscale>  0 0.16919453E+03</rscale>
<asrwt>0</asrwt>
<pdfrwt beam="1">  1        2 0.78316081E-01 0.16919453E+03</pdfrwt>
<pdfrwt beam="2">  1       -2 0.21628928E-02 0.16919453E+03</pdfrwt>
<totfact> 0.39964307E+04</totfact>
</mgrwt>
</event>
<event>
 4    1  0.6207184E-004  0.2230148E+03  0.7818608E-02  0.1131655E+00
         -2   -1    0    0    0  501 -0.00000000000E+00  0.00000000000E+00  0.64480531544E+02  0.64480531594E+02  0.25500000000E-02 0. -1.
          2   -1    0    0  501    0  0.00000000000E+00 -0.00000000000E+00 -0.19283184651E+03  0.19283184652E+03  0.25500000000E-02 0.  1.
    5000001    1    1    2    0    0  0.54240408253E+02  0.56162797305E+02 -0.40852577862E+02  0.11702228338E+03  0.77000000000E+02 0.  0.
   -5000001    1    1    2    0    0 -0.54240408253E+02 -0.56162797305E+02 -0.87498737101E+02  0.14029009474E+03  0.77000000000E+02 0.  0.
<mgrwt>
<rscale>  0 0.22301480E+03</rscale>
<asrwt>0</asrwt>
<pdfrwt beam="1">  1        2 0.29666438E-01 0.22301480E+03</pdfrwt>
<pdfrwt beam="2">  1       -2 0.99200819E-02 0.22301480E+03</pdfrwt>
<totfact> 0.11651903E+04</totfact>
</mgrwt>
</event>
<event>
 4    1  0.6207184E-004  0.2080727E+03  0.7818608E-02  0.1143101E+00
          2   -1    0    0  501    0  0.00000000000E+00  0.00000000000E+00  0.31528608295E+04  0.31528608295E+04  0.25500000000E-02 0.  1.
         -2   -1    0    0    0  501 -0.00000000000E+00 -0.00000000000E+00 -0.34329329409E+01  0.34329338879E+01  0.25500000000E-02 0. -1.
    5000001    1    1    2    0    0  0.31193467076E+02 -0.28094584532E+02  0.72575110278E+03  0.73103077997E+03  0.77000000000E+02 0.  0.
   -5000001    1    1    2    0    0 -0.31193467076E+02  0.28094584532E+02  0.24236767937E+04  0.24252629834E+04  0.77000000000E+02 0.  0.
<mgrwt>
<rscale>  0 0.20807269E+03</rscale>
<asrwt>0</asrwt>
<pdfrwt beam="1">  1        2 0.48505726E+00 0.20807269E+03</pdfrwt>
<pdfrwt beam="2">  1       -2 0.52814170E-03 0.20807269E+03</pdfrwt>
<totfact> 0.90585667E+03</totfact>
</mgrwt>
</event>
<event>
 4    1  0.6207184E-004  0.2409281E+03  0.7818608E-02  0.1119176E+00
          2   -1    0    0  501    0  0.00000000000E+00  0.00000000000E+00  0.98835433014E+03  0.98835433015E+03  0.25500000000E-02 0.  1.
         -2   -1    0    0    0  501 -0.00000000000E+00 -0.00000000000E+00 -0.14682569698E+02  0.14682569919E+02  0.25500000000E-02 0. -1.
    5000001    1    1    2    0    0 -0.68748949879E+02 -0.13076433358E+02  0.73956676626E+03  0.74685032836E+03  0.77000000000E+02 0.  0.
   -5000001    1    1    2    0    0  0.68748949879E+02  0.13076433358E+02  0.23410499419E+03  0.25618657171E+03  0.77000000000E+02 0.  0.
<mgrwt>
<rscale>  0 0.24092805E+03</rscale>
<asrwt>0</asrwt>
<pdfrwt beam="1">  1        2 0.15205451E+00 0.24092805E+03</pdfrwt>
<pdfrwt beam="2">  1       -2 0.22588570E-02 0.24092805E+03</pdfrwt>
<totfact> 0.17080167E+04</totfact>
</mgrwt>
</event>
<event>
 4    1  0.6207184E-004  0.3977448E+03  0.7818608E-02  0.1044563E+00
         -2   -1    0    0    0  501 -0.00000000000E+00  0.00000000000E+00  0.40078333909E+02  0.40078333990E+02  0.25500000000E-02 0. -1.
          2   -1    0    0  501    0  0.00000000000E+00 -0.00000000000E+00 -0.98682300470E+03  0.98682300470E+03  0.25500000000E-02 0.  1.
    5000001    1    1    2    0    0 -0.17768054778E+03  0.13199283887E+01 -0.35650150739E+03  0.40570240823E+03  0.77000000000E+02 0.  0.
   -5000001    1    1    2    0    0  0.17768054778E+03 -0.13199283887E+01 -0.59024316340E+03  0.62119893046E+03  0.77000000000E+02 0.  0.
<mgrwt>
<rscale>  0 0.39774475E+03</rscale>
<asrwt>0</asrwt>
<pdfrwt beam="1">  1        2 0.15181891E+00 0.39774475E+03</pdfrwt>
<pdfrwt beam="2">  1       -2 0.61658983E-02 0.39774475E+03</pdfrwt>
<totfact> 0.38126936E+03</totfact>
</mgrwt>
</event>
<event>
 4    1  0.6207184E-004  0.1802461E+03  0.7818608E-02  0.1167565E+00
          2   -1    0    0  501    0  0.00000000000E+00  0.00000000000E+00  0.68751092325E+03  0.68751092326E+03  0.25500000000E-02 0.  1.
         -2   -1    0    0    0  501 -0.00000000000E+00 -0.00000000000E+00 -0.11813863737E+02  0.11813864012E+02  0.25500000000E-02 0. -1.
    5000001    1    1    2    0    0  0.15603289133E+02 -0.43051879290E+02  0.29978786834E+03  0.31288766826E+03  0.77000000000E+02 0.  0.
   -5000001    1    1    2    0    0 -0.15603289133E+02  0.43051879290E+02  0.37590919117E+03  0.38643711901E+03  0.77000000000E+02 0.  0.
<mgrwt>
<rscale>  0 0.18024606E+03</rscale>
<asrwt>0</asrwt>
<pdfrwt beam="1">  1        2 0.10577094E+00 0.18024606E+03</pdfrwt>
<pdfrwt beam="2">  1       -2 0.18175171E-02 0.18024606E+03</pdfrwt>
<totfact> 0.36710540E+04</totfact>
</mgrwt>
</event>
<event>
 4    1  0.6207184E-004  0.2871767E+03  0.7818608E-02  0.1091832E+00
         -2   -1    0    0    0  501 -0.00000000000E+00  0.00000000000E+00  0.56452311125E+02  0.56452311182E+02  0.25500000000E-02 0. -1.
          2   -1    0    0  501    0  0.00000000000E+00 -0.00000000000E+00 -0.36522188921E+03  0.36522188922E+03  0.25500000000E-02 0.  1.
    5000001    1    1    2    0    0  0.97181291944E+02  0.56099416896E+02 -0.87140545061E+02  0.16159771865E+03  0.77000000000E+02 0.  0.
   -5000001    1    1    2    0    0 -0.97181291944E+02 -0.56099416896E+02 -0.22162903302E+03  0.26007648175E+03  0.77000000000E+02 0.  0.
<mgrwt>
<rscale>  0 0.28717674E+03</rscale>
<asrwt>0</asrwt>
<pdfrwt beam="1">  1        2 0.56187982E-01 0.28717674E+03</pdfrwt>
<pdfrwt beam="2">  1       -2 0.86849712E-02 0.28717674E+03</pdfrwt>
<totfact> 0.72930886E+03</totfact>
</mgrwt>
</event>
<event>
 4    1  0.6207184E-004  0.2822328E+03  0.7818608E-02  0.1094476E+00
         -2   -1    0    0    0  501 -0.00000000000E+00  0.00000000000E+00  0.28183097334E+02  0.28183097449E+02  0.25500000000E-02 0. -1.
          2   -1    0    0  501    0  0.00000000000E+00 -0.00000000000E+00 -0.70658802334E+03  0.70658802334E+03  0.25500000000E-02 0.  1.
    5000001    1    1    2    0    0 -0.52867794783E+02 -0.10012806890E+03 -0.42803239888E+03  0.44940112194E+03  0.77000000000E+02 0.  0.
   -5000001    1    1    2    0    0  0.52867794783E+02  0.10012806890E+03 -0.25037252712E+03  0.28536999885E+03  0.77000000000E+02 0.  0.
<mgrwt>
<rscale>  0 0.28223281E+03</rscale>
<asrwt>0</asrwt>
<pdfrwt beam="1">  1        2 0.10870584E+00 0.28223281E+03</pdfrwt>
<pdfrwt beam="2">  1       -2 0.43358617E-02 0.28223281E+03</pdfrwt>
<totfact> 0.10058599E+04</totfact>
</mgrwt>
</event>
<event>
 4    1  0.6207184E-004  0.2591241E+03  0.7818608E-02  0.1107671E+00
          2   -1    0    0  501    0  0.00000000000E+00  0.00000000000E+00  0.87792676799E+02  0.87792676836E+02  0.25500000000E-02 0.  1.
         -2   -1    0    0    0  501 -0.00000000000E+00 -0.00000000000E+00 -0.19120411692E+03  0.19120411693E+03  0.25500000000E-02 0. -1.
    5000001    1    1    2    0    0 -0.45772558123E+02 -0.63690199880E+02  0.22153717726E+02  0.11212205781E+03  0.77000000000E+02 0.  0.
   -5000001    1    1    2    0    0  0.45772558123E+02  0.63690199880E+02 -0.12556515784E+03  0.16687473596E+03  0.77000000000E+02 0.  0.
<mgrwt>
<rscale>  0 0.25912407E+03</rscale>
<asrwt>0</asrwt>
<pdfrwt beam="1">  1        2 0.13506566E-01 0.25912407E+03</pdfrwt>
<pdfrwt beam="2">  1       -2 0.29416018E-01 0.25912407E+03</pdfrwt>
<totfact> 0.46446572E+03</totfact>
</mgrwt>
</event>
<event>
 4    1  0.6207184E-004  0.3658871E+03  0.7818608E-02  0.1056277E+00
          2   -1    0    0  501    0  0.00000000000E+00  0.00000000000E+00  0.21702234900E+04  0.21702234901E+04  0.25500000000E-02 0.  1.
         -2   -1    0    0    0  501 -0.00000000000E+00 -0.00000000000E+00 -0.15421613693E+02  0.15421613904E+02  0.25500000000E-02 0. -1.
    5000001    1    1    2    0    0  0.15878284071E+03  0.21819452093E+02  0.13344211836E+04  0.13462157978E+04  0.77000000000E+02 0.  0.
   -5000001    1    1    2    0    0 -0.15878284071E+03 -0.21819452093E+02  0.82038069273E+03  0.83942930613E+03  0.77000000000E+02 0.  0.
<mgrwt>
<rscale>  0 0.36588713E+03</rscale>
<asrwt>0</asrwt>
<pdfrwt beam="1">  1        2 0.33388035E+00 0.36588713E+03</pdfrwt>
<pdfrwt beam="2">  1       -2 0.23725573E-02 0.36588713E+03</pdfrwt>
<totfact> 0.36140803E+03</totfact>
</mgrwt>
</event>
<event>
 4    1  0.6207184E-004  0.2433482E+03  0.7818608E-02  0.1117582E+00
          2   -1    0    0  501    0  0.00000000000E+00  0.00000000000E+00  0.91051270686E+03  0.91051270686E+03  0.25500000000E-02 0.  1.
         -2   -1    0    0    0  501 -0.00000000000E+00 -0.00000000000E+00 -0.16259615502E+02  0.16259615702E+02  0.25500000000E-02 0. -1.
    5000001    1    1    2    0    0 -0.82728786985E+02  0.44856751625E+02  0.43034948837E+03  0.44719778902E+03  0.77000000000E+02 0.  0.
   -5000001    1    1    2    0    0  0.82728786985E+02 -0.44856751625E+02  0.46390360298E+03  0.47957453354E+03  0.77000000000E+02 0.  0.
<mgrwt>
<rscale>  0 0.24334820E+03</rscale>
<asrwt>0</asrwt>
<pdfrwt beam="1">  1        2 0.14007888E+00 0.24334820E+03</pdfrwt>
<pdfrwt beam="2">  1       -2 0.25014793E-02 0.24334820E+03</pdfrwt>
<totfact> 0.16447180E+04</totfact>
</mgrwt>
</event>
<event>
 4    1  0.6207184E-004  0.3026604E+03  0.7818608E-02  0.1083918E+00
          2   -1    0    0  501    0  0.00000000000E+00  0.00000000000E+00  0.26528502366E+04  0.26528502366E+04  0.25500000000E-02 0.  1.
         -2   -1    0    0    0  501 -0.00000000000E+00 -0.00000000000E+00 -0.86325363232E+01  0.86325366998E+01  0.25500000000E-02 0. -1.
    5000001    1    1    2    0    0 -0.12190254644E+03  0.30870332226E+02  0.16214306000E+04  0.16281214324E+04  0.77000000000E+02 0.  0.
   -5000001    1    1    2    0    0  0.12190254644E+03 -0.30870332226E+02  0.10227871003E+04  0.10333613409E+04  0.77000000000E+02 0.  0.
<mgrwt>
<rscale>  0 0.30266038E+03</rscale>
<asrwt>0</asrwt>
<pdfrwt beam="1">  1        2 0.40813127E+00 0.30266038E+03</pdfrwt>
<pdfrwt beam="2">  1       -2 0.13280810E-02 0.30266038E+03</pdfrwt>
<totfact> 0.46476910E+03</totfact>
</mgrwt>
</event>
<event>
 4    1  0.6207184E-004  0.2358086E+03  0.7818608E-02  0.1122617E+00
          2   -1    0    0  501    0  0.00000000000E+00  0.00000000000E+00  0.31336453081E+03  0.31336453082E+03  0.25500000000E-02 0.  1.
         -2   -1    0    0    0  501 -0.00000000000E+00 -0.00000000000E+00 -0.44361815296E+02  0.44361815369E+02  0.25500000000E-02 0. -1.
    5000001    1    1    2    0    0  0.67263285830E+02 -0.31438949416E+02  0.20973794691E+03  0.23543951142E+03  0.77000000000E+02 0.  0.
   -5000001    1    1    2    0    0 -0.67263285830E+02  0.31438949416E+02  0.59264768598E+02  0.12228683477E+03  0.77000000000E+02 0.  0.
<mgrwt>
<rscale>  0 0.23580856E+03</rscale>
<asrwt>0</asrwt>
<pdfrwt beam="1">  1        2 0.48209927E-01 0.23580856E+03</pdfrwt>
<pdfrwt beam="2">  1       -2 0.68248947E-02 0.23580856E+03</pdfrwt>
<totfact> 0.12411056E+04</totfact>
</mgrwt>
</event>
<event>
 4    1  0.6207184E-004  0.6571658E+03  0.7818608E-02  0.9793425E-01
         -2   -1    0    0    0  501 -0.00000000000E+00  0.00000000000E+00  0.50724202684E+02  0.50724202748E+02  0.25500000000E-02 0. -1.
          2   -1    0    0  501    0  0.00000000000E+00 -0.00000000000E+00 -0.21285050709E+04  0.21285050709E+04  0.25500000000E-02 0.  1.
    5000001    1    1    2    0    0 -0.69214498712E+02  0.29518554855E+03 -0.70541895774E+03  0.77166706606E+03  0.77000000000E+02 0.  0.
   -5000001    1    1    2    0    0  0.69214498712E+02 -0.29518554855E+03 -0.13723619104E+04  0.14075622076E+04  0.77000000000E+02 0.  0.
<mgrwt>
<rscale>  0 0.65716580E+03</rscale>
<asrwt>0</asrwt>
<pdfrwt beam="1">  1        2 0.32746225E+00 0.65716580E+03</pdfrwt>
<pdfrwt beam="2">  1       -2 0.78037251E-02 0.65716580E+03</pdfrwt>
<totfact> 0.59955583E+02</totfact>
</mgrwt>
</event>
<event>
 4    1  0.6207184E-004  0.2404649E+03  0.7818608E-02  0.1119484E+00
         -2   -1    0    0    0  501 -0.00000000000E+00  0.00000000000E+00  0.10124535001E+02  0.10124535322E+02  0.25500000000E-02 0. -1.
          2   -1    0    0  501    0  0.00000000000E+00 -0.00000000000E+00 -0.14278028200E+04  0.14278028200E+04  0.25500000000E-02 0.  1.
    5000001    1    1    2    0    0  0.81217963768E+02 -0.40086243025E+02 -0.81640464091E+03  0.82501442546E+03  0.77000000000E+02 0.  0.
   -5000001    1    1    2    0    0 -0.81217963768E+02  0.40086243025E+02 -0.60127364408E+03  0.61291292985E+03  0.77000000000E+02 0.  0.
<mgrwt>
<rscale>  0 0.24046488E+03</rscale>
<asrwt>0</asrwt>
<pdfrwt beam="1">  1        2 0.21966181E+00 0.24046488E+03</pdfrwt>
<pdfrwt beam="2">  1       -2 0.15576219E-02 0.24046488E+03</pdfrwt>
<totfact> 0.16571070E+04</totfact>
</mgrwt>
</event>
<event>
 4    1  0.6207184E-004  0.1927984E+03  0.7818608E-02  0.1155961E+00
          2   -1    0    0  501    0  0.00000000000E+00  0.00000000000E+00  0.40219742796E+02  0.40219742877E+02  0.25500000000E-02 0.  1.
         -2   -1    0    0    0  501 -0.00000000000E+00 -0.00000000000E+00 -0.23105090352E+03  0.23105090353E+03  0.25500000000E-02 0. -1.
    5000001    1    1    2    0    0  0.60218655983E+01 -0.50096099951E+02 -0.55175736415E+02  0.10732774098E+03  0.77000000000E+02 0.  0.
   -5000001    1    1    2    0    0 -0.60218655983E+01  0.50096099951E+02 -0.13565542431E+03  0.16394290543E+03  0.77000000000E+02 0.  0.
<mgrwt>
<rscale>  0 0.19279842E+03</rscale>
<asrwt>0</asrwt>
<pdfrwt beam="1">  1        2 0.61876529E-02 0.19279842E+03</pdfrwt>
<pdfrwt beam="2">  1       -2 0.35546292E-01 0.19279842E+03</pdfrwt>
<totfact> 0.85666403E+03</totfact>
</mgrwt>
</event>
<event>
 4    1  0.6207184E-004  0.2566300E+03  0.7818608E-02  0.1109185E+00
         -2   -1    0    0    0  501 -0.00000000000E+00  0.00000000000E+00  0.11248785382E+02  0.11248785671E+02  0.25500000000E-02 0. -1.
          2   -1    0    0  501    0  0.00000000000E+00 -0.00000000000E+00 -0.14636899254E+04  0.14636899254E+04  0.25500000000E-02 0.  1.
    5000001    1    1    2    0    0 -0.12391240118E+01  0.86560659044E+02 -0.40925869633E+03  0.42534217243E+03  0.77000000000E+02 0.  0.
   -5000001    1    1    2    0    0  0.12391240118E+01 -0.86560659044E+02 -0.10431824437E+04  0.10495965387E+04  0.77000000000E+02 0.  0.
<mgrwt>
<rscale>  0 0.25662996E+03</rscale>
<asrwt>0</asrwt>
<pdfrwt beam="1">  1        2 0.22518291E+00 0.25662996E+03</pdfrwt>
<pdfrwt beam="2">  1       -2 0.17305836E-02 0.25662996E+03</pdfrwt>
<totfact> 0.13618841E+04</totfact>
</mgrwt>
</event>
<event>
 4    1  0.6207184E-004  0.2699318E+03  0.7818608E-02  0.1101319E+00
          2   -1    0    0  501    0  0.00000000000E+00  0.00000000000E+00  0.49780319614E+03  0.49780319614E+03  0.25500000000E-02 0.  1.
         -2   -1    0    0    0  501 -0.00000000000E+00 -0.00000000000E+00 -0.36592360403E+02  0.36592360492E+02  0.25500000000E-02 0. -1.
    5000001    1    1    2    0    0 -0.55332014852E+02  0.10512274726E+02  0.41961285275E+03  0.43032091046E+03  0.77000000000E+02 0.  0.
   -5000001    1    1    2    0    0  0.55332014852E+02 -0.10512274726E+02  0.41597982982E+02  0.10407464617E+03  0.77000000000E+02 0.  0.
<mgrwt>
<rscale>  0 0.26993180E+03</rscale>
<asrwt>0</asrwt>
<pdfrwt beam="1">  1        2 0.76585107E-01 0.26993180E+03</pdfrwt>
<pdfrwt beam="2">  1       -2 0.56295939E-02 0.26993180E+03</pdfrwt>
<totfact> 0.10144644E+04</totfact>
</mgrwt>
</event>
<event>
 4    1  0.6207184E-004  0.1892135E+03  0.7818608E-02  0.1159173E+00
          2   -1    0    0  501    0  0.00000000000E+00  0.00000000000E+00  0.58912647266E+03  0.58912647266E+03  0.25500000000E-02 0.  1.
         -2   -1    0    0    0  501 -0.00000000000E+00 -0.00000000000E+00 -0.15192719921E+02  0.15192720135E+02  0.25500000000E-02 0. -1.
    5000001    1    1    2    0    0 -0.30165196655E+02 -0.16409815682E+02  0.14988368438E+03  0.17196900878E+03  0.77000000000E+02 0.  0.
   -5000001    1    1    2    0    0  0.30165196655E+02  0.16409815682E+02  0.42405006836E+03  0.43235018401E+03  0.77000000000E+02 0.  0.
<mgrwt>
<rscale>  0 0.18921346E+03</rscale>
<asrwt>0</asrwt>
<pdfrwt beam="1">  1        2 0.90634835E-01 0.18921346E+03</pdfrwt>
<pdfrwt beam="2">  1       -2 0.23373417E-02 0.18921346E+03</pdfrwt>
<totfact> 0.30559006E+04</totfact>
</mgrwt>
</event>
<event>
 4    1  0.6207184E-004  0.2307091E+03  0.7818608E-02  0.1126142E+00
          2   -1    0    0  501    0  0.00000000000E+00  0.00000000000E+00  0.21122716013E+04  0.21122716013E+04  0.25500000000E-02 0.  1.
         -2   -1    0    0    0  501 -0.00000000000E+00 -0.00000000000E+00 -0.62996986027E+01  0.62996991188E+01  0.25500000000E-02 0. -1.
    5000001    1    1    2    0    0  0.53836699154E+02 -0.62989993594E+02  0.84529361910E+03  0.85282848918E+03  0.77000000000E+02 0.  0.
   -5000001    1    1    2    0    0 -0.53836699154E+02  0.62989993594E+02  0.12606782836E+04  0.12657428113E+04  0.77000000000E+02 0.  0.
<mgrwt>
<rscale>  0 0.23070912E+03</rscale>
<asrwt>0</asrwt>
<pdfrwt beam="1">  1        2 0.32496477E+00 0.23070912E+03</pdfrwt>
<pdfrwt beam="2">  1       -2 0.96918471E-03 0.23070912E+03</pdfrwt>
<totfact> 0.14400797E+04</totfact>
</mgrwt>
</event>
<event>
 4    1  0.6207184E-004  0.1975380E+03  0.7818608E-02  0.1151833E+00
         -2   -1    0    0    0  501 -0.00000000000E+00  0.00000000000E+00  0.29494009898E+02  0.29494010008E+02  0.25500000000E-02 0. -1.
          2   -1    0    0  501    0  0.00000000000E+00 -0.00000000000E+00 -0.33075598243E+03  0.33075598244E+03  0.25500000000E-02 0.  1.
    5000001    1    1    2    0    0  0.95261402278E+01  0.61106111380E+02 -0.14831263088E+03  0.17818625276E+03  0.77000000000E+02 0.  0.
   -5000001    1    1    2    0    0 -0.95261402278E+01 -0.61106111380E+02 -0.15294934166E+03  0.18206373969E+03  0.77000000000E+02 0.  0.
<mgrwt>
<rscale>  0 0.19753805E+03</rscale>
<asrwt>0</asrwt>
<pdfrwt beam="1">  1        2 0.50885533E-01 0.19753805E+03</pdfrwt>
<pdfrwt beam="2">  1       -2 0.45375402E-02 0.19753805E+03</pdfrwt>
<totfact> 0.21558445E+04</totfact>
</mgrwt>
</event>
<event>
 4    1  0.6207184E-004  0.1875359E+03  0.7818608E-02  0.1160703E+00
          2   -1    0    0  501    0  0.00000000000E+00  0.00000000000E+00  0.23016051591E+02  0.23016051732E+02  0.25500000000E-02 0.  1.
         -2   -1    0    0    0  501 -0.00000000000E+00 -0.00000000000E+00 -0.38201281879E+03  0.38201281879E+03  0.25500000000E-02 0. -1.
    5000001    1    1    2    0    0  0.14039502969E+02  0.51629699193E+02 -0.17770009184E+03  0.20092052191E+03  0.77000000000E+02 0.  0.
   -5000001    1    1    2    0    0 -0.14039502969E+02 -0.51629699193E+02 -0.18129667535E+03  0.20410834862E+03  0.77000000000E+02 0.  0.
<mgrwt>
<rscale>  0 0.18753588E+03</rscale>
<asrwt>0</asrwt>
<pdfrwt beam="1">  1        2 0.35409313E-02 0.18753588E+03</pdfrwt>
<pdfrwt beam="2">  1       -2 0.58771198E-01 0.18753588E+03</pdfrwt>
<totfact> 0.66874029E+03</totfact>
</mgrwt>
</event>
<event>
 4    1  0.6207184E-004  0.2550098E+03  0.7818608E-02  0.1110179E+00
         -2   -1    0    0    0  501 -0.00000000000E+00  0.00000000000E+00  0.77110357193E+01  0.77110361410E+01  0.25500000000E-02 0. -1.
          2   -1    0    0  501    0  0.00000000000E+00 -0.00000000000E+00 -0.21083421059E+04  0.21083421059E+04  0.25500000000E-02 0.  1.
    5000001    1    1    2    0    0 -0.81879397415E+01  0.40637202389E+02 -0.18202844493E+04  0.18223838511E+04  0.77000000000E+02 0.  0.
   -5000001    1    1    2    0    0  0.81879397415E+01 -0.40637202389E+02 -0.28034662096E+03  0.29366929097E+03  0.77000000000E+02 0.  0.
<mgrwt>
<rscale>  0 0.25500982E+03</rscale>
<asrwt>0</asrwt>
<pdfrwt beam="1">  1        2 0.32435986E+00 0.25500982E+03</pdfrwt>
<pdfrwt beam="2">  1       -2 0.11863149E-02 0.25500982E+03</pdfrwt>
<totfact> 0.10813513E+04</totfact>
</mgrwt>
</event>
<event>
 4    1  0.6207184E-004  0.2257757E+03  0.7818608E-02  0.1129649E+00
         -2   -1    0    0    0  501 -0.00000000000E+00  0.00000000000E+00  0.88764251052E+01  0.88764254715E+01  0.25500000000E-02 0. -1.
          2   -1    0    0  501    0  0.00000000000E+00 -0.00000000000E+00 -0.14356761207E+04  0.14356761207E+04  0.25500000000E-02 0.  1.
    5000001    1    1    2    0    0 -0.71936945793E+02 -0.14762707636E+02 -0.95465514590E+03  0.96056666052E+03  0.77000000000E+02 0.  0.
   -5000001    1    1    2    0    0  0.71936945793E+02  0.14762707636E+02 -0.47214454969E+03  0.48398588565E+03  0.77000000000E+02 0.  0.
<mgrwt>
<rscale>  0 0.22577575E+03</rscale>
<asrwt>0</asrwt>
<pdfrwt beam="1">  1        2 0.22087306E+00 0.22577575E+03</pdfrwt>
<pdfrwt beam="2">  1       -2 0.13656050E-02 0.22577575E+03</pdfrwt>
<totfact> 0.19826738E+04</totfact>
</mgrwt>
</event>
<event>
 4    1  0.6207184E-004  0.3667606E+03  0.7818608E-02  0.1055939E+00
         -2   -1    0    0    0  501 -0.00000000000E+00  0.00000000000E+00  0.11466070420E+03  0.11466070423E+03  0.25500000000E-02 0. -1.
          2   -1    0    0  501    0  0.00000000000E+00 -0.00000000000E+00 -0.29328560692E+03  0.29328560693E+03  0.25500000000E-02 0.  1.
    5000001    1    1    2    0    0 -0.15928980319E+03  0.23885592295E+00 -0.35667539962E+02  0.18048399336E+03  0.77000000000E+02 0.  0.
   -5000001    1    1    2    0    0  0.15928980319E+03 -0.23885592295E+00 -0.14295736276E+03  0.22746231780E+03  0.77000000000E+02 0.  0.
<mgrwt>
<rscale>  0 0.36676060E+03</rscale>
<asrwt>0</asrwt>
<pdfrwt beam="1">  1        2 0.45120862E-01 0.36676060E+03</pdfrwt>
<pdfrwt beam="2">  1       -2 0.17640108E-01 0.36676060E+03</pdfrwt>
<totfact> 0.29344693E+03</totfact>
</mgrwt>
</event>
<event>
 4    1  0.6207184E-004  0.1885231E+03  0.7818608E-02  0.1159800E+00
          2   -1    0    0  501    0  0.00000000000E+00  0.00000000000E+00  0.11560028059E+04  0.11560028059E+04  0.25500000000E-02 0.  1.
         -2   -1    0    0    0  501 -0.00000000000E+00 -0.00000000000E+00 -0.76861752748E+01  0.76861756978E+01  0.25500000000E-02 0. -1.
    5000001    1    1    2    0    0 -0.11282711107E+02 -0.43235563086E+02  0.76537401713E+03  0.77053422999E+03  0.77000000000E+02 0.  0.
   -5000001    1    1    2    0    0  0.11282711107E+02  0.43235563086E+02  0.38294261350E+03  0.39315475162E+03  0.77000000000E+02 0.  0.
<mgrwt>
<rscale>  0 0.18852311E+03</rscale>
<asrwt>0</asrwt>
<pdfrwt beam="1">  1        2 0.17784645E+00 0.18852311E+03</pdfrwt>
<pdfrwt beam="2">  1       -2 0.11824895E-02 0.18852311E+03</pdfrwt>
<totfact> 0.34457315E+04</totfact>
</mgrwt>
</event>
<event>
 4    1  0.6207184E-004  0.2042133E+03  0.7818608E-02  0.1146232E+00
          2   -1    0    0  501    0  0.00000000000E+00  0.00000000000E+00  0.15278976361E+04  0.15278976361E+04  0.25500000000E-02 0.  1.
         -2   -1    0    0    0  501 -0.00000000000E+00 -0.00000000000E+00 -0.68236025967E+01  0.68236030732E+01  0.25500000000E-02 0. -1.
    5000001    1    1    2    0    0 -0.20593927779E+02 -0.59770303417E+02  0.92861208287E+03  0.93394111136E+03  0.77000000000E+02 0.  0.
   -5000001    1    1    2    0    0  0.20593927779E+02  0.59770303417E+02  0.59246195062E+03  0.60078012780E+03  0.77000000000E+02 0.  0.
<mgrwt>
<rscale>  0 0.20421329E+03</rscale>
<asrwt>0</asrwt>
<pdfrwt beam="1">  1        2 0.23506088E+00 0.20421329E+03</pdfrwt>
<pdfrwt beam="2">  1       -2 0.10497864E-02 0.20421329E+03</pdfrwt>
<totfact> 0.25799833E+04</totfact>
</mgrwt>
</event>
<event>
 4    1  0.6207184E-004  0.2445232E+03  0.7818608E-02  0.1116816E+00
          2   -1    0    0  501    0  0.00000000000E+00  0.00000000000E+00  0.26097489177E+04  0.26097489177E+04  0.25500000000E-02 0.  1.
         -2   -1    0    0    0  501 -0.00000000000E+00 -0.00000000000E+00 -0.57277128796E+01  0.57277134472E+01  0.25500000000E-02 0. -1.
    5000001    1    1    2    0    0 -0.21491405003E+02 -0.68944118151E+02  0.64232774298E+03  0.65094477593E+03  0.77000000000E+02 0.  0.
   -5000001    1    1    2    0    0  0.21491405003E+02  0.68944118151E+02  0.19616934618E+04  0.19645318552E+04  0.77000000000E+02 0.  0.
<mgrwt>
<rscale>  0 0.24452315E+03</rscale>
<asrwt>0</asrwt>
<pdfrwt beam="1">  1        2 0.40149910E+00 0.24452315E+03</pdfrwt>
<pdfrwt beam="2">  1       -2 0.88118825E-03 0.24452315E+03</pdfrwt>
<totfact> 0.89329849E+03</totfact>
</mgrwt>
</event>
<event>
 4    1  0.6207184E-004  0.4438838E+03  0.7818608E-02  0.1029562E+00
         -2   -1    0    0    0  501 -0.00000000000E+00  0.00000000000E+00  0.12055700910E+03  0.12055700913E+03  0.25500000000E-02 0. -1.
          2   -1    0    0  501    0  0.00000000000E+00 -0.00000000000E+00 -0.40858847004E+03  0.40858847004E+03  0.25500000000E-02 0.  1.
    5000001    1    1    2    0    0  0.20117846809E+03 -0.11412324148E+02 -0.81773720460E+02  0.23069234605E+03  0.77000000000E+02 0.  0.
   -5000001    1    1    2    0    0 -0.20117846809E+03  0.11412324148E+02 -0.20625774047E+03  0.29845313313E+03  0.77000000000E+02 0.  0.
<mgrwt>
<rscale>  0 0.44388379E+03</rscale>
<asrwt>0</asrwt>
<pdfrwt beam="1">  1        2 0.62859764E-01 0.44388379E+03</pdfrwt>
<pdfrwt beam="2">  1       -2 0.18547232E-01 0.44388379E+03</pdfrwt>
<totfact> 0.18782321E+03</totfact>
</mgrwt>
</event>
<event>
 4    1  0.6207184E-004  0.1799550E+03  0.7818608E-02  0.1167847E+00
         -2   -1    0    0    0  501 -0.00000000000E+00  0.00000000000E+00  0.32048149924E+02  0.32048150025E+02  0.25500000000E-02 0. -1.
          2   -1    0    0  501    0  0.00000000000E+00 -0.00000000000E+00 -0.25261834156E+03  0.25261834157E+03  0.25500000000E-02 0.  1.
    5000001    1    1    2    0    0 -0.97411464956E+01  0.36452183641E+02 -0.67157607298E+02  0.10891646269E+03  0.77000000000E+02 0.  0.
   -5000001    1    1    2    0    0  0.97411464956E+01 -0.36452183641E+02 -0.15341258434E+03  0.17575002891E+03  0.77000000000E+02 0.  0.
<mgrwt>
<rscale>  0 0.17995500E+03</rscale>
<asrwt>0</asrwt>
<pdfrwt beam="1">  1        2 0.38864359E-01 0.17995500E+03</pdfrwt>
<pdfrwt beam="2">  1       -2 0.49304848E-02 0.17995500E+03</pdfrwt>
<totfact> 0.25181209E+04</totfact>
</mgrwt>
</event>
<event>
 4    1  0.6207184E-004  0.7842634E+03  0.7818608E-02  0.9583079E-01
          2   -1    0    0  501    0  0.00000000000E+00  0.00000000000E+00  0.22894137250E+04  0.22894137250E+04  0.25500000000E-02 0.  1.
         -2   -1    0    0    0  501 -0.00000000000E+00 -0.00000000000E+00 -0.67164476758E+02  0.67164476807E+02  0.25500000000E-02 0. -1.
    5000001    1    1    2    0    0 -0.12276666916E+03  0.33763470998E+03  0.69945828512E+03  0.79008844129E+03  0.77000000000E+02 0.  0.
   -5000001    1    1    2    0    0  0.12276666916E+03 -0.33763470998E+03  0.15227909631E+04  0.15664897605E+04  0.77000000000E+02 0.  0.
<mgrwt>
<rscale>  0 0.78426341E+03</rscale>
<asrwt>0</asrwt>
<pdfrwt beam="1">  1        2 0.35221749E+00 0.78426341E+03</pdfrwt>
<pdfrwt beam="2">  1       -2 0.10332997E-01 0.78426341E+03</pdfrwt>
<totfact> 0.30763844E+02</totfact>
</mgrwt>
</event>
<event>
 4    1  0.6207184E-004  0.3536703E+03  0.7818608E-02  0.1061119E+00
         -2   -1    0    0    0  501 -0.00000000000E+00  0.00000000000E+00  0.10938707250E+02  0.10938707547E+02  0.25500000000E-02 0. -1.
          2   -1    0    0  501    0  0.00000000000E+00 -0.00000000000E+00 -0.28587163650E+04  0.28587163650E+04  0.25500000000E-02 0.  1.
    5000001    1    1    2    0    0 -0.23909323504E+02 -0.15532307219E+03 -0.12178606503E+04  0.12303700566E+04  0.77000000000E+02 0.  0.
   -5000001    1    1    2    0    0  0.23909323504E+02  0.15532307219E+03 -0.16299170074E+04  0.16392850160E+04  0.77000000000E+02 0.  0.
<mgrwt>
<rscale>  0 0.35367025E+03</rscale>
<asrwt>0</asrwt>
<pdfrwt beam="1">  1        2 0.43980192E+00 0.35367025E+03</pdfrwt>
<pdfrwt beam="2">  1       -2 0.16828803E-02 0.35367025E+03</pdfrwt>
<totfact> 0.24930505E+03</totfact>
</mgrwt>
</event>
<event>
 4    1  0.6207184E-004  0.2264283E+03  0.7818608E-02  0.1129179E+00
          2   -1    0    0  501    0  0.00000000000E+00  0.00000000000E+00  0.16069307021E+03  0.16069307023E+03  0.25500000000E-02 0.  1.
         -2   -1    0    0    0  501 -0.00000000000E+00 -0.00000000000E+00 -0.79763531429E+02  0.79763531469E+02  0.25500000000E-02 0. -1.
    5000001    1    1    2    0    0  0.40765716314E+02  0.51854769216E+02 -0.13031672072E+02  0.10222321260E+03  0.77000000000E+02 0.  0.
   -5000001    1    1    2    0    0 -0.40765716314E+02 -0.51854769216E+02  0.93961210850E+02  0.13823338910E+03  0.77000000000E+02 0.  0.
<mgrwt>
<rscale>  0 0.22642833E+03</rscale>
<asrwt>0</asrwt>
<pdfrwt beam="1">  1        2 0.24722010E-01 0.22642833E+03</pdfrwt>
<pdfrwt beam="2">  1       -2 0.12271313E-01 0.22642833E+03</pdfrwt>
<totfact> 0.10153722E+04</totfact>
</mgrwt>
</event>
<event>
 4    1  0.6207184E-004  0.2006466E+03  0.7818608E-02  0.1149195E+00
         -2   -1    0    0    0  501 -0.00000000000E+00  0.00000000000E+00  0.44944555546E+01  0.44944562780E+01  0.25500000000E-02 0. -1.
          2   -1    0    0  501    0  0.00000000000E+00 -0.00000000000E+00 -0.22393741758E+04  0.22393741758E+04  0.25500000000E-02 0.  1.
    5000001    1    1    2    0    0 -0.25494842001E+02 -0.54566564447E+02 -0.86531628603E+03  0.87082074608E+03  0.77000000000E+02 0.  0.
   -5000001    1    1    2    0    0  0.25494842001E+02  0.54566564447E+02 -0.13695634342E+04  0.13730478860E+04  0.77000000000E+02 0.  0.
<mgrwt>
<rscale>  0 0.20064664E+03</rscale>
<asrwt>0</asrwt>
<pdfrwt beam="1">  1        2 0.34451821E+00 0.20064664E+03</pdfrwt>
<pdfrwt beam="2">  1       -2 0.69145655E-03 0.20064664E+03</pdfrwt>
<totfact> 0.19998304E+04</totfact>
</mgrwt>
</event>
<event>
 4    1  0.6207184E-004  0.1955876E+03  0.7818608E-02  0.1153516E+00
          2   -1    0    0  501    0  0.00000000000E+00  0.00000000000E+00  0.67220623952E+02  0.67220624000E+02  0.25500000000E-02 0.  1.
         -2   -1    0    0    0  501 -0.00000000000E+00 -0.00000000000E+00 -0.14227219445E+03  0.14227219448E+03  0.25500000000E-02 0. -1.
    5000001    1    1    2    0    0 -0.19065903030E+02  0.54289287926E+02 -0.18252322840E+02  0.97841620647E+02  0.77000000000E+02 0.  0.
   -5000001    1    1    2    0    0  0.19065903030E+02 -0.54289287926E+02 -0.56799247662E+02  0.11165119783E+03  0.77000000000E+02 0.  0.
<mgrwt>
<rscale>  0 0.19558758E+03</rscale>
<asrwt>0</asrwt>
<pdfrwt beam="1">  1        2 0.10341635E-01 0.19558758E+03</pdfrwt>
<pdfrwt beam="2">  1       -2 0.21888030E-01 0.19558758E+03</pdfrwt>
<totfact> 0.10665093E+04</totfact>
</mgrwt>
</event>
<event>
 4    1  0.6207184E-004  0.2828361E+03  0.7818608E-02  0.1094150E+00
         -2   -1    0    0    0  501 -0.00000000000E+00  0.00000000000E+00  0.55622405997E+01  0.55622411842E+01  0.25500000000E-02 0. -1.
          2   -1    0    0  501    0  0.00000000000E+00 -0.00000000000E+00 -0.35955046231E+04  0.35955046231E+04  0.25500000000E-02 0.  1.
    5000001    1    1    2    0    0 -0.89256276969E+02 -0.58662006771E+02 -0.24518912647E+04  0.24554241361E+04  0.77000000000E+02 0.  0.
   -5000001    1    1    2    0    0  0.89256276969E+02  0.58662006771E+02 -0.11380511178E+04  0.11456427282E+04  0.77000000000E+02 0.  0.
<mgrwt>
<rscale>  0 0.28283609E+03</rscale>
<asrwt>0</asrwt>
<pdfrwt beam="1">  1        2 0.55315270E+00 0.28283609E+03</pdfrwt>
<pdfrwt beam="2">  1       -2 0.85573224E-03 0.28283609E+03</pdfrwt>
<totfact> 0.23364228E+03</totfact>
</mgrwt>
</event>
<event>
 4    1  0.6207184E-004  0.2811179E+03  0.7818608E-02  0.1095080E+00
         -2   -1    0    0    0  501 -0.00000000000E+00  0.00000000000E+00  0.91549042879E+01  0.91549046430E+01  0.25500000000E-02 0. -1.
          2   -1    0    0  501    0  0.00000000000E+00 -0.00000000000E+00 -0.21580589319E+04  0.21580589319E+04  0.25500000000E-02 0.  1.
    5000001    1    1    2    0    0  0.72685982051E+02 -0.79425736749E+02 -0.14390053895E+04  0.14450803475E+04  0.77000000000E+02 0.  0.
   -5000001    1    1    2    0    0 -0.72685982051E+02  0.79425736749E+02 -0.70989863815E+03  0.72213348911E+03  0.77000000000E+02 0.  0.
<mgrwt>
<rscale>  0 0.28111794E+03</rscale>
<asrwt>0</asrwt>
<pdfrwt beam="1">  1        2 0.33200866E+00 0.28111794E+03</pdfrwt>
<pdfrwt beam="2">  1       -2 0.14084486E-02 0.28111794E+03</pdfrwt>
<totfact> 0.79312820E+03</totfact>
</mgrwt>
</event>
<event>
 4    1  0.6207184E-004  0.1944220E+03  0.7818608E-02  0.1154532E+00
         -2   -1    0    0    0  501 -0.00000000000E+00  0.00000000000E+00  0.56401904249E+01  0.56401910013E+01  0.25500000000E-02 0. -1.
          2   -1    0    0  501    0  0.00000000000E+00 -0.00000000000E+00 -0.16754716122E+04  0.16754716122E+04  0.25500000000E-02 0.  1.
    5000001    1    1    2    0    0 -0.12521961212E+01 -0.59323154244E+02 -0.83130053518E+03  0.83696498398E+03  0.77000000000E+02 0.  0.
   -5000001    1    1    2    0    0  0.12521961212E+01  0.59323154244E+02 -0.83853088664E+03  0.84414681926E+03  0.77000000000E+02 0.  0.
<mgrwt>
<rscale>  0 0.19442201E+03</rscale>
<asrwt>0</asrwt>
<pdfrwt beam="1">  1        2 0.25776447E+00 0.19442201E+03</pdfrwt>
<pdfrwt beam="2">  1       -2 0.86772298E-03 0.19442201E+03</pdfrwt>
<totfact> 0.28339861E+04</totfact>
</mgrwt>
</event>
<event>
 4    1  0.6207184E-004  0.1743461E+03  0.7818608E-02  0.1173390E+00
         -2   -1    0    0    0  501 -0.00000000000E+00  0.00000000000E+00  0.69424718127E+01  0.69424722810E+01  0.25500000000E-02 0. -1.
          2   -1    0    0  501    0  0.00000000000E+00 -0.00000000000E+00 -0.10945875114E+04  0.10945875114E+04  0.25500000000E-02 0.  1.
    5000001    1    1    2    0    0  0.15696923355E+02 -0.33282734567E+02 -0.65613654713E+03  0.66166328468E+03  0.77000000000E+02 0.  0.
   -5000001    1    1    2    0    0 -0.15696923355E+02  0.33282734567E+02 -0.43150849242E+03  0.43986669896E+03  0.77000000000E+02 0.  0.
<mgrwt>
<rscale>  0 0.17434613E+03</rscale>
<asrwt>0</asrwt>
<pdfrwt beam="1">  1        2 0.16839794E+00 0.17434613E+03</pdfrwt>
<pdfrwt beam="2">  1       -2 0.10680735E-02 0.17434613E+03</pdfrwt>
<totfact> 0.43025174E+04</totfact>
</mgrwt>
</event>
<event>
 4    1  0.6207184E-004  0.2089064E+03  0.7818608E-02  0.1142435E+00
         -2   -1    0    0    0  501 -0.00000000000E+00  0.00000000000E+00  0.15581157210E+02  0.15581157418E+02  0.25500000000E-02 0. -1.
          2   -1    0    0  501    0  0.00000000000E+00 -0.00000000000E+00 -0.70023498578E+03  0.70023498579E+03  0.25500000000E-02 0.  1.
    5000001    1    1    2    0    0  0.36602564910E+02  0.49279572243E+02 -0.22297636233E+03  0.24375332235E+03  0.77000000000E+02 0.  0.
   -5000001    1    1    2    0    0 -0.36602564910E+02 -0.49279572243E+02 -0.46167746625E+03  0.47206282086E+03  0.77000000000E+02 0.  0.
<mgrwt>
<rscale>  0 0.20890640E+03</rscale>
<asrwt>0</asrwt>
<pdfrwt beam="1">  1        2 0.10772843E+00 0.20890640E+03</pdfrwt>
<pdfrwt beam="2">  1       -2 0.23971017E-02 0.20890640E+03</pdfrwt>
<totfact> 0.24218291E+04</totfact>
</mgrwt>
</event>
<event>
 4    1  0.6207184E-004  0.2482327E+03  0.7818608E-02  0.1114427E+00
         -2   -1    0    0    0  501 -0.00000000000E+00  0.00000000000E+00  0.93634116076E+01  0.93634119549E+01  0.25500000000E-02 0. -1.
          2   -1    0    0  501    0  0.00000000000E+00 -0.00000000000E+00 -0.16452198767E+04  0.16452198767E+04  0.25500000000E-02 0.  1.
    5000001    1    1    2    0    0  0.40525876628E+02  0.60086760020E+02 -0.38477098835E+03  0.39903693925E+03  0.77000000000E+02 0.  0.
   -5000001    1    1    2    0    0 -0.40525876628E+02 -0.60086760020E+02 -0.12510854768E+04  0.12555463494E+04  0.77000000000E+02 0.  0.
<mgrwt>
<rscale>  0 0.24823272E+03</rscale>
<asrwt>0</asrwt>
<pdfrwt beam="1">  1        2 0.25311052E+00 0.24823272E+03</pdfrwt>
<pdfrwt beam="2">  1       -2 0.14405262E-02 0.24823272E+03</pdfrwt>
<totfact> 0.14249198E+04</totfact>
</mgrwt>
</event>
<event>
 4    1  0.6207184E-004  0.2020769E+03  0.7818608E-02  0.1147998E+00
         -2   -1    0    0    0  501 -0.00000000000E+00  0.00000000000E+00  0.15399510415E+02  0.15399510626E+02  0.25500000000E-02 0. -1.
          2   -1    0    0  501    0  0.00000000000E+00 -0.00000000000E+00 -0.66292788881E+03  0.66292788882E+03  0.25500000000E-02 0.  1.
    5000001    1    1    2    0    0 -0.24890260771E+02 -0.58968237097E+02 -0.27835614459E+03  0.29581737829E+03  0.77000000000E+02 0.  0.
   -5000001    1    1    2    0    0  0.24890260771E+02  0.58968237097E+02 -0.36917223381E+03  0.38251002115E+03  0.77000000000E+02 0.  0.
<mgrwt>
<rscale>  0 0.20207687E+03</rscale>
<asrwt>0</asrwt>
<pdfrwt beam="1">  1        2 0.10198888E+00 0.20207687E+03</pdfrwt>
<pdfrwt beam="2">  1       -2 0.23691560E-02 0.20207687E+03</pdfrwt>
<totfact> 0.26243719E+04</totfact>
</mgrwt>
</event>
<event>
 4    1  0.6207184E-004  0.1676690E+03  0.7818608E-02  0.1180301E+00
          2   -1    0    0  501    0  0.00000000000E+00  0.00000000000E+00  0.34283239212E+04  0.34283239212E+04  0.25500000000E-02 0.  1.
         -2   -1    0    0    0  501 -0.00000000000E+00 -0.00000000000E+00 -0.20500465708E+01  0.20500481567E+01  0.25500000000E-02 0. -1.
    5000001    1    1    2    0    0  0.25442762617E+02  0.73262689761E+01  0.21214084350E+04  0.21229705030E+04  0.77000000000E+02 0.  0.
   -5000001    1    1    2    0    0 -0.25442762617E+02 -0.73262689761E+01  0.13048654396E+04  0.13074034664E+04  0.77000000000E+02 0.  0.
<mgrwt>
<rscale>  0 0.16766904E+03</rscale>
<asrwt>0</asrwt>
<pdfrwt beam="1">  1        2 0.52742532E+00 0.16766904E+03</pdfrwt>
<pdfrwt beam="2">  1       -2 0.31539736E-03 0.16766904E+03</pdfrwt>
<totfact> 0.12704278E+04</totfact>
</mgrwt>
</event>
<event>
 4    1  0.6207184E-004  0.3252019E+03  0.7818608E-02  0.1073280E+00
          2   -1    0    0  501    0  0.00000000000E+00  0.00000000000E+00  0.63559463233E+03  0.63559463233E+03  0.25500000000E-02 0.  1.
         -2   -1    0    0    0  501 -0.00000000000E+00 -0.00000000000E+00 -0.41597375101E+02  0.41597375179E+02  0.25500000000E-02 0. -1.
    5000001    1    1    2    0    0  0.56997504279E+02 -0.98513932238E+02  0.11598343983E+03  0.17981898858E+03  0.77000000000E+02 0.  0.
   -5000001    1    1    2    0    0 -0.56997504279E+02  0.98513932238E+02  0.47801381740E+03  0.49737301893E+03  0.77000000000E+02 0.  0.
<mgrwt>
<rscale>  0 0.32520190E+03</rscale>
<asrwt>0</asrwt>
<pdfrwt beam="1">  1        2 0.97783792E-01 0.32520190E+03</pdfrwt>
<pdfrwt beam="2">  1       -2 0.63995960E-02 0.32520190E+03</pdfrwt>
<totfact> 0.63278403E+03</totfact>
</mgrwt>
</event>
<event>
 4    1  0.6207184E-004  0.2570094E+03  0.7818608E-02  0.1108953E+00
         -2   -1    0    0    0  501 -0.00000000000E+00  0.00000000000E+00  0.53780024938E+01  0.53780030983E+01  0.25500000000E-02 0. -1.
          2   -1    0    0  501    0  0.00000000000E+00 -0.00000000000E+00 -0.30705548894E+04  0.30705548894E+04  0.25500000000E-02 0.  1.
    5000001    1    1    2    0    0  0.50936857342E+02  0.75833888434E+02 -0.20989133996E+04  0.21023110619E+04  0.77000000000E+02 0.  0.
   -5000001    1    1    2    0    0 -0.50936857342E+02 -0.75833888434E+02 -0.96626348736E+03  0.97362183062E+03  0.77000000000E+02 0.  0.
<mgrwt>
<rscale>  0 0.25700936E+03</rscale>
<asrwt>0</asrwt>
<pdfrwt beam="1">  1        2 0.47239166E+00 0.25700936E+03</pdfrwt>
<pdfrwt beam="2">  1       -2 0.82738750E-03 0.25700936E+03</pdfrwt>
<totfact> 0.53140046E+03</totfact>
</mgrwt>
</event>
<event>
 4    1  0.6207184E-004  0.2313764E+03  0.7818608E-02  0.1125675E+00
          2   -1    0    0  501    0  0.00000000000E+00  0.00000000000E+00  0.33382900168E+02  0.33382900265E+02  0.25500000000E-02 0.  1.
         -2   -1    0    0    0  501 -0.00000000000E+00 -0.00000000000E+00 -0.40091665039E+03  0.40091665039E+03  0.25500000000E-02 0. -1.
    5000001    1    1    2    0    0  0.97564232425E+01 -0.64169841862E+02 -0.29063881480E+03  0.30759206275E+03  0.77000000000E+02 0.  0.
   -5000001    1    1    2    0    0 -0.97564232425E+01  0.64169841862E+02 -0.76894935419E+02  0.12670748791E+03  0.77000000000E+02 0.  0.
<mgrwt>
<rscale>  0 0.23137641E+03</rscale>
<asrwt>0</asrwt>
<pdfrwt beam="1">  1        2 0.51358311E-02 0.23137641E+03</pdfrwt>
<pdfrwt beam="2">  1       -2 0.61679481E-01 0.23137641E+03</pdfrwt>
<totfact> 0.37377612E+03</totfact>
</mgrwt>
</event>
<event>
 4    1  0.6207184E-004  0.2784710E+03  0.7818608E-02  0.1096527E+00
          2   -1    0    0  501    0  0.00000000000E+00  0.00000000000E+00  0.60606169461E+03  0.60606169462E+03  0.25500000000E-02 0.  1.
         -2   -1    0    0    0  501 -0.00000000000E+00 -0.00000000000E+00 -0.31987701342E+02  0.31987701443E+02  0.25500000000E-02 0. -1.
    5000001    1    1    2    0    0 -0.96541005985E+02 -0.64173243143E+02  0.27701039899E+03  0.31000343889E+03  0.77000000000E+02 0.  0.
   -5000001    1    1    2    0    0  0.96541005985E+02  0.64173243143E+02  0.29706359427E+03  0.32804595717E+03  0.77000000000E+02 0.  0.
<mgrwt>
<rscale>  0 0.27847097E+03</rscale>
<asrwt>0</asrwt>
<pdfrwt beam="1">  1        2 0.93240256E-01 0.27847097E+03</pdfrwt>
<pdfrwt beam="2">  1       -2 0.49211851E-02 0.27847097E+03</pdfrwt>
<totfact> 0.99626450E+03</totfact>
</mgrwt>
</event>
<event>
 4    1  0.6207184E-004  0.1663983E+03  0.7818608E-02  0.1181657E+00
         -2   -1    0    0    0  501 -0.00000000000E+00  0.00000000000E+00  0.61513109329E+03  0.61513109329E+03  0.25500000000E-02 0. -1.
          2   -1    0    0  501    0  0.00000000000E+00 -0.00000000000E+00 -0.11253041746E+02  0.11253042035E+02  0.25500000000E-02 0.  1.
    5000001    1    1    2    0    0 -0.28040027455E+02 -0.77052526927E+01  0.25622375290E+03  0.26911935198E+03  0.77000000000E+02 0.  0.
   -5000001    1    1    2    0    0  0.28040027455E+02  0.77052526927E+01  0.34765429864E+03  0.35726478335E+03  0.77000000000E+02 0.  0.
<mgrwt>
<rscale>  0 0.16639827E+03</rscale>
<asrwt>0</asrwt>
<pdfrwt beam="1">  1        2 0.17312372E-02 0.16639827E+03</pdfrwt>
<pdfrwt beam="2">  1       -2 0.94635554E-01 0.16639827E+03</pdfrwt>
<totfact> 0.62622648E+03</totfact>
</mgrwt>
</event>
<event>
 4    1  0.6207184E-004  0.2810597E+03  0.7818608E-02  0.1095112E+00
          2   -1    0    0  501    0  0.00000000000E+00  0.00000000000E+00  0.13269051724E+04  0.13269051724E+04  0.25500000000E-02 0.  1.
         -2   -1    0    0    0  501 -0.00000000000E+00 -0.00000000000E+00 -0.14883234800E+02  0.14883235019E+02  0.25500000000E-02 0. -1.
    5000001    1    1    2    0    0 -0.35695455917E+02  0.51012459039E-01  0.12128786183E+03  0.14803348811E+03  0.77000000000E+02 0.  0.
   -5000001    1    1    2    0    0  0.35695455917E+02 -0.51012459039E-01  0.11907340758E+04  0.11937549193E+04  0.77000000000E+02 0.  0.
<mgrwt>
<rscale>  0 0.28105972E+03</rscale>
<asrwt>0</asrwt>
<pdfrwt beam="1">  1        2 0.20413924E+00 0.28105972E+03</pdfrwt>
<pdfrwt beam="2">  1       -2 0.22897286E-02 0.28105972E+03</pdfrwt>
<totfact> 0.10731653E+04</totfact>
</mgrwt>
</event>
<event>
 4    1  0.6207184E-004  0.1866264E+03  0.7818608E-02  0.1161540E+00
          2   -1    0    0  501    0  0.00000000000E+00  0.00000000000E+00  0.35902127018E+02  0.35902127109E+02  0.25500000000E-02 0.  1.
         -2   -1    0    0    0  501 -0.00000000000E+00 -0.00000000000E+00 -0.24253038739E+03  0.24253038741E+03  0.25500000000E-02 0. -1.
    5000001    1    1    2    0    0 -0.39581064224E+02  0.18185759913E+02 -0.59032010815E+02  0.10635394120E+03  0.77000000000E+02 0.  0.
   -5000001    1    1    2    0    0  0.39581064224E+02 -0.18185759913E+02 -0.14759624956E+03  0.17207857331E+03  0.77000000000E+02 0.  0.
<mgrwt>
<rscale>  0 0.18662644E+03</rscale>
<asrwt>0</asrwt>
<pdfrwt beam="1">  1        2 0.55234043E-02 0.18662644E+03</pdfrwt>
<pdfrwt beam="2">  1       -2 0.37312366E-01 0.18662644E+03</pdfrwt>
<totfact> 0.90467381E+03</totfact>
</mgrwt>
</event>
<event>
 4    1  0.6207184E-004  0.2567160E+03  0.7818608E-02  0.1109133E+00
         -2   -1    0    0    0  501 -0.00000000000E+00  0.00000000000E+00  0.10479622429E+02  0.10479622740E+02  0.25500000000E-02 0. -1.
          2   -1    0    0  501    0  0.00000000000E+00 -0.00000000000E+00 -0.15721722028E+04  0.15721722028E+04  0.25500000000E-02 0.  1.
    5000001    1    1    2    0    0 -0.10189724216E+03 -0.10168433551E+02 -0.73296278355E+03  0.74407653307E+03  0.77000000000E+02 0.  0.
   -5000001    1    1    2    0    0  0.10189724216E+03  0.10168433551E+02 -0.82872979685E+03  0.83857529250E+03  0.77000000000E+02 0.  0.
<mgrwt>
<rscale>  0 0.25671596E+03</rscale>
<asrwt>0</asrwt>
<pdfrwt beam="1">  1        2 0.24187246E+00 0.25671596E+03</pdfrwt>
<pdfrwt beam="2">  1       -2 0.16122509E-02 0.25671596E+03</pdfrwt>
<totfact> 0.13223235E+04</totfact>
</mgrwt>
</event>
<event>
 4    1  0.6207184E-004  0.1900720E+03  0.7818608E-02  0.1158396E+00
          2   -1    0    0  501    0  0.00000000000E+00  0.00000000000E+00  0.22841679127E+03  0.22841679129E+03  0.25500000000E-02 0.  1.
         -2   -1    0    0    0  501 -0.00000000000E+00 -0.00000000000E+00 -0.39541044355E+02  0.39541044437E+02  0.25500000000E-02 0. -1.
    5000001    1    1    2    0    0  0.35417295881E+02  0.42038050918E+02  0.10714583460E+03  0.14293639300E+03  0.77000000000E+02 0.  0.
   -5000001    1    1    2    0    0 -0.35417295881E+02 -0.42038050918E+02  0.81729912321E+02  0.12502144272E+03  0.77000000000E+02 0.  0.
<mgrwt>
<rscale>  0 0.19007197E+03</rscale>
<asrwt>0</asrwt>
<pdfrwt beam="1">  1        2 0.35141045E-01 0.19007197E+03</pdfrwt>
<pdfrwt beam="2">  1       -2 0.60832376E-02 0.19007197E+03</pdfrwt>
<totfact> 0.20494782E+04</totfact>
</mgrwt>
</event>
<event>
 4    1  0.6207184E-004  0.1776720E+03  0.7818608E-02  0.1170075E+00
         -2   -1    0    0    0  501 -0.00000000000E+00  0.00000000000E+00  0.77531307181E+01  0.77531311374E+01  0.25500000000E-02 0. -1.
          2   -1    0    0  501    0  0.00000000000E+00 -0.00000000000E+00 -0.10178902181E+04  0.10178902181E+04  0.25500000000E-02 0.  1.
    5000001    1    1    2    0    0  0.37802789983E+02  0.22510318392E+02 -0.53510354404E+03  0.54240258868E+03  0.77000000000E+02 0.  0.
   -5000001    1    1    2    0    0 -0.37802789983E+02 -0.22510318392E+02 -0.47503354329E+03  0.48324076051E+03  0.77000000000E+02 0.  0.
<mgrwt>
<rscale>  0 0.17767201E+03</rscale>
<asrwt>0</asrwt>
<pdfrwt beam="1">  1        2 0.15659839E+00 0.17767201E+03</pdfrwt>
<pdfrwt beam="2">  1       -2 0.11927902E-02 0.17767201E+03</pdfrwt>
<totfact> 0.40774465E+04</totfact>
</mgrwt>
</event>
<event>
 4    1  0.6207184E-004  0.2275424E+03  0.7818608E-02  0.1128382E+00
         -2   -1    0    0    0  501 -0.00000000000E+00  0.00000000000E+00  0.63628931001E+01  0.63628936110E+01  0.25500000000E-02 0. -1.
          2   -1    0    0  501    0  0.00000000000E+00 -0.00000000000E+00 -0.20342761352E+04  0.20342761352E+04  0.25500000000E-02 0.  1.
    5000001    1    1    2    0    0 -0.15473045229E+02  0.47098474192E+02 -0.40854187248E+03  0.41868023952E+03  0.77000000000E+02 0.  0.
   -5000001    1    1    2    0    0  0.15473045229E+02 -0.47098474192E+02 -0.16193713696E+04  0.16219587892E+04  0.77000000000E+02 0.  0.
<mgrwt>
<rscale>  0 0.22754237E+03</rscale>
<asrwt>0</asrwt>
<pdfrwt beam="1">  1        2 0.31296504E+00 0.22754237E+03</pdfrwt>
<pdfrwt beam="2">  1       -2 0.97890829E-03 0.22754237E+03</pdfrwt>
<totfact> 0.15590770E+04</totfact>
</mgrwt>
</event>
<event>
 4    1  0.6207184E-004  0.3288842E+03  0.7818608E-02  0.1071632E+00
         -2   -1    0    0    0  501 -0.00000000000E+00  0.00000000000E+00  0.16505776063E+03  0.16505776065E+03  0.25500000000E-02 0. -1.
          2   -1    0    0  501    0  0.00000000000E+00 -0.00000000000E+00 -0.16382871990E+03  0.16382871992E+03  0.25500000000E-02 0.  1.
    5000001    1    1    2    0    0 -0.12291965896E+03 -0.71212695702E+01  0.77765863363E+02  0.16473155297E+03  0.77000000000E+02 0.  0.
   -5000001    1    1    2    0    0  0.12291965896E+03  0.71212695702E+01 -0.76536822636E+02  0.16415492761E+03  0.77000000000E+02 0.  0.
<mgrwt>
<rscale>  0 0.32888418E+03</rscale>
<asrwt>0</asrwt>
<pdfrwt beam="1">  1        2 0.25204418E-01 0.32888418E+03</pdfrwt>
<pdfrwt beam="2">  1       -2 0.25393502E-01 0.32888418E+03</pdfrwt>
<totfact> 0.29530699E+03</totfact>
</mgrwt>
</event>
<event>
 4    1  0.6207184E-004  0.2224390E+03  0.7818608E-02  0.1132078E+00
         -2   -1    0    0    0  501 -0.00000000000E+00  0.00000000000E+00  0.58508753640E+01  0.58508759197E+01  0.25500000000E-02 0. -1.
          2   -1    0    0  501    0  0.00000000000E+00 -0.00000000000E+00 -0.21141756488E+04  0.21141756488E+04  0.25500000000E-02 0.  1.
    5000001    1    1    2    0    0 -0.73835399304E+02 -0.31127155529E+02 -0.10970116791E+04  0.11026260427E+04  0.77000000000E+02 0.  0.
   -5000001    1    1    2    0    0  0.73835399304E+02  0.31127155529E+02 -0.10113130944E+04  0.10174004820E+04  0.77000000000E+02 0.  0.
<mgrwt>
<rscale>  0 0.22243901E+03</rscale>
<asrwt>0</asrwt>
<pdfrwt beam="1">  1        2 0.32525718E+00 0.22243901E+03</pdfrwt>
<pdfrwt beam="2">  1       -2 0.90013640E-03 0.22243901E+03</pdfrwt>
<totfact> 0.15972512E+04</totfact>
</mgrwt>
</event>
<event>
 4    1  0.6207184E-004  0.2941281E+03  0.7818608E-02  0.1088213E+00
         -2   -1    0    0    0  501 -0.00000000000E+00  0.00000000000E+00  0.22989177193E+03  0.22989177195E+03  0.25500000000E-02 0. -1.
          2   -1    0    0  501    0  0.00000000000E+00 -0.00000000000E+00 -0.94078354238E+02  0.94078354273E+02  0.25500000000E-02 0.  1.
    5000001    1    1    2    0    0 -0.23729682820E+02  0.90034861270E+02 -0.24441728465E+02  0.12327113280E+03  0.77000000000E+02 0.  0.
   -5000001    1    1    2    0    0  0.23729682820E+02 -0.90034861270E+02  0.16025514616E+03  0.20069899342E+03  0.77000000000E+02 0.  0.
<mgrwt>
<rscale>  0 0.29412813E+03</rscale>
<asrwt>0</asrwt>
<pdfrwt beam="1">  1        2 0.14473593E-01 0.29412813E+03</pdfrwt>
<pdfrwt beam="2">  1       -2 0.35367965E-01 0.29412813E+03</pdfrwt>
<totfact> 0.30591677E+03</totfact>
</mgrwt>
</event>
<event>
 4    1  0.6207184E-004  0.3157907E+03  0.7818608E-02  0.1077603E+00
          2   -1    0    0  501    0  0.00000000000E+00  0.00000000000E+00  0.25691471479E+03  0.25691471481E+03  0.25500000000E-02 0.  1.
         -2   -1    0    0    0  501 -0.00000000000E+00 -0.00000000000E+00 -0.97039780757E+02  0.97039780790E+02  0.25500000000E-02 0. -1.
    5000001    1    1    2    0    0 -0.72660748855E+02  0.90491139807E+02 -0.34414996703E+01  0.13931645534E+03  0.77000000000E+02 0.  0.
   -5000001    1    1    2    0    0  0.72660748855E+02 -0.90491139807E+02  0.16331643371E+03  0.21463804026E+03  0.77000000000E+02 0.  0.
<mgrwt>
<rscale>  0 0.31579074E+03</rscale>
<asrwt>0</asrwt>
<pdfrwt beam="1">  1        2 0.39525340E-01 0.31579074E+03</pdfrwt>
<pdfrwt beam="2">  1       -2 0.14929197E-01 0.31579074E+03</pdfrwt>
<totfact> 0.44654547E+03</totfact>
</mgrwt>
</event>
<event>
 4    1  0.6207184E-004  0.2458709E+03  0.7818608E-02  0.1115942E+00
         -2   -1    0    0    0  501 -0.00000000000E+00  0.00000000000E+00  0.49048298792E+02  0.49048298858E+02  0.25500000000E-02 0. -1.
          2   -1    0    0  501    0  0.00000000000E+00 -0.00000000000E+00 -0.30812735941E+03  0.30812735942E+03  0.25500000000E-02 0.  1.
    5000001    1    1    2    0    0 -0.92768696506E+02  0.16495097797E+02 -0.15495147787E+03  0.19702050603E+03  0.77000000000E+02 0.  0.
   -5000001    1    1    2    0    0  0.92768696506E+02 -0.16495097797E+02 -0.10412758275E+03  0.16015515225E+03  0.77000000000E+02 0.  0.
<mgrwt>
<rscale>  0 0.24587088E+03</rscale>
<asrwt>0</asrwt>
<pdfrwt beam="1">  1        2 0.47404208E-01 0.24587088E+03</pdfrwt>
<pdfrwt beam="2">  1       -2 0.75458923E-02 0.24587088E+03</pdfrwt>
<totfact> 0.10841104E+04</totfact>
</mgrwt>
</event>
<event>
 4    1  0.6207184E-004  0.2697889E+03  0.7818608E-02  0.1101400E+00
          2   -1    0    0  501    0  0.00000000000E+00  0.00000000000E+00  0.13387756202E+04  0.13387756202E+04  0.25500000000E-02 0.  1.
         -2   -1    0    0    0  501 -0.00000000000E+00 -0.00000000000E+00 -0.13591907662E+02  0.13591907901E+02  0.25500000000E-02 0. -1.
    5000001    1    1    2    0    0 -0.30564186160E+02  0.10318654896E+03  0.53131289013E+03  0.54754362437E+03  0.77000000000E+02 0.  0.
   -5000001    1    1    2    0    0  0.30564186160E+02 -0.10318654896E+03  0.79387082239E+03  0.80482390372E+03  0.77000000000E+02 0.  0.
<mgrwt>
<rscale>  0 0.26978892E+03</rscale>
<asrwt>0</asrwt>
<pdfrwt beam="1">  1        2 0.20596554E+00 0.26978892E+03</pdfrwt>
<pdfrwt beam="2">  1       -2 0.20910621E-02 0.26978892E+03</pdfrwt>
<totfact> 0.12073400E+04</totfact>
</mgrwt>
</event>
<event>
 4    1  0.6207184E-004  0.2633213E+03  0.7818608E-02  0.1105164E+00
         -2   -1    0    0    0  501 -0.00000000000E+00  0.00000000000E+00  0.51452367226E+02  0.51452367290E+02  0.25500000000E-02 0. -1.
          2   -1    0    0  501    0  0.00000000000E+00 -0.00000000000E+00 -0.33690428020E+03  0.33690428021E+03  0.25500000000E-02 0.  1.
    5000001    1    1    2    0    0  0.50189584471E+02  0.75037355709E+02 -0.58570572297E+02  0.13232199772E+03  0.77000000000E+02 0.  0.
   -5000001    1    1    2    0    0 -0.50189584471E+02 -0.75037355709E+02 -0.22688134068E+03  0.25603464979E+03  0.77000000000E+02 0.  0.
<mgrwt>
<rscale>  0 0.26332127E+03</rscale>
<asrwt>0</asrwt>
<pdfrwt beam="1">  1        2 0.51831426E-01 0.26332127E+03</pdfrwt>
<pdfrwt beam="2">  1       -2 0.79157490E-02 0.26332127E+03</pdfrwt>
<totfact> 0.91707815E+03</totfact>
</mgrwt>
</event>
<event>
 4    1  0.6207184E-004  0.2090215E+03  0.7818608E-02  0.1142343E+00
          2   -1    0    0  501    0  0.00000000000E+00  0.00000000000E+00  0.28230254977E+03  0.28230254978E+03  0.25500000000E-02 0.  1.
         -2   -1    0    0    0  501 -0.00000000000E+00 -0.00000000000E+00 -0.38690753060E+02  0.38690753144E+02  0.25500000000E-02 0. -1.
    5000001    1    1    2    0    0 -0.19206736213E+02 -0.67767124313E+02  0.13052242594E+03  0.16711189523E+03  0.77000000000E+02 0.  0.
   -5000001    1    1    2    0    0  0.19206736213E+02  0.67767124313E+02  0.11308937077E+03  0.15388140770E+03  0.77000000000E+02 0.  0.
<mgrwt>
<rscale>  0 0.20902151E+03</rscale>
<asrwt>0</asrwt>
<pdfrwt beam="1">  1        2 0.43431162E-01 0.20902151E+03</pdfrwt>
<pdfrwt beam="2">  1       -2 0.59524235E-02 0.20902151E+03</pdfrwt>
<totfact> 0.16994254E+04</totfact>
</mgrwt>
</event>
<event>
 4    1  0.6207184E-004  0.2253151E+03  0.7818608E-02  0.1129981E+00
         -2   -1    0    0    0  501 -0.00000000000E+00  0.00000000000E+00  0.12287638277E+02  0.12287638542E+02  0.25500000000E-02 0. -1.
          2   -1    0    0  501    0  0.00000000000E+00 -0.00000000000E+00 -0.10328853574E+04  0.10328853574E+04  0.25500000000E-02 0.  1.
    5000001    1    1    2    0    0 -0.79052677643E+02 -0.15690381730E+02 -0.58612562610E+03  0.59663034074E+03  0.77000000000E+02 0.  0.
   -5000001    1    1    2    0    0  0.79052677643E+02  0.15690381730E+02 -0.43447209300E+03  0.44854265518E+03  0.77000000000E+02 0.  0.
<mgrwt>
<rscale>  0 0.22531508E+03</rscale>
<asrwt>0</asrwt>
<pdfrwt beam="1">  1        2 0.15890537E+00 0.22531508E+03</pdfrwt>
<pdfrwt beam="2">  1       -2 0.18904067E-02 0.22531508E+03</pdfrwt>
<totfact> 0.20776996E+04</totfact>
</mgrwt>
</event>
<event>
 4    1  0.6207184E-004  0.4716846E+03  0.7818608E-02  0.1021446E+00
         -2   -1    0    0    0  501 -0.00000000000E+00  0.00000000000E+00  0.36985989224E+02  0.36985989312E+02  0.25500000000E-02 0. -1.
          2   -1    0    0  501    0  0.00000000000E+00 -0.00000000000E+00 -0.15038554258E+04  0.15038554258E+04  0.25500000000E-02 0.  1.
    5000001    1    1    2    0    0  0.18344262962E+03  0.10983542758E+03 -0.52741218859E+03  0.57428880904E+03  0.77000000000E+02 0.  0.
   -5000001    1    1    2    0    0 -0.18344262962E+03 -0.10983542758E+03 -0.93945724798E+03  0.96655260607E+03  0.77000000000E+02 0.  0.
<mgrwt>
<rscale>  0 0.47168456E+03</rscale>
<asrwt>0</asrwt>
<pdfrwt beam="1">  1        2 0.23136233E+00 0.47168456E+03</pdfrwt>
<pdfrwt beam="2">  1       -2 0.56901534E-02 0.47168456E+03</pdfrwt>
<totfact> 0.21714814E+03</totfact>
</mgrwt>
</event>
<event>
 4    1  0.6207184E-004  0.6293899E+03  0.7818608E-02  0.9846240E-01
         -2   -1    0    0    0  501 -0.00000000000E+00  0.00000000000E+00  0.20163264364E+03  0.20163264365E+03  0.25500000000E-02 0. -1.
          2   -1    0    0  501    0  0.00000000000E+00 -0.00000000000E+00 -0.49115508644E+03  0.49115508645E+03  0.25500000000E-02 0.  1.
    5000001    1    1    2    0    0  0.87187154924E+02 -0.22554326347E+03  0.60082466675E+02  0.26078778055E+03  0.77000000000E+02 0.  0.
   -5000001    1    1    2    0    0 -0.87187154924E+02  0.22554326347E+03 -0.34960490948E+03  0.43199994955E+03  0.77000000000E+02 0.  0.
<mgrwt>
<rscale>  0 0.62938986E+03</rscale>
<asrwt>0</asrwt>
<pdfrwt beam="1">  1        2 0.75562320E-01 0.62938986E+03</pdfrwt>
<pdfrwt beam="2">  1       -2 0.31020407E-01 0.62938986E+03</pdfrwt>
<totfact> 0.60923274E+02</totfact>
</mgrwt>
</event>
<event>
 4    1  0.6207184E-004  0.4188650E+03  0.7818608E-02  0.1037436E+00
          2   -1    0    0  501    0  0.00000000000E+00  0.00000000000E+00  0.14988045982E+04  0.14988045982E+04  0.25500000000E-02 0.  1.
         -2   -1    0    0    0  501 -0.00000000000E+00 -0.00000000000E+00 -0.29264641850E+02  0.29264641962E+02  0.25500000000E-02 0. -1.
    5000001    1    1    2    0    0  0.11216264255E+03  0.16067033850E+02  0.13126758235E+04  0.13198050711E+04  0.77000000000E+02 0.  0.
   -5000001    1    1    2    0    0 -0.11216264255E+03 -0.16067033850E+02  0.15686413281E+03  0.20826416908E+03  0.77000000000E+02 0.  0.
<mgrwt>
<rscale>  0 0.41886504E+03</rscale>
<asrwt>0</asrwt>
<pdfrwt beam="1">  1        2 0.23058534E+00 0.41886504E+03</pdfrwt>
<pdfrwt beam="2">  1       -2 0.45022524E-02 0.41886504E+03</pdfrwt>
<totfact> 0.31389330E+03</totfact>
</mgrwt>
</event>
<event>
 4    1  0.6207184E-004  0.2494597E+03  0.7818608E-02  0.1113647E+00
         -2   -1    0    0    0  501 -0.00000000000E+00  0.00000000000E+00  0.96656398022E+02  0.96656398055E+02  0.25500000000E-02 0. -1.
          2   -1    0    0  501    0  0.00000000000E+00 -0.00000000000E+00 -0.16095714953E+03  0.16095714955E+03  0.25500000000E-02 0.  1.
    5000001    1    1    2    0    0 -0.10146484906E+02 -0.63998259827E+02 -0.10824615620E+03  0.14780040172E+03  0.77000000000E+02 0.  0.
   -5000001    1    1    2    0    0  0.10146484906E+02  0.63998259827E+02  0.43945404687E+02  0.10981314589E+03  0.77000000000E+02 0.  0.
<mgrwt>
<rscale>  0 0.24945972E+03</rscale>
<asrwt>0</asrwt>
<pdfrwt beam="1">  1        2 0.24762638E-01 0.24945972E+03</pdfrwt>
<pdfrwt beam="2">  1       -2 0.14870215E-01 0.24945972E+03</pdfrwt>
<totfact> 0.74455622E+03</totfact>
</mgrwt>
</event>
<event>
 4    1  0.6207184E-004  0.2670541E+03  0.7818608E-02  0.1102978E+00
         -2   -1    0    0    0  501 -0.00000000000E+00  0.00000000000E+00  0.25780630825E+02  0.25780630951E+02  0.25500000000E-02 0. -1.
          2   -1    0    0  501    0  0.00000000000E+00 -0.00000000000E+00 -0.69158399428E+03  0.69158399429E+03  0.25500000000E-02 0.  1.
    5000001    1    1    2    0    0  0.14749143938E+02 -0.10491378251E+03 -0.40274495248E+03  0.42350553215E+03  0.77000000000E+02 0.  0.
   -5000001    1    1    2    0    0 -0.14749143938E+02  0.10491378251E+03 -0.26305841098E+03  0.29385909309E+03  0.77000000000E+02 0.  0.
<mgrwt>
<rscale>  0 0.26705409E+03</rscale>
<asrwt>0</asrwt>
<pdfrwt beam="1">  1        2 0.10639752E+00 0.26705409E+03</pdfrwt>
<pdfrwt beam="2">  1       -2 0.39662514E-02 0.26705409E+03</pdfrwt>
<totfact> 0.11783113E+04</totfact>
</mgrwt>
</event>
<event>
 4    1  0.6207184E-004  0.1955705E+03  0.7818608E-02  0.1153531E+00
          2   -1    0    0  501    0  0.00000000000E+00  0.00000000000E+00  0.77212739209E+03  0.77212739209E+03  0.25500000000E-02 0.  1.
         -2   -1    0    0    0  501 -0.00000000000E+00 -0.00000000000E+00 -0.12383911935E+02  0.12383912198E+02  0.25500000000E-02 0. -1.
    5000001    1    1    2    0    0  0.41613809545E+02 -0.22151163490E+02  0.53053030321E+03  0.53815777038E+03  0.77000000000E+02 0.  0.
   -5000001    1    1    2    0    0 -0.41613809545E+02  0.22151163490E+02  0.22921317694E+03  0.24635353391E+03  0.77000000000E+02 0.  0.
<mgrwt>
<rscale>  0 0.19557053E+03</rscale>
<asrwt>0</asrwt>
<pdfrwt beam="1">  1        2 0.11878886E+00 0.19557053E+03</pdfrwt>
<pdfrwt beam="2">  1       -2 0.19052167E-02 0.19557053E+03</pdfrwt>
<totfact> 0.29951576E+04</totfact>
</mgrwt>
</event>
<event>
 4    1  0.6207184E-004  0.2673153E+03  0.7818608E-02  0.1102826E+00
          2   -1    0    0  501    0  0.00000000000E+00  0.00000000000E+00  0.72886315326E+03  0.72886315326E+03  0.25500000000E-02 0. -1.
         -2   -1    0    0    0  501 -0.00000000000E+00 -0.00000000000E+00 -0.24509912875E+02  0.24509913008E+02  0.25500000000E-02 0.  1.
    5000001    1    1    2    0    0  0.99154144243E+02  0.16588269249E+02  0.23165848852E+03  0.26401017083E+03  0.77000000000E+02 0.  0.
   -5000001    1    1    2    0    0 -0.99154144243E+02 -0.16588269249E+02  0.47269475186E+03  0.48936289544E+03  0.77000000000E+02 0.  0.
<mgrwt>
<rscale>  0 0.26731534E+03</rscale>
<asrwt>0</asrwt>
<pdfrwt beam="1">  1        2 0.11213278E+00 0.26731534E+03</pdfrwt>
<pdfrwt beam="2">  1       -2 0.37707563E-02 0.26731534E+03</pdfrwt>
<totfact> 0.11925021E+04</totfact>
</mgrwt>
</event>
<event>
 4    1  0.6207184E-004  0.2118528E+03  0.7818608E-02  0.1140107E+00
         -2   -1    0    0    0  501 -0.00000000000E+00  0.00000000000E+00  0.12900267124E+02  0.12900267376E+02  0.25500000000E-02 0. -1.
          2   -1    0    0  501    0  0.00000000000E+00 -0.00000000000E+00 -0.86978065553E+03  0.86978065553E+03  0.25500000000E-02 0.  1.
    5000001    1    1    2    0    0  0.31010628072E+02  0.63820419081E+02 -0.49519472231E+03  0.50614377202E+03  0.77000000000E+02 0.  0.
   -5000001    1    1    2    0    0 -0.31010628072E+02 -0.63820419081E+02 -0.36168566609E+03  0.37653715089E+03  0.77000000000E+02 0.  0.
<mgrwt>
<rscale>  0 0.21185281E+03</rscale>
<asrwt>0</asrwt>
<pdfrwt beam="1">  1        2 0.13381236E+00 0.21185281E+03</pdfrwt>
<pdfrwt beam="2">  1       -2 0.19846572E-02 0.21185281E+03</pdfrwt>
<totfact> 0.24373477E+04</totfact>
</mgrwt>
</event>
<event>
 4    1  0.6207184E-004  0.2349541E+03  0.7818608E-02  0.1123201E+00
          2   -1    0    0  501    0  0.00000000000E+00  0.00000000000E+00  0.12722608413E+04  0.12722608413E+04  0.25500000000E-02 0.  1.
         -2   -1    0    0    0  501 -0.00000000000E+00 -0.00000000000E+00 -0.10847510292E+02  0.10847510592E+02  0.25500000000E-02 0. -1.
    5000001    1    1    2    0    0 -0.53170833229E+02 -0.67290927324E+02  0.75483790918E+03  0.76358658680E+03  0.77000000000E+02 0.  0.
   -5000001    1    1    2    0    0  0.53170833229E+02  0.67290927324E+02  0.50657542184E+03  0.51952176511E+03  0.77000000000E+02 0.  0.
<mgrwt>
<rscale>  0 0.23495415E+03</rscale>
<asrwt>0</asrwt>
<pdfrwt beam="1">  1        2 0.19573230E+00 0.23495415E+03</pdfrwt>
<pdfrwt beam="2">  1       -2 0.16688489E-02 0.23495415E+03</pdfrwt>
<totfact> 0.18200609E+04</totfact>
</mgrwt>
</event>
<event>
 4    1  0.6207184E-004  0.2762086E+03  0.7818608E-02  0.1097778E+00
          2   -1    0    0  501    0  0.00000000000E+00  0.00000000000E+00  0.79124388914E+03  0.79124388915E+03  0.25500000000E-02 0.  1.
         -2   -1    0    0    0  501 -0.00000000000E+00 -0.00000000000E+00 -0.24104836317E+02  0.24104836452E+02  0.25500000000E-02 0. -1.
    5000001    1    1    2    0    0 -0.89537797624E+02 -0.51909583743E+02  0.23798869557E+03  0.27070138771E+03  0.77000000000E+02 0.  0.
   -5000001    1    1    2    0    0  0.89537797624E+02  0.51909583743E+02  0.52915035726E+03  0.54464733790E+03  0.77000000000E+02 0.  0.
<mgrwt>
<rscale>  0 0.27620865E+03</rscale>
<asrwt>0</asrwt>
<pdfrwt beam="1">  1        2 0.12172985E+00 0.27620865E+03</pdfrwt>
<pdfrwt beam="2">  1       -2 0.37084357E-02 0.27620865E+03</pdfrwt>
<totfact> 0.11049421E+04</totfact>
</mgrwt>
</event>
<event>
 4    1  0.6207184E-004  0.3778714E+03  0.7818608E-02  0.1051723E+00
          2   -1    0    0  501    0  0.00000000000E+00  0.00000000000E+00  0.10152062103E+04  0.10152062103E+04  0.25500000000E-02 0.  1.
         -2   -1    0    0    0  501 -0.00000000000E+00 -0.00000000000E+00 -0.35162016947E+02  0.35162017039E+02  0.25500000000E-02 0. -1.
    5000001    1    1    2    0    0 -0.85366998248E+01  0.17169373988E+03  0.44916125416E+03  0.48705897774E+03  0.77000000000E+02 0.  0.
   -5000001    1    1    2    0    0  0.85366998248E+01 -0.17169373988E+03  0.53088293918E+03  0.56330924959E+03  0.77000000000E+02 0.  0.
<mgrwt>
<rscale>  0 0.37787140E+03</rscale>
<asrwt>0</asrwt>
<pdfrwt beam="1">  1        2 0.15618559E+00 0.37787140E+03</pdfrwt>
<pdfrwt beam="2">  1       -2 0.54095405E-02 0.37787140E+03</pdfrwt>
<totfact> 0.44796998E+03</totfact>
</mgrwt>
</event>
<event>
 4    1  0.6207184E-004  0.2391956E+03  0.7818608E-02  0.1120330E+00
          2   -1    0    0  501    0  0.00000000000E+00  0.00000000000E+00  0.13264930779E+03  0.13264930781E+03  0.25500000000E-02 0. -1.
         -2   -1    0    0    0  501 -0.00000000000E+00 -0.00000000000E+00 -0.10783042187E+03  0.10783042190E+03  0.25500000000E-02 0.  1.
    5000001    1    1    2    0    0  0.68175686435E+02  0.48312748832E+02 -0.25108254329E+02  0.11636782354E+03  0.77000000000E+02 0.  0.
   -5000001    1    1    2    0    0 -0.68175686435E+02 -0.48312748832E+02  0.49927140244E+02  0.12411190617E+03  0.77000000000E+02 0.  0.
<mgrwt>
<rscale>  0 0.23919558E+03</rscale>
<asrwt>0</asrwt>
<pdfrwt beam="1">  1        2 0.20407586E-01 0.23919558E+03</pdfrwt>
<pdfrwt beam="2">  1       -2 0.16589296E-01 0.23919558E+03</pdfrwt>
<totfact> 0.77100453E+03</totfact>
</mgrwt>
</event>
<event>
 4    1  0.6207184E-004  0.1975596E+03  0.7818608E-02  0.1151814E+00
          2   -1    0    0  501    0  0.00000000000E+00  0.00000000000E+00  0.72345355513E+02  0.72345355558E+02  0.25500000000E-02 0.  1.
         -2   -1    0    0    0  501 -0.00000000000E+00 -0.00000000000E+00 -0.13487325693E+03  0.13487325695E+03  0.25500000000E-02 0. -1.
    5000001    1    1    2    0    0 -0.23259990400E+02 -0.33432036858E+02  0.17593737176E+02  0.88866573185E+02  0.77000000000E+02 0.  0.
   -5000001    1    1    2    0    0  0.23259990400E+02  0.33432036858E+02 -0.80121638592E+02  0.11835203933E+03  0.77000000000E+02 0.  0.
<mgrwt>
<rscale>  0 0.19755965E+03</rscale>
<asrwt>0</asrwt>
<pdfrwt beam="1">  1        2 0.11130055E-01 0.19755965E+03</pdfrwt>
<pdfrwt beam="2">  1       -2 0.20749732E-01 0.19755965E+03</pdfrwt>
<totfact> 0.10689357E+04</totfact>
</mgrwt>
</event>
<event>
 4    1  0.6207184E-004  0.2061490E+03  0.7818608E-02  0.1144652E+00
         -2   -1    0    0    0  501 -0.00000000000E+00  0.00000000000E+00  0.45442311868E+03  0.45442311869E+03  0.25500000000E-02 0. -1.
          2   -1    0    0  501    0  0.00000000000E+00 -0.00000000000E+00 -0.23379863224E+02  0.23379863363E+02  0.25500000000E-02 0.  1.
    5000001    1    1    2    0    0  0.54176238268E+01 -0.66322253829E+02  0.25341947836E+03  0.27309050517E+03  0.77000000000E+02 0.  0.
   -5000001    1    1    2    0    0 -0.54176238268E+01  0.66322253829E+02  0.17762377709E+03  0.20471247688E+03  0.77000000000E+02 0.  0.
<mgrwt>
<rscale>  0 0.20614898E+03</rscale>
<asrwt>0</asrwt>
<pdfrwt beam="1">  1        2 0.35969023E-02 0.20614898E+03</pdfrwt>
<pdfrwt beam="2">  1       -2 0.69911244E-01 0.20614898E+03</pdfrwt>
<totfact> 0.45818900E+03</totfact>
</mgrwt>
</event>
<event>
 4    1  0.6207184E-004  0.3068401E+03  0.7818608E-02  0.1081870E+00
         -2   -1    0    0    0  501 -0.00000000000E+00  0.00000000000E+00  0.16202255467E+03  0.16202255469E+03  0.25500000000E-02 0. -1.
          2   -1    0    0  501    0  0.00000000000E+00 -0.00000000000E+00 -0.14527431251E+03  0.14527431253E+03  0.25500000000E-02 0.  1.
    5000001    1    1    2    0    0  0.61254582758E+02  0.74814913605E+02  0.99390202236E+02  0.15860897675E+03  0.77000000000E+02 0.  0.
   -5000001    1    1    2    0    0 -0.61254582758E+02 -0.74814913605E+02 -0.82641960071E+02  0.14868789046E+03  0.77000000000E+02 0.  0.
<mgrwt>
<rscale>  0 0.30684012E+03</rscale>
<asrwt>0</asrwt>
<pdfrwt beam="1">  1        2 0.22349894E-01 0.30684012E+03</pdfrwt>
<pdfrwt beam="2">  1       -2 0.24926547E-01 0.30684012E+03</pdfrwt>
<totfact> 0.34893819E+03</totfact>
</mgrwt>
</event>
<event>
 4    1  0.6207184E-004  0.2739404E+03  0.7818608E-02  0.1099045E+00
          2   -1    0    0  501    0  0.00000000000E+00  0.00000000000E+00  0.11615095795E+03  0.11615095797E+03  0.25500000000E-02 0.  1.
         -2   -1    0    0    0  501 -0.00000000000E+00 -0.00000000000E+00 -0.16152120113E+03  0.16152120115E+03  0.25500000000E-02 0. -1.
    5000001    1    1    2    0    0 -0.10979097396E+03 -0.26099730427E+02 -0.32646938594E+02  0.14046379068E+03  0.77000000000E+02 0.  0.
   -5000001    1    1    2    0    0  0.10979097396E+03  0.26099730427E+02 -0.12723304591E+02  0.13720836845E+03  0.77000000000E+02 0.  0.
<mgrwt>
<rscale>  0 0.27394045E+03</rscale>
<asrwt>0</asrwt>
<pdfrwt beam="1">  1        2 0.17869378E-01 0.27394045E+03</pdfrwt>
<pdfrwt beam="2">  1       -2 0.24849416E-01 0.27394045E+03</pdfrwt>
<totfact> 0.45204215E+03</totfact>
</mgrwt>
</event>
<event>
 4    1  0.6207184E-004  0.2810383E+03  0.7818608E-02  0.1095123E+00
          2   -1    0    0  501    0  0.00000000000E+00  0.00000000000E+00  0.31845991907E+03  0.31845991908E+03  0.25500000000E-02 0.  1.
         -2   -1    0    0    0  501 -0.00000000000E+00 -0.00000000000E+00 -0.62003521381E+02  0.62003521433E+02  0.25500000000E-02 0. -1.
    5000001    1    1    2    0    0 -0.10447546088E+03 -0.48479304843E+02  0.96442619392E+02  0.16880623140E+03  0.77000000000E+02 0.  0.
   -5000001    1    1    2    0    0  0.10447546088E+03  0.48479304843E+02  0.16001377830E+03  0.21165720912E+03  0.77000000000E+02 0.  0.
<mgrwt>
<rscale>  0 0.28103833E+03</rscale>
<asrwt>0</asrwt>
<pdfrwt beam="1">  1        2 0.48993832E-01 0.28103833E+03</pdfrwt>
<pdfrwt beam="2">  1       -2 0.95390036E-02 0.28103833E+03</pdfrwt>
<totfact> 0.72866536E+03</totfact>
</mgrwt>
</event>
<event>
 4    1  0.6207184E-004  0.2187638E+03  0.7818608E-02  0.1134808E+00
          2   -1    0    0  501    0  0.00000000000E+00  0.00000000000E+00  0.55651971548E+03  0.55651971549E+03  0.25500000000E-02 0.  1.
         -2   -1    0    0    0  501 -0.00000000000E+00 -0.00000000000E+00 -0.21498604122E+02  0.21498604274E+02  0.25500000000E-02 0. -1.
    5000001    1    1    2    0    0 -0.49410275401E+02 -0.56826031423E+02  0.21704351276E+03  0.24229622282E+03  0.77000000000E+02 0.  0.
   -5000001    1    1    2    0    0  0.49410275401E+02  0.56826031423E+02  0.31797759859E+03  0.33572209693E+03  0.77000000000E+02 0.  0.
<mgrwt>
<rscale>  0 0.21876377E+03</rscale>
<asrwt>0</asrwt>
<pdfrwt beam="1">  1        2 0.85618425E-01 0.21876377E+03</pdfrwt>
<pdfrwt beam="2">  1       -2 0.33074773E-02 0.21876377E+03</pdfrwt>
<totfact> 0.19728022E+04</totfact>
</mgrwt>
</event>
<event>
 4    1  0.6207184E-004  0.2407740E+03  0.7818608E-02  0.1119278E+00
          2   -1    0    0  501    0  0.00000000000E+00  0.00000000000E+00  0.13815631116E+04  0.13815631116E+04  0.25500000000E-02 0.  1.
         -2   -1    0    0    0  501 -0.00000000000E+00 -0.00000000000E+00 -0.10490311414E+02  0.10490311724E+02  0.25500000000E-02 0. -1.
    5000001    1    1    2    0    0 -0.77770572835E+01  0.90617506903E+02  0.78433412311E+03  0.79333538421E+03  0.77000000000E+02 0.  0.
   -5000001    1    1    2    0    0  0.77770572835E+01 -0.90617506903E+02  0.58673867713E+03  0.59871803916E+03  0.77000000000E+02 0.  0.
<mgrwt>
<rscale>  0 0.24077398E+03</rscale>
<asrwt>0</asrwt>
<pdfrwt beam="1">  1        2 0.21254805E+00 0.24077398E+03</pdfrwt>
<pdfrwt beam="2">  1       -2 0.16138950E-02 0.24077398E+03</pdfrwt>
<totfact> 0.16666564E+04</totfact>
</mgrwt>
</event>
<event>
 4    1  0.6207184E-004  0.3165809E+03  0.7818608E-02  0.1077234E+00
          2   -1    0    0  501    0  0.00000000000E+00  0.00000000000E+00  0.18176463721E+03  0.18176463723E+03  0.25500000000E-02 0.  1.
         -2   -1    0    0    0  501 -0.00000000000E+00 -0.00000000000E+00 -0.13784790050E+03  0.13784790052E+03  0.25500000000E-02 0. -1.
    5000001    1    1    2    0    0 -0.13410406204E+02 -0.11839426558E+03 -0.48926758214E+02  0.15006621468E+03  0.77000000000E+02 0.  0.
   -5000001    1    1    2    0    0  0.13410406204E+02  0.11839426558E+03  0.92843494931E+02  0.16954632308E+03  0.77000000000E+02 0.  0.
<mgrwt>
<rscale>  0 0.31658094E+03</rscale>
<asrwt>0</asrwt>
<pdfrwt beam="1">  1        2 0.27963790E-01 0.31658094E+03</pdfrwt>
<pdfrwt beam="2">  1       -2 0.21207369E-01 0.31658094E+03</pdfrwt>
<totfact> 0.36025325E+03</totfact>
</mgrwt>
</event>
<event>
 4    1  0.6207184E-004  0.1869352E+03  0.7818608E-02  0.1161255E+00
          2   -1    0    0  501    0  0.00000000000E+00  0.00000000000E+00  0.10272834805E+03  0.10272834808E+03  0.25500000000E-02 0.  1.
         -2   -1    0    0    0  501 -0.00000000000E+00 -0.00000000000E+00 -0.85041688003E+02  0.85041688041E+02  0.25500000000E-02 0. -1.
    5000001    1    1    2    0    0  0.29555614513E+02 -0.37415694108E+02  0.32048962800E+02  0.96070830804E+02  0.77000000000E+02 0.  0.
   -5000001    1    1    2    0    0 -0.29555614513E+02  0.37415694108E+02 -0.14362302757E+02  0.91699205314E+02  0.77000000000E+02 0.  0.
<mgrwt>
<rscale>  0 0.18693520E+03</rscale>
<asrwt>0</asrwt>
<pdfrwt beam="1">  1        2 0.15804361E-01 0.18693520E+03</pdfrwt>
<pdfrwt beam="2">  1       -2 0.13083337E-01 0.18693520E+03</pdfrwt>
<totfact> 0.15067008E+04</totfact>
</mgrwt>
</event>
<event>
 4    1  0.6207184E-004  0.3072400E+03  0.7818608E-02  0.1081676E+00
         -2   -1    0    0    0  501 -0.00000000000E+00  0.00000000000E+00  0.21955244192E+03  0.21955244194E+03  0.25500000000E-02 0. -1.
          2   -1    0    0  501    0  0.00000000000E+00 -0.00000000000E+00 -0.10748734951E+03  0.10748734954E+03  0.25500000000E-02 0.  1.
    5000001    1    1    2    0    0 -0.69577290489E+02 -0.72308296822E+02 -0.36767314674E+02  0.13172063077E+03  0.77000000000E+02 0.  0.
   -5000001    1    1    2    0    0  0.69577290489E+02  0.72308296822E+02  0.14883240709E+03  0.19531916071E+03  0.77000000000E+02 0.  0.
<mgrwt>
<rscale>  0 0.30724004E+03</rscale>
<asrwt>0</asrwt>
<pdfrwt beam="1">  1        2 0.16536515E-01 0.30724004E+03</pdfrwt>
<pdfrwt beam="2">  1       -2 0.33777299E-01 0.30724004E+03</pdfrwt>
<totfact> 0.28496124E+03</totfact>
</mgrwt>
</event>
<event>
 4    1  0.6207184E-004  0.1976189E+03  0.7818608E-02  0.1151764E+00
          2   -1    0    0  501    0  0.00000000000E+00  0.00000000000E+00  0.15683500291E+03  0.15683500293E+03  0.25500000000E-02 0.  1.
         -2   -1    0    0    0  501 -0.00000000000E+00 -0.00000000000E+00 -0.62252111205E+02  0.62252111257E+02  0.25500000000E-02 0. -1.
    5000001    1    1    2    0    0  0.50017080242E+02  0.35934424268E+02  0.40165170424E+02  0.10646704691E+03  0.77000000000E+02 0.  0.
   -5000001    1    1    2    0    0 -0.50017080242E+02 -0.35934424268E+02  0.54417721282E+02  0.11262006727E+03  0.77000000000E+02 0.  0.
<mgrwt>
<rscale>  0 0.19761893E+03</rscale>
<asrwt>0</asrwt>
<pdfrwt beam="1">  1        2 0.24128462E-01 0.19761893E+03</pdfrwt>
<pdfrwt beam="2">  1       -2 0.95772480E-02 0.19761893E+03</pdfrwt>
<totfact> 0.15354698E+04</totfact>
</mgrwt>
</event>
<event>
 4    1  0.6207184E-004  0.3925430E+03  0.7818608E-02  0.1046393E+00
         -2   -1    0    0    0  501 -0.00000000000E+00  0.00000000000E+00  0.34182031020E+02  0.34182031115E+02  0.25500000000E-02 0. -1.
          2   -1    0    0  501    0  0.00000000000E+00 -0.00000000000E+00 -0.11269811131E+04  0.11269811131E+04  0.25500000000E-02 0.  1.
    5000001    1    1    2    0    0  0.55034356213E+02 -0.16573888337E+03 -0.41099481339E+03  0.45314886567E+03  0.77000000000E+02 0.  0.
   -5000001    1    1    2    0    0 -0.55034356213E+02  0.16573888337E+03 -0.68180426867E+03  0.70801427852E+03  0.77000000000E+02 0.  0.
<mgrwt>
<rscale>  0 0.39254301E+03</rscale>
<asrwt>0</asrwt>
<pdfrwt beam="1">  1        2 0.17338168E+00 0.39254301E+03</pdfrwt>
<pdfrwt beam="2">  1       -2 0.52587749E-02 0.39254301E+03</pdfrwt>
<totfact> 0.40073809E+03</totfact>
</mgrwt>
</event>
<event>
 4    1  0.6207184E-004  0.1830172E+03  0.7818608E-02  0.1164915E+00
         -2   -1    0    0    0  501 -0.00000000000E+00  0.00000000000E+00  0.16862615596E+02  0.16862615789E+02  0.25500000000E-02 0. -1.
          2   -1    0    0  501    0  0.00000000000E+00 -0.00000000000E+00 -0.49659088399E+03  0.49659088399E+03  0.25500000000E-02 0.  1.
    5000001    1    1    2    0    0  0.80766199948E+01  0.47877168706E+02 -0.21364122262E+03  0.23222624115E+03  0.77000000000E+02 0.  0.
   -5000001    1    1    2    0    0 -0.80766199948E+01 -0.47877168706E+02 -0.26608704577E+03  0.28122725864E+03  0.77000000000E+02 0.  0.
<mgrwt>
<rscale>  0 0.18301717E+03</rscale>
<asrwt>0</asrwt>
<pdfrwt beam="1">  1        2 0.76398587E-01 0.18301717E+03</pdfrwt>
<pdfrwt beam="2">  1       -2 0.25942489E-02 0.18301717E+03</pdfrwt>
<totfact> 0.31684358E+04</totfact>
</mgrwt>
</event>
<event>
 4    1  0.6207184E-004  0.1795205E+03  0.7818608E-02  0.1168268E+00
         -2   -1    0    0    0  501 -0.00000000000E+00  0.00000000000E+00  0.22455673932E+01  0.22455688411E+01  0.25500000000E-02 0. -1.
          2   -1    0    0  501    0  0.00000000000E+00 -0.00000000000E+00 -0.35879109833E+04  0.35879109833E+04  0.25500000000E-02 0.  1.
    5000001    1    1    2    0    0 -0.16461649120E+02  0.36799888554E+02 -0.22412120591E+04  0.22428967233E+04  0.77000000000E+02 0.  0.
   -5000001    1    1    2    0    0  0.16461649120E+02 -0.36799888554E+02 -0.13444533568E+04  0.13472598288E+04  0.77000000000E+02 0.  0.
<mgrwt>
<rscale>  0 0.17952046E+03</rscale>
<asrwt>0</asrwt>
<pdfrwt beam="1">  1        2 0.55198172E+00 0.17952046E+03</pdfrwt>
<pdfrwt beam="2">  1       -2 0.34547489E-03 0.17952046E+03</pdfrwt>
<totfact> 0.87804796E+03</totfact>
</mgrwt>
</event>
<event>
 4    1  0.6207184E-004  0.1708023E+03  0.7818608E-02  0.1177014E+00
          2   -1    0    0  501    0  0.00000000000E+00  0.00000000000E+00  0.94845722336E+03  0.94845722336E+03  0.25500000000E-02 0.  1.
         -2   -1    0    0    0  501 -0.00000000000E+00 -0.00000000000E+00 -0.76897054171E+01  0.76897058399E+01  0.25500000000E-02 0. -1.
    5000001    1    1    2    0    0  0.78939335019E+01 -0.23568367048E+02  0.31742739425E+03  0.32757736908E+03  0.77000000000E+02 0.  0.
   -5000001    1    1    2    0    0 -0.78939335019E+01  0.23568367048E+02  0.62334012369E+03  0.62856956012E+03  0.77000000000E+02 0.  0.
<mgrwt>
<rscale>  0 0.17080231E+03</rscale>
<asrwt>0</asrwt>
<pdfrwt beam="1">  1        2 0.14591644E+00 0.17080231E+03</pdfrwt>
<pdfrwt beam="2">  1       -2 0.11830321E-02 0.17080231E+03</pdfrwt>
<totfact> 0.45328035E+04</totfact>
</mgrwt>
</event>
<event>
 4    1  0.6207184E-004  0.1949131E+03  0.7818608E-02  0.1154103E+00
         -2   -1    0    0    0  501 -0.00000000000E+00  0.00000000000E+00  0.15274511431E+02  0.15274511644E+02  0.25500000000E-02 0. -1.
          2   -1    0    0  501    0  0.00000000000E+00 -0.00000000000E+00 -0.62180587107E+03  0.62180587108E+03  0.25500000000E-02 0.  1.
    5000001    1    1    2    0    0 -0.27526074704E+02  0.81919725480E+01 -0.47448164021E+03  0.48154607267E+03  0.77000000000E+02 0.  0.
   -5000001    1    1    2    0    0  0.27526074704E+02 -0.81919725480E+01 -0.13204971943E+03  0.15553431006E+03  0.77000000000E+02 0.  0.
<mgrwt>
<rscale>  0 0.19491312E+03</rscale>
<asrwt>0</asrwt>
<pdfrwt beam="1">  1        2 0.95662422E-01 0.19491312E+03</pdfrwt>
<pdfrwt beam="2">  1       -2 0.23499253E-02 0.19491312E+03</pdfrwt>
<totfact> 0.28555389E+04</totfact>
</mgrwt>
</event>
<event>
 4    1  0.6207184E-004  0.2079998E+03  0.7818608E-02  0.1143160E+00
         -2   -1    0    0    0  501 -0.00000000000E+00  0.00000000000E+00  0.14966556156E+02  0.14966556373E+02  0.25500000000E-02 0. -1.
          2   -1    0    0  501    0  0.00000000000E+00 -0.00000000000E+00 -0.72267653731E+03  0.72267653732E+03  0.25500000000E-02 0.  1.
    5000001    1    1    2    0    0 -0.69644052394E+02 -0.30327985724E+01 -0.33526204094E+03  0.35098308791E+03  0.77000000000E+02 0.  0.
   -5000001    1    1    2    0    0  0.69644052394E+02  0.30327985724E+01 -0.37244794021E+03  0.38666000578E+03  0.77000000000E+02 0.  0.
<mgrwt>
<rscale>  0 0.20799980E+03</rscale>
<asrwt>0</asrwt>
<pdfrwt beam="1">  1        2 0.11118098E+00 0.20799980E+03</pdfrwt>
<pdfrwt beam="2">  1       -2 0.23025477E-02 0.20799980E+03</pdfrwt>
<totfact> 0.24724616E+04</totfact>
</mgrwt>
</event>
<event>
 4    1  0.6207184E-004  0.2241397E+03  0.7818608E-02  0.1130834E+00
         -2   -1    0    0    0  501 -0.00000000000E+00  0.00000000000E+00  0.57981283519E+01  0.57981289126E+01  0.25500000000E-02 0. -1.
          2   -1    0    0  501    0  0.00000000000E+00 -0.00000000000E+00 -0.21661563717E+04  0.21661563717E+04  0.25500000000E-02 0.  1.
    5000001    1    1    2    0    0 -0.65292375835E+02  0.48256769279E+02 -0.10197857630E+04  0.10259063371E+04  0.77000000000E+02 0.  0.
   -5000001    1    1    2    0    0  0.65292375835E+02 -0.48256769279E+02 -0.11405724804E+04  0.11460481636E+04  0.77000000000E+02 0.  0.
<mgrwt>
<rscale>  0 0.22413972E+03</rscale>
<asrwt>0</asrwt>
<pdfrwt beam="1">  1        2 0.33325418E+00 0.22413972E+03</pdfrwt>
<pdfrwt beam="2">  1       -2 0.89202152E-03 0.22413972E+03</pdfrwt>
<totfact> 0.15198522E+04</totfact>
</mgrwt>
</event>
<event>
 4    1  0.6207184E-004  0.2920549E+03  0.7818608E-02  0.1089281E+00
         -2   -1    0    0    0  501 -0.00000000000E+00  0.00000000000E+00  0.37310406578E+02  0.37310406665E+02  0.25500000000E-02 0. -1.
          2   -1    0    0  501    0  0.00000000000E+00 -0.00000000000E+00 -0.57152979795E+03  0.57152979795E+03  0.25500000000E-02 0.  1.
    5000001    1    1    2    0    0  0.61211016077E+02 -0.56231651124E+02 -0.45915163981E+03  0.47292495749E+03  0.77000000000E+02 0.  0.
   -5000001    1    1    2    0    0 -0.61211016077E+02  0.56231651124E+02 -0.75067751557E+02  0.13591524713E+03  0.77000000000E+02 0.  0.
<mgrwt>
<rscale>  0 0.29205485E+03</rscale>
<asrwt>0</asrwt>
<pdfrwt beam="1">  1        2 0.87927655E-01 0.29205485E+03</pdfrwt>
<pdfrwt beam="2">  1       -2 0.57400630E-02 0.29205485E+03</pdfrwt>
<totfact> 0.84445507E+03</totfact>
</mgrwt>
</event>
<event>
 4    1  0.6207184E-004  0.1985399E+03  0.7818608E-02  0.1150977E+00
         -2   -1    0    0    0  501 -0.00000000000E+00  0.00000000000E+00  0.10890288883E+03  0.10890288886E+03  0.25500000000E-02 0. -1.
          2   -1    0    0  501    0  0.00000000000E+00 -0.00000000000E+00 -0.90489119945E+02  0.90489119981E+02  0.25500000000E-02 0.  1.
    5000001    1    1    2    0    0 -0.49531914537E+02 -0.34021096474E+02  0.27022266503E+02  0.10134124753E+03  0.77000000000E+02 0.  0.
   -5000001    1    1    2    0    0  0.49531914537E+02  0.34021096474E+02 -0.86084976197E+01  0.98050761314E+02  0.77000000000E+02 0.  0.
<mgrwt>
<rscale>  0 0.19853994E+03</rscale>
<asrwt>0</asrwt>
<pdfrwt beam="1">  1        2 0.13921403E-01 0.19853994E+03</pdfrwt>
<pdfrwt beam="2">  1       -2 0.16754291E-01 0.19853994E+03</pdfrwt>
<totfact> 0.11712083E+04</totfact>
</mgrwt>
</event>
<event>
 4    1  0.6207184E-004  0.1984051E+03  0.7818608E-02  0.1151092E+00
         -2   -1    0    0    0  501 -0.00000000000E+00  0.00000000000E+00  0.36266503526E+02  0.36266503616E+02  0.25500000000E-02 0. -1.
          2   -1    0    0  501    0  0.00000000000E+00 -0.00000000000E+00 -0.27135633079E+03  0.27135633081E+03  0.25500000000E-02 0.  1.
    5000001    1    1    2    0    0 -0.90971657928E+01  0.58761743266E+02 -0.14762757104E+03  0.17680101988E+03  0.77000000000E+02 0.  0.
   -5000001    1    1    2    0    0  0.90971657928E+01 -0.58761743266E+02 -0.87462256224E+02  0.13082181454E+03  0.77000000000E+02 0.  0.
<mgrwt>
<rscale>  0 0.19840509E+03</rscale>
<asrwt>0</asrwt>
<pdfrwt beam="1">  1        2 0.41747126E-01 0.19840509E+03</pdfrwt>
<pdfrwt beam="2">  1       -2 0.55794623E-02 0.19840509E+03</pdfrwt>
<totfact> 0.19493931E+04</totfact>
</mgrwt>
</event>
<event>
 4    1  0.6207184E-004  0.1827744E+03  0.7818608E-02  0.1165145E+00
         -2   -1    0    0    0  501 -0.00000000000E+00  0.00000000000E+00  0.47719188335E+01  0.47719195149E+01  0.25500000000E-02 0. -1.
          2   -1    0    0  501    0  0.00000000000E+00 -0.00000000000E+00 -0.17501597069E+04  0.17501597069E+04  0.25500000000E-02 0.  1.
    5000001    1    1    2    0    0  0.12985322754E+02 -0.44552563340E+02 -0.71519467671E+03  0.72082312331E+03  0.77000000000E+02 0.  0.
   -5000001    1    1    2    0    0 -0.12985322754E+02  0.44552563340E+02 -0.10301931114E+04  0.10341085031E+04  0.77000000000E+02 0.  0.
<mgrwt>
<rscale>  0 0.18277440E+03</rscale>
<asrwt>0</asrwt>
<pdfrwt beam="1">  1        2 0.26925483E+00 0.18277440E+03</pdfrwt>
<pdfrwt beam="2">  1       -2 0.73414281E-03 0.18277440E+03</pdfrwt>
<totfact> 0.32838454E+04</totfact>
</mgrwt>
</event>
<event>
 4    1  0.6207184E-004  0.3795990E+03  0.7818608E-02  0.1051082E+00
         -2   -1    0    0    0  501 -0.00000000000E+00  0.00000000000E+00  0.33672468946E+02  0.33672469042E+02  0.25500000000E-02 0. -1.
          2   -1    0    0  501    0  0.00000000000E+00 -0.00000000000E+00 -0.10698311628E+04  0.10698311628E+04  0.25500000000E-02 0.  1.
    5000001    1    1    2    0    0  0.16486736532E+03  0.18437586049E+02 -0.37060224778E+03  0.41327499172E+03  0.77000000000E+02 0.  0.
   -5000001    1    1    2    0    0 -0.16486736532E+03 -0.18437586049E+02 -0.66555644604E+03  0.69022864008E+03  0.77000000000E+02 0.  0.
<mgrwt>
<rscale>  0 0.37959903E+03</rscale>
<asrwt>0</asrwt>
<pdfrwt beam="1">  1        2 0.16458938E+00 0.37959903E+03</pdfrwt>
<pdfrwt beam="2">  1       -2 0.51803807E-02 0.37959903E+03</pdfrwt>
<totfact> 0.44348561E+03</totfact>
</mgrwt>
</event>
<event>
 4    1  0.6207184E-004  0.3297252E+03  0.7818608E-02  0.1071259E+00
          2   -1    0    0  501    0  0.00000000000E+00  0.00000000000E+00  0.29887855148E+03  0.29887855149E+03  0.25500000000E-02 0.  1.
         -2   -1    0    0    0  501 -0.00000000000E+00 -0.00000000000E+00 -0.90938894152E+02  0.90938894187E+02  0.25500000000E-02 0. -1.
    5000001    1    1    2    0    0 -0.42297884087E+02  0.83381745283E+01 -0.60664696064E+02  0.10708800820E+03  0.77000000000E+02 0.  0.
   -5000001    1    1    2    0    0  0.42297884087E+02 -0.83381745283E+01  0.26860435340E+03  0.28272943748E+03  0.77000000000E+02 0.  0.
<mgrwt>
<rscale>  0 0.32972525E+03</rscale>
<asrwt>0</asrwt>
<pdfrwt beam="1">  1        2 0.45981315E-01 0.32972525E+03</pdfrwt>
<pdfrwt beam="2">  1       -2 0.13990599E-01 0.32972525E+03</pdfrwt>
<totfact> 0.42251679E+03</totfact>
</mgrwt>
</event>
<event>
 4    1  0.6207184E-004  0.5875622E+03  0.7818608E-02  0.9931552E-01
          2   -1    0    0  501    0  0.00000000000E+00  0.00000000000E+00  0.25946311971E+03  0.25946311973E+03  0.25500000000E-02 0.  1.
         -2   -1    0    0    0  501 -0.00000000000E+00 -0.00000000000E+00 -0.33263812092E+03  0.33263812093E+03  0.25500000000E-02 0. -1.
    5000001    1    1    2    0    0 -0.30947345976E+02 -0.23105173330E+03 -0.19918978215E+03  0.31614586980E+03  0.77000000000E+02 0.  0.
   -5000001    1    1    2    0    0  0.30947345976E+02  0.23105173330E+03  0.12601478094E+03  0.27595537085E+03  0.77000000000E+02 0.  0.
<mgrwt>
<rscale>  0 0.58756217E+03</rscale>
<asrwt>0</asrwt>
<pdfrwt beam="1">  1        2 0.39917403E-01 0.58756217E+03</pdfrwt>
<pdfrwt beam="2">  1       -2 0.51175096E-01 0.58756217E+03</pdfrwt>
<totfact> 0.46991558E+02</totfact>
</mgrwt>
</event>
<event>
 4    1  0.6207184E-004  0.3436789E+03  0.7818608E-02  0.1065240E+00
         -2   -1    0    0    0  501 -0.00000000000E+00  0.00000000000E+00  0.60320702323E+02  0.60320702377E+02  0.25500000000E-02 0. -1.
          2   -1    0    0  501    0  0.00000000000E+00 -0.00000000000E+00 -0.48952998813E+03  0.48952998814E+03  0.25500000000E-02 0.  1.
    5000001    1    1    2    0    0  0.13024932673E+03  0.76367866788E+02 -0.25993721505E+03  0.31031160784E+03  0.77000000000E+02 0.  0.
   -5000001    1    1    2    0    0 -0.13024932673E+03 -0.76367866788E+02 -0.16927207076E+03  0.23953908268E+03  0.77000000000E+02 0.  0.
<mgrwt>
<rscale>  0 0.34367888E+03</rscale>
<asrwt>0</asrwt>
<pdfrwt beam="1">  1        2 0.75312303E-01 0.34367888E+03</pdfrwt>
<pdfrwt beam="2">  1       -2 0.92801084E-02 0.34367888E+03</pdfrwt>
<totfact> 0.47823132E+03</totfact>
</mgrwt>
</event>
<event>
 4    1  0.6207184E-004  0.2451955E+03  0.7818608E-02  0.1116379E+00
         -2   -1    0    0    0  501 -0.00000000000E+00  0.00000000000E+00  0.17524731985E+03  0.17524731987E+03  0.25500000000E-02 0. -1.
          2   -1    0    0  501    0  0.00000000000E+00 -0.00000000000E+00 -0.85765707512E+02  0.85765707550E+02  0.25500000000E-02 0.  1.
    5000001    1    1    2    0    0 -0.37987704528E+02 -0.86219381306E+02  0.28795779340E+02  0.12504017081E+03  0.77000000000E+02 0.  0.
   -5000001    1    1    2    0    0  0.37987704528E+02  0.86219381306E+02  0.60685832998E+02  0.13597285661E+03  0.77000000000E+02 0.  0.
<mgrwt>
<rscale>  0 0.24519552E+03</rscale>
<asrwt>0</asrwt>
<pdfrwt beam="1">  1        2 0.13194724E-01 0.24519552E+03</pdfrwt>
<pdfrwt beam="2">  1       -2 0.26961126E-01 0.24519552E+03</pdfrwt>
<totfact> 0.55734845E+03</totfact>
</mgrwt>
</event>
<event>
 4    1  0.6207184E-004  0.1898467E+03  0.7818608E-02  0.1158600E+00
          2   -1    0    0  501    0  0.00000000000E+00  0.00000000000E+00  0.15214389687E+04  0.15214389687E+04  0.25500000000E-02 0.  1.
         -2   -1    0    0    0  501 -0.00000000000E+00 -0.00000000000E+00 -0.59223159095E+01  0.59223164585E+01  0.25500000000E-02 0. -1.
    5000001    1    1    2    0    0 -0.23718948316E+02  0.24944314907E+02  0.40738532670E+03  0.41602477302E+03  0.77000000000E+02 0.  0.
   -5000001    1    1    2    0    0  0.23718948316E+02 -0.24944314907E+02  0.11081313261E+04  0.11113365122E+04  0.77000000000E+02 0.  0.
<mgrwt>
<rscale>  0 0.18984670E+03</rscale>
<asrwt>0</asrwt>
<pdfrwt beam="1">  1        2 0.23406777E+00 0.18984670E+03</pdfrwt>
<pdfrwt beam="2">  1       -2 0.91112465E-03 0.18984670E+03</pdfrwt>
<totfact> 0.31764062E+04</totfact>
</mgrwt>
</event>
<event>
 4    1  0.6207184E-004  0.2850033E+03  0.7818608E-02  0.1092987E+00
         -2   -1    0    0    0  501 -0.00000000000E+00  0.00000000000E+00  0.93523683963E+02  0.93523683998E+02  0.25500000000E-02 0. -1.
          2   -1    0    0  501    0  0.00000000000E+00 -0.00000000000E+00 -0.21712924840E+03  0.21712924842E+03  0.25500000000E-02 0.  1.
    5000001    1    1    2    0    0 -0.10190515130E+03  0.52958812338E+02 -0.99378958155E+02  0.17027763502E+03  0.77000000000E+02 0.  0.
   -5000001    1    1    2    0    0  0.10190515130E+03 -0.52958812338E+02 -0.24226606284E+02  0.14037529739E+03  0.77000000000E+02 0.  0.
<mgrwt>
<rscale>  0 0.28500335E+03</rscale>
<asrwt>0</asrwt>
<pdfrwt beam="1">  1        2 0.33404500E-01 0.28500335E+03</pdfrwt>
<pdfrwt beam="2">  1       -2 0.14388259E-01 0.28500335E+03</pdfrwt>
<totfact> 0.56814607E+03</totfact>
</mgrwt>
</event>
<event>
 4    1  0.6207184E-004  0.1895096E+03  0.7818608E-02  0.1158904E+00
         -2   -1    0    0    0  501 -0.00000000000E+00  0.00000000000E+00  0.23192176912E+02  0.23192177052E+02  0.25500000000E-02 0. -1.
          2   -1    0    0  501    0  0.00000000000E+00 -0.00000000000E+00 -0.38713376686E+03  0.38713376687E+03  0.25500000000E-02 0.  1.
    5000001    1    1    2    0    0  0.39003746373E+01  0.55049300877E+02 -0.17772988432E+03  0.20140146532E+03  0.77000000000E+02 0.  0.
   -5000001    1    1    2    0    0 -0.39003746373E+01 -0.55049300877E+02 -0.18621170563E+03  0.20892447861E+03  0.77000000000E+02 0.  0.
<mgrwt>
<rscale>  0 0.18950963E+03</rscale>
<asrwt>0</asrwt>
<pdfrwt beam="1">  1        2 0.59559036E-01 0.18950963E+03</pdfrwt>
<pdfrwt beam="2">  1       -2 0.35680275E-02 0.18950963E+03</pdfrwt>
<totfact> 0.26006962E+04</totfact>
</mgrwt>
</event>
<event>
 4    1  0.6207184E-004  0.1886744E+03  0.7818608E-02  0.1159662E+00
         -2   -1    0    0    0  501 -0.00000000000E+00  0.00000000000E+00  0.36674565222E+01  0.36674574087E+01  0.25500000000E-02 0. -1.
          2   -1    0    0  501    0  0.00000000000E+00 -0.00000000000E+00 -0.24266155988E+04  0.24266155988E+04  0.25500000000E-02 0.  1.
    5000001    1    1    2    0    0  0.11925174302E+02 -0.37365016828E+02 -0.16989337753E+04  0.17011300148E+04  0.77000000000E+02 0.  0.
   -5000001    1    1    2    0    0 -0.11925174302E+02  0.37365016828E+02 -0.72401436698E+03  0.72915304145E+03  0.77000000000E+02 0.  0.
<mgrwt>
<rscale>  0 0.18867441E+03</rscale>
<asrwt>0</asrwt>
<pdfrwt beam="1">  1        2 0.37332419E+00 0.18867441E+03</pdfrwt>
<pdfrwt beam="2">  1       -2 0.56422609E-03 0.18867441E+03</pdfrwt>
<totfact> 0.21233509E+04</totfact>
</mgrwt>
</event>
<event>
 4    1  0.6207184E-004  0.2690897E+03  0.7818608E-02  0.1101802E+00
         -2   -1    0    0    0  501 -0.00000000000E+00  0.00000000000E+00  0.48799148456E+02  0.48799148522E+02  0.25500000000E-02 0. -1.
          2   -1    0    0  501    0  0.00000000000E+00 -0.00000000000E+00 -0.37095561107E+03  0.37095561107E+03  0.25500000000E-02 0.  1.
    5000001    1    1    2    0    0 -0.18848044346E+02  0.10671720380E+03 -0.19340661263E+03  0.23468900309E+03  0.77000000000E+02 0.  0.
   -5000001    1    1    2    0    0  0.18848044346E+02 -0.10671720380E+03 -0.12874984998E+03  0.18506575651E+03  0.77000000000E+02 0.  0.
<mgrwt>
<rscale>  0 0.26908971E+03</rscale>
<asrwt>0</asrwt>
<pdfrwt beam="1">  1        2 0.57070092E-01 0.26908971E+03</pdfrwt>
<pdfrwt beam="2">  1       -2 0.75075615E-02 0.26908971E+03</pdfrwt>
<totfact> 0.89842106E+03</totfact>
</mgrwt>
</event>
<event>
 4    1  0.6207184E-004  0.2069386E+03  0.7818608E-02  0.1144013E+00
          2   -1    0    0  501    0  0.00000000000E+00  0.00000000000E+00  0.28102668101E+03  0.28102668103E+03  0.25500000000E-02 0.  1.
         -2   -1    0    0    0  501 -0.00000000000E+00 -0.00000000000E+00 -0.38095673291E+02  0.38095673377E+02  0.25500000000E-02 0. -1.
    5000001    1    1    2    0    0 -0.60625622396E+02 -0.27417224246E+02  0.92626364332E+02  0.13760746217E+03  0.77000000000E+02 0.  0.
   -5000001    1    1    2    0    0  0.60625622396E+02  0.27417224246E+02  0.15030464339E+03  0.18151489223E+03  0.77000000000E+02 0.  0.
<mgrwt>
<rscale>  0 0.20693864E+03</rscale>
<asrwt>0</asrwt>
<pdfrwt beam="1">  1        2 0.43234875E-01 0.20693864E+03</pdfrwt>
<pdfrwt beam="2">  1       -2 0.58608726E-02 0.20693864E+03</pdfrwt>
<totfact> 0.17473631E+04</totfact>
</mgrwt>
</event>
<event>
 4    1  0.6207184E-004  0.3531057E+03  0.7818608E-02  0.1061348E+00
          2   -1    0    0  501    0  0.00000000000E+00  0.00000000000E+00  0.28640565941E+03  0.28640565942E+03  0.25500000000E-02 0.  1.
         -2   -1    0    0    0  501 -0.00000000000E+00 -0.00000000000E+00 -0.10883482968E+03  0.10883482971E+03  0.25500000000E-02 0. -1.
    5000001    1    1    2    0    0  0.12144124702E+03 -0.41004578847E+02  0.19386242517E+03  0.24482849478E+03  0.77000000000E+02 0.  0.
   -5000001    1    1    2    0    0 -0.12144124702E+03  0.41004578847E+02 -0.16291595435E+02  0.15041199436E+03  0.77000000000E+02 0.  0.
<mgrwt>
<rscale>  0 0.35310571E+03</rscale>
<asrwt>0</asrwt>
<pdfrwt beam="1">  1        2 0.44062409E-01 0.35310571E+03</pdfrwt>
<pdfrwt beam="2">  1       -2 0.16743820E-01 0.35310571E+03</pdfrwt>
<totfact> 0.32860077E+03</totfact>
</mgrwt>
</event>
<event>
 4    1  0.6207184E-004  0.2405921E+03  0.7818608E-02  0.1119399E+00
         -2   -1    0    0    0  501 -0.00000000000E+00  0.00000000000E+00  0.72564928115E+01  0.72564932595E+01  0.25500000000E-02 0. -1.
          2   -1    0    0  501    0  0.00000000000E+00 -0.00000000000E+00 -0.19942334988E+04  0.19942334988E+04  0.25500000000E-02 0.  1.
    5000001    1    1    2    0    0 -0.71108888025E+02  0.58615704411E+02 -0.10522343967E+04  0.10590649179E+04  0.77000000000E+02 0.  0.
   -5000001    1    1    2    0    0  0.71108888025E+02 -0.58615704411E+02 -0.93474260929E+03  0.94242507414E+03  0.77000000000E+02 0.  0.
<mgrwt>
<rscale>  0 0.24059212E+03</rscale>
<asrwt>0</asrwt>
<pdfrwt beam="1">  1        2 0.30680472E+00 0.24059212E+03</pdfrwt>
<pdfrwt beam="2">  1       -2 0.11163851E-02 0.24059212E+03</pdfrwt>
<totfact> 0.13544505E+04</totfact>
</mgrwt>
</event>
<event>
 4    1  0.6207184E-004  0.2442132E+03  0.7818608E-02  0.1117018E+00
          2   -1    0    0  501    0  0.00000000000E+00  0.00000000000E+00  0.22908394676E+04  0.22908394676E+04  0.25500000000E-02 0.  1.
         -2   -1    0    0    0  501 -0.00000000000E+00 -0.00000000000E+00 -0.65085392418E+01  0.65085397413E+01  0.25500000000E-02 0. -1.
    5000001    1    1    2    0    0 -0.56780720574E+02 -0.75719118252E+02  0.10964811743E+04  0.11032485670E+04  0.77000000000E+02 0.  0.
   -5000001    1    1    2    0    0  0.56780720574E+02  0.75719118252E+02  0.11878497541E+04  0.11940994403E+04  0.77000000000E+02 0.  0.
<mgrwt>
<rscale>  0 0.24421318E+03</rscale>
<asrwt>0</asrwt>
<pdfrwt beam="1">  1        2 0.35243761E+00 0.24421318E+03</pdfrwt>
<pdfrwt beam="2">  1       -2 0.10013116E-02 0.24421318E+03</pdfrwt>
<totfact> 0.11061478E+04</totfact>
</mgrwt>
</event>
<event>
 4    1  0.6207184E-004  0.2686105E+03  0.7818608E-02  0.1102077E+00
         -2   -1    0    0    0  501 -0.00000000000E+00  0.00000000000E+00  0.49298616552E+02  0.49298616618E+02  0.25500000000E-02 0. -1.
          2   -1    0    0  501    0  0.00000000000E+00 -0.00000000000E+00 -0.36589067167E+03  0.36589067168E+03  0.25500000000E-02 0.  1.
    5000001    1    1    2    0    0 -0.74398924966E+02  0.49480506620E+02 -0.25757454120E+03  0.28329695523E+03  0.77000000000E+02 0.  0.
   -5000001    1    1    2    0    0  0.74398924966E+02 -0.49480506620E+02 -0.59017513922E+02  0.13189233306E+03  0.77000000000E+02 0.  0.
<mgrwt>
<rscale>  0 0.26861053E+03</rscale>
<asrwt>0</asrwt>
<pdfrwt beam="1">  1        2 0.56290871E-01 0.26861053E+03</pdfrwt>
<pdfrwt beam="2">  1       -2 0.75844028E-02 0.26861053E+03</pdfrwt>
<totfact> 0.89748655E+03</totfact>
</mgrwt>
</event>
<event>
 4    1  0.6207184E-004  0.4650925E+03  0.7818608E-02  0.1023315E+00
          2   -1    0    0  501    0  0.00000000000E+00  0.00000000000E+00  0.64228603137E+02  0.64228603188E+02  0.25500000000E-02 0.  1.
         -2   -1    0    0    0  501 -0.00000000000E+00 -0.00000000000E+00 -0.84195745021E+03  0.84195745021E+03  0.25500000000E-02 0. -1.
    5000001    1    1    2    0    0 -0.18648677427E+03  0.25670418581E+02 -0.16918320518E+03  0.26455291395E+03  0.77000000000E+02 0.  0.
   -5000001    1    1    2    0    0  0.18648677427E+03 -0.25670418581E+02 -0.60854564190E+03  0.64163313945E+03  0.77000000000E+02 0.  0.
<mgrwt>
<rscale>  0 0.46509247E+03</rscale>
<asrwt>0</asrwt>
<pdfrwt beam="1">  1        2 0.98813242E-02 0.46509247E+03</pdfrwt>
<pdfrwt beam="2">  1       -2 0.12953191E+00 0.46509247E+03</pdfrwt>
<totfact> 0.29986309E+02</totfact>
</mgrwt>
</event>
<event>
 4    1  0.6207184E-004  0.2438087E+03  0.7818608E-02  0.1117281E+00
          2   -1    0    0  501    0  0.00000000000E+00  0.00000000000E+00  0.10874067192E+04  0.10874067192E+04  0.25500000000E-02 0.  1.
         -2   -1    0    0    0  501 -0.00000000000E+00 -0.00000000000E+00 -0.13666154445E+02  0.13666154683E+02  0.25500000000E-02 0. -1.
    5000001    1    1    2    0    0  0.93836015668E+01  0.86532296775E+02  0.37058217943E+03  0.38837616054E+03  0.77000000000E+02 0.  0.
   -5000001    1    1    2    0    0 -0.93836015668E+01 -0.86532296775E+02  0.70315838531E+03  0.71269671334E+03  0.77000000000E+02 0.  0.
<mgrwt>
<rscale>  0 0.24380868E+03</rscale>
<asrwt>0</asrwt>
<pdfrwt beam="1">  1        2 0.16729339E+00 0.24380868E+03</pdfrwt>
<pdfrwt beam="2">  1       -2 0.21024847E-02 0.24380868E+03</pdfrwt>
<totfact> 0.16561995E+04</totfact>
</mgrwt>
</event>
<event>
 4    1  0.6207184E-004  0.2988231E+03  0.7818608E-02  0.1085830E+00
         -2   -1    0    0    0  501 -0.00000000000E+00  0.00000000000E+00  0.28544333985E+03  0.28544333986E+03  0.25500000000E-02 0. -1.
          2   -1    0    0  501    0  0.00000000000E+00 -0.00000000000E+00 -0.78207510489E+02  0.78207510530E+02  0.25500000000E-02 0.  1.
    5000001    1    1    2    0    0  0.58391887181E+02 -0.41183506329E+02 -0.25682660128E+02  0.10814015310E+03  0.77000000000E+02 0.  0.
   -5000001    1    1    2    0    0 -0.58391887181E+02  0.41183506329E+02  0.23291848949E+03  0.25551069729E+03  0.77000000000E+02 0.  0.
<mgrwt>
<rscale>  0 0.29882311E+03</rscale>
<asrwt>0</asrwt>
<pdfrwt beam="1">  1        2 0.12031925E-01 0.29882311E+03</pdfrwt>
<pdfrwt beam="2">  1       -2 0.43914360E-01 0.29882311E+03</pdfrwt>
<totfact> 0.25304934E+03</totfact>
</mgrwt>
</event>
<event>
 4    1  0.6207184E-004  0.2684312E+03  0.7818608E-02  0.1102181E+00
          2   -1    0    0  501    0  0.00000000000E+00  0.00000000000E+00  0.24711078552E+03  0.24711078554E+03  0.25500000000E-02 0.  1.
         -2   -1    0    0    0  501 -0.00000000000E+00 -0.00000000000E+00 -0.72897773974E+02  0.72897774018E+02  0.25500000000E-02 0. -1.
    5000001    1    1    2    0    0  0.71283611219E+02  0.63541575621E+02  0.22181816616E+02  0.12465920764E+03  0.77000000000E+02 0.  0.
   -5000001    1    1    2    0    0 -0.71283611219E+02 -0.63541575621E+02  0.15203119493E+03  0.19534935192E+03  0.77000000000E+02 0.  0.
<mgrwt>
<rscale>  0 0.26843119E+03</rscale>
<asrwt>0</asrwt>
<pdfrwt beam="1">  1        2 0.38017044E-01 0.26843119E+03</pdfrwt>
<pdfrwt beam="2">  1       -2 0.11215042E-01 0.26843119E+03</pdfrwt>
<totfact> 0.73846593E+03</totfact>
</mgrwt>
</event>
<event>
 4    1  0.6207184E-004  0.1858456E+03  0.7818608E-02  0.1162263E+00
          2   -1    0    0  501    0  0.00000000000E+00  0.00000000000E+00  0.13674419147E+02  0.13674419385E+02  0.25500000000E-02 0.  1.
         -2   -1    0    0    0  501 -0.00000000000E+00 -0.00000000000E+00 -0.63144490953E+03  0.63144490954E+03  0.25500000000E-02 0. -1.
    5000001    1    1    2    0    0 -0.16200086173E+02  0.49040985410E+02 -0.33033457815E+03  0.34309968604E+03  0.77000000000E+02 0.  0.
   -5000001    1    1    2    0    0  0.16200086173E+02 -0.49040985410E+02 -0.28743591224E+03  0.30201964288E+03  0.77000000000E+02 0.  0.
<mgrwt>
<rscale>  0 0.18584555E+03</rscale>
<asrwt>0</asrwt>
<pdfrwt beam="1">  1        2 0.21037573E-02 0.18584555E+03</pdfrwt>
<pdfrwt beam="2">  1       -2 0.97145348E-01 0.18584555E+03</pdfrwt>
<totfact> 0.45533296E+03</totfact>
</mgrwt>
</event>
<event>
 4    1  0.6207184E-004  0.2768793E+03  0.7818608E-02  0.1097406E+00
         -2   -1    0    0    0  501 -0.00000000000E+00  0.00000000000E+00  0.51269963693E+01  0.51269970034E+01  0.25500000000E-02 0. -1.
          2   -1    0    0  501    0  0.00000000000E+00 -0.00000000000E+00 -0.37381598911E+04  0.37381598911E+04  0.25500000000E-02 0.  1.
    5000001    1    1    2    0    0 -0.86480695717E+01  0.10697836662E+03 -0.24267834195E+04  0.24303756757E+04  0.77000000000E+02 0.  0.
   -5000001    1    1    2    0    0  0.86480695717E+01 -0.10697836662E+03 -0.13062494752E+04  0.13129112124E+04  0.77000000000E+02 0.  0.
<mgrwt>
<rscale>  0 0.27687928E+03</rscale>
<asrwt>0</asrwt>
<pdfrwt beam="1">  1        2 0.57509934E+00 0.27687928E+03</pdfrwt>
<pdfrwt beam="2">  1       -2 0.78877171E-03 0.27687928E+03</pdfrwt>
<totfact> 0.20959343E+03</totfact>
</mgrwt>
</event>
<event>
 4    1  0.6207184E-004  0.4936579E+03  0.7818608E-02  0.1015448E+00
         -2   -1    0    0    0  501 -0.00000000000E+00  0.00000000000E+00  0.16562531986E+02  0.16562532182E+02  0.25500000000E-02 0. -1.
          2   -1    0    0  501    0  0.00000000000E+00 -0.00000000000E+00 -0.36784552756E+04  0.36784552756E+04  0.25500000000E-02 0.  1.
    5000001    1    1    2    0    0  0.17428239539E+03  0.68029042940E+02 -0.28893026963E+04  0.28963772846E+04  0.77000000000E+02 0.  0.
   -5000001    1    1    2    0    0 -0.17428239539E+03 -0.68029042940E+02 -0.77259004730E+03  0.79864052315E+03  0.77000000000E+02 0.  0.
<mgrwt>
<rscale>  0 0.49365791E+03</rscale>
<asrwt>0</asrwt>
<pdfrwt beam="1">  1        2 0.56591555E+00 0.49365791E+03</pdfrwt>
<pdfrwt beam="2">  1       -2 0.25480848E-02 0.49365791E+03</pdfrwt>
<totfact> 0.39505481E+02</totfact>
</mgrwt>
</event>
<event>
 4    1  0.6207184E-004  0.2837260E+03  0.7818608E-02  0.1093671E+00
         -2   -1    0    0    0  501 -0.00000000000E+00  0.00000000000E+00  0.13674992912E+03  0.13674992915E+03  0.25500000000E-02 0. -1.
          2   -1    0    0  501    0  0.00000000000E+00 -0.00000000000E+00 -0.14716725460E+03  0.14716725462E+03  0.25500000000E-02 0.  1.
    5000001    1    1    2    0    0  0.10301147834E+03  0.21496858127E+02  0.50709506105E+02  0.13990687470E+03  0.77000000000E+02 0.  0.
   -5000001    1    1    2    0    0 -0.10301147834E+03 -0.21496858127E+02 -0.61126831580E+02  0.14401030907E+03  0.77000000000E+02 0.  0.
<mgrwt>
<rscale>  0 0.28372601E+03</rscale>
<asrwt>0</asrwt>
<pdfrwt beam="1">  1        2 0.22641116E-01 0.28372601E+03</pdfrwt>
<pdfrwt beam="2">  1       -2 0.21038451E-01 0.28372601E+03</pdfrwt>
<totfact> 0.46129127E+03</totfact>
</mgrwt>
</event>
<event>
 4    1  0.6207184E-004  0.1958329E+03  0.7818608E-02  0.1153303E+00
          2   -1    0    0  501    0  0.00000000000E+00  0.00000000000E+00  0.13778442811E+04  0.13778442811E+04  0.25500000000E-02 0.  1.
         -2   -1    0    0    0  501 -0.00000000000E+00 -0.00000000000E+00 -0.69584290245E+01  0.69584294917E+01  0.25500000000E-02 0. -1.
    5000001    1    1    2    0    0  0.26515227621E+02  0.53009878817E+02  0.60013789641E+03  0.60795361604E+03  0.77000000000E+02 0.  0.
   -5000001    1    1    2    0    0 -0.26515227621E+02 -0.53009878817E+02  0.77074795568E+03  0.77684909457E+03  0.77000000000E+02 0.  0.
<mgrwt>
<rscale>  0 0.19583291E+03</rscale>
<asrwt>0</asrwt>
<pdfrwt beam="1">  1        2 0.21197613E+00 0.19583291E+03</pdfrwt>
<pdfrwt beam="2">  1       -2 0.10705272E-02 0.19583291E+03</pdfrwt>
<totfact> 0.30079966E+04</totfact>
</mgrwt>
</event>
<event>
 4    1  0.6207184E-004  0.3034676E+03  0.7818608E-02  0.1083520E+00
         -2   -1    0    0    0  501 -0.00000000000E+00  0.00000000000E+00  0.19797945701E+03  0.19797945702E+03  0.25500000000E-02 0. -1.
          2   -1    0    0  501    0  0.00000000000E+00 -0.00000000000E+00 -0.11629057268E+03  0.11629057271E+03  0.25500000000E-02 0.  1.
    5000001    1    1    2    0    0  0.56052563393E+02  0.11787136793E+03  0.48771676061E+02  0.15919555781E+03  0.77000000000E+02 0.  0.
   -5000001    1    1    2    0    0 -0.56052563393E+02 -0.11787136793E+03  0.32917208263E+02  0.15507447192E+03  0.77000000000E+02 0.  0.
<mgrwt>
<rscale>  0 0.30346759E+03</rscale>
<asrwt>0</asrwt>
<pdfrwt beam="1">  1        2 0.17890857E-01 0.30346759E+03</pdfrwt>
<pdfrwt beam="2">  1       -2 0.30458378E-01 0.30346759E+03</pdfrwt>
<totfact> 0.31430243E+03</totfact>
</mgrwt>
</event>
<event>
 4    1  0.6207184E-004  0.2491427E+03  0.7818608E-02  0.1113848E+00
         -2   -1    0    0    0  501 -0.00000000000E+00  0.00000000000E+00  0.16782044516E+02  0.16782044709E+02  0.25500000000E-02 0. -1.
          2   -1    0    0  501    0  0.00000000000E+00 -0.00000000000E+00 -0.92467983996E+03  0.92467983997E+03  0.25500000000E-02 0.  1.
    5000001    1    1    2    0    0  0.62087090475E+02  0.65233819526E+02 -0.59926157686E+03  0.61086307427E+03  0.77000000000E+02 0.  0.
   -5000001    1    1    2    0    0 -0.62087090475E+02 -0.65233819526E+02 -0.30863621859E+03  0.33059881040E+03  0.77000000000E+02 0.  0.
<mgrwt>
<rscale>  0 0.24914268E+03</rscale>
<asrwt>0</asrwt>
<pdfrwt beam="1">  1        2 0.14225840E+00 0.24914268E+03</pdfrwt>
<pdfrwt beam="2">  1       -2 0.25818537E-02 0.24914268E+03</pdfrwt>
<totfact> 0.15389356E+04</totfact>
</mgrwt>
</event>
<event>
 4    1  0.6207184E-004  0.1847928E+03  0.7818608E-02  0.1163243E+00
         -2   -1    0    0    0  501 -0.00000000000E+00  0.00000000000E+00  0.24884341156E+01  0.24884354221E+01  0.25500000000E-02 0. -1.
          2   -1    0    0  501    0  0.00000000000E+00 -0.00000000000E+00 -0.34307095565E+04  0.34307095565E+04  0.25500000000E-02 0.  1.
    5000001    1    1    2    0    0  0.37332790959E+01 -0.48030392566E+02 -0.13992364647E+04  0.14021813506E+04  0.77000000000E+02 0.  0.
   -5000001    1    1    2    0    0 -0.37332790959E+01  0.48030392566E+02 -0.20289846577E+04  0.20310166413E+04  0.77000000000E+02 0.  0.
<mgrwt>
<rscale>  0 0.18479282E+03</rscale>
<asrwt>0</asrwt>
<pdfrwt beam="1">  1        2 0.52779769E+00 0.18479282E+03</pdfrwt>
<pdfrwt beam="2">  1       -2 0.38283886E-03 0.18479282E+03</pdfrwt>
<totfact> 0.96198099E+03</totfact>
</mgrwt>
</event>
<event>
 4    1  0.6207184E-004  0.3259447E+03  0.7818608E-02  0.1072945E+00
         -2   -1    0    0    0  501 -0.00000000000E+00  0.00000000000E+00  0.58528997666E+02  0.58528997722E+02  0.25500000000E-02 0. -1.
          2   -1    0    0  501    0  0.00000000000E+00 -0.00000000000E+00 -0.45379198390E+03  0.45379198391E+03  0.25500000000E-02 0.  1.
    5000001    1    1    2    0    0 -0.78362324291E+02  0.94082963821E+02 -0.79602440443E+02  0.16509938363E+03  0.77000000000E+02 0.  0.
   -5000001    1    1    2    0    0  0.78362324291E+02 -0.94082963821E+02 -0.31566054579E+03  0.34722159800E+03  0.77000000000E+02 0.  0.
<mgrwt>
<rscale>  0 0.32594472E+03</rscale>
<asrwt>0</asrwt>
<pdfrwt beam="1">  1        2 0.69814149E-01 0.32594472E+03</pdfrwt>
<pdfrwt beam="2">  1       -2 0.90044615E-02 0.32594472E+03</pdfrwt>
<totfact> 0.54528129E+03</totfact>
</mgrwt>
</event>
<event>
 4    1  0.6207184E-004  0.2176351E+03  0.7818608E-02  0.1135659E+00
         -2   -1    0    0    0  501 -0.00000000000E+00  0.00000000000E+00  0.41864380436E+03  0.41864380437E+03  0.25500000000E-02 0. -1.
          2   -1    0    0  501    0  0.00000000000E+00 -0.00000000000E+00 -0.28284804997E+02  0.28284805112E+02  0.25500000000E-02 0.  1.
    5000001    1    1    2    0    0  0.36857469782E+02 -0.34839545418E+02  0.31386069324E+03  0.32712352677E+03  0.77000000000E+02 0.  0.
   -5000001    1    1    2    0    0 -0.36857469782E+02  0.34839545418E+02  0.76498306121E+02  0.11980508271E+03  0.77000000000E+02 0.  0.
<mgrwt>
<rscale>  0 0.21763509E+03</rscale>
<asrwt>0</asrwt>
<pdfrwt beam="1">  1        2 0.43515088E-02 0.21763509E+03</pdfrwt>
<pdfrwt beam="2">  1       -2 0.64406734E-01 0.21763509E+03</pdfrwt>
<totfact> 0.42385283E+03</totfact>
</mgrwt>
</event>
<event>
 4    1  0.6207184E-004  0.2589909E+03  0.7818608E-02  0.1107751E+00
          2   -1    0    0  501    0  0.00000000000E+00  0.00000000000E+00  0.53690199994E+03  0.53690199994E+03  0.25500000000E-02 0.  1.
         -2   -1    0    0    0  501 -0.00000000000E+00 -0.00000000000E+00 -0.31233027903E+02  0.31233028007E+02  0.25500000000E-02 0. -1.
    5000001    1    1    2    0    0 -0.10378454456E+03  0.55073041616E+01  0.23922094255E+03  0.27195077026E+03  0.77000000000E+02 0.  0.
   -5000001    1    1    2    0    0  0.10378454456E+03 -0.55073041616E+01  0.26644802949E+03  0.29618425769E+03  0.77000000000E+02 0.  0.
<mgrwt>
<rscale>  0 0.25899093E+03</rscale>
<asrwt>0</asrwt>
<pdfrwt beam="1">  1        2 0.82600300E-01 0.25899093E+03</pdfrwt>
<pdfrwt beam="2">  1       -2 0.48050817E-02 0.25899093E+03</pdfrwt>
<totfact> 0.11836128E+04</totfact>
</mgrwt>
</event>
<event>
 4    1  0.6207184E-004  0.2707828E+03  0.7818608E-02  0.1100832E+00
          2   -1    0    0  501    0  0.00000000000E+00  0.00000000000E+00  0.54306362888E+02  0.54306362948E+02  0.25500000000E-02 0.  1.
         -2   -1    0    0    0  501 -0.00000000000E+00 -0.00000000000E+00 -0.33754473082E+03  0.33754473083E+03  0.25500000000E-02 0. -1.
    5000001    1    1    2    0    0 -0.10006695838E+03 -0.62553627904E+01 -0.21175976643E+03  0.24662466300E+03  0.77000000000E+02 0.  0.
   -5000001    1    1    2    0    0  0.10006695838E+03  0.62553627904E+01 -0.71478601498E+02  0.14522643077E+03  0.77000000000E+02 0.  0.
<mgrwt>
<rscale>  0 0.27078277E+03</rscale>
<asrwt>0</asrwt>
<pdfrwt beam="1">  1        2 0.83548253E-02 0.27078277E+03</pdfrwt>
<pdfrwt beam="2">  1       -2 0.51929957E-01 0.27078277E+03</pdfrwt>
<totfact> 0.28505086E+03</totfact>
</mgrwt>
</event>
<event>
 4    1  0.6207184E-004  0.2556374E+03  0.7818608E-02  0.1109793E+00
         -2   -1    0    0    0  501 -0.00000000000E+00  0.00000000000E+00  0.15578535988E+03  0.15578535990E+03  0.25500000000E-02 0. -1.
          2   -1    0    0  501    0  0.00000000000E+00 -0.00000000000E+00 -0.10487262205E+03  0.10487262208E+03  0.25500000000E-02 0.  1.
    5000001    1    1    2    0    0  0.91371834927E+02  0.37829400926E+02 -0.11084246476E+00  0.12533510314E+03  0.77000000000E+02 0.  0.
   -5000001    1    1    2    0    0 -0.91371834927E+02 -0.37829400926E+02  0.51023580297E+02  0.13532287884E+03  0.77000000000E+02 0.  0.
<mgrwt>
<rscale>  0 0.25563739E+03</rscale>
<asrwt>0</asrwt>
<pdfrwt beam="1">  1        2 0.16134250E-01 0.25563739E+03</pdfrwt>
<pdfrwt beam="2">  1       -2 0.23966978E-01 0.25563739E+03</pdfrwt>
<totfact> 0.54131622E+03</totfact>
</mgrwt>
</event>
<event>
 4    1  0.6207184E-004  0.2576018E+03  0.7818608E-02  0.1108593E+00
         -2   -1    0    0    0  501 -0.00000000000E+00  0.00000000000E+00  0.89816319114E+02  0.89816319150E+02  0.25500000000E-02 0. -1.
          2   -1    0    0  501    0  0.00000000000E+00 -0.00000000000E+00 -0.18470668172E+03  0.18470668174E+03  0.25500000000E-02 0.  1.
    5000001    1    1    2    0    0  0.72114926743E+01  0.10182772173E+03 -0.63947298714E+02  0.14296554673E+03  0.77000000000E+02 0.  0.
   -5000001    1    1    2    0    0 -0.72114926743E+01 -0.10182772173E+03 -0.30943063891E+02  0.13155745415E+03  0.77000000000E+02 0.  0.
<mgrwt>
<rscale>  0 0.25760182E+03</rscale>
<asrwt>0</asrwt>
<pdfrwt beam="1">  1        2 0.28416412E-01 0.25760182E+03</pdfrwt>
<pdfrwt beam="2">  1       -2 0.13817895E-01 0.25760182E+03</pdfrwt>
<totfact> 0.72203051E+03</totfact>
</mgrwt>
</event>
<event>
 4    1  0.6207184E-004  0.2315454E+03  0.7818608E-02  0.1125557E+00
         -2   -1    0    0    0  501 -0.00000000000E+00  0.00000000000E+00  0.12568541026E+02  0.12568541284E+02  0.25500000000E-02 0. -1.
          2   -1    0    0  501    0  0.00000000000E+00 -0.00000000000E+00 -0.10664181794E+04  0.10664181794E+04  0.25500000000E-02 0.  1.
    5000001    1    1    2    0    0 -0.39817897107E+02 -0.42589109500E+02 -0.82439604464E+03  0.83003441832E+03  0.77000000000E+02 0.  0.
   -5000001    1    1    2    0    0  0.39817897107E+02  0.42589109500E+02 -0.22945359378E+03  0.24895230241E+03  0.77000000000E+02 0.  0.
<mgrwt>
<rscale>  0 0.23154542E+03</rscale>
<asrwt>0</asrwt>
<pdfrwt beam="1">  1        2 0.16406426E+00 0.23154542E+03</pdfrwt>
<pdfrwt beam="2">  1       -2 0.19336226E-02 0.23154542E+03</pdfrwt>
<totfact> 0.19223788E+04</totfact>
</mgrwt>
</event>
<event>
 4    1  0.6207184E-004  0.1854934E+03  0.7818608E-02  0.1162590E+00
         -2   -1    0    0    0  501 -0.00000000000E+00  0.00000000000E+00  0.22933172736E+02  0.22933172878E+02  0.25500000000E-02 0. -1.
          2   -1    0    0  501    0  0.00000000000E+00 -0.00000000000E+00 -0.37508765734E+03  0.37508765735E+03  0.25500000000E-02 0.  1.
    5000001    1    1    2    0    0  0.58157662253E+01 -0.49635012874E+02 -0.14765184542E+03  0.17386064850E+03  0.77000000000E+02 0.  0.
   -5000001    1    1    2    0    0 -0.58157662253E+01  0.49635012874E+02 -0.20450263918E+03  0.22416018173E+03  0.77000000000E+02 0.  0.
<mgrwt>
<rscale>  0 0.18549340E+03</rscale>
<asrwt>0</asrwt>
<pdfrwt beam="1">  1        2 0.57705789E-01 0.18549340E+03</pdfrwt>
<pdfrwt beam="2">  1       -2 0.35281807E-02 0.18549340E+03</pdfrwt>
<totfact> 0.27309837E+04</totfact>
</mgrwt>
</event>
<event>
 4    1  0.6207184E-004  0.1725398E+03  0.7818608E-02  0.1175225E+00
         -2   -1    0    0    0  501 -0.00000000000E+00  0.00000000000E+00  0.41247324669E+02  0.41247324747E+02  0.25500000000E-02 0. -1.
          2   -1    0    0  501    0  0.00000000000E+00 -0.00000000000E+00 -0.18043577424E+03  0.18043577426E+03  0.25500000000E-02 0.  1.
    5000001    1    1    2    0    0 -0.30995615918E+02  0.21505966482E+02 -0.57387851719E+02  0.10317751851E+03  0.77000000000E+02 0.  0.
   -5000001    1    1    2    0    0  0.30995615918E+02 -0.21505966482E+02 -0.81800597856E+02  0.11850558050E+03  0.77000000000E+02 0.  0.
<mgrwt>
<rscale>  0 0.17253977E+03</rscale>
<asrwt>0</asrwt>
<pdfrwt beam="1">  1        2 0.27759349E-01 0.17253977E+03</pdfrwt>
<pdfrwt beam="2">  1       -2 0.63457424E-02 0.17253977E+03</pdfrwt>
<totfact> 0.24623017E+04</totfact>
</mgrwt>
</event>
<event>
 4    1  0.6207184E-004  0.2163218E+03  0.7818608E-02  0.1136655E+00
          2   -1    0    0  501    0  0.00000000000E+00  0.00000000000E+00  0.20733358443E+03  0.20733358444E+03  0.25500000000E-02 0.  1.
         -2   -1    0    0    0  501 -0.00000000000E+00 -0.00000000000E+00 -0.56424893476E+02  0.56424893533E+02  0.25500000000E-02 0. -1.
    5000001    1    1    2    0    0  0.26775453454E+01 -0.73768255904E+02  0.53614092932E+02  0.11938339830E+03  0.77000000000E+02 0.  0.
   -5000001    1    1    2    0    0 -0.26775453454E+01  0.73768255904E+02  0.97294598019E+02  0.14437507968E+03  0.77000000000E+02 0.  0.
<mgrwt>
<rscale>  0 0.21632176E+03</rscale>
<asrwt>0</asrwt>
<pdfrwt beam="1">  1        2 0.31897474E-01 0.21632176E+03</pdfrwt>
<pdfrwt beam="2">  1       -2 0.86807529E-02 0.21632176E+03</pdfrwt>
<totfact> 0.13258118E+04</totfact>
</mgrwt>
</event>
<event>
 4    1  0.6207184E-004  0.3417657E+03  0.7818608E-02  0.1066046E+00
         -2   -1    0    0    0  501 -0.00000000000E+00  0.00000000000E+00  0.12774636895E+02  0.12774637149E+02  0.25500000000E-02 0. -1.
          2   -1    0    0  501    0  0.00000000000E+00 -0.00000000000E+00 -0.22858530211E+04  0.22858530211E+04  0.25500000000E-02 0.  1.
    5000001    1    1    2    0    0  0.96241193017E+02  0.11814320015E+03 -0.11849269951E+04  0.11971638011E+04  0.77000000000E+02 0.  0.
   -5000001    1    1    2    0    0 -0.96241193017E+02 -0.11814320015E+03 -0.10881513891E+04  0.11014638571E+04  0.77000000000E+02 0.  0.
<mgrwt>
<rscale>  0 0.34176567E+03</rscale>
<asrwt>0</asrwt>
<pdfrwt beam="1">  1        2 0.35166937E+00 0.34176567E+03</pdfrwt>
<pdfrwt beam="2">  1       -2 0.19653306E-02 0.34176567E+03</pdfrwt>
<totfact> 0.41463098E+03</totfact>
</mgrwt>
</event>
<event>
 4    1  0.6207184E-004  0.2272229E+03  0.7818608E-02  0.1128610E+00
         -2   -1    0    0    0  501 -0.00000000000E+00  0.00000000000E+00  0.19585173130E+02  0.19585173296E+02  0.25500000000E-02 0. -1.
          2   -1    0    0  501    0  0.00000000000E+00 -0.00000000000E+00 -0.65904760454E+03  0.65904760454E+03  0.25500000000E-02 0.  1.
    5000001    1    1    2    0    0 -0.33785964446E+02  0.66863431308E+02 -0.20933251083E+03  0.23528984239E+03  0.77000000000E+02 0.  0.
   -5000001    1    1    2    0    0  0.33785964446E+02 -0.66863431308E+02 -0.43012992057E+03  0.44334293545E+03  0.77000000000E+02 0.  0.
<mgrwt>
<rscale>  0 0.22722290E+03</rscale>
<asrwt>0</asrwt>
<pdfrwt beam="1">  1        2 0.10139192E+00 0.22722290E+03</pdfrwt>
<pdfrwt beam="2">  1       -2 0.30131041E-02 0.22722290E+03</pdfrwt>
<totfact> 0.18670318E+04</totfact>
</mgrwt>
</event>
<event>
 4    1  0.6207184E-004  0.3601565E+03  0.7818608E-02  0.1058522E+00
          2   -1    0    0  501    0  0.00000000000E+00  0.00000000000E+00  0.17545758072E+04  0.17545758072E+04  0.25500000000E-02 0.  1.
         -2   -1    0    0    0  501 -0.00000000000E+00 -0.00000000000E+00 -0.18482064432E+02  0.18482064608E+02  0.25500000000E-02 0. -1.
    5000001    1    1    2    0    0 -0.14652928248E+03 -0.37649777674E+02  0.11638727364E+04  0.11761875203E+04  0.77000000000E+02 0.  0.
   -5000001    1    1    2    0    0  0.14652928248E+03  0.37649777674E+02  0.57222100644E+03  0.59687035158E+03  0.77000000000E+02 0.  0.
<mgrwt>
<rscale>  0 0.36015654E+03</rscale>
<asrwt>0</asrwt>
<pdfrwt beam="1">  1        2 0.26993485E+00 0.36015654E+03</pdfrwt>
<pdfrwt beam="2">  1       -2 0.28433934E-02 0.36015654E+03</pdfrwt>
<totfact> 0.45897145E+03</totfact>
</mgrwt>
</event>
<event>
 4    1  0.6207184E-004  0.2843459E+03  0.7818608E-02  0.1093339E+00
          2   -1    0    0  501    0  0.00000000000E+00  0.00000000000E+00  0.12744820810E+03  0.12744820813E+03  0.25500000000E-02 0.  1.
         -2   -1    0    0    0  501 -0.00000000000E+00 -0.00000000000E+00 -0.15859889348E+03  0.15859889350E+03  0.25500000000E-02 0. -1.
    5000001    1    1    2    0    0  0.10797848511E+03  0.34359669886E+02  0.22654717199E+02  0.13886027644E+03  0.77000000000E+02 0.  0.
   -5000001    1    1    2    0    0 -0.10797848511E+03 -0.34359669886E+02 -0.53805402574E+02  0.14718682518E+03  0.77000000000E+02 0.  0.
<mgrwt>
<rscale>  0 0.28434588E+03</rscale>
<asrwt>0</asrwt>
<pdfrwt beam="1">  1        2 0.19607417E-01 0.28434588E+03</pdfrwt>
<pdfrwt beam="2">  1       -2 0.24399830E-01 0.28434588E+03</pdfrwt>
<totfact> 0.41986570E+03</totfact>
</mgrwt>
</event>
<event>
 4    1  0.6207184E-004  0.2216744E+03  0.7818608E-02  0.1132641E+00
         -2   -1    0    0    0  501 -0.00000000000E+00  0.00000000000E+00  0.43337265307E+02  0.43337265382E+02  0.25500000000E-02 0. -1.
          2   -1    0    0  501    0  0.00000000000E+00 -0.00000000000E+00 -0.28347170230E+03  0.28347170231E+03  0.25500000000E-02 0.  1.
    5000001    1    1    2    0    0  0.62935357987E+02 -0.46823322288E+02 -0.14105198167E+03  0.17882378010E+03  0.77000000000E+02 0.  0.
   -5000001    1    1    2    0    0 -0.62935357987E+02  0.46823322288E+02 -0.99082455320E+02  0.14798518759E+03  0.77000000000E+02 0.  0.
<mgrwt>
<rscale>  0 0.22167443E+03</rscale>
<asrwt>0</asrwt>
<pdfrwt beam="1">  1        2 0.43611030E-01 0.22167443E+03</pdfrwt>
<pdfrwt beam="2">  1       -2 0.66672718E-02 0.22167443E+03</pdfrwt>
<totfact> 0.14273646E+04</totfact>
</mgrwt>
</event>
<event>
 4    1  0.6207184E-004  0.2076352E+03  0.7818608E-02  0.1143452E+00
          2   -1    0    0  501    0  0.00000000000E+00  0.00000000000E+00  0.56527837993E+03  0.56527837994E+03  0.25500000000E-02 0.  1.
         -2   -1    0    0    0  501 -0.00000000000E+00 -0.00000000000E+00 -0.19066887380E+02  0.19066887550E+02  0.25500000000E-02 0. -1.
    5000001    1    1    2    0    0 -0.57864443387E+02 -0.26343109232E+02  0.35304568001E+03  0.36689576910E+03  0.77000000000E+02 0.  0.
   -5000001    1    1    2    0    0  0.57864443387E+02  0.26343109232E+02  0.19316581254E+03  0.21744949839E+03  0.77000000000E+02 0.  0.
<mgrwt>
<rscale>  0 0.20763525E+03</rscale>
<asrwt>0</asrwt>
<pdfrwt beam="1">  1        2 0.86965911E-01 0.20763525E+03</pdfrwt>
<pdfrwt beam="2">  1       -2 0.29333671E-02 0.20763525E+03</pdfrwt>
<totfact> 0.23080213E+04</totfact>
</mgrwt>
</event>
<event>
 4    1  0.6207184E-004  0.1824847E+03  0.7818608E-02  0.1165420E+00
          2   -1    0    0  501    0  0.00000000000E+00  0.00000000000E+00  0.14788159352E+03  0.14788159355E+03  0.25500000000E-02 0.  1.
         -2   -1    0    0    0  501 -0.00000000000E+00 -0.00000000000E+00 -0.56296159570E+02  0.56296159628E+02  0.25500000000E-02 0. -1.
    5000001    1    1    2    0    0  0.13582708881E+02 -0.45542159306E+02  0.32668556506E+02  0.96201937813E+02  0.77000000000E+02 0.  0.
   -5000001    1    1    2    0    0 -0.13582708881E+02  0.45542159306E+02  0.58916877447E+02  0.10797581536E+03  0.77000000000E+02 0.  0.
<mgrwt>
<rscale>  0 0.18248469E+03</rscale>
<asrwt>0</asrwt>
<pdfrwt beam="1">  1        2 0.22751014E-01 0.18248469E+03</pdfrwt>
<pdfrwt beam="2">  1       -2 0.86609477E-02 0.18248469E+03</pdfrwt>
<totfact> 0.19082509E+04</totfact>
</mgrwt>
</event>
<event>
 4    1  0.6207184E-004  0.3113112E+03  0.7818608E-02  0.1079719E+00
          2   -1    0    0  501    0  0.00000000000E+00  0.00000000000E+00  0.15497532168E+03  0.15497532171E+03  0.25500000000E-02 0.  1.
         -2   -1    0    0    0  501 -0.00000000000E+00 -0.00000000000E+00 -0.15633890948E+03  0.15633890950E+03  0.25500000000E-02 0. -1.
    5000001    1    1    2    0    0 -0.10336485803E+03 -0.61883090549E+02 -0.62211743175E+02  0.15592662300E+03  0.77000000000E+02 0.  0.
   -5000001    1    1    2    0    0  0.10336485803E+03  0.61883090549E+02  0.60848155383E+02  0.15538760821E+03  0.77000000000E+02 0.  0.
<mgrwt>
<rscale>  0 0.31131124E+03</rscale>
<asrwt>0</asrwt>
<pdfrwt beam="1">  1        2 0.23842357E-01 0.31131124E+03</pdfrwt>
<pdfrwt beam="2">  1       -2 0.24052140E-01 0.31131124E+03</pdfrwt>
<totfact> 0.34555112E+03</totfact>
</mgrwt>
</event>
<event>
 4    1  0.6207184E-004  0.4821833E+03  0.7818608E-02  0.1018537E+00
         -2   -1    0    0    0  501 -0.00000000000E+00  0.00000000000E+00  0.38873322250E+02  0.38873322334E+02  0.25500000000E-02 0. -1.
          2   -1    0    0  501    0  0.00000000000E+00 -0.00000000000E+00 -0.14952463484E+04  0.14952463484E+04  0.25500000000E-02 0.  1.
    5000001    1    1    2    0    0  0.81895578913E+02 -0.15236723380E+03 -0.12030202820E+04  0.12178298151E+04  0.77000000000E+02 0.  0.
   -5000001    1    1    2    0    0 -0.81895578913E+02  0.15236723380E+03 -0.25335274419E+03  0.31628985562E+03  0.77000000000E+02 0.  0.
<mgrwt>
<rscale>  0 0.48218334E+03</rscale>
<asrwt>0</asrwt>
<pdfrwt beam="1">  1        2 0.23003786E+00 0.48218334E+03</pdfrwt>
<pdfrwt beam="2">  1       -2 0.59805123E-02 0.48218334E+03</pdfrwt>
<totfact> 0.20310486E+03</totfact>
</mgrwt>
</event>
<event>
 4    1  0.6207184E-004  0.3489821E+03  0.7818608E-02  0.1063034E+00
          2   -1    0    0  501    0  0.00000000000E+00  0.00000000000E+00  0.17665948254E+03  0.17665948256E+03  0.25500000000E-02 0.  1.
         -2   -1    0    0    0  501 -0.00000000000E+00 -0.00000000000E+00 -0.17234921310E+03  0.17234921312E+03  0.25500000000E-02 0. -1.
    5000001    1    1    2    0    0 -0.37211306752E+02 -0.12437590165E+03 -0.85396254067E+02  0.17342308517E+03  0.77000000000E+02 0.  0.
   -5000001    1    1    2    0    0  0.37211306752E+02  0.12437590165E+03  0.89706523503E+02  0.17558561051E+03  0.77000000000E+02 0.  0.
<mgrwt>
<rscale>  0 0.34898208E+03</rscale>
<asrwt>0</asrwt>
<pdfrwt beam="1">  1        2 0.27178382E-01 0.34898208E+03</pdfrwt>
<pdfrwt beam="2">  1       -2 0.26515263E-01 0.34898208E+03</pdfrwt>
<totfact> 0.25156256E+03</totfact>
</mgrwt>
</event>
<event>
 4    1  0.6207184E-004  0.2048463E+03  0.7818608E-02  0.1145713E+00
         -2   -1    0    0    0  501 -0.00000000000E+00  0.00000000000E+00  0.44023382832E+01  0.44023390217E+01  0.25500000000E-02 0. -1.
          2   -1    0    0  501    0  0.00000000000E+00 -0.00000000000E+00 -0.23829392969E+04  0.23829392969E+04  0.25500000000E-02 0.  1.
    5000001    1    1    2    0    0  0.49353858990E+02 -0.46068904108E+02 -0.12106262551E+04  0.12149498248E+04  0.77000000000E+02 0.  0.
   -5000001    1    1    2    0    0 -0.49353858990E+02  0.46068904108E+02 -0.11679107035E+04  0.11723918111E+04  0.77000000000E+02 0.  0.
<mgrwt>
<rscale>  0 0.20484634E+03</rscale>
<asrwt>0</asrwt>
<pdfrwt beam="1">  1        2 0.36660502E+00 0.20484634E+03</pdfrwt>
<pdfrwt beam="2">  1       -2 0.67728477E-03 0.20484634E+03</pdfrwt>
<totfact> 0.17294727E+04</totfact>
</mgrwt>
</event>
<event>
 4    1  0.6207184E-004  0.1875015E+03  0.7818608E-02  0.1160734E+00
          2   -1    0    0  501    0  0.00000000000E+00  0.00000000000E+00  0.52484433662E+02  0.52484433724E+02  0.25500000000E-02 0.  1.
         -2   -1    0    0    0  501 -0.00000000000E+00 -0.00000000000E+00 -0.16746306927E+03  0.16746306929E+03  0.25500000000E-02 0. -1.
    5000001    1    1    2    0    0  0.40176557300E+02 -0.94364000003E+01 -0.97390107726E+02  0.13083208507E+03  0.77000000000E+02 0.  0.
   -5000001    1    1    2    0    0 -0.40176557300E+02  0.94364000003E+01 -0.17588527879E+02  0.89115417939E+02  0.77000000000E+02 0.  0.
<mgrwt>
<rscale>  0 0.18750151E+03</rscale>
<asrwt>0</asrwt>
<pdfrwt beam="1">  1        2 0.80745283E-02 0.18750151E+03</pdfrwt>
<pdfrwt beam="2">  1       -2 0.25763549E-01 0.18750151E+03</pdfrwt>
<totfact> 0.10896318E+04</totfact>
</mgrwt>
</event>
<event>
 4    1  0.6207184E-004  0.1831011E+03  0.7818608E-02  0.1164835E+00
          2   -1    0    0  501    0  0.00000000000E+00  0.00000000000E+00  0.23765472447E+02  0.23765472584E+02  0.25500000000E-02 0.  1.
         -2   -1    0    0    0  501 -0.00000000000E+00 -0.00000000000E+00 -0.35267565555E+03  0.35267565555E+03  0.25500000000E-02 0. -1.
    5000001    1    1    2    0    0 -0.47268002863E+02 -0.14381447935E+02 -0.15750941082E+03  0.18215187245E+03  0.77000000000E+02 0.  0.
   -5000001    1    1    2    0    0  0.47268002863E+02  0.14381447935E+02 -0.17140077228E+03  0.19428925569E+03  0.77000000000E+02 0.  0.
<mgrwt>
<rscale>  0 0.18310110E+03</rscale>
<asrwt>0</asrwt>
<pdfrwt beam="1">  1        2 0.36562268E-02 0.18310110E+03</pdfrwt>
<pdfrwt beam="2">  1       -2 0.54257790E-01 0.18310110E+03</pdfrwt>
<totfact> 0.75247548E+03</totfact>
</mgrwt>
</event>
<event>
 4    1  0.6207184E-004  0.3309117E+03  0.7818608E-02  0.1070734E+00
         -2   -1    0    0    0  501 -0.00000000000E+00  0.00000000000E+00  0.26756033847E+02  0.26756033968E+02  0.25500000000E-02 0. -1.
          2   -1    0    0  501    0  0.00000000000E+00 -0.00000000000E+00 -0.10231575035E+04  0.10231575035E+04  0.25500000000E-02 0.  1.
    5000001    1    1    2    0    0  0.80399646565E+02 -0.12189333376E+03 -0.53360954478E+03  0.55856085994E+03  0.77000000000E+02 0.  0.
   -5000001    1    1    2    0    0 -0.80399646565E+02  0.12189333376E+03 -0.46279192482E+03  0.49135267748E+03  0.77000000000E+02 0.  0.
<mgrwt>
<rscale>  0 0.33091169E+03</rscale>
<asrwt>0</asrwt>
<pdfrwt beam="1">  1        2 0.15740882E+00 0.33091169E+03</pdfrwt>
<pdfrwt beam="2">  1       -2 0.41163137E-02 0.33091169E+03</pdfrwt>
<totfact> 0.67095755E+03</totfact>
</mgrwt>
</event>
<event>
 4    1  0.6207184E-004  0.2877533E+03  0.7818608E-02  0.1091528E+00
          2   -1    0    0  501    0  0.00000000000E+00  0.00000000000E+00  0.65878710588E+02  0.65878710638E+02  0.25500000000E-02 0.  1.
         -2   -1    0    0    0  501 -0.00000000000E+00 -0.00000000000E+00 -0.31422119307E+03  0.31422119308E+03  0.25500000000E-02 0. -1.
    5000001    1    1    2    0    0  0.10743500883E+03 -0.25481871312E+02 -0.19126424698E+03  0.23388591035E+03  0.77000000000E+02 0.  0.
   -5000001    1    1    2    0    0 -0.10743500883E+03  0.25481871312E+02 -0.57078235506E+02  0.14621399337E+03  0.77000000000E+02 0.  0.
<mgrwt>
<rscale>  0 0.28775328E+03</rscale>
<asrwt>0</asrwt>
<pdfrwt beam="1">  1        2 0.10135186E-01 0.28775328E+03</pdfrwt>
<pdfrwt beam="2">  1       -2 0.48341721E-01 0.28775328E+03</pdfrwt>
<totfact> 0.25855349E+03</totfact>
</mgrwt>
</event>
<event>
 4    1  0.6207184E-004  0.2502782E+03  0.7818608E-02  0.1113129E+00
          2   -1    0    0  501    0  0.00000000000E+00  0.00000000000E+00  0.99914531403E+03  0.99914531403E+03  0.25500000000E-02 0.  1.
         -2   -1    0    0    0  501 -0.00000000000E+00 -0.00000000000E+00 -0.15673190709E+02  0.15673190917E+02  0.25500000000E-02 0. -1.
    5000001    1    1    2    0    0 -0.85646968077E+02  0.19733601037E+02  0.31013084509E+03  0.33141357732E+03  0.77000000000E+02 0.  0.
   -5000001    1    1    2    0    0  0.85646968077E+02 -0.19733601037E+02  0.67334127823E+03  0.68340492763E+03  0.77000000000E+02 0.  0.
<mgrwt>
<rscale>  0 0.25027821E+03</rscale>
<asrwt>0</asrwt>
<pdfrwt beam="1">  1        2 0.15371465E+00 0.25027821E+03</pdfrwt>
<pdfrwt beam="2">  1       -2 0.24112603E-02 0.25027821E+03</pdfrwt>
<totfact> 0.15303909E+04</totfact>
</mgrwt>
</event>
<event>
 4    1  0.6207184E-004  0.2573778E+03  0.7818608E-02  0.1108729E+00
         -2   -1    0    0    0  501 -0.00000000000E+00  0.00000000000E+00  0.45430115281E+01  0.45430122437E+01  0.25500000000E-02 0. -1.
          2   -1    0    0  501    0  0.00000000000E+00 -0.00000000000E+00 -0.36453416703E+04  0.36453416703E+04  0.25500000000E-02 0.  1.
    5000001    1    1    2    0    0  0.58772128609E+02 -0.72128302207E+02 -0.24506465388E+04  0.24536206132E+04  0.77000000000E+02 0.  0.
   -5000001    1    1    2    0    0 -0.58772128609E+02  0.72128302207E+02 -0.11901521199E+04  0.11962640694E+04  0.77000000000E+02 0.  0.
<mgrwt>
<rscale>  0 0.25737778E+03</rscale>
<asrwt>0</asrwt>
<pdfrwt beam="1">  1        2 0.56081945E+00 0.25737778E+03</pdfrwt>
<pdfrwt beam="2">  1       -2 0.69892782E-03 0.25737778E+03</pdfrwt>
<totfact> 0.29065159E+03</totfact>
</mgrwt>
</event>
<event>
 4    1  0.6207184E-004  0.2132581E+03  0.7818608E-02  0.1139012E+00
         -2   -1    0    0    0  501 -0.00000000000E+00  0.00000000000E+00  0.31035180182E+03  0.31035180183E+03  0.25500000000E-02 0. -1.
          2   -1    0    0  501    0  0.00000000000E+00 -0.00000000000E+00 -0.36635067875E+02  0.36635067964E+02  0.25500000000E-02 0.  1.
    5000001    1    1    2    0    0 -0.68021421895E+02 -0.79391739009E+01  0.18144183893E+03  0.20866261101E+03  0.77000000000E+02 0.  0.
   -5000001    1    1    2    0    0  0.68021421895E+02  0.79391739009E+01  0.92274895018E+02  0.13832425879E+03  0.77000000000E+02 0.  0.
<mgrwt>
<rscale>  0 0.21325815E+03</rscale>
<asrwt>0</asrwt>
<pdfrwt beam="1">  1        2 0.56361640E-02 0.21325815E+03</pdfrwt>
<pdfrwt beam="2">  1       -2 0.47746433E-01 0.21325815E+03</pdfrwt>
<totfact> 0.55323646E+03</totfact>
</mgrwt>
</event>
<event>
 4    1  0.6207184E-004  0.2080784E+03  0.7818608E-02  0.1143097E+00
          2   -1    0    0  501    0  0.00000000000E+00  0.00000000000E+00  0.57969537702E+03  0.57969537703E+03  0.25500000000E-02 0.  1.
         -2   -1    0    0    0  501 -0.00000000000E+00 -0.00000000000E+00 -0.18672136106E+02  0.18672136281E+02  0.25500000000E-02 0. -1.
    5000001    1    1    2    0    0 -0.31049438276E+02 -0.61916599612E+02  0.30889479298E+03  0.32579552798E+03  0.77000000000E+02 0.  0.
   -5000001    1    1    2    0    0  0.31049438276E+02  0.61916599612E+02  0.25212844794E+03  0.27257198532E+03  0.77000000000E+02 0.  0.
<mgrwt>
<rscale>  0 0.20807836E+03</rscale>
<asrwt>0</asrwt>
<pdfrwt beam="1">  1        2 0.89183895E-01 0.20807836E+03</pdfrwt>
<pdfrwt beam="2">  1       -2 0.28726366E-02 0.20807836E+03</pdfrwt>
<totfact> 0.23135240E+04</totfact>
</mgrwt>
</event>
<event>
 4    1  0.6207184E-004  0.5456145E+03  0.7818608E-02  0.1002514E+00
          2   -1    0    0  501    0  0.00000000000E+00  0.00000000000E+00  0.10692455228E+04  0.10692455228E+04  0.25500000000E-02 0.  1.
         -2   -1    0    0    0  501 -0.00000000000E+00 -0.00000000000E+00 -0.69604028148E+02  0.69604028195E+02  0.25500000000E-02 0. -1.
    5000001    1    1    2    0    0  0.17865399071E+03  0.17433197682E+03  0.66398636835E+03  0.71352349919E+03  0.77000000000E+02 0.  0.
   -5000001    1    1    2    0    0 -0.17865399071E+03 -0.17433197682E+03  0.33565512629E+03  0.42532605180E+03  0.77000000000E+02 0.  0.
<mgrwt>
<rscale>  0 0.54561450E+03</rscale>
<asrwt>0</asrwt>
<pdfrwt beam="1">  1        2 0.16449930E+00 0.54561450E+03</pdfrwt>
<pdfrwt beam="2">  1       -2 0.10708313E-01 0.54561450E+03</pdfrwt>
<totfact> 0.14100164E+03</totfact>
</mgrwt>
</event>
<event>
 4    1  0.6207184E-004  0.1852489E+03  0.7818608E-02  0.1162818E+00
          2   -1    0    0  501    0  0.00000000000E+00  0.00000000000E+00  0.57544151719E+03  0.57544151720E+03  0.25500000000E-02 0.  1.
         -2   -1    0    0    0  501 -0.00000000000E+00 -0.00000000000E+00 -0.14909061626E+02  0.14909061845E+02  0.25500000000E-02 0. -1.
    5000001    1    1    2    0    0 -0.50353503429E+02  0.80575595323E+01  0.30277627381E+03  0.31654837159E+03  0.77000000000E+02 0.  0.
   -5000001    1    1    2    0    0  0.50353503429E+02 -0.80575595323E+01  0.25775618176E+03  0.27380220745E+03  0.77000000000E+02 0.  0.
<mgrwt>
<rscale>  0 0.18524895E+03</rscale>
<asrwt>0</asrwt>
<pdfrwt beam="1">  1        2 0.88529454E-01 0.18524895E+03</pdfrwt>
<pdfrwt beam="2">  1       -2 0.22937021E-02 0.18524895E+03</pdfrwt>
<totfact> 0.32213938E+04</totfact>
</mgrwt>
</event>
<event>
 4    1  0.6207184E-004  0.1850698E+03  0.7818608E-02  0.1162985E+00
         -2   -1    0    0    0  501 -0.00000000000E+00  0.00000000000E+00  0.12858459165E+02  0.12858459418E+02  0.25500000000E-02 0. -1.
          2   -1    0    0  501    0  0.00000000000E+00 -0.00000000000E+00 -0.66591995770E+03  0.66591995771E+03  0.25500000000E-02 0.  1.
    5000001    1    1    2    0    0 -0.35753934720E+02 -0.36615667395E+02 -0.31249076720E+03  0.32588116013E+03  0.77000000000E+02 0.  0.
   -5000001    1    1    2    0    0  0.35753934720E+02  0.36615667395E+02 -0.34057073134E+03  0.35289725700E+03  0.77000000000E+02 0.  0.
<mgrwt>
<rscale>  0 0.18506977E+03</rscale>
<asrwt>0</asrwt>
<pdfrwt beam="1">  1        2 0.10244920E+00 0.18506977E+03</pdfrwt>
<pdfrwt beam="2">  1       -2 0.19782250E-02 0.18506977E+03</pdfrwt>
<totfact> 0.33770258E+04</totfact>
</mgrwt>
</event>
<event>
 4    1  0.6207184E-004  0.2013187E+03  0.7818608E-02  0.1148631E+00
         -2   -1    0    0    0  501 -0.00000000000E+00  0.00000000000E+00  0.22007992082E+02  0.22007992229E+02  0.25500000000E-02 0. -1.
          2   -1    0    0  501    0  0.00000000000E+00 -0.00000000000E+00 -0.46039191973E+03  0.46039191973E+03  0.25500000000E-02 0.  1.
    5000001    1    1    2    0    0 -0.11736164643E+02  0.61954872333E+02 -0.25530692726E+03  0.27401965418E+03  0.77000000000E+02 0.  0.
   -5000001    1    1    2    0    0  0.11736164643E+02 -0.61954872333E+02 -0.18307700038E+03  0.20838025779E+03  0.77000000000E+02 0.  0.
<mgrwt>
<rscale>  0 0.20131867E+03</rscale>
<asrwt>0</asrwt>
<pdfrwt beam="1">  1        2 0.70829519E-01 0.20131867E+03</pdfrwt>
<pdfrwt beam="2">  1       -2 0.33858453E-02 0.20131867E+03</pdfrwt>
<totfact> 0.23403972E+04</totfact>
</mgrwt>
</event>
<event>
 4    1  0.6207184E-004  0.4488474E+03  0.7818608E-02  0.1028066E+00
         -2   -1    0    0    0  501 -0.00000000000E+00  0.00000000000E+00  0.28085406701E+03  0.28085406702E+03  0.25500000000E-02 0. -1.
          2   -1    0    0  501    0  0.00000000000E+00 -0.00000000000E+00 -0.17933152247E+03  0.17933152249E+03  0.25500000000E-02 0.  1.
    5000001    1    1    2    0    0  0.13616959946E+03 -0.14344601421E+03  0.12552850578E+03  0.24658735688E+03  0.77000000000E+02 0.  0.
   -5000001    1    1    2    0    0 -0.13616959946E+03  0.14344601421E+03 -0.24005961245E+02  0.21359823263E+03  0.77000000000E+02 0.  0.
<mgrwt>
<rscale>  0 0.44884736E+03</rscale>
<asrwt>0</asrwt>
<pdfrwt beam="1">  1        2 0.27589465E-01 0.44884736E+03</pdfrwt>
<pdfrwt beam="2">  1       -2 0.43208318E-01 0.44884736E+03</pdfrwt>
<totfact> 0.99484177E+02</totfact>
</mgrwt>
</event>
<event>
 4    1  0.6207184E-004  0.2004016E+03  0.7818608E-02  0.1149401E+00
          2   -1    0    0  501    0  0.00000000000E+00  0.00000000000E+00  0.10955091100E+03  0.10955091103E+03  0.25500000000E-02 0.  1.
         -2   -1    0    0    0  501 -0.00000000000E+00 -0.00000000000E+00 -0.91648708982E+02  0.91648709017E+02  0.25500000000E-02 0. -1.
    5000001    1    1    2    0    0  0.34156897439E+02  0.34813733578E+01  0.63318249351E+02  0.10543725292E+03  0.77000000000E+02 0.  0.
   -5000001    1    1    2    0    0 -0.34156897439E+02 -0.34813733578E+01 -0.45416047328E+02  0.95762367128E+02  0.77000000000E+02 0.  0.
<mgrwt>
<rscale>  0 0.20040159E+03</rscale>
<asrwt>0</asrwt>
<pdfrwt beam="1">  1        2 0.16853986E-01 0.20040159E+03</pdfrwt>
<pdfrwt beam="2">  1       -2 0.14099801E-01 0.20040159E+03</pdfrwt>
<totfact> 0.12438462E+04</totfact>
</mgrwt>
</event>
<event>
 4    1  0.6207184E-004  0.2296065E+03  0.7818608E-02  0.1126917E+00
         -2   -1    0    0    0  501 -0.00000000000E+00  0.00000000000E+00  0.85414444117E+01  0.85414447923E+01  0.25500000000E-02 0. -1.
          2   -1    0    0  501    0  0.00000000000E+00 -0.00000000000E+00 -0.15430390399E+04  0.15430390399E+04  0.25500000000E-02 0.  1.
    5000001    1    1    2    0    0  0.72910157499E+02  0.39646355532E+02 -0.63848963570E+03  0.64844871769E+03  0.77000000000E+02 0.  0.
   -5000001    1    1    2    0    0 -0.72910157499E+02 -0.39646355532E+02 -0.89600795974E+03  0.90313176696E+03  0.77000000000E+02 0.  0.
<mgrwt>
<rscale>  0 0.22960647E+03</rscale>
<asrwt>0</asrwt>
<pdfrwt beam="1">  1        2 0.23739040E+00 0.22960647E+03</pdfrwt>
<pdfrwt beam="2">  1       -2 0.13140696E-02 0.22960647E+03</pdfrwt>
<totfact> 0.18393063E+04</totfact>
</mgrwt>
</event>
<event>
 4    1  0.6207184E-004  0.2070855E+03  0.7818608E-02  0.1143895E+00
         -2   -1    0    0    0  501 -0.00000000000E+00  0.00000000000E+00  0.21035061132E+03  0.21035061134E+03  0.25500000000E-02 0. -1.
          2   -1    0    0  501    0  0.00000000000E+00 -0.00000000000E+00 -0.50967781854E+02  0.50967781918E+02  0.25500000000E-02 0.  1.
    5000001    1    1    2    0    0  0.35115453577E+02  0.59600400590E+02  0.76400515263E+02  0.12865201733E+03  0.77000000000E+02 0.  0.
   -5000001    1    1    2    0    0 -0.35115453577E+02 -0.59600400590E+02  0.82982314205E+02  0.13266637593E+03  0.77000000000E+02 0.  0.
<mgrwt>
<rscale>  0 0.20708553E+03</rscale>
<asrwt>0</asrwt>
<pdfrwt beam="1">  1        2 0.78411973E-02 0.20708553E+03</pdfrwt>
<pdfrwt beam="2">  1       -2 0.32361632E-01 0.20708553E+03</pdfrwt>
<totfact> 0.75564261E+03</totfact>
</mgrwt>
</event>
<event>
 4    1  0.6207184E-004  0.2277505E+03  0.7818608E-02  0.1128233E+00
         -2   -1    0    0    0  501 -0.00000000000E+00  0.00000000000E+00  0.54872317924E+01  0.54872323849E+01  0.25500000000E-02 0. -1.
          2   -1    0    0  501    0  0.00000000000E+00 -0.00000000000E+00 -0.23632264440E+04  0.23632264440E+04  0.25500000000E-02 0.  1.
    5000001    1    1    2    0    0  0.69960833750E+02 -0.40838181053E+02 -0.95188729198E+03  0.95842615361E+03  0.77000000000E+02 0.  0.
   -5000001    1    1    2    0    0 -0.69960833750E+02  0.40838181053E+02 -0.14058519202E+04  0.14102875228E+04  0.77000000000E+02 0.  0.
<mgrwt>
<rscale>  0 0.22775049E+03</rscale>
<asrwt>0</asrwt>
<pdfrwt beam="1">  1        2 0.36357249E+00 0.22775049E+03</pdfrwt>
<pdfrwt beam="2">  1       -2 0.84419144E-03 0.22775049E+03</pdfrwt>
<totfact> 0.12936272E+04</totfact>
</mgrwt>
</event>
<event>
 4    1  0.6207184E-004  0.3232569E+03  0.7818608E-02  0.1074160E+00
         -2   -1    0    0    0  501 -0.00000000000E+00  0.00000000000E+00  0.16320788777E+02  0.16320788976E+02  0.25500000000E-02 0. -1.
          2   -1    0    0  501    0  0.00000000000E+00 -0.00000000000E+00 -0.16006430645E+04  0.16006430645E+04  0.25500000000E-02 0.  1.
    5000001    1    1    2    0    0  0.11807278844E+03  0.48570090909E+02 -0.47999953160E+03  0.50262191301E+03  0.77000000000E+02 0.  0.
   -5000001    1    1    2    0    0 -0.11807278844E+03 -0.48570090909E+02 -0.11043227442E+04  0.11143419405E+04  0.77000000000E+02 0.  0.
<mgrwt>
<rscale>  0 0.32325691E+03</rscale>
<asrwt>0</asrwt>
<pdfrwt beam="1">  1        2 0.24625265E+00 0.32325691E+03</pdfrwt>
<pdfrwt beam="2">  1       -2 0.25108919E-02 0.32325691E+03</pdfrwt>
<totfact> 0.66711933E+03</totfact>
</mgrwt>
</event>
<event>
 4    1  0.6207184E-004  0.5275207E+03  0.7818608E-02  0.1006835E+00
         -2   -1    0    0    0  501 -0.00000000000E+00  0.00000000000E+00  0.46531304308E+02  0.46531304378E+02  0.25500000000E-02 0. -1.
          2   -1    0    0  501    0  0.00000000000E+00 -0.00000000000E+00 -0.14951121276E+04  0.14951121276E+04  0.25500000000E-02 0.  1.
    5000001    1    1    2    0    0  0.24347496039E+03 -0.65012460206E+02 -0.69048087391E+03  0.73905311958E+03  0.77000000000E+02 0.  0.
   -5000001    1    1    2    0    0 -0.24347496039E+03  0.65012460206E+02 -0.75809994941E+03  0.80259031243E+03  0.77000000000E+02 0.  0.
<mgrwt>
<rscale>  0 0.52752068E+03</rscale>
<asrwt>0</asrwt>
<pdfrwt beam="1">  1        2 0.23001721E+00 0.52752068E+03</pdfrwt>
<pdfrwt beam="2">  1       -2 0.71586633E-02 0.52752068E+03</pdfrwt>
<totfact> 0.15299089E+03</totfact>
</mgrwt>
</event>
<event>
 4    1  0.6207184E-004  0.2900414E+03  0.7818608E-02  0.1090328E+00
          2   -1    0    0  501    0  0.00000000000E+00  0.00000000000E+00  0.14614413474E+03  0.14614413476E+03  0.25500000000E-02 0.  1.
         -2   -1    0    0    0  501 -0.00000000000E+00 -0.00000000000E+00 -0.14390591864E+03  0.14390591866E+03  0.25500000000E-02 0. -1.
    5000001    1    1    2    0    0  0.39347320480E+02 -0.11488693505E+03  0.19955445880E+02  0.14517038023E+03  0.77000000000E+02 0.  0.
   -5000001    1    1    2    0    0 -0.39347320480E+02  0.11488693505E+03 -0.17717229776E+02  0.14487967320E+03  0.77000000000E+02 0.  0.
<mgrwt>
<rscale>  0 0.29004142E+03</rscale>
<asrwt>0</asrwt>
<pdfrwt beam="1">  1        2 0.22483713E-01 0.29004142E+03</pdfrwt>
<pdfrwt beam="2">  1       -2 0.22139372E-01 0.29004142E+03</pdfrwt>
<totfact> 0.42595802E+03</totfact>
</mgrwt>
</event>
<event>
 4    1  0.6207184E-004  0.2306194E+03  0.7818608E-02  0.1126205E+00
         -2   -1    0    0    0  501 -0.00000000000E+00  0.00000000000E+00  0.13656819949E+02  0.13656820187E+02  0.25500000000E-02 0. -1.
          2   -1    0    0  501    0  0.00000000000E+00 -0.00000000000E+00 -0.97360366108E+03  0.97360366109E+03  0.25500000000E-02 0.  1.
    5000001    1    1    2    0    0  0.56651939262E+02  0.36102724974E+02 -0.70869094749E+03  0.71602004722E+03  0.77000000000E+02 0.  0.
   -5000001    1    1    2    0    0 -0.56651939262E+02 -0.36102724974E+02 -0.25125589364E+03  0.27124043405E+03  0.77000000000E+02 0.  0.
<mgrwt>
<rscale>  0 0.23061943E+03</rscale>
<asrwt>0</asrwt>
<pdfrwt beam="1">  1        2 0.14978512E+00 0.23061943E+03</pdfrwt>
<pdfrwt beam="2">  1       -2 0.21010500E-02 0.23061943E+03</pdfrwt>
<totfact> 0.19359760E+04</totfact>
</mgrwt>
</event>
<event>
 4    1  0.6207184E-004  0.5165310E+03  0.7818608E-02  0.1009552E+00
         -2   -1    0    0    0  501 -0.00000000000E+00  0.00000000000E+00  0.15480195160E+03  0.15480195162E+03  0.25500000000E-02 0. -1.
          2   -1    0    0  501    0  0.00000000000E+00 -0.00000000000E+00 -0.43087999560E+03  0.43087999561E+03  0.25500000000E-02 0.  1.
    5000001    1    1    2    0    0 -0.13639290158E+02 -0.12972415585E+03  0.99148911578E+02  0.18103561394E+03  0.77000000000E+02 0.  0.
   -5000001    1    1    2    0    0  0.13639290158E+02  0.12972415585E+03 -0.37522695558E+03  0.40464633329E+03  0.77000000000E+02 0.  0.
<mgrwt>
<rscale>  0 0.51653098E+03</rscale>
<asrwt>0</asrwt>
<pdfrwt beam="1">  1        2 0.66289230E-01 0.51653098E+03</pdfrwt>
<pdfrwt beam="2">  1       -2 0.23815685E-01 0.51653098E+03</pdfrwt>
<totfact> 0.11446730E+03</totfact>
</mgrwt>
</event>
<event>
 4    1  0.6207184E-004  0.2442022E+03  0.7818608E-02  0.1117025E+00
         -2   -1    0    0    0  501 -0.00000000000E+00  0.00000000000E+00  0.25568784689E+02  0.25568784816E+02  0.25500000000E-02 0. -1.
          2   -1    0    0  501    0  0.00000000000E+00 -0.00000000000E+00 -0.58308102341E+03  0.58308102341E+03  0.25500000000E-02 0.  1.
    5000001    1    1    2    0    0 -0.90350088897E+02  0.11040494227E+01 -0.20758875243E+03  0.23913688052E+03  0.77000000000E+02 0.  0.
   -5000001    1    1    2    0    0  0.90350088897E+02 -0.11040494227E+01 -0.34992348629E+03  0.36951292771E+03  0.77000000000E+02 0.  0.
<mgrwt>
<rscale>  0 0.24420216E+03</rscale>
<asrwt>0</asrwt>
<pdfrwt beam="1">  1        2 0.89704763E-01 0.24420216E+03</pdfrwt>
<pdfrwt beam="2">  1       -2 0.39336596E-02 0.24420216E+03</pdfrwt>
<totfact> 0.14526858E+04</totfact>
</mgrwt>
</event>
<event>
 4    1  0.6207184E-004  0.1990412E+03  0.7818608E-02  0.1150550E+00
          2   -1    0    0  501    0  0.00000000000E+00  0.00000000000E+00  0.61156671973E+03  0.61156671974E+03  0.25500000000E-02 0.  1.
         -2   -1    0    0    0  501 -0.00000000000E+00 -0.00000000000E+00 -0.16195041119E+02  0.16195041320E+02  0.25500000000E-02 0. -1.
    5000001    1    1    2    0    0  0.49866197329E+02  0.33902821788E+02  0.23958936491E+03  0.25878195984E+03  0.77000000000E+02 0.  0.
   -5000001    1    1    2    0    0 -0.49866197329E+02 -0.33902821788E+02  0.35578231370E+03  0.36897980121E+03  0.77000000000E+02 0.  0.
<mgrwt>
<rscale>  0 0.19904118E+03</rscale>
<asrwt>0</asrwt>
<pdfrwt beam="1">  1        2 0.94087172E-01 0.19904118E+03</pdfrwt>
<pdfrwt beam="2">  1       -2 0.24915452E-02 0.19904118E+03</pdfrwt>
<totfact> 0.26752271E+04</totfact>
</mgrwt>
</event>
<event>
 4    1  0.6207184E-004  0.3875352E+03  0.7818608E-02  0.1048183E+00
          2   -1    0    0  501    0  0.00000000000E+00  0.00000000000E+00  0.17714413385E+04  0.17714413385E+04  0.25500000000E-02 0.  1.
         -2   -1    0    0    0  501 -0.00000000000E+00 -0.00000000000E+00 -0.21195098548E+02  0.21195098702E+02  0.25500000000E-02 0. -1.
    5000001    1    1    2    0    0  0.12907646653E+03  0.12123609138E+03  0.80082997787E+03  0.82378187497E+03  0.77000000000E+02 0.  0.
   -5000001    1    1    2    0    0 -0.12907646653E+03 -0.12123609138E+03  0.94941626204E+03  0.96885456220E+03  0.77000000000E+02 0.  0.
<mgrwt>
<rscale>  0 0.38753515E+03</rscale>
<asrwt>0</asrwt>
<pdfrwt beam="1">  1        2 0.27252950E+00 0.38753515E+03</pdfrwt>
<pdfrwt beam="2">  1       -2 0.32607836E-02 0.38753515E+03</pdfrwt>
<totfact> 0.36579624E+03</totfact>
</mgrwt>
</event>
<event>
 4    1  0.6207184E-004  0.3512370E+03  0.7818608E-02  0.1062108E+00
          2   -1    0    0  501    0  0.00000000000E+00  0.00000000000E+00  0.10369857046E+04  0.10369857046E+04  0.25500000000E-02 0.  1.
         -2   -1    0    0    0  501 -0.00000000000E+00 -0.00000000000E+00 -0.29741827056E+02  0.29741827165E+02  0.25500000000E-02 0. -1.
    5000001    1    1    2    0    0  0.86846869417E+02  0.12409721425E+03  0.36881096787E+03  0.40607022463E+03  0.77000000000E+02 0.  0.
   -5000001    1    1    2    0    0 -0.86846869417E+02 -0.12409721425E+03  0.63843290965E+03  0.66065730711E+03  0.77000000000E+02 0.  0.
<mgrwt>
<rscale>  0 0.35123695E+03</rscale>
<asrwt>0</asrwt>
<pdfrwt beam="1">  1        2 0.15953625E+00 0.35123695E+03</pdfrwt>
<pdfrwt beam="2">  1       -2 0.45756660E-02 0.35123695E+03</pdfrwt>
<totfact> 0.56089262E+03</totfact>
</mgrwt>
</event>
<event>
 4    1  0.6207184E-004  0.2044315E+03  0.7818608E-02  0.1146053E+00
         -2   -1    0    0    0  501 -0.00000000000E+00  0.00000000000E+00  0.79288291678E+01  0.79288295778E+01  0.25500000000E-02 0. -1.
          2   -1    0    0  501    0  0.00000000000E+00 -0.00000000000E+00 -0.13177301309E+04  0.13177301309E+04  0.25500000000E-02 0.  1.
    5000001    1    1    2    0    0 -0.59836831108E+02  0.30636239280E+02 -0.65605804364E+03  0.66397302817E+03  0.77000000000E+02 0.  0.
   -5000001    1    1    2    0    0  0.59836831108E+02 -0.30636239280E+02 -0.65374325808E+03  0.66168593229E+03  0.77000000000E+02 0.  0.
<mgrwt>
<rscale>  0 0.20443148E+03</rscale>
<asrwt>0</asrwt>
<pdfrwt beam="1">  1        2 0.20272754E+00 0.20443148E+03</pdfrwt>
<pdfrwt beam="2">  1       -2 0.12198210E-02 0.20443148E+03</pdfrwt>
<totfact> 0.26915399E+04</totfact>
</mgrwt>
</event>
<event>
 4    1  0.6207184E-004  0.2690116E+03  0.7818608E-02  0.1101847E+00
          2   -1    0    0  501    0  0.00000000000E+00  0.00000000000E+00  0.16582141654E+03  0.16582141656E+03  0.25500000000E-02 0.  1.
         -2   -1    0    0    0  501 -0.00000000000E+00 -0.00000000000E+00 -0.10910417380E+03  0.10910417383E+03  0.25500000000E-02 0. -1.
    5000001    1    1    2    0    0  0.12602328534E+02 -0.10836569202E+03  0.44865066534E+02  0.14086808044E+03  0.77000000000E+02 0.  0.
   -5000001    1    1    2    0    0 -0.12602328534E+02  0.10836569202E+03  0.11852176200E+02  0.13405750995E+03  0.77000000000E+02 0.  0.
<mgrwt>
<rscale>  0 0.26901159E+03</rscale>
<asrwt>0</asrwt>
<pdfrwt beam="1">  1        2 0.25510987E-01 0.26901159E+03</pdfrwt>
<pdfrwt beam="2">  1       -2 0.16785258E-01 0.26901159E+03</pdfrwt>
<totfact> 0.59084048E+03</totfact>
</mgrwt>
</event>
<event>
 4    1  0.6207184E-004  0.3027494E+03  0.7818608E-02  0.1083874E+00
         -2   -1    0    0    0  501 -0.00000000000E+00  0.00000000000E+00  0.90171394618E+02  0.90171394654E+02  0.25500000000E-02 0. -1.
          2   -1    0    0  501    0  0.00000000000E+00 -0.00000000000E+00 -0.25411945305E+03  0.25411945306E+03  0.25500000000E-02 0.  1.
    5000001    1    1    2    0    0  0.41344583282E+02  0.84811448197E+02 -0.18421549263E+03  0.22083184561E+03  0.77000000000E+02 0.  0.
   -5000001    1    1    2    0    0 -0.41344583282E+02 -0.84811448197E+02  0.20267434197E+02  0.12345900211E+03  0.77000000000E+02 0.  0.
<mgrwt>
<rscale>  0 0.30274944E+03</rscale>
<asrwt>0</asrwt>
<pdfrwt beam="1">  1        2 0.39095300E-01 0.30274944E+03</pdfrwt>
<pdfrwt beam="2">  1       -2 0.13872522E-01 0.30274944E+03</pdfrwt>
<totfact> 0.50944063E+03</totfact>
</mgrwt>
</event>
<event>
 4    1  0.6207184E-004  0.2106368E+03  0.7818608E-02  0.1141063E+00
         -2   -1    0    0    0  501 -0.00000000000E+00  0.00000000000E+00  0.72556437677E+01  0.72556442158E+01  0.25500000000E-02 0. -1.
          2   -1    0    0  501    0  0.00000000000E+00 -0.00000000000E+00 -0.15287358443E+04  0.15287358443E+04  0.25500000000E-02 0.  1.
    5000001    1    1    2    0    0 -0.33808259859E+02  0.42158275070E+02 -0.41540969379E+03  0.42592784868E+03  0.77000000000E+02 0.  0.
   -5000001    1    1    2    0    0  0.33808259859E+02 -0.42158275070E+02 -0.11060705067E+04  0.11100636398E+04  0.77000000000E+02 0.  0.
<mgrwt>
<rscale>  0 0.21063678E+03</rscale>
<asrwt>0</asrwt>
<pdfrwt beam="1">  1        2 0.23518987E+00 0.21063678E+03</pdfrwt>
<pdfrwt beam="2">  1       -2 0.11162541E-02 0.21063678E+03</pdfrwt>
<totfact> 0.23621719E+04</totfact>
</mgrwt>
</event>
<event>
 4    1  0.6207184E-004  0.4086949E+03  0.7818608E-02  0.1040810E+00
          2   -1    0    0  501    0  0.00000000000E+00  0.00000000000E+00  0.27483269199E+04  0.27483269199E+04  0.25500000000E-02 0.  1.
         -2   -1    0    0    0  501 -0.00000000000E+00 -0.00000000000E+00 -0.15193923990E+02  0.15193924204E+02  0.25500000000E-02 0. -1.
    5000001    1    1    2    0    0  0.16168143227E+03  0.10794725992E+02  0.70503177020E+03  0.72749997157E+03  0.77000000000E+02 0.  0.
   -5000001    1    1    2    0    0 -0.16168143227E+03 -0.10794725992E+02  0.20281012258E+04  0.20360208726E+04  0.77000000000E+02 0.  0.
<mgrwt>
<rscale>  0 0.40869485E+03</rscale>
<asrwt>0</asrwt>
<pdfrwt beam="1">  1        2 0.42281985E+00 0.40869485E+03</pdfrwt>
<pdfrwt beam="2">  1       -2 0.23375250E-02 0.40869485E+03</pdfrwt>
<totfact> 0.17637261E+03</totfact>
</mgrwt>
</event>
<event>
 4    1  0.6207184E-004  0.3937380E+03  0.7818608E-02  0.1045970E+00
          2   -1    0    0  501    0  0.00000000000E+00  0.00000000000E+00  0.22341067869E+03  0.22341067870E+03  0.25500000000E-02 0.  1.
         -2   -1    0    0    0  501 -0.00000000000E+00 -0.00000000000E+00 -0.17348055598E+03  0.17348055600E+03  0.25500000000E-02 0. -1.
    5000001    1    1    2    0    0 -0.97512399529E+02  0.14682074420E+03 -0.17364207454E+02  0.19312046678E+03  0.77000000000E+02 0.  0.
   -5000001    1    1    2    0    0  0.97512399529E+02 -0.14682074420E+03  0.67294330166E+02  0.20377076792E+03  0.77000000000E+02 0.  0.
<mgrwt>
<rscale>  0 0.39373803E+03</rscale>
<asrwt>0</asrwt>
<pdfrwt beam="1">  1        2 0.34370874E-01 0.39373803E+03</pdfrwt>
<pdfrwt beam="2">  1       -2 0.26689316E-01 0.39373803E+03</pdfrwt>
<totfact> 0.19206348E+03</totfact>
</mgrwt>
</event>
<event>
 4    1  0.6207184E-004  0.3918802E+03  0.7818608E-02  0.1046628E+00
         -2   -1    0    0    0  501 -0.00000000000E+00  0.00000000000E+00  0.27808877607E+02  0.27808877724E+02  0.25500000000E-02 0. -1.
          2   -1    0    0  501    0  0.00000000000E+00 -0.00000000000E+00 -0.13805848000E+04  0.13805848000E+04  0.25500000000E-02 0.  1.
    5000001    1    1    2    0    0  0.12306106251E+03 -0.12060331198E+02 -0.20540304868E+03  0.25181121719E+03  0.77000000000E+02 0.  0.
   -5000001    1    1    2    0    0 -0.12306106251E+03  0.12060331198E+02 -0.11473728738E+04  0.11565824606E+04  0.77000000000E+02 0.  0.
<mgrwt>
<rscale>  0 0.39188015E+03</rscale>
<asrwt>0</asrwt>
<pdfrwt beam="1">  1        2 0.21239761E+00 0.39188015E+03</pdfrwt>
<pdfrwt beam="2">  1       -2 0.42782900E-02 0.39188015E+03</pdfrwt>
<totfact> 0.39408941E+03</totfact>
</mgrwt>
</event>
<event>
 4    1  0.6207184E-004  0.2048461E+03  0.7818608E-02  0.1145714E+00
          2   -1    0    0  501    0  0.00000000000E+00  0.00000000000E+00  0.29180125154E+03  0.29180125156E+03  0.25500000000E-02 0.  1.
         -2   -1    0    0    0  501 -0.00000000000E+00 -0.00000000000E+00 -0.35950775710E+02  0.35950775800E+02  0.25500000000E-02 0. -1.
    5000001    1    1    2    0    0 -0.35659851444E+02 -0.46867185501E+02  0.18082966075E+03  0.20517437533E+03  0.77000000000E+02 0.  0.
   -5000001    1    1    2    0    0  0.35659851444E+02  0.46867185501E+02  0.75020815081E+02  0.12257765203E+03  0.77000000000E+02 0.  0.
<mgrwt>
<rscale>  0 0.20484610E+03</rscale>
<asrwt>0</asrwt>
<pdfrwt beam="1">  1        2 0.44892501E-01 0.20484610E+03</pdfrwt>
<pdfrwt beam="2">  1       -2 0.55308885E-02 0.20484610E+03</pdfrwt>
<totfact> 0.18319991E+04</totfact>
</mgrwt>
</event>
<event>
 4    1  0.6207184E-004  0.1936946E+03  0.7818608E-02  0.1155171E+00
         -2   -1    0    0    0  501 -0.00000000000E+00  0.00000000000E+00  0.54437628907E+01  0.54437634880E+01  0.25500000000E-02 0. -1.
          2   -1    0    0  501    0  0.00000000000E+00 -0.00000000000E+00 -0.17229620055E+04  0.17229620055E+04  0.25500000000E-02 0.  1.
    5000001    1    1    2    0    0 -0.12480384853E+02  0.56328938106E+02 -0.95719465398E+03  0.96201835475E+03  0.77000000000E+02 0.  0.
   -5000001    1    1    2    0    0  0.12480384853E+02 -0.56328938106E+02 -0.76032358863E+03  0.76638741424E+03  0.77000000000E+02 0.  0.
<mgrwt>
<rscale>  0 0.19369458E+03</rscale>
<asrwt>0</asrwt>
<pdfrwt beam="1">  1        2 0.26507064E+00 0.19369458E+03</pdfrwt>
<pdfrwt beam="2">  1       -2 0.83750340E-03 0.19369458E+03</pdfrwt>
<totfact> 0.28167693E+04</totfact>
</mgrwt>
</event>
<event>
 4    1  0.6207184E-004  0.1936048E+03  0.7818608E-02  0.1155250E+00
          2   -1    0    0  501    0  0.00000000000E+00  0.00000000000E+00  0.30661800666E+03  0.30661800667E+03  0.25500000000E-02 0.  1.
         -2   -1    0    0    0  501 -0.00000000000E+00 -0.00000000000E+00 -0.30561503091E+02  0.30561503197E+02  0.25500000000E-02 0. -1.
    5000001    1    1    2    0    0 -0.53288611075E+02  0.19675956920E+02  0.16355825697E+03  0.18949174856E+03  0.77000000000E+02 0.  0.
   -5000001    1    1    2    0    0  0.53288611075E+02 -0.19675956920E+02  0.11249824661E+03  0.14768776131E+03  0.77000000000E+02 0.  0.
<mgrwt>
<rscale>  0 0.19360483E+03</rscale>
<asrwt>0</asrwt>
<pdfrwt beam="1">  1        2 0.47172001E-01 0.19360483E+03</pdfrwt>
<pdfrwt beam="2">  1       -2 0.47017697E-02 0.19360483E+03</pdfrwt>
<totfact> 0.22125593E+04</totfact>
</mgrwt>
</event>
<event>
 4    1  0.6207184E-004  0.8650949E+03  0.7818608E-02  0.9470298E-01
          2   -1    0    0  501    0  0.00000000000E+00  0.00000000000E+00  0.11423968113E+04  0.11423968113E+04  0.25500000000E-02 0.  1.
         -2   -1    0    0    0  501 -0.00000000000E+00 -0.00000000000E+00 -0.16377609042E+03  0.16377609044E+03  0.25500000000E-02 0. -1.
    5000001    1    1    2    0    0 -0.23731192084E+03  0.34171807741E+03  0.62503074024E+03  0.75477189829E+03  0.77000000000E+02 0.  0.
   -5000001    1    1    2    0    0  0.23731192084E+03 -0.34171807741E+03  0.35358998065E+03  0.55140100346E+03  0.77000000000E+02 0.  0.
<mgrwt>
<rscale>  0 0.86509487E+03</rscale>
<asrwt>0</asrwt>
<pdfrwt beam="1">  1        2 0.17575336E+00 0.86509487E+03</pdfrwt>
<pdfrwt beam="2">  1       -2 0.25196321E-01 0.86509487E+03</pdfrwt>
<totfact> 0.29086156E+02</totfact>
</mgrwt>
</event>
<event>
 4    1  0.6207184E-004  0.1860687E+03  0.7818608E-02  0.1162056E+00
         -2   -1    0    0    0  501 -0.00000000000E+00  0.00000000000E+00  0.40373789059E+01  0.40373797112E+01  0.25500000000E-02 0. -1.
          2   -1    0    0  501    0  0.00000000000E+00 -0.00000000000E+00 -0.21438148799E+04  0.21438148799E+04  0.25500000000E-02 0.  1.
    5000001    1    1    2    0    0 -0.50800224342E+02  0.80603906715E+01 -0.11736254051E+04  0.11772727909E+04  0.77000000000E+02 0.  0.
   -5000001    1    1    2    0    0  0.50800224342E+02 -0.80603906715E+01 -0.96615209586E+03  0.97057946868E+03  0.77000000000E+02 0.  0.
<mgrwt>
<rscale>  0 0.18606874E+03</rscale>
<asrwt>0</asrwt>
<pdfrwt beam="1">  1        2 0.32981676E+00 0.18606874E+03</pdfrwt>
<pdfrwt beam="2">  1       -2 0.62113699E-03 0.18606874E+03</pdfrwt>
<totfact> 0.26098726E+04</totfact>
</mgrwt>
</event>
<event>
 4    1  0.6207184E-004  0.1712523E+03  0.7818608E-02  0.1176548E+00
          2   -1    0    0  501    0  0.00000000000E+00  0.00000000000E+00  0.18577417166E+04  0.18577417166E+04  0.25500000000E-02 0.  1.
         -2   -1    0    0    0  501 -0.00000000000E+00 -0.00000000000E+00 -0.39466408810E+01  0.39466417048E+01  0.25500000000E-02 0. -1.
    5000001    1    1    2    0    0 -0.33107321209E+02 -0.11331055589E+02  0.78171637922E+03  0.78627856710E+03  0.77000000000E+02 0.  0.
   -5000001    1    1    2    0    0  0.33107321209E+02  0.11331055589E+02  0.10720786965E+04  0.10754097912E+04  0.77000000000E+02 0.  0.
<mgrwt>
<rscale>  0 0.17125233E+03</rscale>
<asrwt>0</asrwt>
<pdfrwt beam="1">  1        2 0.28580706E+00 0.17125233E+03</pdfrwt>
<pdfrwt beam="2">  1       -2 0.60717422E-03 0.17125233E+03</pdfrwt>
<totfact> 0.37764381E+04</totfact>
</mgrwt>
</event>
<event>
 4    1  0.6207184E-004  0.1726966E+03  0.7818608E-02  0.1175065E+00
         -2   -1    0    0    0  501 -0.00000000000E+00  0.00000000000E+00  0.53805303252E+01  0.53805309295E+01  0.25500000000E-02 0. -1.
          2   -1    0    0  501    0  0.00000000000E+00 -0.00000000000E+00 -0.13857415693E+04  0.13857415693E+04  0.25500000000E-02 0.  1.
    5000001    1    1    2    0    0 -0.15042662834E+01 -0.38894285985E+02 -0.71808100325E+03  0.72324570896E+03  0.77000000000E+02 0.  0.
   -5000001    1    1    2    0    0  0.15042662834E+01  0.38894285985E+02 -0.66228003569E+03  0.66787639124E+03  0.77000000000E+02 0.  0.
<mgrwt>
<rscale>  0 0.17269655E+03</rscale>
<asrwt>0</asrwt>
<pdfrwt beam="1">  1        2 0.21319073E+00 0.17269655E+03</pdfrwt>
<pdfrwt beam="2">  1       -2 0.82777505E-03 0.17269655E+03</pdfrwt>
<totfact> 0.42760833E+04</totfact>
</mgrwt>
</event>
<event>
 4    1  0.6207184E-004  0.2892989E+03  0.7818608E-02  0.1090716E+00
          2   -1    0    0  501    0  0.00000000000E+00  0.00000000000E+00  0.12952263179E+04  0.12952263179E+04  0.25500000000E-02 0.  1.
         -2   -1    0    0    0  501 -0.00000000000E+00 -0.00000000000E+00 -0.16154291054E+02  0.16154291256E+02  0.25500000000E-02 0. -1.
    5000001    1    1    2    0    0  0.68284267220E+02  0.35134321252E+02  0.20718321943E+03  0.23398941877E+03  0.77000000000E+02 0.  0.
   -5000001    1    1    2    0    0 -0.68284267220E+02 -0.35134321252E+02  0.10718888074E+04  0.10773911904E+04  0.77000000000E+02 0.  0.
<mgrwt>
<rscale>  0 0.28929890E+03</rscale>
<asrwt>0</asrwt>
<pdfrwt beam="1">  1        2 0.19926566E+00 0.28929890E+03</pdfrwt>
<pdfrwt beam="2">  1       -2 0.24852747E-02 0.28929890E+03</pdfrwt>
<totfact> 0.99040461E+03</totfact>
</mgrwt>
</event>
<event>
 4    1  0.6207184E-004  0.2608629E+03  0.7818608E-02  0.1106626E+00
         -2   -1    0    0    0  501 -0.00000000000E+00  0.00000000000E+00  0.93691375872E+01  0.93691379343E+01  0.25500000000E-02 0. -1.
          2   -1    0    0  501    0  0.00000000000E+00 -0.00000000000E+00 -0.18157869650E+04  0.18157869650E+04  0.25500000000E-02 0.  1.
    5000001    1    1    2    0    0  0.17608353247E+02 -0.74340554338E+02 -0.14100063852E+04  0.14141724005E+04  0.77000000000E+02 0.  0.
   -5000001    1    1    2    0    0 -0.17608353247E+02  0.74340554338E+02 -0.39641144219E+03  0.41098370238E+03  0.77000000000E+02 0.  0.
<mgrwt>
<rscale>  0 0.26086286E+03</rscale>
<asrwt>0</asrwt>
<pdfrwt beam="1">  1        2 0.27935156E+00 0.26086286E+03</pdfrwt>
<pdfrwt beam="2">  1       -2 0.14414072E-02 0.26086286E+03</pdfrwt>
<totfact> 0.11598804E+04</totfact>
</mgrwt>
</event>
<event>
 4    1  0.6207184E-004  0.1860249E+03  0.7818608E-02  0.1162096E+00
         -2   -1    0    0    0  501 -0.00000000000E+00  0.00000000000E+00  0.36299109774E+02  0.36299109864E+02  0.25500000000E-02 0. -1.
          2   -1    0    0  501    0  0.00000000000E+00 -0.00000000000E+00 -0.23833408021E+03  0.23833408023E+03  0.25500000000E-02 0.  1.
    5000001    1    1    2    0    0  0.46690826728E+02  0.23035751856E+02 -0.95981552554E+02  0.13361189167E+03  0.77000000000E+02 0.  0.
   -5000001    1    1    2    0    0 -0.46690826728E+02 -0.23035751856E+02 -0.10605341789E+03  0.14102129843E+03  0.77000000000E+02 0.  0.
<mgrwt>
<rscale>  0 0.18602489E+03</rscale>
<asrwt>0</asrwt>
<pdfrwt beam="1">  1        2 0.36666781E-01 0.18602489E+03</pdfrwt>
<pdfrwt beam="2">  1       -2 0.55844786E-02 0.18602489E+03</pdfrwt>
<totfact> 0.22262247E+04</totfact>
</mgrwt>
</event>
<event>
 4    1  0.6207184E-004  0.2265642E+03  0.7818608E-02  0.1129082E+00
         -2   -1    0    0    0  501 -0.00000000000E+00  0.00000000000E+00  0.43892612328E+01  0.43892619735E+01  0.25500000000E-02 0. -1.
          2   -1    0    0  501    0  0.00000000000E+00 -0.00000000000E+00 -0.29236898936E+04  0.29236898936E+04  0.25500000000E-02 0.  1.
    5000001    1    1    2    0    0  0.89879895604E+01 -0.16874352514E+02 -0.25046694771E+04  0.25059257206E+04  0.77000000000E+02 0.  0.
   -5000001    1    1    2    0    0 -0.89879895604E+01  0.16874352514E+02 -0.41463115527E+03  0.42215343497E+03  0.77000000000E+02 0.  0.
<mgrwt>
<rscale>  0 0.22656425E+03</rscale>
<asrwt>0</asrwt>
<pdfrwt beam="1">  1        2 0.44979689E+00 0.22656425E+03</pdfrwt>
<pdfrwt beam="2">  1       -2 0.67527335E-03 0.22656425E+03</pdfrwt>
<totfact> 0.87050821E+03</totfact>
</mgrwt>
</event>
<event>
 4    1  0.6207184E-004  0.3403134E+03  0.7818608E-02  0.1066663E+00
          2   -1    0    0  501    0  0.00000000000E+00  0.00000000000E+00  0.11206311981E+04  0.11206311981E+04  0.25500000000E-02 0.  1.
         -2   -1    0    0    0  501 -0.00000000000E+00 -0.00000000000E+00 -0.25836604481E+02  0.25836604607E+02  0.25500000000E-02 0. -1.
    5000001    1    1    2    0    0 -0.79817501108E+02  0.11763586742E+03  0.72614610421E+03  0.74392620296E+03  0.77000000000E+02 0.  0.
   -5000001    1    1    2    0    0  0.79817501108E+02 -0.11763586742E+03  0.36864848941E+03  0.40254159976E+03  0.77000000000E+02 0.  0.
<mgrwt>
<rscale>  0 0.34031342E+03</rscale>
<asrwt>0</asrwt>
<pdfrwt beam="1">  1        2 0.17240482E+00 0.34031342E+03</pdfrwt>
<pdfrwt beam="2">  1       -2 0.39748617E-02 0.34031342E+03</pdfrwt>
<totfact> 0.61868800E+03</totfact>
</mgrwt>
</event>
<event>
 4    1  0.6207184E-004  0.1828357E+03  0.7818608E-02  0.1165087E+00
          2   -1    0    0  501    0  0.00000000000E+00  0.00000000000E+00  0.22635193540E+02  0.22635193683E+02  0.25500000000E-02 0.  1.
         -2   -1    0    0    0  501 -0.00000000000E+00 -0.00000000000E+00 -0.36921376922E+03  0.36921376923E+03  0.25500000000E-02 0. -1.
    5000001    1    1    2    0    0  0.40031383941E+02 -0.28735177897E+02 -0.17317180968E+03  0.19582057557E+03  0.77000000000E+02 0.  0.
   -5000001    1    1    2    0    0 -0.40031383941E+02  0.28735177897E+02 -0.17340676600E+03  0.19602838734E+03  0.77000000000E+02 0.  0.
<mgrwt>
<rscale>  0 0.18283572E+03</rscale>
<asrwt>0</asrwt>
<pdfrwt beam="1">  1        2 0.34823377E-02 0.18283572E+03</pdfrwt>
<pdfrwt beam="2">  1       -2 0.56802114E-01 0.18283572E+03</pdfrwt>
<totfact> 0.73187089E+03</totfact>
</mgrwt>
</event>
<event>
 4    1  0.6207184E-004  0.4290455E+03  0.7818608E-02  0.1034162E+00
          2   -1    0    0  501    0  0.00000000000E+00  0.00000000000E+00  0.15378604256E+03  0.15378604258E+03  0.25500000000E-02 0.  1.
         -2   -1    0    0    0  501 -0.00000000000E+00 -0.00000000000E+00 -0.29924692606E+03  0.29924692607E+03  0.25500000000E-02 0. -1.
    5000001    1    1    2    0    0  0.13757140350E+03 -0.14273773185E+03 -0.43032367150E+02  0.21698095718E+03  0.77000000000E+02 0.  0.
   -5000001    1    1    2    0    0 -0.13757140350E+03  0.14273773185E+03 -0.10242851635E+03  0.23605201147E+03  0.77000000000E+02 0.  0.
<mgrwt>
<rscale>  0 0.42904545E+03</rscale>
<asrwt>0</asrwt>
<pdfrwt beam="1">  1        2 0.23659391E-01 0.42904545E+03</pdfrwt>
<pdfrwt beam="2">  1       -2 0.46037989E-01 0.42904545E+03</pdfrwt>
<totfact> 0.10445915E+03</totfact>
</mgrwt>
</event>
<event>
 4    1  0.6207184E-004  0.3250282E+03  0.7818608E-02  0.1073358E+00
          2   -1    0    0  501    0  0.00000000000E+00  0.00000000000E+00  0.12554451125E+03  0.12554451128E+03  0.25500000000E-02 0.  1.
         -2   -1    0    0    0  501 -0.00000000000E+00 -0.00000000000E+00 -0.21037032279E+03  0.21037032280E+03  0.25500000000E-02 0. -1.
    5000001    1    1    2    0    0 -0.58612735686E+02 -0.12683482321E+03 -0.74423115629E+02  0.17604069218E+03  0.77000000000E+02 0.  0.
   -5000001    1    1    2    0    0  0.58612735686E+02  0.12683482321E+03 -0.10402695908E+02  0.15987414189E+03  0.77000000000E+02 0.  0.
<mgrwt>
<rscale>  0 0.32502824E+03</rscale>
<asrwt>0</asrwt>
<pdfrwt beam="1">  1        2 0.19314540E-01 0.32502824E+03</pdfrwt>
<pdfrwt beam="2">  1       -2 0.32364665E-01 0.32502824E+03</pdfrwt>
<totfact> 0.25767684E+03</totfact>
</mgrwt>
</event>
<event>
 4    1  0.6207184E-004  0.4235923E+03  0.7818608E-02  0.1035903E+00
          2   -1    0    0  501    0  0.00000000000E+00  0.00000000000E+00  0.49432787693E+03  0.49432787693E+03  0.25500000000E-02 0.  1.
         -2   -1    0    0    0  501 -0.00000000000E+00 -0.00000000000E+00 -0.90744627755E+02  0.90744627791E+02  0.25500000000E-02 0. -1.
    5000001    1    1    2    0    0  0.94709639016E+02  0.16223054072E+03  0.28512299080E+03  0.35001826231E+03  0.77000000000E+02 0.  0.
   -5000001    1    1    2    0    0 -0.94709639016E+02 -0.16223054072E+03  0.11846025837E+03  0.23505424242E+03  0.77000000000E+02 0.  0.
<mgrwt>
<rscale>  0 0.42359225E+03</rscale>
<asrwt>0</asrwt>
<pdfrwt beam="1">  1        2 0.76050444E-01 0.42359225E+03</pdfrwt>
<pdfrwt beam="2">  1       -2 0.13960712E-01 0.42359225E+03</pdfrwt>
<totfact> 0.24471516E+03</totfact>
</mgrwt>
</event>
<event>
 4    1  0.6207184E-004  0.2201408E+03  0.7818608E-02  0.1133778E+00
          2   -1    0    0  501    0  0.00000000000E+00  0.00000000000E+00  0.78137413938E+03  0.78137413938E+03  0.25500000000E-02 0.  1.
         -2   -1    0    0    0  501 -0.00000000000E+00 -0.00000000000E+00 -0.15505367796E+02  0.15505368005E+02  0.25500000000E-02 0. -1.
    5000001    1    1    2    0    0  0.76533790223E+02 -0.18136050837E+02  0.38150412122E+03  0.39706514817E+03  0.77000000000E+02 0.  0.
   -5000001    1    1    2    0    0 -0.76533790223E+02  0.18136050837E+02  0.38436465036E+03  0.39981435921E+03  0.77000000000E+02 0.  0.
<mgrwt>
<rscale>  0 0.22014080E+03</rscale>
<asrwt>0</asrwt>
<pdfrwt beam="1">  1        2 0.12021144E+00 0.22014080E+03</pdfrwt>
<pdfrwt beam="2">  1       -2 0.23854406E-02 0.22014080E+03</pdfrwt>
<totfact> 0.21391193E+04</totfact>
</mgrwt>
</event>
<event>
 4    1  0.6207184E-004  0.3128912E+03  0.7818608E-02  0.1078968E+00
          2   -1    0    0  501    0  0.00000000000E+00  0.00000000000E+00  0.30610242072E+03  0.30610242073E+03  0.25500000000E-02 0.  1.
         -2   -1    0    0    0  501 -0.00000000000E+00 -0.00000000000E+00 -0.79957640004E+02  0.79957640045E+02  0.25500000000E-02 0. -1.
    5000001    1    1    2    0    0 -0.10563096107E+03 -0.34764079033E+02  0.21006714145E+03  0.24984724342E+03  0.77000000000E+02 0.  0.
   -5000001    1    1    2    0    0  0.10563096107E+03  0.34764079033E+02  0.16077639261E+02  0.13621281735E+03  0.77000000000E+02 0.  0.
<mgrwt>
<rscale>  0 0.31289121E+03</rscale>
<asrwt>0</asrwt>
<pdfrwt beam="1">  1        2 0.47092680E-01 0.31289121E+03</pdfrwt>
<pdfrwt beam="2">  1       -2 0.12301175E-01 0.31289121E+03</pdfrwt>
<totfact> 0.50749476E+03</totfact>
</mgrwt>
</event>
<event>
 4    1  0.6207184E-004  0.1930373E+03  0.7818608E-02  0.1155750E+00
          2   -1    0    0  501    0  0.00000000000E+00  0.00000000000E+00  0.78258898251E+01  0.78258902405E+01  0.25500000000E-02 0.  1.
         -2   -1    0    0    0  501 -0.00000000000E+00 -0.00000000000E+00 -0.11903887687E+04  0.11903887687E+04  0.25500000000E-02 0. -1.
    5000001    1    1    2    0    0 -0.47815112927E+02  0.11960320390E+02 -0.78335459438E+03  0.78867151262E+03  0.77000000000E+02 0.  0.
   -5000001    1    1    2    0    0  0.47815112927E+02 -0.11960320390E+02 -0.39920828450E+03  0.40954314633E+03  0.77000000000E+02 0.  0.
<mgrwt>
<rscale>  0 0.19303732E+03</rscale>
<asrwt>0</asrwt>
<pdfrwt beam="1">  1        2 0.12039840E-02 0.19303732E+03</pdfrwt>
<pdfrwt beam="2">  1       -2 0.18313659E+00 0.19303732E+03</pdfrwt>
<totfact> 0.20233153E+03</totfact>
</mgrwt>
</event>
<event>
 4    1  0.6207184E-004  0.2950688E+03  0.7818608E-02  0.1087732E+00
         -2   -1    0    0    0  501 -0.00000000000E+00  0.00000000000E+00  0.18941553917E+02  0.18941554088E+02  0.25500000000E-02 0. -1.
          2   -1    0    0  501    0  0.00000000000E+00 -0.00000000000E+00 -0.11491347036E+04  0.11491347036E+04  0.25500000000E-02 0.  1.
    5000001    1    1    2    0    0 -0.12477371061E+03 -0.71258347899E+01 -0.62356430652E+03  0.64060963210E+03  0.77000000000E+02 0.  0.
   -5000001    1    1    2    0    0  0.12477371061E+03  0.71258347899E+01 -0.50662884320E+03  0.52746662562E+03  0.77000000000E+02 0.  0.
<mgrwt>
<rscale>  0 0.29506879E+03</rscale>
<asrwt>0</asrwt>
<pdfrwt beam="1">  1        2 0.17678990E+00 0.29506879E+03</pdfrwt>
<pdfrwt beam="2">  1       -2 0.29140861E-02 0.29506879E+03</pdfrwt>
<totfact> 0.94638216E+03</totfact>
</mgrwt>
</event>
<event>
 4    1  0.6207184E-004  0.1746055E+03  0.7818608E-02  0.1173128E+00
         -2   -1    0    0    0  501 -0.00000000000E+00  0.00000000000E+00  0.57569941758E+01  0.57569947405E+01  0.25500000000E-02 0. -1.
          2   -1    0    0  501    0  0.00000000000E+00 -0.00000000000E+00 -0.13239153645E+04  0.13239153645E+04  0.25500000000E-02 0.  1.
    5000001    1    1    2    0    0  0.30085297325E+02 -0.15378523088E+02 -0.83786014771E+03  0.84206902995E+03  0.77000000000E+02 0.  0.
   -5000001    1    1    2    0    0 -0.30085297325E+02  0.15378523088E+02 -0.48029822265E+03  0.48760332932E+03  0.77000000000E+02 0.  0.
<mgrwt>
<rscale>  0 0.17460554E+03</rscale>
<asrwt>0</asrwt>
<pdfrwt beam="1">  1        2 0.20367904E+00 0.17460554E+03</pdfrwt>
<pdfrwt beam="2">  1       -2 0.88569251E-03 0.17460554E+03</pdfrwt>
<totfact> 0.41933198E+04</totfact>
</mgrwt>
</event>
<event>
 4    1  0.6207184E-004  0.5700151E+03  0.7818608E-02  0.9969645E-01
         -2   -1    0    0    0  501 -0.00000000000E+00  0.00000000000E+00  0.17156192254E+03  0.17156192255E+03  0.25500000000E-02 0. -1.
          2   -1    0    0  501    0  0.00000000000E+00 -0.00000000000E+00 -0.47346923526E+03  0.47346923527E+03  0.25500000000E-02 0.  1.
    5000001    1    1    2    0    0  0.24700351063E+03  0.30503310752E+02 -0.20161089921E+02  0.26129802100E+03  0.77000000000E+02 0.  0.
   -5000001    1    1    2    0    0 -0.24700351063E+03 -0.30503310752E+02 -0.28174622280E+03  0.38373313682E+03  0.77000000000E+02 0.  0.
<mgrwt>
<rscale>  0 0.57001506E+03</rscale>
<asrwt>0</asrwt>
<pdfrwt beam="1">  1        2 0.72841420E-01 0.57001506E+03</pdfrwt>
<pdfrwt beam="2">  1       -2 0.26394142E-01 0.57001506E+03</pdfrwt>
<totfact> 0.85533397E+02</totfact>
</mgrwt>
</event>
<event>
 4    1  0.6207184E-004  0.3100587E+03  0.7818608E-02  0.1080318E+00
         -2   -1    0    0    0  501 -0.00000000000E+00  0.00000000000E+00  0.41417905576E+03  0.41417905576E+03  0.25500000000E-02 0. -1.
          2   -1    0    0  501    0  0.00000000000E+00 -0.00000000000E+00 -0.58028300791E+02  0.58028300847E+02  0.25500000000E-02 0.  1.
    5000001    1    1    2    0    0  0.65973389561E+02  0.39216613764E+02  0.34639305642E+03  0.36305313724E+03  0.77000000000E+02 0.  0.
   -5000001    1    1    2    0    0 -0.65973389561E+02 -0.39216613764E+02  0.97576985461E+01  0.10915421937E+03  0.77000000000E+02 0.  0.
<mgrwt>
<rscale>  0 0.31005875E+03</rscale>
<asrwt>0</asrwt>
<pdfrwt beam="1">  1        2 0.89274312E-02 0.31005875E+03</pdfrwt>
<pdfrwt beam="2">  1       -2 0.63719853E-01 0.31005875E+03</pdfrwt>
<totfact> 0.17271250E+03</totfact>
</mgrwt>
</event>
<event>
 4    1  0.6207184E-004  0.2939804E+03  0.7818608E-02  0.1088289E+00
         -2   -1    0    0    0  501 -0.00000000000E+00  0.00000000000E+00  0.18894232441E+02  0.18894232613E+02  0.25500000000E-02 0. -1.
          2   -1    0    0  501    0  0.00000000000E+00 -0.00000000000E+00 -0.11435297314E+04  0.11435297314E+04  0.25500000000E-02 0.  1.
    5000001    1    1    2    0    0 -0.90135486929E+01  0.12340818764E+03 -0.48664146396E+03  0.50799580636E+03  0.77000000000E+02 0.  0.
   -5000001    1    1    2    0    0  0.90135486929E+01 -0.12340818764E+03 -0.63799403504E+03  0.65442815769E+03  0.77000000000E+02 0.  0.
<mgrwt>
<rscale>  0 0.29398038E+03</rscale>
<asrwt>0</asrwt>
<pdfrwt beam="1">  1        2 0.17592760E+00 0.29398038E+03</pdfrwt>
<pdfrwt beam="2">  1       -2 0.29068059E-02 0.29398038E+03</pdfrwt>
<totfact> 0.95696530E+03</totfact>
</mgrwt>
</event>
<event>
 4    1  0.6207184E-004  0.3366567E+03  0.7818608E-02  0.1068229E+00
          2   -1    0    0  501    0  0.00000000000E+00  0.00000000000E+00  0.37490334773E+04  0.37490334773E+04  0.25500000000E-02 0.  1.
         -2   -1    0    0    0  501 -0.00000000000E+00 -0.00000000000E+00 -0.75577965649E+01  0.75577969951E+01  0.25500000000E-02 0. -1.
    5000001    1    1    2    0    0  0.52518884527E+02 -0.10554591911E+03  0.28999419451E+04  0.29033584793E+04  0.77000000000E+02 0.  0.
   -5000001    1    1    2    0    0 -0.52518884527E+02  0.10554591911E+03  0.84153373558E+03  0.85323279496E+03  0.77000000000E+02 0.  0.
<mgrwt>
<rscale>  0 0.33665670E+03</rscale>
<asrwt>0</asrwt>
<pdfrwt beam="1">  1        2 0.57677522E+00 0.33665670E+03</pdfrwt>
<pdfrwt beam="2">  1       -2 0.11627363E-02 0.33665670E+03</pdfrwt>
<totfact> 0.11580281E+03</totfact>
</mgrwt>
</event>
<event>
 4    1  0.6207184E-004  0.5012530E+03  0.7818608E-02  0.1013452E+00
          2   -1    0    0  501    0  0.00000000000E+00  0.00000000000E+00  0.28475251234E+04  0.28475251234E+04  0.25500000000E-02 0.  1.
         -2   -1    0    0    0  501 -0.00000000000E+00 -0.00000000000E+00 -0.22059029863E+02  0.22059030010E+02  0.25500000000E-02 0. -1.
    5000001    1    1    2    0    0 -0.13997368777E+03  0.12528594465E+03  0.22540178006E+04  0.22631426041E+04  0.77000000000E+02 0.  0.
   -5000001    1    1    2    0    0  0.13997368777E+03 -0.12528594465E+03  0.57144829288E+03  0.60644154922E+03  0.77000000000E+02 0.  0.
<mgrwt>
<rscale>  0 0.50125300E+03</rscale>
<asrwt>0</asrwt>
<pdfrwt beam="1">  1        2 0.43808049E+00 0.50125300E+03</pdfrwt>
<pdfrwt beam="2">  1       -2 0.33936992E-02 0.50125300E+03</pdfrwt>
<totfact> 0.87231138E+02</totfact>
</mgrwt>
</event>
<event>
 4    1  0.6207184E-004  0.6657792E+03  0.7818608E-02  0.9777613E-01
         -2   -1    0    0    0  501 -0.00000000000E+00  0.00000000000E+00  0.26325872753E+03  0.26325872755E+03  0.25500000000E-02 0. -1.
          2   -1    0    0  501    0  0.00000000000E+00 -0.00000000000E+00 -0.42093752941E+03  0.42093752941E+03  0.25500000000E-02 0.  1.
    5000001    1    1    2    0    0  0.24129335293E+03 -0.20728412534E+03 -0.14132675012E+03  0.35649886548E+03  0.77000000000E+02 0.  0.
   -5000001    1    1    2    0    0 -0.24129335293E+03  0.20728412534E+03 -0.16352051753E+02  0.32769739148E+03  0.77000000000E+02 0.  0.
<mgrwt>
<rscale>  0 0.66577918E+03</rscale>
<asrwt>0</asrwt>
<pdfrwt beam="1">  1        2 0.64759620E-01 0.66577918E+03</pdfrwt>
<pdfrwt beam="2">  1       -2 0.40501343E-01 0.66577918E+03</pdfrwt>
<totfact> 0.43672261E+02</totfact>
</mgrwt>
</event>
<event>
 4    1  0.6207184E-004  0.2482076E+03  0.7818608E-02  0.1114443E+00
         -2   -1    0    0    0  501 -0.00000000000E+00  0.00000000000E+00  0.26719594244E+02  0.26719594366E+02  0.25500000000E-02 0. -1.
          2   -1    0    0  501    0  0.00000000000E+00 -0.00000000000E+00 -0.57642144910E+03  0.57642144911E+03  0.25500000000E-02 0.  1.
    5000001    1    1    2    0    0  0.64161795878E+02  0.71708085330E+02 -0.23930646656E+03  0.26917535268E+03  0.77000000000E+02 0.  0.
   -5000001    1    1    2    0    0 -0.64161795878E+02 -0.71708085330E+02 -0.31039538829E+03  0.33396569079E+03  0.77000000000E+02 0.  0.
<mgrwt>
<rscale>  0 0.24820755E+03</rscale>
<asrwt>0</asrwt>
<pdfrwt beam="1">  1        2 0.88680214E-01 0.24820755E+03</pdfrwt>
<pdfrwt beam="2">  1       -2 0.41107073E-02 0.24820755E+03</pdfrwt>
<totfact> 0.13788980E+04</totfact>
</mgrwt>
</event>
<event>
 4    1  0.6207184E-004  0.2127328E+03  0.7818608E-02  0.1139420E+00
          2   -1    0    0  501    0  0.00000000000E+00  0.00000000000E+00  0.76065209917E+03  0.76065209917E+03  0.25500000000E-02 0.  1.
         -2   -1    0    0    0  501 -0.00000000000E+00 -0.00000000000E+00 -0.14873833577E+02  0.14873833795E+02  0.25500000000E-02 0. -1.
    5000001    1    1    2    0    0  0.50108435455E+02 -0.25981437837E+02  0.54383822014E+03  0.55215477912E+03  0.77000000000E+02 0.  0.
   -5000001    1    1    2    0    0 -0.50108435455E+02  0.25981437837E+02  0.20194004545E+03  0.22337115385E+03  0.77000000000E+02 0.  0.
<mgrwt>
<rscale>  0 0.21273282E+03</rscale>
<asrwt>0</asrwt>
<pdfrwt beam="1">  1        2 0.11702345E+00 0.21273282E+03</pdfrwt>
<pdfrwt beam="2">  1       -2 0.22882811E-02 0.21273282E+03</pdfrwt>
<totfact> 0.23465239E+04</totfact>
</mgrwt>
</event>
<event>
 4    1  0.6207184E-004  0.5533627E+03  0.7818608E-02  0.1000719E+00
          2   -1    0    0  501    0  0.00000000000E+00  0.00000000000E+00  0.26423149379E+03  0.26423149380E+03  0.25500000000E-02 0.  1.
         -2   -1    0    0    0  501 -0.00000000000E+00 -0.00000000000E+00 -0.28971782512E+03  0.28971782513E+03  0.25500000000E-02 0. -1.
    5000001    1    1    2    0    0  0.11433619174E+03 -0.16274236675E+03 -0.18918474148E+03  0.28509245708E+03  0.77000000000E+02 0.  0.
   -5000001    1    1    2    0    0 -0.11433619174E+03  0.16274236675E+03  0.16369841015E+03  0.26885686185E+03  0.77000000000E+02 0.  0.
<mgrwt>
<rscale>  0 0.55336272E+03</rscale>
<asrwt>0</asrwt>
<pdfrwt beam="1">  1        2 0.40650999E-01 0.55336272E+03</pdfrwt>
<pdfrwt beam="2">  1       -2 0.44571973E-01 0.55336272E+03</pdfrwt>
<totfact> 0.60803022E+02</totfact>
</mgrwt>
</event>
<event>
 4    1  0.6207184E-004  0.3817673E+03  0.7818608E-02  0.1050282E+00
         -2   -1    0    0    0  501 -0.00000000000E+00  0.00000000000E+00  0.16073022769E+02  0.16073022971E+02  0.25500000000E-02 0.  1.
          2   -1    0    0  501    0  0.00000000000E+00 -0.00000000000E+00 -0.22669393697E+04  0.22669393697E+04  0.25500000000E-02 0. -1.
    5000001    1    1    2    0    0  0.11254057236E+03 -0.63210838503E+02 -0.18291221775E+04  0.18352868797E+04  0.77000000000E+02 0.  0.
   -5000001    1    1    2    0    0 -0.11254057236E+03  0.63210838503E+02 -0.42174416947E+03  0.44772551302E+03  0.77000000000E+02 0.  0.
<mgrwt>
<rscale>  0 0.38176730E+03</rscale>
<asrwt>0</asrwt>
<pdfrwt beam="1">  1        2 0.34875965E+00 0.38176730E+03</pdfrwt>
<pdfrwt beam="2">  1       -2 0.24727745E-02 0.38176730E+03</pdfrwt>
<totfact> 0.30112314E+03</totfact>
</mgrwt>
</event>
<event>
 4    1  0.6207184E-004  0.2828885E+03  0.7818608E-02  0.1094122E+00
         -2   -1    0    0    0  501 -0.00000000000E+00  0.00000000000E+00  0.16735754579E+02  0.16735754774E+02  0.25500000000E-02 0. -1.
          2   -1    0    0  501    0  0.00000000000E+00 -0.00000000000E+00 -0.11954335113E+04  0.11954335113E+04  0.25500000000E-02 0.  1.
    5000001    1    1    2    0    0 -0.49115396649E+02 -0.43126766760E+02 -0.10136528167E+04  0.10186723089E+04  0.77000000000E+02 0.  0.
   -5000001    1    1    2    0    0  0.49115396649E+02  0.43126766760E+02 -0.16504494011E+03  0.19349695722E+03  0.77000000000E+02 0.  0.
<mgrwt>
<rscale>  0 0.28288854E+03</rscale>
<asrwt>0</asrwt>
<pdfrwt beam="1">  1        2 0.18391278E+00 0.28288854E+03</pdfrwt>
<pdfrwt beam="2">  1       -2 0.25747324E-02 0.28288854E+03</pdfrwt>
<totfact> 0.10689183E+04</totfact>
</mgrwt>
</event>
<event>
 4    1  0.6207184E-004  0.5167768E+03  0.7818608E-02  0.1009490E+00
          2   -1    0    0  501    0  0.00000000000E+00  0.00000000000E+00  0.94487345433E+03  0.94487345433E+03  0.25500000000E-02 0.  1.
         -2   -1    0    0    0  501 -0.00000000000E+00 -0.00000000000E+00 -0.70659796137E+02  0.70659796183E+02  0.25500000000E-02 0. -1.
    5000001    1    1    2    0    0  0.11606470007E+03  0.10310473230E+03  0.81374561683E+03  0.83199310654E+03  0.77000000000E+02 0.  0.
   -5000001    1    1    2    0    0 -0.11606470007E+03 -0.10310473230E+03  0.60468041365E+02  0.18354014398E+03  0.77000000000E+02 0.  0.
<mgrwt>
<rscale>  0 0.51677680E+03</rscale>
<asrwt>0</asrwt>
<pdfrwt beam="1">  1        2 0.14536514E+00 0.51677680E+03</pdfrwt>
<pdfrwt beam="2">  1       -2 0.10870739E-01 0.51677680E+03</pdfrwt>
<totfact> 0.16481057E+03</totfact>
</mgrwt>
</event>
<event>
 4    1  0.6207184E-004  0.2581526E+03  0.7818608E-02  0.1108258E+00
          2   -1    0    0  501    0  0.00000000000E+00  0.00000000000E+00  0.23587879297E+04  0.23587879297E+04  0.25500000000E-02 0.  1.
         -2   -1    0    0    0  501 -0.00000000000E+00 -0.00000000000E+00 -0.70632444007E+01  0.70632448611E+01  0.25500000000E-02 0. -1.
    5000001    1    1    2    0    0  0.27427483849E+02  0.40043019368E+02  0.20146051765E+04  0.20166602905E+04  0.77000000000E+02 0.  0.
   -5000001    1    1    2    0    0 -0.27427483849E+02 -0.40043019368E+02  0.33711950883E+03  0.34919088405E+03  0.77000000000E+02 0.  0.
<mgrwt>
<rscale>  0 0.25815264E+03</rscale>
<asrwt>0</asrwt>
<pdfrwt beam="1">  1        2 0.36289149E+00 0.25815264E+03</pdfrwt>
<pdfrwt beam="2">  1       -2 0.10866499E-02 0.25815264E+03</pdfrwt>
<totfact> 0.90385150E+03</totfact>
</mgrwt>
</event>
<event>
 4    1  0.6207184E-004  0.1836629E+03  0.7818608E-02  0.1164304E+00
          2   -1    0    0  501    0  0.00000000000E+00  0.00000000000E+00  0.31452822395E+02  0.31452822498E+02  0.25500000000E-02 0.  1.
         -2   -1    0    0    0  501 -0.00000000000E+00 -0.00000000000E+00 -0.26811638573E+03  0.26811638574E+03  0.25500000000E-02 0. -1.
    5000001    1    1    2    0    0 -0.39352872507E+02 -0.29263148050E+02 -0.13456384399E+03  0.16260814407E+03  0.77000000000E+02 0.  0.
   -5000001    1    1    2    0    0  0.39352872507E+02  0.29263148050E+02 -0.10209971934E+03  0.13696106417E+03  0.77000000000E+02 0.  0.
<mgrwt>
<rscale>  0 0.18366292E+03</rscale>
<asrwt>0</asrwt>
<pdfrwt beam="1">  1        2 0.48388959E-02 0.18366292E+03</pdfrwt>
<pdfrwt beam="2">  1       -2 0.41248673E-01 0.18366292E+03</pdfrwt>
<totfact> 0.88875052E+03</totfact>
</mgrwt>
</event>
<event>
 4    1  0.6207184E-004  0.4486814E+03  0.7818608E-02  0.1028116E+00
         -2   -1    0    0    0  501 -0.00000000000E+00  0.00000000000E+00  0.55940549998E+02  0.55940550056E+02  0.25500000000E-02 0. -1.
          2   -1    0    0  501    0  0.00000000000E+00 -0.00000000000E+00 -0.89968293198E+03  0.89968293198E+03  0.25500000000E-02 0.  1.
    5000001    1    1    2    0    0  0.64313522317E+02  0.19879390300E+03 -0.36375664266E+03  0.42650104349E+03  0.77000000000E+02 0.  0.
   -5000001    1    1    2    0    0 -0.64313522317E+02 -0.19879390300E+03 -0.47998573933E+03  0.52912243855E+03  0.77000000000E+02 0.  0.
<mgrwt>
<rscale>  0 0.44868144E+03</rscale>
<asrwt>0</asrwt>
<pdfrwt beam="1">  1        2 0.13841275E+00 0.44868144E+03</pdfrwt>
<pdfrwt beam="2">  1       -2 0.86062392E-02 0.44868144E+03</pdfrwt>
<totfact> 0.25697884E+03</totfact>
</mgrwt>
</event>
<event>
 4    1  0.6207184E-004  0.2445187E+03  0.7818608E-02  0.1116819E+00
          2   -1    0    0  501    0  0.00000000000E+00  0.00000000000E+00  0.80229759620E+03  0.80229759621E+03  0.25500000000E-02 0.  1.
         -2   -1    0    0    0  501 -0.00000000000E+00 -0.00000000000E+00 -0.18630673793E+02  0.18630673967E+02  0.25500000000E-02 0. -1.
    5000001    1    1    2    0    0 -0.74928351984E+02  0.57239178786E+02  0.35388481041E+03  0.37423794644E+03  0.77000000000E+02 0.  0.
   -5000001    1    1    2    0    0  0.74928351984E+02 -0.57239178786E+02  0.42978211200E+03  0.44669032373E+03  0.77000000000E+02 0.  0.
<mgrwt>
<rscale>  0 0.24451867E+03</rscale>
<asrwt>0</asrwt>
<pdfrwt beam="1">  1        2 0.12343039E+00 0.24451867E+03</pdfrwt>
<pdfrwt beam="2">  1       -2 0.28662576E-02 0.24451867E+03</pdfrwt>
<totfact> 0.15862522E+04</totfact>
</mgrwt>
</event>
<event>
 4    1  0.6207184E-004  0.2227881E+03  0.7818608E-02  0.1131821E+00
          2   -1    0    0  501    0  0.00000000000E+00  0.00000000000E+00  0.11717821374E+04  0.11717821374E+04  0.25500000000E-02 0.  1.
         -2   -1    0    0    0  501 -0.00000000000E+00 -0.00000000000E+00 -0.10589539494E+02  0.10589539801E+02  0.25500000000E-02 0. -1.
    5000001    1    1    2    0    0  0.36210727184E+02  0.70973011039E+02  0.51979554489E+03  0.53147417016E+03  0.77000000000E+02 0.  0.
   -5000001    1    1    2    0    0 -0.36210727184E+02 -0.70973011039E+02  0.64139705298E+03  0.65089750701E+03  0.77000000000E+02 0.  0.
<mgrwt>
<rscale>  0 0.22278809E+03</rscale>
<asrwt>0</asrwt>
<pdfrwt beam="1">  1        2 0.18027402E+00 0.22278809E+03</pdfrwt>
<pdfrwt beam="2">  1       -2 0.16291613E-02 0.22278809E+03</pdfrwt>
<totfact> 0.21412633E+04</totfact>
</mgrwt>
</event>
<event>
 4    1  0.6207184E-004  0.2846577E+03  0.7818608E-02  0.1093172E+00
          2   -1    0    0  501    0  0.00000000000E+00  0.00000000000E+00  0.80526812251E+03  0.80526812251E+03  0.25500000000E-02 0.  1.
         -2   -1    0    0    0  501 -0.00000000000E+00 -0.00000000000E+00 -0.25156211595E+02  0.25156211724E+02  0.25500000000E-02 0. -1.
    5000001    1    1    2    0    0  0.11153094297E+03 -0.30156085869E+02  0.48137895572E+03  0.50100223529E+03  0.77000000000E+02 0.  0.
   -5000001    1    1    2    0    0 -0.11153094297E+03  0.30156085869E+02  0.29873295519E+03  0.32942209894E+03  0.77000000000E+02 0.  0.
<mgrwt>
<rscale>  0 0.28465766E+03</rscale>
<asrwt>0</asrwt>
<pdfrwt beam="1">  1        2 0.12388739E+00 0.28465766E+03</pdfrwt>
<pdfrwt beam="2">  1       -2 0.38701867E-02 0.28465766E+03</pdfrwt>
<totfact> 0.10144168E+04</totfact>
</mgrwt>
</event>
<event>
 4    1  0.6207184E-004  0.2333263E+03  0.7818608E-02  0.1124320E+00
          2   -1    0    0  501    0  0.00000000000E+00  0.00000000000E+00  0.16588137633E+03  0.16588137635E+03  0.25500000000E-02 0.  1.
         -2   -1    0    0    0  501 -0.00000000000E+00 -0.00000000000E+00 -0.82048327768E+02  0.82048327808E+02  0.25500000000E-02 0. -1.
    5000001    1    1    2    0    0  0.66118611809E+02  0.50902707570E+02  0.70399690694E+02  0.13359593151E+03  0.77000000000E+02 0.  0.
   -5000001    1    1    2    0    0 -0.66118611809E+02 -0.50902707570E+02  0.13433357872E+02  0.11433377265E+03  0.77000000000E+02 0.  0.
<mgrwt>
<rscale>  0 0.23332629E+03</rscale>
<asrwt>0</asrwt>
<pdfrwt beam="1">  1        2 0.25520211E-01 0.23332629E+03</pdfrwt>
<pdfrwt beam="2">  1       -2 0.12622820E-01 0.23332629E+03</pdfrwt>
<totfact> 0.93790867E+03</totfact>
</mgrwt>
</event>
<event>
 4    1  0.6207184E-004  0.5888065E+03  0.7818608E-02  0.9928905E-01
         -2   -1    0    0    0  501 -0.00000000000E+00  0.00000000000E+00  0.65277899981E+02  0.65277900031E+02  0.25500000000E-02 0. -1.
          2   -1    0    0  501    0  0.00000000000E+00 -0.00000000000E+00 -0.13277581309E+04  0.13277581309E+04  0.25500000000E-02 0.  1.
    5000001    1    1    2    0    0 -0.23491288400E+03 -0.11790140523E+03 -0.88670367808E+03  0.92803944806E+03  0.77000000000E+02 0.  0.
   -5000001    1    1    2    0    0  0.23491288400E+03  0.11790140523E+03 -0.37577655283E+03  0.46499658287E+03  0.77000000000E+02 0.  0.
<mgrwt>
<rscale>  0 0.58880646E+03</rscale>
<asrwt>0</asrwt>
<pdfrwt beam="1">  1        2 0.20427046E+00 0.58880646E+03</pdfrwt>
<pdfrwt beam="2">  1       -2 0.10042755E-01 0.58880646E+03</pdfrwt>
<totfact> 0.11016659E+03</totfact>
</mgrwt>
</event>
<event>
 4    1  0.6207184E-004  0.3521630E+03  0.7818608E-02  0.1061731E+00
          2   -1    0    0  501    0  0.00000000000E+00  0.00000000000E+00  0.19294958776E+04  0.19294958776E+04  0.25500000000E-02 0.  1.
         -2   -1    0    0    0  501 -0.00000000000E+00 -0.00000000000E+00 -0.16068806049E+02  0.16068806251E+02  0.25500000000E-02 0. -1.
    5000001    1    1    2    0    0 -0.19234848625E+02 -0.14749527682E+03  0.12568205768E+04  0.12679320953E+04  0.77000000000E+02 0.  0.
   -5000001    1    1    2    0    0  0.19234848625E+02  0.14749527682E+03  0.65660649475E+03  0.67763258853E+03  0.77000000000E+02 0.  0.
<mgrwt>
<rscale>  0 0.35216300E+03</rscale>
<asrwt>0</asrwt>
<pdfrwt beam="1">  1        2 0.29684543E+00 0.35216300E+03</pdfrwt>
<pdfrwt beam="2">  1       -2 0.24721248E-02 0.35216300E+03</pdfrwt>
<totfact> 0.45691104E+03</totfact>
</mgrwt>
</event>
<event>
 4    1  0.6207184E-004  0.2071420E+03  0.7818608E-02  0.1143849E+00
         -2   -1    0    0    0  501 -0.00000000000E+00  0.00000000000E+00  0.11093430907E+02  0.11093431200E+02  0.25500000000E-02 0. -1.
          2   -1    0    0  501    0  0.00000000000E+00 -0.00000000000E+00 -0.96696419223E+03  0.96696419224E+03  0.25500000000E-02 0.  1.
    5000001    1    1    2    0    0  0.59672331740E+02  0.33032099301E+02 -0.53499619036E+03  0.54479521882E+03  0.77000000000E+02 0.  0.
   -5000001    1    1    2    0    0 -0.59672331740E+02 -0.33032099301E+02 -0.42087457097E+03  0.43326240461E+03  0.77000000000E+02 0.  0.
<mgrwt>
<rscale>  0 0.20714199E+03</rscale>
<asrwt>0</asrwt>
<pdfrwt beam="1">  1        2 0.14876366E+00 0.20714199E+03</pdfrwt>
<pdfrwt beam="2">  1       -2 0.17066825E-02 0.20714199E+03</pdfrwt>
<totfact> 0.26327733E+04</totfact>
</mgrwt>
</event>
<event>
 4    1  0.6207184E-004  0.1915903E+03  0.7818608E-02  0.1157035E+00
          2   -1    0    0  501    0  0.00000000000E+00  0.00000000000E+00  0.59599043339E+03  0.59599043339E+03  0.25500000000E-02 0.  1.
         -2   -1    0    0    0  501 -0.00000000000E+00 -0.00000000000E+00 -0.15397407938E+02  0.15397408150E+02  0.25500000000E-02 0. -1.
    5000001    1    1    2    0    0  0.14526390079E+02 -0.41807313683E+02  0.17573389714E+03  0.19690167620E+03  0.77000000000E+02 0.  0.
   -5000001    1    1    2    0    0 -0.14526390079E+02  0.41807313683E+02  0.40485912831E+03  0.41448616534E+03  0.77000000000E+02 0.  0.
<mgrwt>
<rscale>  0 0.19159027E+03</rscale>
<asrwt>0</asrwt>
<pdfrwt beam="1">  1        2 0.91690836E-01 0.19159027E+03</pdfrwt>
<pdfrwt beam="2">  1       -2 0.23688320E-02 0.19159027E+03</pdfrwt>
<totfact> 0.29598690E+04</totfact>
</mgrwt>
</event>
<event>
 4    1  0.6207184E-004  0.4888015E+03  0.7818608E-02  0.1016744E+00
         -2   -1    0    0    0  501 -0.00000000000E+00  0.00000000000E+00  0.39738175698E+03  0.39738175698E+03  0.25500000000E-02 0. -1.
          2   -1    0    0  501    0  0.00000000000E+00 -0.00000000000E+00 -0.15031318364E+03  0.15031318366E+03  0.25500000000E-02 0.  1.
    5000001    1    1    2    0    0  0.14900023349E+03 -0.11772102089E+03 -0.25719295017E+02  0.20651825700E+03  0.77000000000E+02 0.  0.
   -5000001    1    1    2    0    0 -0.14900023349E+03  0.11772102089E+03  0.27278786836E+03  0.34117668364E+03  0.77000000000E+02 0.  0.
<mgrwt>
<rscale>  0 0.48880146E+03</rscale>
<asrwt>0</asrwt>
<pdfrwt beam="1">  1        2 0.23125105E-01 0.48880146E+03</pdfrwt>
<pdfrwt beam="2">  1       -2 0.61135655E-01 0.48880146E+03</pdfrwt>
<totfact> 0.60102484E+02</totfact>
</mgrwt>
</event>
<event>
 4    1  0.6207184E-004  0.2601210E+03  0.7818608E-02  0.1107071E+00
         -2   -1    0    0    0  501 -0.00000000000E+00  0.00000000000E+00  0.12219438977E+03  0.12219438980E+03  0.25500000000E-02 0. -1.
          2   -1    0    0  501    0  0.00000000000E+00 -0.00000000000E+00 -0.13843293950E+03  0.13843293953E+03  0.25500000000E-02 0.  1.
    5000001    1    1    2    0    0 -0.53790331662E+02 -0.82033159125E+02  0.28883493122E+02  0.12800818392E+03  0.77000000000E+02 0.  0.
   -5000001    1    1    2    0    0  0.53790331662E+02  0.82033159125E+02 -0.45122042855E+02  0.13261914540E+03  0.77000000000E+02 0.  0.
<mgrwt>
<rscale>  0 0.26012096E+03</rscale>
<asrwt>0</asrwt>
<pdfrwt beam="1">  1        2 0.21297375E-01 0.26012096E+03</pdfrwt>
<pdfrwt beam="2">  1       -2 0.18799137E-01 0.26012096E+03</pdfrwt>
<totfact> 0.59739949E+03</totfact>
</mgrwt>
</event>
<event>
 4    1  0.6207184E-004  0.2331144E+03  0.7818608E-02  0.1124467E+00
          2   -1    0    0  501    0  0.00000000000E+00  0.00000000000E+00  0.22740359810E+03  0.22740359811E+03  0.25500000000E-02 0.  1.
         -2   -1    0    0    0  501 -0.00000000000E+00 -0.00000000000E+00 -0.59742134979E+02  0.59742135033E+02  0.25500000000E-02 0. -1.
    5000001    1    1    2    0    0  0.11475078568E+02  0.84563121040E+02  0.60009943362E+02  0.12966415145E+03  0.77000000000E+02 0.  0.
   -5000001    1    1    2    0    0 -0.11475078568E+02 -0.84563121040E+02  0.10765151976E+03  0.15748158170E+03  0.77000000000E+02 0.  0.
<mgrwt>
<rscale>  0 0.23311436E+03</rscale>
<asrwt>0</asrwt>
<pdfrwt beam="1">  1        2 0.34985169E-01 0.23311436E+03</pdfrwt>
<pdfrwt beam="2">  1       -2 0.91910977E-02 0.23311436E+03</pdfrwt>
<totfact> 0.11013079E+04</totfact>
</mgrwt>
</event>
<event>
 4    1  0.6207184E-004  0.2115052E+03  0.7818608E-02  0.1140380E+00
          2   -1    0    0  501    0  0.00000000000E+00  0.00000000000E+00  0.51825034908E+03  0.51825034908E+03  0.25500000000E-02 0.  1.
         -2   -1    0    0    0  501 -0.00000000000E+00 -0.00000000000E+00 -0.21579565395E+02  0.21579565546E+02  0.25500000000E-02 0. -1.
    5000001    1    1    2    0    0 -0.55583015719E+02 -0.24027489828E+02  0.35003919180E+03  0.36348758948E+03  0.77000000000E+02 0.  0.
   -5000001    1    1    2    0    0  0.55583015719E+02  0.24027489828E+02  0.14663159188E+03  0.17634232515E+03  0.77000000000E+02 0.  0.
<mgrwt>
<rscale>  0 0.21150525E+03</rscale>
<asrwt>0</asrwt>
<pdfrwt beam="1">  1        2 0.79730832E-01 0.21150525E+03</pdfrwt>
<pdfrwt beam="2">  1       -2 0.33199328E-02 0.21150525E+03</pdfrwt>
<totfact> 0.21210793E+04</totfact>
</mgrwt>
</event>
<event>
 4    1  0.6207184E-004  0.2941854E+03  0.7818608E-02  0.1088184E+00
          2   -1    0    0  501    0  0.00000000000E+00  0.00000000000E+00  0.32928092454E+04  0.32928092454E+04  0.25500000000E-02 0.  1.
         -2   -1    0    0    0  501 -0.00000000000E+00 -0.00000000000E+00 -0.65707597612E+01  0.65707602560E+01  0.25500000000E-02 0. -1.
    5000001    1    1    2    0    0  0.11671000604E+03  0.44708113489E+02  0.15383785898E+04  0.15453665347E+04  0.77000000000E+02 0.  0.
   -5000001    1    1    2    0    0 -0.11671000604E+03 -0.44708113489E+02  0.17478598958E+04  0.17540134709E+04  0.77000000000E+02 0.  0.
<mgrwt>
<rscale>  0 0.29418538E+03</rscale>
<asrwt>0</asrwt>
<pdfrwt beam="1">  1        2 0.50658623E+00 0.29418538E+03</pdfrwt>
<pdfrwt beam="2">  1       -2 0.10108858E-02 0.29418538E+03</pdfrwt>
<totfact> 0.28904242E+03</totfact>
</mgrwt>
</event>
<event>
 4    1  0.6207184E-004  0.1853339E+03  0.7818608E-02  0.1162738E+00
         -2   -1    0    0    0  501 -0.00000000000E+00  0.00000000000E+00  0.11995190545E+02  0.11995190816E+02  0.25500000000E-02 0. -1.
          2   -1    0    0  501    0  0.00000000000E+00 -0.00000000000E+00 -0.71588405855E+03  0.71588405856E+03  0.25500000000E-02 0.  1.
    5000001    1    1    2    0    0 -0.28473665618E+02  0.42417583930E+02 -0.32468800303E+03  0.33758154626E+03  0.77000000000E+02 0.  0.
   -5000001    1    1    2    0    0  0.28473665618E+02 -0.42417583930E+02 -0.37920086497E+03  0.39029770312E+03  0.77000000000E+02 0.  0.
<mgrwt>
<rscale>  0 0.18533392E+03</rscale>
<asrwt>0</asrwt>
<pdfrwt beam="1">  1        2 0.11013598E+00 0.18533392E+03</pdfrwt>
<pdfrwt beam="2">  1       -2 0.18454145E-02 0.18533392E+03</pdfrwt>
<totfact> 0.34282436E+04</totfact>
</mgrwt>
</event>
<event>
 4    1  0.6207184E-004  0.3127071E+03  0.7818608E-02  0.1079056E+00
          2   -1    0    0  501    0  0.00000000000E+00  0.00000000000E+00  0.17801501146E+04  0.17801501146E+04  0.25500000000E-02 0.  1.
         -2   -1    0    0    0  501 -0.00000000000E+00 -0.00000000000E+00 -0.13732792257E+02  0.13732792494E+02  0.25500000000E-02 0. -1.
    5000001    1    1    2    0    0  0.64555005357E+02  0.63134664558E+02  0.14672211001E+04  0.14720122592E+04  0.77000000000E+02 0.  0.
   -5000001    1    1    2    0    0 -0.64555005357E+02 -0.63134664558E+02  0.29919622219E+03  0.32187064787E+03  0.77000000000E+02 0.  0.
<mgrwt>
<rscale>  0 0.31270710E+03</rscale>
<asrwt>0</asrwt>
<pdfrwt beam="1">  1        2 0.27386916E+00 0.31270710E+03</pdfrwt>
<pdfrwt beam="2">  1       -2 0.21127380E-02 0.31270710E+03</pdfrwt>
<totfact> 0.69206241E+03</totfact>
</mgrwt>
</event>
<event>
 4    1  0.6207184E-004  0.2525840E+03  0.7818608E-02  0.1111683E+00
         -2   -1    0    0    0  501 -0.00000000000E+00  0.00000000000E+00  0.12402408099E+03  0.12402408102E+03  0.25500000000E-02 0. -1.
          2   -1    0    0  501    0  0.00000000000E+00 -0.00000000000E+00 -0.12860140859E+03  0.12860140861E+03  0.25500000000E-02 0.  1.
    5000001    1    1    2    0    0 -0.94801482206E+02  0.26782863975E+02 -0.20068778407E+02  0.12663490316E+03  0.77000000000E+02 0.  0.
   -5000001    1    1    2    0    0  0.94801482206E+02 -0.26782863975E+02  0.15491450812E+02  0.12599058647E+03  0.77000000000E+02 0.  0.
<mgrwt>
<rscale>  0 0.25258402E+03</rscale>
<asrwt>0</asrwt>
<pdfrwt beam="1">  1        2 0.19784832E-01 0.25258402E+03</pdfrwt>
<pdfrwt beam="2">  1       -2 0.19080628E-01 0.25258402E+03</pdfrwt>
<totfact> 0.63280631E+03</totfact>
</mgrwt>
</event>
<event>
 4    1  0.6207184E-004  0.2063523E+03  0.7818608E-02  0.1144488E+00
         -2   -1    0    0    0  501 -0.00000000000E+00  0.00000000000E+00  0.65107845967E+02  0.65107846017E+02  0.25500000000E-02 0. -1.
          2   -1    0    0  501    0  0.00000000000E+00 -0.00000000000E+00 -0.16350285637E+03  0.16350285639E+03  0.25500000000E-02 0.  1.
    5000001    1    1    2    0    0 -0.20992031450E+02 -0.52156260630E+02 -0.55051770500E+01  0.95499988909E+02  0.77000000000E+02 0.  0.
   -5000001    1    1    2    0    0  0.20992031450E+02  0.52156260630E+02 -0.92889833351E+02  0.13311071350E+03  0.77000000000E+02 0.  0.
<mgrwt>
<rscale>  0 0.20635231E+03</rscale>
<asrwt>0</asrwt>
<pdfrwt beam="1">  1        2 0.25154285E-01 0.20635231E+03</pdfrwt>
<pdfrwt beam="2">  1       -2 0.10016592E-01 0.20635231E+03</pdfrwt>
<totfact> 0.13697086E+04</totfact>
</mgrwt>
</event>
<event>
 4    1  0.6207184E-004  0.1869653E+03  0.7818608E-02  0.1161227E+00
          2   -1    0    0  501    0  0.00000000000E+00  0.00000000000E+00  0.26481969127E+02  0.26481969250E+02  0.25500000000E-02 0.  1.
         -2   -1    0    0    0  501 -0.00000000000E+00 -0.00000000000E+00 -0.32999835195E+03  0.32999835196E+03  0.25500000000E-02 0. -1.
    5000001    1    1    2    0    0 -0.48639376615E+02 -0.73876220619E+01 -0.11412193126E+03  0.14619569458E+03  0.77000000000E+02 0.  0.
   -5000001    1    1    2    0    0  0.48639376615E+02  0.73876220619E+01 -0.18939445156E+03  0.21028462664E+03  0.77000000000E+02 0.  0.
<mgrwt>
<rscale>  0 0.18696530E+03</rscale>
<asrwt>0</asrwt>
<pdfrwt beam="1">  1        2 0.40741493E-02 0.18696530E+03</pdfrwt>
<pdfrwt beam="2">  1       -2 0.50768974E-01 0.18696530E+03</pdfrwt>
<totfact> 0.74525514E+03</totfact>
</mgrwt>
</event>
<event>
 4    1  0.6207184E-004  0.7793017E+03  0.7818608E-02  0.9590470E-01
          2   -1    0    0  501    0  0.00000000000E+00  0.00000000000E+00  0.14321172138E+04  0.14321172138E+04  0.25500000000E-02 0.  1.
         -2   -1    0    0    0  501 -0.00000000000E+00 -0.00000000000E+00 -0.10601631453E+03  0.10601631456E+03  0.25500000000E-02 0. -1.
    5000001    1    1    2    0    0 -0.35505917581E+03 -0.11316326209E+03  0.49761150646E+03  0.62643367852E+03  0.77000000000E+02 0.  0.
   -5000001    1    1    2    0    0  0.35505917581E+03  0.11316326209E+03  0.82848939276E+03  0.91169984981E+03  0.77000000000E+02 0.  0.
<mgrwt>
<rscale>  0 0.77930171E+03</rscale>
<asrwt>0</asrwt>
<pdfrwt beam="1">  1        2 0.22032572E+00 0.77930171E+03</pdfrwt>
<pdfrwt beam="2">  1       -2 0.16310203E-01 0.77930171E+03</pdfrwt>
<totfact> 0.42556765E+02</totfact>
</mgrwt>
</event>
<event>
 4    1  0.6207184E-004  0.2461661E+03  0.7818608E-02  0.1115752E+00
          2   -1    0    0  501    0  0.00000000000E+00  0.00000000000E+00  0.24675404531E+03  0.24675404532E+03  0.25500000000E-02 0.  1.
         -2   -1    0    0    0  501 -0.00000000000E+00 -0.00000000000E+00 -0.61394910994E+02  0.61394911047E+02  0.25500000000E-02 0. -1.
    5000001    1    1    2    0    0 -0.68007134559E+02  0.27558513594E+02  0.15149222783E+02  0.10743807972E+03  0.77000000000E+02 0.  0.
   -5000001    1    1    2    0    0  0.68007134559E+02 -0.27558513594E+02  0.17020991153E+03  0.20071087665E+03  0.77000000000E+02 0.  0.
<mgrwt>
<rscale>  0 0.24616614E+03</rscale>
<asrwt>0</asrwt>
<pdfrwt beam="1">  1        2 0.37962161E-01 0.24616614E+03</pdfrwt>
<pdfrwt beam="2">  1       -2 0.94453710E-02 0.24616614E+03</pdfrwt>
<totfact> 0.96843116E+03</totfact>
</mgrwt>
</event>
<event>
 4    1  0.6207184E-004  0.2107400E+03  0.7818608E-02  0.1140981E+00
         -2   -1    0    0    0  501 -0.00000000000E+00  0.00000000000E+00  0.16800788556E+03  0.16800788558E+03  0.25500000000E-02 0. -1.
          2   -1    0    0  501    0  0.00000000000E+00 -0.00000000000E+00 -0.66085219432E+02  0.66085219482E+02  0.25500000000E-02 0.  1.
    5000001    1    1    2    0    0 -0.55130983934E+02  0.11312162249E+02  0.12041786904E+01  0.95382600355E+02  0.77000000000E+02 0.  0.
   -5000001    1    1    2    0    0  0.55130983934E+02 -0.11312162249E+02  0.10071848744E+03  0.13871050471E+03  0.77000000000E+02 0.  0.
<mgrwt>
<rscale>  0 0.21074001E+03</rscale>
<asrwt>0</asrwt>
<pdfrwt beam="1">  1        2 0.10166957E-01 0.21074001E+03</pdfrwt>
<pdfrwt beam="2">  1       -2 0.25847367E-01 0.21074001E+03</pdfrwt>
<totfact> 0.81880543E+03</totfact>
</mgrwt>
</event>
<event>
 4    1  0.6207184E-004  0.2909413E+03  0.7818608E-02  0.1089859E+00
         -2   -1    0    0    0  501 -0.00000000000E+00  0.00000000000E+00  0.21233394491E+02  0.21233394644E+02  0.25500000000E-02 0. -1.
          2   -1    0    0  501    0  0.00000000000E+00 -0.00000000000E+00 -0.99662428571E+03  0.99662428571E+03  0.25500000000E-02 0.  1.
    5000001    1    1    2    0    0  0.52315317528E+02 -0.20966302408E+02 -0.10355721808E+03  0.14081752626E+03  0.77000000000E+02 0.  0.
   -5000001    1    1    2    0    0 -0.52315317528E+02  0.20966302408E+02 -0.87183367314E+03  0.87704015410E+03  0.77000000000E+02 0.  0.
<mgrwt>
<rscale>  0 0.29094135E+03</rscale>
<asrwt>0</asrwt>
<pdfrwt beam="1">  1        2 0.15332678E+00 0.29094135E+03</pdfrwt>
<pdfrwt beam="2">  1       -2 0.32666769E-02 0.29094135E+03</pdfrwt>
<totfact> 0.98343267E+03</totfact>
</mgrwt>
</event>
<event>
 4    1  0.6207184E-004  0.2239200E+03  0.7818608E-02  0.1130994E+00
          2   -1    0    0  501    0  0.00000000000E+00  0.00000000000E+00  0.47300249568E+02  0.47300249636E+02  0.25500000000E-02 0.  1.
         -2   -1    0    0    0  501 -0.00000000000E+00 -0.00000000000E+00 -0.26501002769E+03  0.26501002770E+03  0.25500000000E-02 0. -1.
    5000001    1    1    2    0    0 -0.53630516102E+02  0.14114931483E+02 -0.25981280692E+02  0.98384401683E+02  0.77000000000E+02 0.  0.
   -5000001    1    1    2    0    0  0.53630516102E+02 -0.14114931483E+02 -0.19172849743E+03  0.21392587566E+03  0.77000000000E+02 0.  0.
<mgrwt>
<rscale>  0 0.22391999E+03</rscale>
<asrwt>0</asrwt>
<pdfrwt beam="1">  1        2 0.72769616E-02 0.22391999E+03</pdfrwt>
<pdfrwt beam="2">  1       -2 0.40770773E-01 0.22391999E+03</pdfrwt>
<totfact> 0.54176906E+03</totfact>
</mgrwt>
</event>
<event>
 4    1  0.6207184E-004  0.2590671E+03  0.7818608E-02  0.1107705E+00
          2   -1    0    0  501    0  0.00000000000E+00  0.00000000000E+00  0.17018455371E+03  0.17018455373E+03  0.25500000000E-02 0.  1.
         -2   -1    0    0    0  501 -0.00000000000E+00 -0.00000000000E+00 -0.98592606048E+02  0.98592606081E+02  0.25500000000E-02 0. -1.
    5000001    1    1    2    0    0 -0.21962613462E+02 -0.60301604778E+02 -0.49323622240E+02  0.11171597755E+03  0.77000000000E+02 0.  0.
   -5000001    1    1    2    0    0  0.21962613462E+02  0.60301604778E+02  0.12091556991E+03  0.15706118227E+03  0.77000000000E+02 0.  0.
<mgrwt>
<rscale>  0 0.25906709E+03</rscale>
<asrwt>0</asrwt>
<pdfrwt beam="1">  1        2 0.26182239E-01 0.25906709E+03</pdfrwt>
<pdfrwt beam="2">  1       -2 0.15168093E-01 0.25906709E+03</pdfrwt>
<totfact> 0.67829014E+03</totfact>
</mgrwt>
</event>
<event>
 4    1  0.6207184E-004  0.2785997E+03  0.7818608E-02  0.1096456E+00
          2   -1    0    0  501    0  0.00000000000E+00  0.00000000000E+00  0.12050866860E+04  0.12050866860E+04  0.25500000000E-02 0.  1.
         -2   -1    0    0    0  501 -0.00000000000E+00 -0.00000000000E+00 -0.16102118001E+02  0.16102118203E+02  0.25500000000E-02 0. -1.
    5000001    1    1    2    0    0  0.11110155395E+03 -0.50082217366E+01  0.44866498920E+03  0.46861275069E+03  0.77000000000E+02 0.  0.
   -5000001    1    1    2    0    0 -0.11110155395E+03  0.50082217366E+01  0.74031957883E+03  0.75257605355E+03  0.77000000000E+02 0.  0.
<mgrwt>
<rscale>  0 0.27859970E+03</rscale>
<asrwt>0</asrwt>
<pdfrwt beam="1">  1        2 0.18539795E+00 0.27859970E+03</pdfrwt>
<pdfrwt beam="2">  1       -2 0.24772489E-02 0.27859970E+03</pdfrwt>
<totfact> 0.11171510E+04</totfact>
</mgrwt>
</event>
<event>
 4    1  0.6207184E-004  0.2282225E+03  0.7818608E-02  0.1127897E+00
         -2   -1    0    0    0  501 -0.00000000000E+00  0.00000000000E+00  0.12320967416E+02  0.12320967679E+02  0.25500000000E-02 0. -1.
          2   -1    0    0  501    0  0.00000000000E+00 -0.00000000000E+00 -0.10568468887E+04  0.10568468887E+04  0.25500000000E-02 0.  1.
    5000001    1    1    2    0    0 -0.60343700306E+02 -0.34011906363E+02 -0.29787296131E+03  0.31536561800E+03  0.77000000000E+02 0.  0.
   -5000001    1    1    2    0    0  0.60343700306E+02  0.34011906363E+02 -0.74665295993E+03  0.75380223833E+03  0.77000000000E+02 0.  0.
<mgrwt>
<rscale>  0 0.22822249E+03</rscale>
<asrwt>0</asrwt>
<pdfrwt beam="1">  1        2 0.16259176E+00 0.22822249E+03</pdfrwt>
<pdfrwt beam="2">  1       -2 0.18955343E-02 0.22822249E+03</pdfrwt>
<totfact> 0.20037915E+04</totfact>
</mgrwt>
</event>
<event>
 4    1  0.6207184E-004  0.3372431E+03  0.7818608E-02  0.1067976E+00
          2   -1    0    0  501    0  0.00000000000E+00  0.00000000000E+00  0.93863891790E+03  0.93863891790E+03  0.25500000000E-02 0.  1.
         -2   -1    0    0    0  501 -0.00000000000E+00 -0.00000000000E+00 -0.30291968733E+02  0.30291968841E+02  0.25500000000E-02 0. -1.
    5000001    1    1    2    0    0 -0.10358631327E+03 -0.10671354410E+03  0.51064390941E+03  0.53740497487E+03  0.77000000000E+02 0.  0.
   -5000001    1    1    2    0    0  0.10358631327E+03  0.10671354410E+03  0.39770303975E+03  0.43152591188E+03  0.77000000000E+02 0.  0.
<mgrwt>
<rscale>  0 0.33724306E+03</rscale>
<asrwt>0</asrwt>
<pdfrwt beam="1">  1        2 0.14440598E+00 0.33724306E+03</pdfrwt>
<pdfrwt beam="2">  1       -2 0.46603031E-02 0.33724306E+03</pdfrwt>
<totfact> 0.62763005E+03</totfact>
</mgrwt>
</event>
<event>
 4    1  0.6207184E-004  0.4299980E+03  0.7818608E-02  0.1033861E+00
         -2   -1    0    0    0  501 -0.00000000000E+00  0.00000000000E+00  0.44263204213E+02  0.44263204287E+02  0.25500000000E-02 0. -1.
          2   -1    0    0  501    0  0.00000000000E+00 -0.00000000000E+00 -0.10443115847E+04  0.10443115847E+04  0.25500000000E-02 0.  1.
    5000001    1    1    2    0    0  0.10319546124E+03  0.14528058533E+03 -0.73397055234E+03  0.75920848481E+03  0.77000000000E+02 0.  0.
   -5000001    1    1    2    0    0 -0.10319546124E+03 -0.14528058533E+03 -0.26607782810E+03  0.32936630414E+03  0.77000000000E+02 0.  0.
<mgrwt>
<rscale>  0 0.42999803E+03</rscale>
<asrwt>0</asrwt>
<pdfrwt beam="1">  1        2 0.16066330E+00 0.42999803E+03</pdfrwt>
<pdfrwt beam="2">  1       -2 0.68097245E-02 0.42999803E+03</pdfrwt>
<totfact> 0.30098303E+03</totfact>
</mgrwt>
</event>
<event>
 4    1  0.6207184E-004  0.1760393E+03  0.7818608E-02  0.1171692E+00
         -2   -1    0    0    0  501 -0.00000000000E+00  0.00000000000E+00  0.61984288865E+01  0.61984294111E+01  0.25500000000E-02 0. -1.
          2   -1    0    0  501    0  0.00000000000E+00 -0.00000000000E+00 -0.12499061055E+04  0.12499061055E+04  0.25500000000E-02 0.  1.
    5000001    1    1    2    0    0  0.28815311578E+02 -0.31118881502E+02 -0.65356207160E+03  0.65944756305E+03  0.77000000000E+02 0.  0.
   -5000001    1    1    2    0    0 -0.28815311578E+02  0.31118881502E+02 -0.59014560503E+03  0.59665697189E+03  0.77000000000E+02 0.  0.
<mgrwt>
<rscale>  0 0.17603925E+03</rscale>
<asrwt>0</asrwt>
<pdfrwt beam="1">  1        2 0.19229305E+00 0.17603925E+03</pdfrwt>
<pdfrwt beam="2">  1       -2 0.95360548E-03 0.17603925E+03</pdfrwt>
<totfact> 0.41418302E+04</totfact>
</mgrwt>
</event>
<event>
 4    1  0.6207184E-004  0.3919662E+03  0.7818608E-02  0.1046598E+00
          2   -1    0    0  501    0  0.00000000000E+00  0.00000000000E+00  0.39792860982E+03  0.39792860982E+03  0.25500000000E-02 0.  1.
         -2   -1    0    0    0  501 -0.00000000000E+00 -0.00000000000E+00 -0.96523292202E+02  0.96523292236E+02  0.25500000000E-02 0. -1.
    5000001    1    1    2    0    0  0.95127528750E+01 -0.10859681975E+03  0.33174216873E+03  0.35758303685E+03  0.77000000000E+02 0.  0.
   -5000001    1    1    2    0    0 -0.95127528750E+01  0.10859681975E+03 -0.30336851118E+02  0.13686886521E+03  0.77000000000E+02 0.  0.
<mgrwt>
<rscale>  0 0.39196622E+03</rscale>
<asrwt>0</asrwt>
<pdfrwt beam="1">  1        2 0.61219788E-01 0.39196622E+03</pdfrwt>
<pdfrwt beam="2">  1       -2 0.14849737E-01 0.39196622E+03</pdfrwt>
<totfact> 0.28114035E+03</totfact>
</mgrwt>
</event>
<event>
 4    1  0.6207184E-004  0.2653055E+03  0.7818608E-02  0.1103997E+00
         -2   -1    0    0    0  501 -0.00000000000E+00  0.00000000000E+00  0.25660654227E+02  0.25660654354E+02  0.25500000000E-02 0. -1.
          2   -1    0    0  501    0  0.00000000000E+00 -0.00000000000E+00 -0.68574812600E+03  0.68574812600E+03  0.25500000000E-02 0.  1.
    5000001    1    1    2    0    0  0.98448350435E+02 -0.36966664227E+02 -0.26386334384E+03  0.29429827759E+03  0.77000000000E+02 0.  0.
   -5000001    1    1    2    0    0 -0.98448350435E+02  0.36966664227E+02 -0.39622412792E+03  0.41711050277E+03  0.77000000000E+02 0.  0.
<mgrwt>
<rscale>  0 0.26530545E+03</rscale>
<asrwt>0</asrwt>
<pdfrwt beam="1">  1        2 0.10549970E+00 0.26530545E+03</pdfrwt>
<pdfrwt beam="2">  1       -2 0.39477935E-02 0.26530545E+03</pdfrwt>
<totfact> 0.11984768E+04</totfact>
</mgrwt>
</event>
<event>
 4    1  0.6207184E-004  0.1787909E+03  0.7818608E-02  0.1168978E+00
         -2   -1    0    0    0  501 -0.00000000000E+00  0.00000000000E+00  0.34068670188E+02  0.34068670283E+02  0.25500000000E-02 0. -1.
          2   -1    0    0  501    0  0.00000000000E+00 -0.00000000000E+00 -0.23457165262E+03  0.23457165263E+03  0.25500000000E-02 0.  1.
    5000001    1    1    2    0    0 -0.30420972509E+02 -0.31802703620E+02 -0.83405836803E+02  0.12174720177E+03  0.77000000000E+02 0.  0.
   -5000001    1    1    2    0    0  0.30420972509E+02  0.31802703620E+02 -0.11709714563E+03  0.14689312115E+03  0.77000000000E+02 0.  0.
<mgrwt>
<rscale>  0 0.17879088E+03</rscale>
<asrwt>0</asrwt>
<pdfrwt beam="1">  1        2 0.36087946E-01 0.17879088E+03</pdfrwt>
<pdfrwt beam="2">  1       -2 0.52413340E-02 0.17879088E+03</pdfrwt>
<totfact> 0.24848101E+04</totfact>
</mgrwt>
</event>
<event>
 4    1  0.6207184E-004  0.2339773E+03  0.7818608E-02  0.1123871E+00
         -2   -1    0    0    0  501 -0.00000000000E+00  0.00000000000E+00  0.68843160590E+02  0.68843160637E+02  0.25500000000E-02 0. -1.
          2   -1    0    0  501    0  0.00000000000E+00 -0.00000000000E+00 -0.19880467284E+03  0.19880467285E+03  0.25500000000E-02 0.  1.
    5000001    1    1    2    0    0  0.51668974200E+02 -0.68990188832E+02 -0.44263341640E+02  0.12376418086E+03  0.77000000000E+02 0.  0.
   -5000001    1    1    2    0    0 -0.51668974200E+02  0.68990188832E+02 -0.85698170609E+02  0.14388365263E+03  0.77000000000E+02 0.  0.
<mgrwt>
<rscale>  0 0.23397728E+03</rscale>
<asrwt>0</asrwt>
<pdfrwt beam="1">  1        2 0.30585334E-01 0.23397728E+03</pdfrwt>
<pdfrwt beam="2">  1       -2 0.10591256E-01 0.23397728E+03</pdfrwt>
<totfact> 0.10184520E+04</totfact>
</mgrwt>
</event>
<event>
 4    1  0.6207184E-004  0.4254389E+03  0.7818608E-02  0.1035311E+00
          2   -1    0    0  501    0  0.00000000000E+00  0.00000000000E+00  0.16562571241E+04  0.16562571241E+04  0.25500000000E-02 0.  1.
         -2   -1    0    0    0  501 -0.00000000000E+00 -0.00000000000E+00 -0.27320368918E+02  0.27320369037E+02  0.25500000000E-02 0. -1.
    5000001    1    1    2    0    0  0.13496412830E+03  0.33856297138E+01  0.13892106416E+04  0.13978776717E+04  0.77000000000E+02 0.  0.
   -5000001    1    1    2    0    0 -0.13496412830E+03 -0.33856297138E+01  0.23972611361E+03  0.28569982142E+03  0.77000000000E+02 0.  0.
<mgrwt>
<rscale>  0 0.42543886E+03</rscale>
<asrwt>0</asrwt>
<pdfrwt beam="1">  1        2 0.25480874E+00 0.42543886E+03</pdfrwt>
<pdfrwt beam="2">  1       -2 0.42031345E-02 0.42543886E+03</pdfrwt>
<totfact> 0.28656363E+03</totfact>
</mgrwt>
</event>
<event>
 4    1  0.6207184E-004  0.2142952E+03  0.7818608E-02  0.1138209E+00
         -2   -1    0    0    0  501 -0.00000000000E+00  0.00000000000E+00  0.14508233534E+03  0.14508233536E+03  0.25500000000E-02 0. -1.
          2   -1    0    0  501    0  0.00000000000E+00 -0.00000000000E+00 -0.79131687593E+02  0.79131687634E+02  0.25500000000E-02 0.  1.
    5000001    1    1    2    0    0  0.20227842406E+02 -0.70396241862E+02  0.47275931707E+02  0.11631341365E+03  0.77000000000E+02 0.  0.
   -5000001    1    1    2    0    0 -0.20227842406E+02  0.70396241862E+02  0.18674716035E+02  0.10790060934E+03  0.77000000000E+02 0.  0.
<mgrwt>
<rscale>  0 0.21429522E+03</rscale>
<asrwt>0</asrwt>
<pdfrwt beam="1">  1        2 0.12174106E-01 0.21429522E+03</pdfrwt>
<pdfrwt beam="2">  1       -2 0.22320359E-01 0.21429522E+03</pdfrwt>
<totfact> 0.84977672E+03</totfact>
</mgrwt>
</event>
<event>
 4    1  0.6207184E-004  0.1627426E+03  0.7818608E-02  0.1185635E+00
          2   -1    0    0  501    0  0.00000000000E+00  0.00000000000E+00  0.24481308364E+03  0.24481308365E+03  0.25500000000E-02 0.  1.
         -2   -1    0    0    0  501 -0.00000000000E+00 -0.00000000000E+00 -0.27046315785E+02  0.27046315905E+02  0.25500000000E-02 0. -1.
    5000001    1    1    2    0    0 -0.22436430148E+00 -0.22613696022E+02  0.86417829972E+02  0.11793418047E+03  0.77000000000E+02 0.  0.
   -5000001    1    1    2    0    0  0.22436430148E+00  0.22613696022E+02  0.13134893788E+03  0.15392521908E+03  0.77000000000E+02 0.  0.
<mgrwt>
<rscale>  0 0.16274264E+03</rscale>
<asrwt>0</asrwt>
<pdfrwt beam="1">  1        2 0.37663552E-01 0.16274264E+03</pdfrwt>
<pdfrwt beam="2">  1       -2 0.41609716E-02 0.16274264E+03</pdfrwt>
<totfact> 0.33290782E+04</totfact>
</mgrwt>
</event>
<event>
 4    1  0.6207184E-004  0.3022507E+03  0.7818608E-02  0.1084121E+00
         -2   -1    0    0    0  501 -0.00000000000E+00  0.00000000000E+00  0.86233029422E+01  0.86233033192E+01  0.25500000000E-02 0. -1.
          2   -1    0    0  501    0  0.00000000000E+00 -0.00000000000E+00 -0.26485066909E+04  0.26485066909E+04  0.25500000000E-02 0.  1.
    5000001    1    1    2    0    0  0.10109394088E+03  0.19850760663E+02 -0.62239669300E+03  0.63554754427E+03  0.77000000000E+02 0.  0.
   -5000001    1    1    2    0    0 -0.10109394088E+03 -0.19850760663E+02 -0.20174866950E+04  0.20215824500E+04  0.77000000000E+02 0.  0.
<mgrwt>
<rscale>  0 0.30225073E+03</rscale>
<asrwt>0</asrwt>
<pdfrwt beam="1">  1        2 0.40746192E+00 0.30225073E+03</pdfrwt>
<pdfrwt beam="2">  1       -2 0.13266641E-02 0.30225073E+03</pdfrwt>
<totfact> 0.46812922E+03</totfact>
</mgrwt>
</event>
<event>
 4    1  0.6207184E-004  0.1821529E+03  0.7818608E-02  0.1165736E+00
         -2   -1    0    0    0  501 -0.00000000000E+00  0.00000000000E+00  0.17777897326E+02  0.17777897509E+02  0.25500000000E-02 0. -1.
          2   -1    0    0  501    0  0.00000000000E+00 -0.00000000000E+00 -0.46658594313E+03  0.46658594314E+03  0.25500000000E-02 0.  1.
    5000001    1    1    2    0    0  0.16978747310E+01  0.30343622191E+02 -0.32539052364E+03  0.33575528449E+03  0.77000000000E+02 0.  0.
   -5000001    1    1    2    0    0 -0.16978747310E+01 -0.30343622191E+02 -0.12341752216E+03  0.14860855616E+03  0.77000000000E+02 0.  0.
<mgrwt>
<rscale>  0 0.18215287E+03</rscale>
<asrwt>0</asrwt>
<pdfrwt beam="1">  1        2 0.71782444E-01 0.18215287E+03</pdfrwt>
<pdfrwt beam="2">  1       -2 0.27350615E-02 0.18215287E+03</pdfrwt>
<totfact> 0.31381958E+04</totfact>
</mgrwt>
</event>
<event>
 4    1  0.6207184E-004  0.2072643E+03  0.7818608E-02  0.1143751E+00
          2   -1    0    0  501    0  0.00000000000E+00  0.00000000000E+00  0.40115055580E+03  0.40115055581E+03  0.25500000000E-02 0.  1.
         -2   -1    0    0    0  501 -0.00000000000E+00 -0.00000000000E+00 -0.26772040700E+02  0.26772040821E+02  0.25500000000E-02 0. -1.
    5000001    1    1    2    0    0 -0.18187002201E+02  0.44543663977E+02  0.29033188558E+03  0.30419814075E+03  0.77000000000E+02 0.  0.
   -5000001    1    1    2    0    0  0.18187002201E+02 -0.44543663977E+02  0.84046629517E+02  0.12372445588E+03  0.77000000000E+02 0.  0.
<mgrwt>
<rscale>  0 0.20726427E+03</rscale>
<asrwt>0</asrwt>
<pdfrwt beam="1">  1        2 0.61715467E-01 0.20726427E+03</pdfrwt>
<pdfrwt beam="2">  1       -2 0.41187757E-02 0.20726427E+03</pdfrwt>
<totfact> 0.20334272E+04</totfact>
</mgrwt>
</event>
<event>
 4    1  0.6207184E-004  0.5559575E+03  0.7818608E-02  0.1000124E+00
          2   -1    0    0  501    0  0.00000000000E+00  0.00000000000E+00  0.16247644014E+03  0.16247644016E+03  0.25500000000E-02 0.  1.
         -2   -1    0    0    0  501 -0.00000000000E+00 -0.00000000000E+00 -0.47559016764E+03  0.47559016764E+03  0.25500000000E-02 0. -1.
    5000001    1    1    2    0    0  0.17165717472E+03 -0.20008510444E+03 -0.10728685147E+03  0.29485539362E+03  0.77000000000E+02 0.  0.
   -5000001    1    1    2    0    0 -0.17165717472E+03  0.20008510444E+03 -0.20582687602E+03  0.34321121418E+03  0.77000000000E+02 0.  0.
<mgrwt>
<rscale>  0 0.55595754E+03</rscale>
<asrwt>0</asrwt>
<pdfrwt beam="1">  1        2 0.24996376E-01 0.55595754E+03</pdfrwt>
<pdfrwt beam="2">  1       -2 0.73167717E-01 0.55595754E+03</pdfrwt>
<totfact> 0.37347450E+02</totfact>
</mgrwt>
</event>
<event>
 4    1  0.6207184E-004  0.2162624E+03  0.7818608E-02  0.1136701E+00
          2   -1    0    0  501    0  0.00000000000E+00  0.00000000000E+00  0.14787389047E+04  0.14787389047E+04  0.25500000000E-02 0.  1.
         -2   -1    0    0    0  501 -0.00000000000E+00 -0.00000000000E+00 -0.79069810577E+01  0.79069814689E+01  0.25500000000E-02 0. -1.
    5000001    1    1    2    0    0  0.40998151021E+02 -0.18454792751E+02  0.11559241337E+04  0.11593580252E+04  0.77000000000E+02 0.  0.
   -5000001    1    1    2    0    0 -0.40998151021E+02  0.18454792751E+02  0.31490778996E+03  0.32728786097E+03  0.77000000000E+02 0.  0.
<mgrwt>
<rscale>  0 0.21626244E+03</rscale>
<asrwt>0</asrwt>
<pdfrwt beam="1">  1        2 0.22749811E+00 0.21626244E+03</pdfrwt>
<pdfrwt beam="2">  1       -2 0.12164597E-02 0.21626244E+03</pdfrwt>
<totfact> 0.22197752E+04</totfact>
</mgrwt>
</event>
<event>
 4    1  0.6207184E-004  0.1770686E+03  0.7818608E-02  0.1170671E+00
          2   -1    0    0  501    0  0.00000000000E+00  0.00000000000E+00  0.18879138368E+04  0.18879138368E+04  0.25500000000E-02 0.  1.
         -2   -1    0    0    0  501 -0.00000000000E+00 -0.00000000000E+00 -0.41518417278E+01  0.41518425108E+01  0.25500000000E-02 0. -1.
    5000001    1    1    2    0    0  0.35452479451E+02 -0.13819011266E+02  0.11714269591E+04  0.11745713958E+04  0.77000000000E+02 0.  0.
   -5000001    1    1    2    0    0 -0.35452479451E+02  0.13819011266E+02  0.71233503599E+03  0.71749428351E+03  0.77000000000E+02 0.  0.
<mgrwt>
<rscale>  0 0.17706858E+03</rscale>
<asrwt>0</asrwt>
<pdfrwt beam="1">  1        2 0.29044864E+00 0.17706858E+03</pdfrwt>
<pdfrwt beam="2">  1       -2 0.63874416E-03 0.17706858E+03</pdfrwt>
<totfact> 0.33956822E+04</totfact>
</mgrwt>
</event>
<event>
 4    1  0.6207184E-004  0.2659916E+03  0.7818608E-02  0.1103596E+00
         -2   -1    0    0    0  501 -0.00000000000E+00  0.00000000000E+00  0.68402706707E+01  0.68402711460E+01  0.25500000000E-02 0. -1.
          2   -1    0    0  501    0  0.00000000000E+00 -0.00000000000E+00 -0.25858447143E+04  0.25858447143E+04  0.25500000000E-02 0.  1.
    5000001    1    1    2    0    0 -0.32993812541E+02  0.99662306351E+02 -0.10247588271E+04  0.10329960409E+04  0.77000000000E+02 0.  0.
   -5000001    1    1    2    0    0  0.32993812541E+02 -0.99662306351E+02 -0.15542456165E+04  0.15596889445E+04  0.77000000000E+02 0.  0.
<mgrwt>
<rscale>  0 0.26599157E+03</rscale>
<asrwt>0</asrwt>
<pdfrwt beam="1">  1        2 0.39782148E+00 0.26599157E+03</pdfrwt>
<pdfrwt beam="2">  1       -2 0.10523514E-02 0.26599157E+03</pdfrwt>
<totfact> 0.71200989E+03</totfact>
</mgrwt>
</event>
<event>
 4    1  0.6207184E-004  0.2234169E+03  0.7818608E-02  0.1131361E+00
         -2   -1    0    0    0  501 -0.00000000000E+00  0.00000000000E+00  0.63762629718E+01  0.63762634817E+01  0.25500000000E-02 0. -1.
          2   -1    0    0  501    0  0.00000000000E+00 -0.00000000000E+00 -0.19570680851E+04  0.19570680851E+04  0.25500000000E-02 0.  1.
    5000001    1    1    2    0    0 -0.13085459639E+02  0.67742333610E+02 -0.60357809197E+03  0.61236897874E+03  0.77000000000E+02 0.  0.
   -5000001    1    1    2    0    0  0.13085459639E+02 -0.67742333610E+02 -0.13471137301E+04  0.13510753698E+04  0.77000000000E+02 0.  0.
<mgrwt>
<rscale>  0 0.22341693E+03</rscale>
<asrwt>0</asrwt>
<pdfrwt beam="1">  1        2 0.30108692E+00 0.22341693E+03</pdfrwt>
<pdfrwt beam="2">  1       -2 0.98096513E-03 0.22341693E+03</pdfrwt>
<totfact> 0.17047081E+04</totfact>
</mgrwt>
</event>
<event>
 4    1  0.6207184E-004  0.2235370E+03  0.7818608E-02  0.1131273E+00
         -2   -1    0    0    0  501 -0.00000000000E+00  0.00000000000E+00  0.48707698553E+01  0.48707705228E+01  0.25500000000E-02 0. -1.
          2   -1    0    0  501    0  0.00000000000E+00 -0.00000000000E+00 -0.25647280523E+04  0.25647280523E+04  0.25500000000E-02 0.  1.
    5000001    1    1    2    0    0  0.32598800040E+02  0.71570449253E+02 -0.10563806079E+04  0.10620988653E+04  0.77000000000E+02 0.  0.
   -5000001    1    1    2    0    0 -0.32598800040E+02 -0.71570449253E+02 -0.15034766746E+04  0.15074999575E+04  0.77000000000E+02 0.  0.
<mgrwt>
<rscale>  0 0.22353703E+03</rscale>
<asrwt>0</asrwt>
<pdfrwt beam="1">  1        2 0.39457247E+00 0.22353703E+03</pdfrwt>
<pdfrwt beam="2">  1       -2 0.74935131E-03 0.22353703E+03</pdfrwt>
<totfact> 0.11941530E+04</totfact>
</mgrwt>
</event>
<event>
 4    1  0.6207184E-004  0.2449751E+03  0.7818608E-02  0.1116522E+00
          2   -1    0    0  501    0  0.00000000000E+00  0.00000000000E+00  0.12820263685E+04  0.12820263685E+04  0.25500000000E-02 0.  1.
         -2   -1    0    0    0  501 -0.00000000000E+00 -0.00000000000E+00 -0.11702720517E+02  0.11702720795E+02  0.25500000000E-02 0. -1.
    5000001    1    1    2    0    0  0.86182498672E+01  0.29822933544E+02  0.15955764506E+03  0.17986473722E+03  0.77000000000E+02 0.  0.
   -5000001    1    1    2    0    0 -0.86182498672E+01 -0.29822933544E+02  0.11107660029E+04  0.11138643521E+04  0.77000000000E+02 0.  0.
<mgrwt>
<rscale>  0 0.24497507E+03</rscale>
<asrwt>0</asrwt>
<pdfrwt beam="1">  1        2 0.19723479E+00 0.24497507E+03</pdfrwt>
<pdfrwt beam="2">  1       -2 0.18004189E-02 0.24497507E+03</pdfrwt>
<totfact> 0.16113858E+04</totfact>
</mgrwt>
</event>
<event>
 4    1  0.6207184E-004  0.2751501E+03  0.7818608E-02  0.1098368E+00
         -2   -1    0    0    0  501 -0.00000000000E+00  0.00000000000E+00  0.68975496590E+03  0.68975496590E+03  0.25500000000E-02 0. -1.
          2   -1    0    0  501    0  0.00000000000E+00 -0.00000000000E+00 -0.27440023072E+02  0.27440023191E+02  0.25500000000E-02 0.  1.
    5000001    1    1    2    0    0  0.17964586214E+02 -0.11080032762E+03  0.38318776673E+03  0.40664641094E+03  0.77000000000E+02 0.  0.
   -5000001    1    1    2    0    0 -0.17964586214E+02  0.11080032762E+03  0.27912717609E+03  0.31054857815E+03  0.77000000000E+02 0.  0.
<mgrwt>
<rscale>  0 0.27515008E+03</rscale>
<asrwt>0</asrwt>
<pdfrwt beam="1">  1        2 0.42215419E-02 0.27515008E+03</pdfrwt>
<pdfrwt beam="2">  1       -2 0.10611615E+00 0.27515008E+03</pdfrwt>
<totfact> 0.14692171E+03</totfact>
</mgrwt>
</event>
<event>
 4    1  0.6207184E-004  0.2761065E+03  0.7818608E-02  0.1097835E+00
         -2   -1    0    0    0  501 -0.00000000000E+00  0.00000000000E+00  0.21596067874E+02  0.21596068025E+02  0.25500000000E-02 0. -1.
          2   -1    0    0  501    0  0.00000000000E+00 -0.00000000000E+00 -0.88250813537E+03  0.88250813538E+03  0.25500000000E-02 0.  1.
    5000001    1    1    2    0    0 -0.10722947711E+03 -0.28419805796E+02 -0.52444316167E+03  0.54154914453E+03  0.77000000000E+02 0.  0.
   -5000001    1    1    2    0    0  0.10722947711E+03  0.28419805796E+02 -0.33646890583E+03  0.36255505887E+03  0.77000000000E+02 0.  0.
<mgrwt>
<rscale>  0 0.27610654E+03</rscale>
<asrwt>0</asrwt>
<pdfrwt beam="1">  1        2 0.13577045E+00 0.27610654E+03</pdfrwt>
<pdfrwt beam="2">  1       -2 0.33224727E-02 0.27610654E+03</pdfrwt>
<totfact> 0.11306094E+04</totfact>
</mgrwt>
</event>
<event>
 4    1  0.6207184E-004  0.3716203E+03  0.7818608E-02  0.1054075E+00
         -2   -1    0    0    0  501 -0.00000000000E+00  0.00000000000E+00  0.45163795328E+02  0.45163795400E+02  0.25500000000E-02 0.  1.
          2   -1    0    0  501    0  0.00000000000E+00 -0.00000000000E+00 -0.76444895561E+03  0.76444895561E+03  0.25500000000E-02 0. -1.
    5000001    1    1    2    0    0 -0.11017500137E+03 -0.12311204564E+03 -0.28105241863E+03  0.33498443057E+03  0.77000000000E+02 0.  0.
   -5000001    1    1    2    0    0  0.11017500137E+03  0.12311204564E+03 -0.43823274166E+03  0.47462832045E+03  0.77000000000E+02 0.  0.
<mgrwt>
<rscale>  0 0.37162032E+03</rscale>
<asrwt>0</asrwt>
<pdfrwt beam="1">  1        2 0.11760752E+00 0.37162032E+03</pdfrwt>
<pdfrwt beam="2">  1       -2 0.69482768E-02 0.37162032E+03</pdfrwt>
<totfact> 0.44532382E+03</totfact>
</mgrwt>
</event>
<event>
 4    1  0.6207184E-004  0.3388153E+03  0.7818608E-02  0.1067302E+00
         -2   -1    0    0    0  501 -0.00000000000E+00  0.00000000000E+00  0.55627877401E+03  0.55627877402E+03  0.25500000000E-02 0. -1.
          2   -1    0    0  501    0  0.00000000000E+00 -0.00000000000E+00 -0.51590955669E+02  0.51590955732E+02  0.25500000000E-02 0.  1.
    5000001    1    1    2    0    0  0.91070388010E+02 -0.11942048884E+03  0.22604423294E+03  0.28209938670E+03  0.77000000000E+02 0.  0.
   -5000001    1    1    2    0    0 -0.91070388010E+02  0.11942048884E+03  0.27864358540E+03  0.32577034305E+03  0.77000000000E+02 0.  0.
<mgrwt>
<rscale>  0 0.33881531E+03</rscale>
<asrwt>0</asrwt>
<pdfrwt beam="1">  1        2 0.79370701E-02 0.33881531E+03</pdfrwt>
<pdfrwt beam="2">  1       -2 0.85581350E-01 0.33881531E+03</pdfrwt>
<totfact> 0.10576215E+03</totfact>
</mgrwt>
</event>
<event>
 4    1  0.6207184E-004  0.1963293E+03  0.7818608E-02  0.1152873E+00
         -2   -1    0    0    0  501 -0.00000000000E+00  0.00000000000E+00  0.76286038457E+01  0.76286042719E+01  0.25500000000E-02 0. -1.
          2   -1    0    0  501    0  0.00000000000E+00 -0.00000000000E+00 -0.12631803356E+04  0.12631803356E+04  0.25500000000E-02 0.  1.
    5000001    1    1    2    0    0 -0.50878243736E+02  0.27537174765E+02 -0.75065949920E+03  0.75681277435E+03  0.77000000000E+02 0.  0.
   -5000001    1    1    2    0    0  0.50878243736E+02 -0.27537174765E+02 -0.50489223251E+03  0.51399616548E+03  0.77000000000E+02 0.  0.
<mgrwt>
<rscale>  0 0.19632934E+03</rscale>
<asrwt>0</asrwt>
<pdfrwt beam="1">  1        2 0.19433527E+00 0.19632934E+03</pdfrwt>
<pdfrwt beam="2">  1       -2 0.11736324E-02 0.19632934E+03</pdfrwt>
<totfact> 0.30419598E+04</totfact>
</mgrwt>
</event>
<event>
 4    1  0.6207184E-004  0.2127602E+03  0.7818608E-02  0.1139399E+00
         -2   -1    0    0    0  501 -0.00000000000E+00  0.00000000000E+00  0.24695600830E+02  0.24695600961E+02  0.25500000000E-02 0. -1.
          2   -1    0    0  501    0  0.00000000000E+00 -0.00000000000E+00 -0.45824864930E+03  0.45824864931E+03  0.25500000000E-02 0.  1.
    5000001    1    1    2    0    0 -0.40777961343E+02 -0.55580907919E+02 -0.27400528879E+03  0.29284804548E+03  0.77000000000E+02 0.  0.
   -5000001    1    1    2    0    0  0.40777961343E+02  0.55580907919E+02 -0.15954775968E+03  0.19009620479E+03  0.77000000000E+02 0.  0.
<mgrwt>
<rscale>  0 0.21276020E+03</rscale>
<asrwt>0</asrwt>
<pdfrwt beam="1">  1        2 0.70499786E-01 0.21276020E+03</pdfrwt>
<pdfrwt beam="2">  1       -2 0.37993235E-02 0.21276020E+03</pdfrwt>
<totfact> 0.19887705E+04</totfact>
</mgrwt>
</event>
<event>
 4    1  0.6207184E-004  0.2268927E+03  0.7818608E-02  0.1128846E+00
         -2   -1    0    0    0  501 -0.00000000000E+00  0.00000000000E+00  0.28219621062E+02  0.28219621178E+02  0.25500000000E-02 0. -1.
          2   -1    0    0  501    0  0.00000000000E+00 -0.00000000000E+00 -0.45606847441E+03  0.45606847441E+03  0.25500000000E-02 0.  1.
    5000001    1    1    2    0    0  0.64890783023E+02  0.28756370946E+02 -0.30704400985E+03  0.32441141560E+03  0.77000000000E+02 0.  0.
   -5000001    1    1    2    0    0 -0.64890783023E+02 -0.28756370946E+02 -0.12080484350E+03  0.15987667999E+03  0.77000000000E+02 0.  0.
<mgrwt>
<rscale>  0 0.22689275E+03</rscale>
<asrwt>0</asrwt>
<pdfrwt beam="1">  1        2 0.70164375E-01 0.22689275E+03</pdfrwt>
<pdfrwt beam="2">  1       -2 0.43414805E-02 0.22689275E+03</pdfrwt>
<totfact> 0.16434212E+04</totfact>
</mgrwt>
</event>
<event>
 4    1  0.6207184E-004  0.2554373E+03  0.7818608E-02  0.1109916E+00
         -2   -1    0    0    0  501 -0.00000000000E+00  0.00000000000E+00  0.20480803188E+02  0.20480803347E+02  0.25500000000E-02 0. -1.
          2   -1    0    0  501    0  0.00000000000E+00 -0.00000000000E+00 -0.79645601224E+03  0.79645601224E+03  0.25500000000E-02 0.  1.
    5000001    1    1    2    0    0  0.98683968088E+02 -0.21228938245E+02 -0.43251777668E+03  0.45076581561E+03  0.77000000000E+02 0.  0.
   -5000001    1    1    2    0    0 -0.98683968088E+02  0.21228938245E+02 -0.34345743237E+03  0.36617099998E+03  0.77000000000E+02 0.  0.
<mgrwt>
<rscale>  0 0.25543734E+03</rscale>
<asrwt>0</asrwt>
<pdfrwt beam="1">  1        2 0.12253167E+00 0.25543734E+03</pdfrwt>
<pdfrwt beam="2">  1       -2 0.31508934E-02 0.25543734E+03</pdfrwt>
<totfact> 0.13936194E+04</totfact>
</mgrwt>
</event>
<event>
 4    1  0.6207184E-004  0.2448936E+03  0.7818608E-02  0.1116575E+00
          2   -1    0    0  501    0  0.00000000000E+00  0.00000000000E+00  0.11852799447E+04  0.11852799447E+04  0.25500000000E-02 0.  1.
         -2   -1    0    0    0  501 -0.00000000000E+00 -0.00000000000E+00 -0.12649512559E+02  0.12649512816E+02  0.25500000000E-02 0. -1.
    5000001    1    1    2    0    0 -0.80543700095E+02  0.50548675822E+02  0.56349825152E+03  0.57662963479E+03  0.77000000000E+02 0.  0.
   -5000001    1    1    2    0    0  0.80543700095E+02 -0.50548675822E+02  0.60913218057E+03  0.62129982268E+03  0.77000000000E+02 0.  0.
<mgrwt>
<rscale>  0 0.24489356E+03</rscale>
<asrwt>0</asrwt>
<pdfrwt beam="1">  1        2 0.18235072E+00 0.24489356E+03</pdfrwt>
<pdfrwt beam="2">  1       -2 0.19460793E-02 0.24489356E+03</pdfrwt>
<totfact> 0.16290764E+04</totfact>
</mgrwt>
</event>
<event>
 4    1  0.6207184E-004  0.1953080E+03  0.7818608E-02  0.1153759E+00
         -2   -1    0    0    0  501 -0.00000000000E+00  0.00000000000E+00  0.19085332996E+02  0.19085333166E+02  0.25500000000E-02 0. -1.
          2   -1    0    0  501    0  0.00000000000E+00 -0.00000000000E+00 -0.49966654460E+03  0.49966654461E+03  0.25500000000E-02 0.  1.
    5000001    1    1    2    0    0  0.19278959312E+02 -0.54237146734E+02 -0.19475187726E+03  0.21718802926E+03  0.77000000000E+02 0.  0.
   -5000001    1    1    2    0    0 -0.19278959312E+02  0.54237146734E+02 -0.28582933435E+03  0.30156384851E+03  0.77000000000E+02 0.  0.
<mgrwt>
<rscale>  0 0.19530799E+03</rscale>
<asrwt>0</asrwt>
<pdfrwt beam="1">  1        2 0.76871766E-01 0.19530799E+03</pdfrwt>
<pdfrwt beam="2">  1       -2 0.29362055E-02 0.19530799E+03</pdfrwt>
<totfact> 0.26354841E+04</totfact>
</mgrwt>
</event>
<event>
 4    1  0.6207184E-004  0.2301713E+03  0.7818608E-02  0.1126519E+00
          2   -1    0    0  501    0  0.00000000000E+00  0.00000000000E+00  0.31022098568E+03  0.31022098569E+03  0.25500000000E-02 0.  1.
         -2   -1    0    0    0  501 -0.00000000000E+00 -0.00000000000E+00 -0.42694442042E+02  0.42694442118E+02  0.25500000000E-02 0. -1.
    5000001    1    1    2    0    0  0.71911846068E+02  0.13674353371E+02  0.65927256122E+02  0.12503481373E+03  0.77000000000E+02 0.  0.
   -5000001    1    1    2    0    0 -0.71911846068E+02 -0.13674353371E+02  0.20159928751E+03  0.22788061407E+03  0.77000000000E+02 0.  0.
<mgrwt>
<rscale>  0 0.23017134E+03</rscale>
<asrwt>0</asrwt>
<pdfrwt beam="1">  1        2 0.47726305E-01 0.23017134E+03</pdfrwt>
<pdfrwt beam="2">  1       -2 0.65683758E-02 0.23017134E+03</pdfrwt>
<totfact> 0.13290696E+04</totfact>
</mgrwt>
</event>
<event>
 4    1  0.6207184E-004  0.4668324E+03  0.7818608E-02  0.1022818E+00
         -2   -1    0    0    0  501 -0.00000000000E+00  0.00000000000E+00  0.83527330509E+02  0.83527330548E+02  0.25500000000E-02 0.  1.
          2   -1    0    0  501    0  0.00000000000E+00 -0.00000000000E+00 -0.65227894081E+03  0.65227894082E+03  0.25500000000E-02 0. -1.
    5000001    1    1    2    0    0  0.96110583199E+02 -0.19276132988E+03 -0.35762852835E+03  0.42452483884E+03  0.77000000000E+02 0.  0.
   -5000001    1    1    2    0    0 -0.96110583199E+02  0.19276132988E+03 -0.21112308195E+03  0.31128143252E+03  0.77000000000E+02 0.  0.
<mgrwt>
<rscale>  0 0.46683238E+03</rscale>
<asrwt>0</asrwt>
<pdfrwt beam="1">  1        2 0.10035060E+00 0.46683238E+03</pdfrwt>
<pdfrwt beam="2">  1       -2 0.12850359E-01 0.46683238E+03</pdfrwt>
<totfact> 0.20294997E+03</totfact>
</mgrwt>
</event>
<event>
 4    1  0.6207184E-004  0.2261164E+03  0.7818608E-02  0.1129403E+00
          2   -1    0    0  501    0  0.00000000000E+00  0.00000000000E+00  0.12847007047E+03  0.12847007049E+03  0.25500000000E-02 0.  1.
         -2   -1    0    0    0  501 -0.00000000000E+00 -0.00000000000E+00 -0.99495188042E+02  0.99495188075E+02  0.25500000000E-02 0. -1.
    5000001    1    1    2    0    0  0.45090072136E+02  0.57967438826E+02 -0.24032498610E+02  0.10908666077E+03  0.77000000000E+02 0.  0.
   -5000001    1    1    2    0    0 -0.45090072136E+02 -0.57967438826E+02  0.53007381037E+02  0.11887859780E+03  0.77000000000E+02 0.  0.
<mgrwt>
<rscale>  0 0.22611638E+03</rscale>
<asrwt>0</asrwt>
<pdfrwt beam="1">  1        2 0.19764626E-01 0.22611638E+03</pdfrwt>
<pdfrwt beam="2">  1       -2 0.15306952E-01 0.22611638E+03</pdfrwt>
<totfact> 0.91123221E+03</totfact>
</mgrwt>
</event>
<event>
 4    1  0.6207184E-004  0.4488065E+03  0.7818608E-02  0.1028079E+00
         -2   -1    0    0    0  501 -0.00000000000E+00  0.00000000000E+00  0.74582551066E+02  0.74582551109E+02  0.25500000000E-02 0. -1.
          2   -1    0    0  501    0  0.00000000000E+00 -0.00000000000E+00 -0.67518217779E+03  0.67518217780E+03  0.25500000000E-02 0.  1.
    5000001    1    1    2    0    0  0.21059922552E+03  0.63709717495E+01 -0.31020932157E+03  0.38282038381E+03  0.77000000000E+02 0.  0.
   -5000001    1    1    2    0    0 -0.21059922552E+03 -0.63709717495E+01 -0.29039030516E+03  0.36694434510E+03  0.77000000000E+02 0.  0.
<mgrwt>
<rscale>  0 0.44880646E+03</rscale>
<asrwt>0</asrwt>
<pdfrwt beam="1">  1        2 0.10387418E+00 0.44880646E+03</pdfrwt>
<pdfrwt beam="2">  1       -2 0.11474239E-01 0.44880646E+03</pdfrwt>
<totfact> 0.23422036E+03</totfact>
</mgrwt>
</event>
<event>
 4    1  0.6207184E-004  0.5585539E+03  0.7818608E-02  0.9995332E-01
          2   -1    0    0  501    0  0.00000000000E+00  0.00000000000E+00  0.80317106725E+03  0.80317106725E+03  0.25500000000E-02 0.  1.
         -2   -1    0    0    0  501 -0.00000000000E+00 -0.00000000000E+00 -0.97109577862E+02  0.97109577896E+02  0.25500000000E-02 0. -1.
    5000001    1    1    2    0    0 -0.14482525498E+03 -0.19532207785E+03  0.16967026010E+03  0.30633652368E+03  0.77000000000E+02 0.  0.
   -5000001    1    1    2    0    0  0.14482525498E+03  0.19532207785E+03  0.53639122929E+03  0.59394412147E+03  0.77000000000E+02 0.  0.
<mgrwt>
<rscale>  0 0.55855386E+03</rscale>
<asrwt>0</asrwt>
<pdfrwt beam="1">  1        2 0.12356477E+00 0.55855386E+03</pdfrwt>
<pdfrwt beam="2">  1       -2 0.14939936E-01 0.55855386E+03</pdfrwt>
<totfact> 0.12142388E+03</totfact>
</mgrwt>
</event>
<event>
 4    1  0.6207184E-004  0.2255750E+03  0.7818608E-02  0.1129794E+00
          2   -1    0    0  501    0  0.00000000000E+00  0.00000000000E+00  0.42676183664E+03  0.42676183665E+03  0.25500000000E-02 0.  1.
         -2   -1    0    0    0  501 -0.00000000000E+00 -0.00000000000E+00 -0.29808250789E+02  0.29808250898E+02  0.25500000000E-02 0. -1.
    5000001    1    1    2    0    0  0.64542478459E+02  0.33563201111E+02  0.27686191927E+03  0.29643505585E+03  0.77000000000E+02 0.  0.
   -5000001    1    1    2    0    0 -0.64542478459E+02 -0.33563201111E+02  0.12009166658E+03  0.16013503170E+03  0.77000000000E+02 0.  0.
<mgrwt>
<rscale>  0 0.22557503E+03</rscale>
<asrwt>0</asrwt>
<pdfrwt beam="1">  1        2 0.65655662E-01 0.22557503E+03</pdfrwt>
<pdfrwt beam="2">  1       -2 0.45858851E-02 0.22557503E+03</pdfrwt>
<totfact> 0.16266761E+04</totfact>
</mgrwt>
</event>
<event>
 4    1  0.6207184E-004  0.2150376E+03  0.7818608E-02  0.1137638E+00
         -2   -1    0    0    0  501 -0.00000000000E+00  0.00000000000E+00  0.16104993554E+04  0.16104993554E+04  0.25500000000E-02 0. -1.
          2   -1    0    0  501    0  0.00000000000E+00 -0.00000000000E+00 -0.71780797524E+01  0.71780802054E+01  0.25500000000E-02 0.  1.
    5000001    1    1    2    0    0  0.63859007156E+02  0.39316746396E+02  0.82228157940E+03  0.82927665779E+03  0.77000000000E+02 0.  0.
   -5000001    1    1    2    0    0 -0.63859007156E+02 -0.39316746396E+02  0.78103969627E+03  0.78840077783E+03  0.77000000000E+02 0.  0.
<mgrwt>
<rscale>  0 0.21503761E+03</rscale>
<asrwt>0</asrwt>
<pdfrwt beam="1">  1        2 0.11043197E-02 0.21503761E+03</pdfrwt>
<pdfrwt beam="2">  1       -2 0.24776921E+00 0.21503761E+03</pdfrwt>
<totfact> 0.92119486E+02</totfact>
</mgrwt>
</event>
<event>
 4    1  0.6207184E-004  0.2972134E+03  0.7818608E-02  0.1086642E+00
         -2   -1    0    0    0  501 -0.00000000000E+00  0.00000000000E+00  0.11301037505E+02  0.11301037793E+02  0.25500000000E-02 0. -1.
          2   -1    0    0  501    0  0.00000000000E+00 -0.00000000000E+00 -0.19541531045E+04  0.19541531045E+04  0.25500000000E-02 0.  1.
    5000001    1    1    2    0    0  0.57108879094E+02 -0.11038447066E+03 -0.11474845537E+04  0.11567609764E+04  0.77000000000E+02 0.  0.
   -5000001    1    1    2    0    0 -0.57108879094E+02  0.11038447066E+03 -0.79536751330E+03  0.80869316594E+03  0.77000000000E+02 0.  0.
<mgrwt>
<rscale>  0 0.29721344E+03</rscale>
<asrwt>0</asrwt>
<pdfrwt beam="1">  1        2 0.30063867E+00 0.29721344E+03</pdfrwt>
<pdfrwt beam="2">  1       -2 0.17386227E-02 0.29721344E+03</pdfrwt>
<totfact> 0.74666439E+03</totfact>
</mgrwt>
</event>
<event>
 4    1  0.6207184E-004  0.2721822E+03  0.7818608E-02  0.1100037E+00
          2   -1    0    0  501    0  0.00000000000E+00  0.00000000000E+00  0.63295896760E+03  0.63295896760E+03  0.25500000000E-02 0.  1.
         -2   -1    0    0    0  501 -0.00000000000E+00 -0.00000000000E+00 -0.29260644041E+02  0.29260644152E+02  0.25500000000E-02 0. -1.
    5000001    1    1    2    0    0 -0.77278215217E+02  0.57386374959E+02  0.44217805060E+03  0.45903763137E+03  0.77000000000E+02 0.  0.
   -5000001    1    1    2    0    0  0.77278215217E+02 -0.57386374959E+02  0.16152027295E+03  0.20318198038E+03  0.77000000000E+02 0.  0.
<mgrwt>
<rscale>  0 0.27218220E+03</rscale>
<asrwt>0</asrwt>
<pdfrwt beam="1">  1        2 0.97378293E-01 0.27218220E+03</pdfrwt>
<pdfrwt beam="2">  1       -2 0.45016380E-02 0.27218220E+03</pdfrwt>
<totfact> 0.10828276E+04</totfact>
</mgrwt>
</event>
<event>
 4    1  0.6207184E-004  0.2570123E+03  0.7818608E-02  0.1108952E+00
         -2   -1    0    0    0  501 -0.00000000000E+00  0.00000000000E+00  0.15931513616E+02  0.15931513820E+02  0.25500000000E-02 0. -1.
          2   -1    0    0  501    0  0.00000000000E+00 -0.00000000000E+00 -0.10365515114E+04  0.10365515114E+04  0.25500000000E-02 0.  1.
    5000001    1    1    2    0    0  0.22346038504E+02  0.89202876367E+02 -0.32138856278E+03  0.34303951212E+03  0.77000000000E+02 0.  0.
   -5000001    1    1    2    0    0 -0.22346038504E+02 -0.89202876367E+02 -0.69923143501E+03  0.70944351311E+03  0.77000000000E+02 0.  0.
<mgrwt>
<rscale>  0 0.25701233E+03</rscale>
<asrwt>0</asrwt>
<pdfrwt beam="1">  1        2 0.15946941E+00 0.25701233E+03</pdfrwt>
<pdfrwt beam="2">  1       -2 0.24510029E-02 0.25701233E+03</pdfrwt>
<totfact> 0.14194018E+04</totfact>
</mgrwt>
</event>
<event>
 4    1  0.6207184E-004  0.1588770E+03  0.7818608E-02  0.1189970E+00
          2   -1    0    0  501    0  0.00000000000E+00  0.00000000000E+00  0.11234543135E+04  0.11234543135E+04  0.25500000000E-02 0.  1.
         -2   -1    0    0    0  501 -0.00000000000E+00 -0.00000000000E+00 -0.56170276023E+01  0.56170281811E+01  0.25500000000E-02 0. -1.
    5000001    1    1    2    0    0 -0.12629961066E+02  0.12191981159E+02  0.61976765622E+03  0.62477924743E+03  0.77000000000E+02 0.  0.
   -5000001    1    1    2    0    0  0.12629961066E+02 -0.12191981159E+02  0.49806962968E+03  0.50429209425E+03  0.77000000000E+02 0.  0.
<mgrwt>
<rscale>  0 0.15887699E+03</rscale>
<asrwt>0</asrwt>
<pdfrwt beam="1">  1        2 0.17283892E+00 0.15887699E+03</pdfrwt>
<pdfrwt beam="2">  1       -2 0.86415915E-03 0.15887699E+03</pdfrwt>
<totfact> 0.55696254E+04</totfact>
</mgrwt>
</event>
<event>
 4    1  0.6207184E-004  0.1944746E+03  0.7818608E-02  0.1154486E+00
          2   -1    0    0  501    0  0.00000000000E+00  0.00000000000E+00  0.30486355876E+04  0.30486355876E+04  0.25500000000E-02 0.  1.
         -2   -1    0    0    0  501 -0.00000000000E+00 -0.00000000000E+00 -0.31014167026E+01  0.31014177509E+01  0.25500000000E-02 0. -1.
    5000001    1    1    2    0    0 -0.10819184803E+01  0.54503816028E+02  0.11533314053E+04  0.11571837223E+04  0.77000000000E+02 0.  0.
   -5000001    1    1    2    0    0  0.10819184803E+01 -0.54503816028E+02  0.18922027655E+04  0.18945532830E+04  0.77000000000E+02 0.  0.
<mgrwt>
<rscale>  0 0.19447458E+03</rscale>
<asrwt>0</asrwt>
<pdfrwt beam="1">  1        2 0.46902300E+00 0.19447458E+03</pdfrwt>
<pdfrwt beam="2">  1       -2 0.47713893E-03 0.19447458E+03</pdfrwt>
<totfact> 0.12086577E+04</totfact>
</mgrwt>
</event>
<event>
 4    1  0.6207184E-004  0.3283569E+03  0.7818608E-02  0.1071866E+00
         -2   -1    0    0    0  501 -0.00000000000E+00  0.00000000000E+00  0.22789150725E+02  0.22789150867E+02  0.25500000000E-02 0. -1.
          2   -1    0    0  501    0  0.00000000000E+00 -0.00000000000E+00 -0.11827804797E+04  0.11827804797E+04  0.25500000000E-02 0.  1.
    5000001    1    1    2    0    0  0.13559691663E+03 -0.20018032347E+02 -0.75369853029E+03  0.76992059329E+03  0.77000000000E+02 0.  0.
   -5000001    1    1    2    0    0 -0.13559691663E+03  0.20018032347E+02 -0.40629279872E+03  0.43564903731E+03  0.77000000000E+02 0.  0.
<mgrwt>
<rscale>  0 0.32835690E+03</rscale>
<asrwt>0</asrwt>
<pdfrwt beam="1">  1        2 0.18196618E+00 0.32835690E+03</pdfrwt>
<pdfrwt beam="2">  1       -2 0.35060241E-02 0.32835690E+03</pdfrwt>
<totfact> 0.68755039E+03</totfact>
</mgrwt>
</event>
<event>
 4    1  0.6207184E-004  0.1992651E+03  0.7818608E-02  0.1150361E+00
         -2   -1    0    0    0  501 -0.00000000000E+00  0.00000000000E+00  0.41213069319E+02  0.41213069398E+02  0.25500000000E-02 0. -1.
          2   -1    0    0  501    0  0.00000000000E+00 -0.00000000000E+00 -0.24086163307E+03  0.24086163308E+03  0.25500000000E-02 0.  1.
    5000001    1    1    2    0    0 -0.35119739690E+02  0.48028927585E+02 -0.69547084326E+02  0.11960757058E+03  0.77000000000E+02 0.  0.
   -5000001    1    1    2    0    0  0.35119739690E+02 -0.48028927585E+02 -0.13010147943E+03  0.16246713191E+03  0.77000000000E+02 0.  0.
<mgrwt>
<rscale>  0 0.19926512E+03</rscale>
<asrwt>0</asrwt>
<pdfrwt beam="1">  1        2 0.37055635E-01 0.19926512E+03</pdfrwt>
<pdfrwt beam="2">  1       -2 0.63404724E-02 0.19926512E+03</pdfrwt>
<totfact> 0.18233024E+04</totfact>
</mgrwt>
</event>
<event>
 4    1  0.6207184E-004  0.3246399E+03  0.7818608E-02  0.1073533E+00
          2   -1    0    0  501    0  0.00000000000E+00  0.00000000000E+00  0.14850597223E+04  0.14850597223E+04  0.25500000000E-02 0. -1.
         -2   -1    0    0    0  501 -0.00000000000E+00 -0.00000000000E+00 -0.17741885368E+02  0.17741885551E+02  0.25500000000E-02 0.  1.
    5000001    1    1    2    0    0  0.12979284354E+03  0.59355632655E+02  0.76622320542E+03  0.78319619119E+03  0.77000000000E+02 0.  0.
   -5000001    1    1    2    0    0 -0.12979284354E+03 -0.59355632655E+02  0.70109463147E+03  0.71960541663E+03  0.77000000000E+02 0.  0.
<mgrwt>
<rscale>  0 0.32463986E+03</rscale>
<asrwt>0</asrwt>
<pdfrwt beam="1">  1        2 0.22847079E+00 0.32463986E+03</pdfrwt>
<pdfrwt beam="2">  1       -2 0.27295201E-02 0.32463986E+03</pdfrwt>
<totfact> 0.67957681E+03</totfact>
</mgrwt>
</event>
<event>
 4    1  0.6207184E-004  0.2910446E+03  0.7818608E-02  0.1089805E+00
         -2   -1    0    0    0  501 -0.00000000000E+00  0.00000000000E+00  0.11204559981E+03  0.11204559983E+03  0.25500000000E-02 0. -1.
          2   -1    0    0  501    0  0.00000000000E+00 -0.00000000000E+00 -0.18900102370E+03  0.18900102372E+03  0.25500000000E-02 0.  1.
    5000001    1    1    2    0    0 -0.98745679174E+02 -0.73432851246E+02 -0.49058638903E+02  0.15322807461E+03  0.77000000000E+02 0.  0.
   -5000001    1    1    2    0    0  0.98745679174E+02  0.73432851246E+02 -0.27896784989E+02  0.14781854894E+03  0.77000000000E+02 0.  0.
<mgrwt>
<rscale>  0 0.29104455E+03</rscale>
<asrwt>0</asrwt>
<pdfrwt beam="1">  1        2 0.29077081E-01 0.29104455E+03</pdfrwt>
<pdfrwt beam="2">  1       -2 0.17237785E-01 0.29104455E+03</pdfrwt>
<totfact> 0.49009328E+03</totfact>
</mgrwt>
</event>
<event>
 4    1  0.6207184E-004  0.3083618E+03  0.7818608E-02  0.1081134E+00
         -2   -1    0    0    0  501 -0.00000000000E+00  0.00000000000E+00  0.18684900687E+03  0.18684900688E+03  0.25500000000E-02 0. -1.
          2   -1    0    0  501    0  0.00000000000E+00 -0.00000000000E+00 -0.12722441693E+03  0.12722441696E+03  0.25500000000E-02 0.  1.
    5000001    1    1    2    0    0  0.91875684585E+02 -0.85806195125E+02 -0.16178375500E+02  0.14830571255E+03  0.77000000000E+02 0.  0.
   -5000001    1    1    2    0    0 -0.91875684585E+02  0.85806195125E+02  0.75802965434E+02  0.16576771130E+03  0.77000000000E+02 0.  0.
<mgrwt>
<rscale>  0 0.30836184E+03</rscale>
<asrwt>0</asrwt>
<pdfrwt beam="1">  1        2 0.19572987E-01 0.30836184E+03</pdfrwt>
<pdfrwt beam="2">  1       -2 0.28746001E-01 0.30836184E+03</pdfrwt>
<totfact> 0.31475570E+03</totfact>
</mgrwt>
</event>
<event>
 4    1  0.6207184E-004  0.2280411E+03  0.7818608E-02  0.1128026E+00
          2   -1    0    0  501    0  0.00000000000E+00  0.00000000000E+00  0.16419314769E+04  0.16419314769E+04  0.25500000000E-02 0.  1.
         -2   -1    0    0    0  501 -0.00000000000E+00 -0.00000000000E+00 -0.79179200022E+01  0.79179204128E+01  0.25500000000E-02 0. -1.
    5000001    1    1    2    0    0 -0.72228387567E+01 -0.22593891454E+02  0.14007063013E+04  0.14030216662E+04  0.77000000000E+02 0.  0.
   -5000001    1    1    2    0    0  0.72228387567E+01  0.22593891454E+02  0.23330725556E+03  0.24682773108E+03  0.77000000000E+02 0.  0.
<mgrwt>
<rscale>  0 0.22804107E+03</rscale>
<asrwt>0</asrwt>
<pdfrwt beam="1">  1        2 0.25260528E+00 0.22804107E+03</pdfrwt>
<pdfrwt beam="2">  1       -2 0.12181395E-02 0.22804107E+03</pdfrwt>
<totfact> 0.18206843E+04</totfact>
</mgrwt>
</event>
<event>
 4    1  0.6207184E-004  0.2140376E+03  0.7818608E-02  0.1138408E+00
          2   -1    0    0  501    0  0.00000000000E+00  0.00000000000E+00  0.13738301133E+03  0.13738301136E+03  0.25500000000E-02 0.  1.
         -2   -1    0    0    0  501 -0.00000000000E+00 -0.00000000000E+00 -0.83365618564E+02  0.83365618603E+02  0.25500000000E-02 0. -1.
    5000001    1    1    2    0    0 -0.33447849110E+02  0.47626177524E+02 -0.20668545592E+02  0.98707650020E+02  0.77000000000E+02 0.  0.
   -5000001    1    1    2    0    0  0.33447849110E+02 -0.47626177524E+02  0.74685938360E+02  0.12204097994E+03  0.77000000000E+02 0.  0.
<mgrwt>
<rscale>  0 0.21403756E+03</rscale>
<asrwt>0</asrwt>
<pdfrwt beam="1">  1        2 0.21135848E-01 0.21403756E+03</pdfrwt>
<pdfrwt beam="2">  1       -2 0.12825480E-01 0.21403756E+03</pdfrwt>
<totfact> 0.11237456E+04</totfact>
</mgrwt>
</event>
<event>
 4    1  0.6207184E-004  0.3498955E+03  0.7818608E-02  0.1062658E+00
          2   -1    0    0  501    0  0.00000000000E+00  0.00000000000E+00  0.16996906120E+04  0.16996906120E+04  0.25500000000E-02 0. -1.
         -2   -1    0    0    0  501 -0.00000000000E+00 -0.00000000000E+00 -0.18007224525E+02  0.18007224705E+02  0.25500000000E-02 0.  1.
    5000001    1    1    2    0    0 -0.13214475055E+02  0.12470878156E+03  0.13052923351E+04  0.13135615641E+04  0.77000000000E+02 0.  0.
   -5000001    1    1    2    0    0  0.13214475055E+02 -0.12470878156E+03  0.37639105238E+03  0.40413627264E+03  0.77000000000E+02 0.  0.
<mgrwt>
<rscale>  0 0.34989547E+03</rscale>
<asrwt>0</asrwt>
<pdfrwt beam="1">  1        2 0.26149092E+00 0.34989547E+03</pdfrwt>
<pdfrwt beam="2">  1       -2 0.27703417E-02 0.34989547E+03</pdfrwt>
<totfact> 0.51038234E+03</totfact>
</mgrwt>
</event>
<event>
 4    1  0.6207184E-004  0.3633219E+03  0.7818608E-02  0.1057276E+00
          2   -1    0    0  501    0  0.00000000000E+00  0.00000000000E+00  0.16693962431E+04  0.16693962431E+04  0.25500000000E-02 0.  1.
         -2   -1    0    0    0  501 -0.00000000000E+00 -0.00000000000E+00 -0.19768043631E+02  0.19768043795E+02  0.25500000000E-02 0. -1.
    5000001    1    1    2    0    0  0.12674438388E+03 -0.62932221915E+02  0.43452593580E+03  0.46342895063E+03  0.77000000000E+02 0.  0.
   -5000001    1    1    2    0    0 -0.12674438388E+03  0.62932221915E+02  0.12151022637E+04  0.12257353363E+04  0.77000000000E+02 0.  0.
<mgrwt>
<rscale>  0 0.36332188E+03</rscale>
<asrwt>0</asrwt>
<pdfrwt beam="1">  1        2 0.25683021E+00 0.36332188E+03</pdfrwt>
<pdfrwt beam="2">  1       -2 0.30412373E-02 0.36332188E+03</pdfrwt>
<totfact> 0.46058943E+03</totfact>
</mgrwt>
</event>
<event>
 4    1  0.6207184E-004  0.3425648E+03  0.7818608E-02  0.1065709E+00
          2   -1    0    0  501    0  0.00000000000E+00  0.00000000000E+00  0.15733199635E+04  0.15733199635E+04  0.25500000000E-02 0.  1.
         -2   -1    0    0    0  501 -0.00000000000E+00 -0.00000000000E+00 -0.18646980641E+02  0.18646980815E+02  0.25500000000E-02 0. -1.
    5000001    1    1    2    0    0  0.12491654286E+03  0.77725563488E+02  0.58219501755E+03  0.60541344911E+03  0.77000000000E+02 0.  0.
   -5000001    1    1    2    0    0 -0.12491654286E+03 -0.77725563488E+02  0.97247796529E+03  0.98655349519E+03  0.77000000000E+02 0.  0.
<mgrwt>
<rscale>  0 0.34256484E+03</rscale>
<asrwt>0</asrwt>
<pdfrwt beam="1">  1        2 0.24204921E+00 0.34256484E+03</pdfrwt>
<pdfrwt beam="2">  1       -2 0.28687664E-02 0.34256484E+03</pdfrwt>
<totfact> 0.56578461E+03</totfact>
</mgrwt>
</event>
<event>
 4    1  0.6207184E-004  0.3134392E+03  0.7818608E-02  0.1078709E+00
         -2   -1    0    0    0  501 -0.00000000000E+00  0.00000000000E+00  0.15261939551E+02  0.15261939764E+02  0.25500000000E-02 0. -1.
          2   -1    0    0  501    0  0.00000000000E+00 -0.00000000000E+00 -0.16092998620E+04  0.16092998620E+04  0.25500000000E-02 0.  1.
    5000001    1    1    2    0    0  0.10173947119E+03  0.32809786230E+02 -0.12369543415E+04  0.12439503387E+04  0.77000000000E+02 0.  0.
   -5000001    1    1    2    0    0 -0.10173947119E+03 -0.32809786230E+02 -0.35708358091E+03  0.38061146308E+03  0.77000000000E+02 0.  0.
<mgrwt>
<rscale>  0 0.31343923E+03</rscale>
<asrwt>0</asrwt>
<pdfrwt beam="1">  1        2 0.24758446E+00 0.31343923E+03</pdfrwt>
<pdfrwt beam="2">  1       -2 0.23479920E-02 0.31343923E+03</pdfrwt>
<totfact> 0.72903431E+03</totfact>
</mgrwt>
</event>
<event>
 4    1  0.6207184E-004  0.1808491E+03  0.7818608E-02  0.1166984E+00
          2   -1    0    0  501    0  0.00000000000E+00  0.00000000000E+00  0.10689343712E+04  0.10689343712E+04  0.25500000000E-02 0.  1.
         -2   -1    0    0    0  501 -0.00000000000E+00 -0.00000000000E+00 -0.76492959714E+01  0.76492963965E+01  0.25500000000E-02 0. -1.
    5000001    1    1    2    0    0  0.27702409859E+02  0.37066946828E+02  0.46929155890E+03  0.47781267178E+03  0.77000000000E+02 0.  0.
   -5000001    1    1    2    0    0 -0.27702409859E+02 -0.37066946828E+02  0.59199351634E+03  0.59877099583E+03  0.77000000000E+02 0.  0.
<mgrwt>
<rscale>  0 0.18084906E+03</rscale>
<asrwt>0</asrwt>
<pdfrwt beam="1">  1        2 0.16445148E+00 0.18084906E+03</pdfrwt>
<pdfrwt beam="2">  1       -2 0.11768145E-02 0.18084906E+03</pdfrwt>
<totfact> 0.38833889E+04</totfact>
</mgrwt>
</event>
<event>
 4    1  0.6207184E-004  0.1806593E+03  0.7818608E-02  0.1167166E+00
         -2   -1    0    0    0  501 -0.00000000000E+00  0.00000000000E+00  0.80954368500E+03  0.80954368500E+03  0.25500000000E-02 0. -1.
          2   -1    0    0  501    0  0.00000000000E+00 -0.00000000000E+00 -0.10079069034E+02  0.10079069357E+02  0.25500000000E-02 0.  1.
    5000001    1    1    2    0    0  0.39480036834E+02  0.25378812800E+02  0.42360548500E+03  0.43309740748E+03  0.77000000000E+02 0.  0.
   -5000001    1    1    2    0    0 -0.39480036834E+02 -0.25378812800E+02  0.37585913097E+03  0.38652534688E+03  0.77000000000E+02 0.  0.
<mgrwt>
<rscale>  0 0.18065931E+03</rscale>
<asrwt>0</asrwt>
<pdfrwt beam="1">  1        2 0.15506257E-02 0.18065931E+03</pdfrwt>
<pdfrwt beam="2">  1       -2 0.12454521E+00 0.18065931E+03</pdfrwt>
<totfact> 0.38427420E+03</totfact>
</mgrwt>
</event>
<event>
 4    1  0.6207184E-004  0.2121294E+03  0.7818608E-02  0.1139891E+00
         -2   -1    0    0    0  501 -0.00000000000E+00  0.00000000000E+00  0.32564313933E+02  0.32564314032E+02  0.25500000000E-02 0. -1.
          2   -1    0    0  501    0  0.00000000000E+00 -0.00000000000E+00 -0.34546159409E+03  0.34546159410E+03  0.25500000000E-02 0.  1.
    5000001    1    1    2    0    0  0.59629001989E+02  0.41034897689E+02 -0.17251077650E+03  0.20230780686E+03  0.77000000000E+02 0.  0.
   -5000001    1    1    2    0    0 -0.59629001989E+02 -0.41034897689E+02 -0.14038650366E+03  0.17571810127E+03  0.77000000000E+02 0.  0.
<mgrwt>
<rscale>  0 0.21212939E+03</rscale>
<asrwt>0</asrwt>
<pdfrwt beam="1">  1        2 0.53147935E-01 0.21212939E+03</pdfrwt>
<pdfrwt beam="2">  1       -2 0.50098947E-02 0.21212939E+03</pdfrwt>
<totfact> 0.17809471E+04</totfact>
</mgrwt>
</event>
<event>
 4    1  0.6207184E-004  0.2015922E+03  0.7818608E-02  0.1148403E+00
         -2   -1    0    0    0  501 -0.00000000000E+00  0.00000000000E+00  0.32087053935E+02  0.32087054037E+02  0.25500000000E-02 0. -1.
          2   -1    0    0  501    0  0.00000000000E+00 -0.00000000000E+00 -0.31663396345E+03  0.31663396346E+03  0.25500000000E-02 0.  1.
    5000001    1    1    2    0    0 -0.61309221344E+02  0.20749424674E+02 -0.15341603534E+03  0.18345255285E+03  0.77000000000E+02 0.  0.
   -5000001    1    1    2    0    0  0.61309221344E+02 -0.20749424674E+02 -0.13113087417E+03  0.16526846464E+03  0.77000000000E+02 0.  0.
<mgrwt>
<rscale>  0 0.20159217E+03</rscale>
<asrwt>0</asrwt>
<pdfrwt beam="1">  1        2 0.48712915E-01 0.20159217E+03</pdfrwt>
<pdfrwt beam="2">  1       -2 0.49364701E-02 0.20159217E+03</pdfrwt>
<totfact> 0.19922704E+04</totfact>
</mgrwt>
</event>
<event>
 4    1  0.6207184E-004  0.2822696E+03  0.7818608E-02  0.1094456E+00
         -2   -1    0    0    0  501 -0.00000000000E+00  0.00000000000E+00  0.24280961506E+02  0.24280961640E+02  0.25500000000E-02 0. -1.
          2   -1    0    0  501    0  0.00000000000E+00 -0.00000000000E+00 -0.82035572425E+03  0.82035572426E+03  0.25500000000E-02 0.  1.
    5000001    1    1    2    0    0  0.31456928269E+02 -0.66535520610E+02 -0.67510468434E+03  0.68345581325E+03  0.77000000000E+02 0.  0.
   -5000001    1    1    2    0    0 -0.31456928269E+02  0.66535520610E+02 -0.12097007840E+03  0.16118087265E+03  0.77000000000E+02 0.  0.
<mgrwt>
<rscale>  0 0.28226956E+03</rscale>
<asrwt>0</asrwt>
<pdfrwt beam="1">  1        2 0.12620855E+00 0.28226956E+03</pdfrwt>
<pdfrwt beam="2">  1       -2 0.37355332E-02 0.28226956E+03</pdfrwt>
<totfact> 0.10444024E+04</totfact>
</mgrwt>
</event>
<event>
 4    1  0.6207184E-004  0.1804154E+03  0.7818608E-02  0.1167402E+00
         -2   -1    0    0    0  501 -0.00000000000E+00  0.00000000000E+00  0.12432050265E+02  0.12432050526E+02  0.25500000000E-02 0. -1.
          2   -1    0    0  501    0  0.00000000000E+00 -0.00000000000E+00 -0.65455233271E+03  0.65455233272E+03  0.25500000000E-02 0.  1.
    5000001    1    1    2    0    0 -0.18122863662E+02 -0.43161015711E+02 -0.33635497752E+03  0.34821686112E+03  0.77000000000E+02 0.  0.
   -5000001    1    1    2    0    0  0.18122863662E+02  0.43161015711E+02 -0.30576530493E+03  0.31876752213E+03  0.77000000000E+02 0.  0.
<mgrwt>
<rscale>  0 0.18041538E+03</rscale>
<asrwt>0</asrwt>
<pdfrwt beam="1">  1        2 0.10070033E+00 0.18041538E+03</pdfrwt>
<pdfrwt beam="2">  1       -2 0.19126237E-02 0.18041538E+03</pdfrwt>
<totfact> 0.36123958E+04</totfact>
</mgrwt>
</event>
<event>
 4    1  0.6207184E-004  0.4756773E+03  0.7818608E-02  0.1020330E+00
          2   -1    0    0  501    0  0.00000000000E+00  0.00000000000E+00  0.20682893463E+02  0.20682893620E+02  0.25500000000E-02 0.  1.
         -2   -1    0    0    0  501 -0.00000000000E+00 -0.00000000000E+00 -0.27349761414E+04  0.27349761414E+04  0.25500000000E-02 0. -1.
    5000001    1    1    2    0    0 -0.62803993988E+02  0.43816190818E+02 -0.13132829661E+03  0.17041221121E+03  0.77000000000E+02 0.  0.
   -5000001    1    1    2    0    0  0.62803993988E+02 -0.43816190818E+02 -0.25829649513E+04  0.25852468238E+04  0.77000000000E+02 0.  0.
<mgrwt>
<rscale>  0 0.47567729E+03</rscale>
<asrwt>0</asrwt>
<pdfrwt beam="1">  1        2 0.31819858E-02 0.47567729E+03</pdfrwt>
<pdfrwt beam="2">  1       -2 0.42076527E+00 0.47567729E+03</pdfrwt>
<totfact> 0.18455404E+01</totfact>
</mgrwt>
</event>
<event>
 4    1  0.6207184E-004  0.2348574E+03  0.7818608E-02  0.1123267E+00
         -2   -1    0    0    0  501 -0.00000000000E+00  0.00000000000E+00  0.57762229667E+01  0.57762235296E+01  0.25500000000E-02 0. -1.
          2   -1    0    0  501    0  0.00000000000E+00 -0.00000000000E+00 -0.23872859829E+04  0.23872859829E+04  0.25500000000E-02 0.  1.
    5000001    1    1    2    0    0 -0.31072163013E+02 -0.58760060577E+01 -0.20347255462E+04  0.20364275226E+04  0.77000000000E+02 0.  0.
   -5000001    1    1    2    0    0  0.31072163013E+02  0.58760060577E+01 -0.34678421376E+03  0.35663468378E+03  0.77000000000E+02 0.  0.
<mgrwt>
<rscale>  0 0.23485738E+03</rscale>
<asrwt>0</asrwt>
<pdfrwt beam="1">  1        2 0.36727398E+00 0.23485738E+03</pdfrwt>
<pdfrwt beam="2">  1       -2 0.88865164E-03 0.23485738E+03</pdfrwt>
<totfact> 0.11665463E+04</totfact>
</mgrwt>
</event>
<event>
 4    1  0.6207184E-004  0.2007007E+03  0.7818608E-02  0.1149149E+00
         -2   -1    0    0    0  501 -0.00000000000E+00  0.00000000000E+00  0.88725520144E+03  0.88725520145E+03  0.25500000000E-02 0. -1.
          2   -1    0    0  501    0  0.00000000000E+00 -0.00000000000E+00 -0.11349830699E+02  0.11349830986E+02  0.25500000000E-02 0.  1.
    5000001    1    1    2    0    0  0.48213492024E+02  0.38760705838E+02  0.51732457668E+03  0.52666939418E+03  0.77000000000E+02 0.  0.
   -5000001    1    1    2    0    0 -0.48213492024E+02 -0.38760705838E+02  0.35858079406E+03  0.37193563825E+03  0.77000000000E+02 0.  0.
<mgrwt>
<rscale>  0 0.20070074E+03</rscale>
<asrwt>0</asrwt>
<pdfrwt beam="1">  1        2 0.17461276E-02 0.20070074E+03</pdfrwt>
<pdfrwt beam="2">  1       -2 0.13650082E+00 0.20070074E+03</pdfrwt>
<totfact> 0.26204801E+03</totfact>
</mgrwt>
</event>
<event>
 4    1  0.6207184E-004  0.5119218E+03  0.7818608E-02  0.1010713E+00
          2   -1    0    0  501    0  0.00000000000E+00  0.00000000000E+00  0.14637879746E+04  0.14637879746E+04  0.25500000000E-02 0.  1.
         -2   -1    0    0    0  501 -0.00000000000E+00 -0.00000000000E+00 -0.44757842671E+02  0.44757842743E+02  0.25500000000E-02 0. -1.
    5000001    1    1    2    0    0 -0.21019816349E+02  0.24307306726E+03  0.73246312556E+03  0.77585925206E+03  0.77000000000E+02 0.  0.
   -5000001    1    1    2    0    0  0.21019816349E+02 -0.24307306726E+03  0.68656700634E+03  0.73268656525E+03  0.77000000000E+02 0.  0.
<mgrwt>
<rscale>  0 0.51192184E+03</rscale>
<asrwt>0</asrwt>
<pdfrwt beam="1">  1        2 0.22519815E+00 0.51192184E+03</pdfrwt>
<pdfrwt beam="2">  1       -2 0.68858219E-02 0.51192184E+03</pdfrwt>
<totfact> 0.16934171E+03</totfact>
</mgrwt>
</event>
<event>
 4    1  0.6207184E-004  0.3678704E+03  0.7818608E-02  0.1055510E+00
          2   -1    0    0  501    0  0.00000000000E+00  0.00000000000E+00  0.75238278356E+03  0.75238278356E+03  0.25500000000E-02 0.  1.
         -2   -1    0    0    0  501 -0.00000000000E+00 -0.00000000000E+00 -0.44966675027E+02  0.44966675099E+02  0.25500000000E-02 0. -1.
    5000001    1    1    2    0    0 -0.72717612454E+02 -0.59848727809E+02  0.65273645202E+03  0.66397559984E+03  0.77000000000E+02 0.  0.
   -5000001    1    1    2    0    0  0.72717612454E+02  0.59848727809E+02  0.54679656509E+02  0.13337385882E+03  0.77000000000E+02 0.  0.
<mgrwt>
<rscale>  0 0.36787037E+03</rscale>
<asrwt>0</asrwt>
<pdfrwt beam="1">  1        2 0.11575119E+00 0.36787037E+03</pdfrwt>
<pdfrwt beam="2">  1       -2 0.69179507E-02 0.36787037E+03</pdfrwt>
<totfact> 0.45740432E+03</totfact>
</mgrwt>
</event>
<event>
 4    1  0.6207184E-004  0.1725177E+03  0.7818608E-02  0.1175247E+00
          2   -1    0    0  501    0  0.00000000000E+00  0.00000000000E+00  0.56786402689E+03  0.56786402689E+03  0.25500000000E-02 0.  1.
         -2   -1    0    0    0  501 -0.00000000000E+00 -0.00000000000E+00 -0.13102765132E+02  0.13102765380E+02  0.25500000000E-02 0. -1.
    5000001    1    1    2    0    0 -0.28515910217E+02  0.24302626745E+02  0.31234741743E+03  0.32387294419E+03  0.77000000000E+02 0.  0.
   -5000001    1    1    2    0    0  0.28515910217E+02 -0.24302626745E+02  0.24241384433E+03  0.25709384809E+03  0.77000000000E+02 0.  0.
<mgrwt>
<rscale>  0 0.17251770E+03</rscale>
<asrwt>0</asrwt>
<pdfrwt beam="1">  1        2 0.87363682E-01 0.17251770E+03</pdfrwt>
<pdfrwt beam="2">  1       -2 0.20158104E-02 0.17251770E+03</pdfrwt>
<totfact> 0.39258067E+04</totfact>
</mgrwt>
</event>
<event>
 4    1  0.6207184E-004  0.2112256E+03  0.7818608E-02  0.1140599E+00
         -2   -1    0    0    0  501 -0.00000000000E+00  0.00000000000E+00  0.18455610836E+03  0.18455610837E+03  0.25500000000E-02 0. -1.
          2   -1    0    0  501    0  0.00000000000E+00 -0.00000000000E+00 -0.60437258952E+02  0.60437259006E+02  0.25500000000E-02 0.  1.
    5000001    1    1    2    0    0  0.31506882727E+02  0.61104171339E+02  0.36158764387E+02  0.10937485843E+03  0.77000000000E+02 0.  0.
   -5000001    1    1    2    0    0 -0.31506882727E+02 -0.61104171339E+02  0.87960085018E+02  0.13561850895E+03  0.77000000000E+02 0.  0.
<mgrwt>
<rscale>  0 0.21122562E+03</rscale>
<asrwt>0</asrwt>
<pdfrwt beam="1">  1        2 0.92980399E-02 0.21122562E+03</pdfrwt>
<pdfrwt beam="2">  1       -2 0.28393247E-01 0.21122562E+03</pdfrwt>
<totfact> 0.77403621E+03</totfact>
</mgrwt>
</event>
<event>
 4    1  0.6207184E-004  0.2456055E+03  0.7818608E-02  0.1116114E+00
          2   -1    0    0  501    0  0.00000000000E+00  0.00000000000E+00  0.32953138014E+04  0.32953138014E+04  0.25500000000E-02 0.  1.
         -2   -1    0    0    0  501 -0.00000000000E+00 -0.00000000000E+00 -0.45763530406E+01  0.45763537511E+01  0.25500000000E-02 0. -1.
    5000001    1    1    2    0    0  0.37632109762E+01  0.95574365933E+02  0.16224911472E+04  0.16271309547E+04  0.77000000000E+02 0.  0.
   -5000001    1    1    2    0    0 -0.37632109762E+01 -0.95574365933E+02  0.16682463012E+04  0.16727592005E+04  0.77000000000E+02 0.  0.
<mgrwt>
<rscale>  0 0.24560554E+03</rscale>
<asrwt>0</asrwt>
<pdfrwt beam="1">  1        2 0.50697313E+00 0.24560554E+03</pdfrwt>
<pdfrwt beam="2">  1       -2 0.70405191E-03 0.24560554E+03</pdfrwt>
<totfact> 0.48875808E+03</totfact>
</mgrwt>
</event>
<event>
 4    1  0.6207184E-004  0.3532835E+03  0.7818608E-02  0.1061275E+00
         -2   -1    0    0    0  501 -0.00000000000E+00  0.00000000000E+00  0.74998491187E+02  0.74998491231E+02  0.25500000000E-02 0. -1.
          2   -1    0    0  501    0  0.00000000000E+00 -0.00000000000E+00 -0.41603902984E+03  0.41603902984E+03  0.25500000000E-02 0.  1.
    5000001    1    1    2    0    0  0.35195131967E+02  0.14370104977E+03 -0.89658036109E+02  0.18935747268E+03  0.77000000000E+02 0.  0.
   -5000001    1    1    2    0    0 -0.35195131967E+02 -0.14370104977E+03 -0.25138250254E+03  0.30168004840E+03  0.77000000000E+02 0.  0.
<mgrwt>
<rscale>  0 0.35328345E+03</rscale>
<asrwt>0</asrwt>
<pdfrwt beam="1">  1        2 0.64006004E-01 0.35328345E+03</pdfrwt>
<pdfrwt beam="2">  1       -2 0.11538230E-01 0.35328345E+03</pdfrwt>
<totfact> 0.40433672E+03</totfact>
</mgrwt>
</event>
<event>
 4    1  0.6207184E-004  0.2335564E+03  0.7818608E-02  0.1124161E+00
         -2   -1    0    0    0  501 -0.00000000000E+00  0.00000000000E+00  0.23276391445E+02  0.23276391584E+02  0.25500000000E-02 0. -1.
          2   -1    0    0  501    0  0.00000000000E+00 -0.00000000000E+00 -0.58587884799E+03  0.58587884799E+03  0.25500000000E-02 0.  1.
    5000001    1    1    2    0    0  0.63839849477E+02 -0.37971710772E+02 -0.40337840341E+03  0.41732542882E+03  0.77000000000E+02 0.  0.
   -5000001    1    1    2    0    0 -0.63839849477E+02  0.37971710772E+02 -0.15922405313E+03  0.19182981076E+03  0.77000000000E+02 0.  0.
<mgrwt>
<rscale>  0 0.23355638E+03</rscale>
<asrwt>0</asrwt>
<pdfrwt beam="1">  1        2 0.90135196E-01 0.23355638E+03</pdfrwt>
<pdfrwt beam="2">  1       -2 0.35809838E-02 0.23355638E+03</pdfrwt>
<totfact> 0.16589977E+04</totfact>
</mgrwt>
</event>
<event>
 4    1  0.6207184E-004  0.1790935E+03  0.7818608E-02  0.1168683E+00
         -2   -1    0    0    0  501 -0.00000000000E+00  0.00000000000E+00  0.57040189472E+01  0.57040195171E+01  0.25500000000E-02 0. -1.
          2   -1    0    0  501    0  0.00000000000E+00 -0.00000000000E+00 -0.14057839482E+04  0.14057839482E+04  0.25500000000E-02 0.  1.
    5000001    1    1    2    0    0 -0.13332334341E+02 -0.36307725435E+02 -0.50801821258E+03  0.51527420504E+03  0.77000000000E+02 0.  0.
   -5000001    1    1    2    0    0  0.13332334341E+02  0.36307725435E+02 -0.89206171670E+03  0.89621376270E+03  0.77000000000E+02 0.  0.
<mgrwt>
<rscale>  0 0.17909348E+03</rscale>
<asrwt>0</asrwt>
<pdfrwt beam="1">  1        2 0.21627418E+00 0.17909348E+03</pdfrwt>
<pdfrwt beam="2">  1       -2 0.87754254E-03 0.17909348E+03</pdfrwt>
<totfact> 0.38465658E+04</totfact>
</mgrwt>
</event>
<event>
 4    1  0.6207184E-004  0.1955947E+03  0.7818608E-02  0.1153510E+00
          2   -1    0    0  501    0  0.00000000000E+00  0.00000000000E+00  0.21414904665E+04  0.21414904665E+04  0.25500000000E-02 0.  1.
         -2   -1    0    0    0  501 -0.00000000000E+00 -0.00000000000E+00 -0.44661975052E+01  0.44661982331E+01  0.25500000000E-02 0. -1.
    5000001    1    1    2    0    0 -0.51940866055E+02 -0.13803985951E+00  0.73259095537E+03  0.73845540184E+03  0.77000000000E+02 0.  0.
   -5000001    1    1    2    0    0  0.51940866055E+02  0.13803985951E+00  0.14044333136E+04  0.14075012629E+04  0.77000000000E+02 0.  0.
<mgrwt>
<rscale>  0 0.19559468E+03</rscale>
<asrwt>0</asrwt>
<pdfrwt beam="1">  1        2 0.32946062E+00 0.19559468E+03</pdfrwt>
<pdfrwt beam="2">  1       -2 0.68710621E-03 0.19559468E+03</pdfrwt>
<totfact> 0.22695239E+04</totfact>
</mgrwt>
</event>
<event>
 4    1  0.6207184E-004  0.1857442E+03  0.7818608E-02  0.1162357E+00
          2   -1    0    0  501    0  0.00000000000E+00  0.00000000000E+00  0.14497578098E+03  0.14497578100E+03  0.25500000000E-02 0.  1.
         -2   -1    0    0    0  501 -0.00000000000E+00 -0.00000000000E+00 -0.59494252376E+02  0.59494252431E+02  0.25500000000E-02 0. -1.
    5000001    1    1    2    0    0 -0.20010026592E+02  0.44248881876E+02  0.62974844566E+02  0.11069415413E+03  0.77000000000E+02 0.  0.
   -5000001    1    1    2    0    0  0.20010026592E+02 -0.44248881876E+02  0.22506684035E+02  0.93775879296E+02  0.77000000000E+02 0.  0.
<mgrwt>
<rscale>  0 0.18574419E+03</rscale>
<asrwt>0</asrwt>
<pdfrwt beam="1">  1        2 0.22303966E-01 0.18574419E+03</pdfrwt>
<pdfrwt beam="2">  1       -2 0.91529620E-02 0.18574419E+03</pdfrwt>
<totfact> 0.17921533E+04</totfact>
</mgrwt>
</event>
<event>
 4    1  0.6207184E-004  0.4419129E+03  0.7818608E-02  0.1030161E+00
          2   -1    0    0  501    0  0.00000000000E+00  0.00000000000E+00  0.21767619967E+03  0.21767619968E+03  0.25500000000E-02 0.  1.
         -2   -1    0    0    0  501 -0.00000000000E+00 -0.00000000000E+00 -0.22428615297E+03  0.22428615299E+03  0.25500000000E-02 0. -1.
    5000001    1    1    2    0    0 -0.14470902501E+03 -0.29354696324E+02 -0.14854641648E+03  0.22315339560E+03  0.77000000000E+02 0.  0.
   -5000001    1    1    2    0    0  0.14470902501E+03  0.29354696324E+02  0.14193646318E+03  0.21880895707E+03  0.77000000000E+02 0.  0.
<mgrwt>
<rscale>  0 0.44191292E+03</rscale>
<asrwt>0</asrwt>
<pdfrwt beam="1">  1        2 0.33488646E-01 0.44191292E+03</pdfrwt>
<pdfrwt beam="2">  1       -2 0.34505562E-01 0.44191292E+03</pdfrwt>
<totfact> 0.12340769E+03</totfact>
</mgrwt>
</event>
<event>
 4    1  0.6207184E-004  0.2507726E+03  0.7818608E-02  0.1112818E+00
          2   -1    0    0  501    0  0.00000000000E+00  0.00000000000E+00  0.11273466273E+04  0.11273466273E+04  0.25500000000E-02 0.  1.
         -2   -1    0    0    0  501 -0.00000000000E+00 -0.00000000000E+00 -0.13945780145E+02  0.13945780378E+02  0.25500000000E-02 0. -1.
    5000001    1    1    2    0    0  0.57218086902E+02 -0.80444057310E+02  0.52531016655E+03  0.54002307997E+03  0.77000000000E+02 0.  0.
   -5000001    1    1    2    0    0 -0.57218086902E+02  0.80444057310E+02  0.58809068064E+03  0.60126932774E+03  0.77000000000E+02 0.  0.
<mgrwt>
<rscale>  0 0.25077263E+03</rscale>
<asrwt>0</asrwt>
<pdfrwt beam="1">  1        2 0.17343800E+00 0.25077263E+03</pdfrwt>
<pdfrwt beam="2">  1       -2 0.21455039E-02 0.25077263E+03</pdfrwt>
<totfact> 0.15252932E+04</totfact>
</mgrwt>
</event>
<event>
 4    1  0.6207184E-004  0.2172906E+03  0.7818608E-02  0.1135919E+00
         -2   -1    0    0    0  501 -0.00000000000E+00  0.00000000000E+00  0.19248169197E+02  0.19248169366E+02  0.25500000000E-02 0. -1.
          2   -1    0    0  501    0  0.00000000000E+00 -0.00000000000E+00 -0.61324284286E+03  0.61324284287E+03  0.25500000000E-02 0.  1.
    5000001    1    1    2    0    0 -0.21401542079E+02 -0.43337118695E+02 -0.12384297030E+03  0.15363011799E+03  0.77000000000E+02 0.  0.
   -5000001    1    1    2    0    0  0.21401542079E+02  0.43337118695E+02 -0.47015170337E+03  0.47886089425E+03  0.77000000000E+02 0.  0.
<mgrwt>
<rscale>  0 0.21729061E+03</rscale>
<asrwt>0</asrwt>
<pdfrwt beam="1">  1        2 0.94345038E-01 0.21729061E+03</pdfrwt>
<pdfrwt beam="2">  1       -2 0.29612573E-02 0.21729061E+03</pdfrwt>
<totfact> 0.20788967E+04</totfact>
</mgrwt>
</event>
<event>
 4    1  0.6207184E-004  0.2076030E+03  0.7818608E-02  0.1143478E+00
          2   -1    0    0  501    0  0.00000000000E+00  0.00000000000E+00  0.18602003546E+04  0.18602003546E+04  0.25500000000E-02 0.  1.
         -2   -1    0    0    0  501 -0.00000000000E+00 -0.00000000000E+00 -0.57922554762E+01  0.57922560375E+01  0.25500000000E-02 0. -1.
    5000001    1    1    2    0    0 -0.54272817175E+02  0.32359832552E+02  0.66468206823E+03  0.67210412086E+03  0.77000000000E+02 0.  0.
   -5000001    1    1    2    0    0  0.54272817175E+02 -0.32359832552E+02  0.11897260309E+04  0.11938884897E+04  0.77000000000E+02 0.  0.
<mgrwt>
<rscale>  0 0.20760305E+03</rscale>
<asrwt>0</asrwt>
<pdfrwt beam="1">  1        2 0.28618433E+00 0.20760305E+03</pdfrwt>
<pdfrwt beam="2">  1       -2 0.89111732E-03 0.20760305E+03</pdfrwt>
<totfact> 0.21934176E+04</totfact>
</mgrwt>
</event>
<event>
 4    1  0.6207184E-004  0.2816965E+03  0.7818608E-02  0.1094766E+00
          2   -1    0    0  501    0  0.00000000000E+00  0.00000000000E+00  0.22299381196E+04  0.22299381196E+04  0.25500000000E-02 0.  1.
         -2   -1    0    0    0  501 -0.00000000000E+00 -0.00000000000E+00 -0.88963150646E+01  0.88963154301E+01  0.25500000000E-02 0. -1.
    5000001    1    1    2    0    0 -0.10095634954E+03  0.55336723726E+02  0.13139093722E+04  0.13211893036E+04  0.77000000000E+02 0.  0.
   -5000001    1    1    2    0    0  0.10095634954E+03 -0.55336723726E+02  0.90713243229E+03  0.91764513142E+03  0.77000000000E+02 0.  0.
<mgrwt>
<rscale>  0 0.28169652E+03</rscale>
<asrwt>0</asrwt>
<pdfrwt beam="1">  1        2 0.34306765E+00 0.28169652E+03</pdfrwt>
<pdfrwt beam="2">  1       -2 0.13686629E-02 0.28169652E+03</pdfrwt>
<totfact> 0.75732025E+03</totfact>
</mgrwt>
</event>
<event>
 4    1  0.6207184E-004  0.1782519E+03  0.7818608E-02  0.1169506E+00
         -2   -1    0    0    0  501 -0.00000000000E+00  0.00000000000E+00  0.79270409780E+03  0.79270409780E+03  0.25500000000E-02 0. -1.
          2   -1    0    0  501    0  0.00000000000E+00 -0.00000000000E+00 -0.10020677815E+02  0.10020678139E+02  0.25500000000E-02 0.  1.
    5000001    1    1    2    0    0 -0.54161378411E+01  0.43413861457E+02  0.34623326134E+03  0.35738014658E+03  0.77000000000E+02 0.  0.
   -5000001    1    1    2    0    0  0.54161378411E+01 -0.43413861457E+02  0.43645015865E+03  0.44534462936E+03  0.77000000000E+02 0.  0.
<mgrwt>
<rscale>  0 0.17825187E+03</rscale>
<asrwt>0</asrwt>
<pdfrwt beam="1">  1        2 0.15416427E-02 0.17825187E+03</pdfrwt>
<pdfrwt beam="2">  1       -2 0.12195448E+00 0.17825187E+03</pdfrwt>
<totfact> 0.40728769E+03</totfact>
</mgrwt>
</event>
<event>
 4    1  0.6207184E-004  0.2009072E+03  0.7818608E-02  0.1148976E+00
         -2   -1    0    0    0  501 -0.00000000000E+00  0.00000000000E+00  0.75464030857E+01  0.75464035165E+01  0.25500000000E-02 0. -1.
          2   -1    0    0  501    0  0.00000000000E+00 -0.00000000000E+00 -0.13371837747E+04  0.13371837747E+04  0.25500000000E-02 0.  1.
    5000001    1    1    2    0    0  0.19757854740E+02  0.52604615070E+02 -0.45270268503E+03  0.46262980814E+03  0.77000000000E+02 0.  0.
   -5000001    1    1    2    0    0 -0.19757854740E+02 -0.52604615070E+02 -0.87693468660E+03  0.88210037009E+03  0.77000000000E+02 0.  0.
<mgrwt>
<rscale>  0 0.20090722E+03</rscale>
<asrwt>0</asrwt>
<pdfrwt beam="1">  1        2 0.20572039E+00 0.20090722E+03</pdfrwt>
<pdfrwt beam="2">  1       -2 0.11609862E-02 0.20090722E+03</pdfrwt>
<totfact> 0.28186102E+04</totfact>
</mgrwt>
</event>
<event>
 4    1  0.6207184E-004  0.4899082E+03  0.7818608E-02  0.1016447E+00
          2   -1    0    0  501    0  0.00000000000E+00  0.00000000000E+00  0.18270872608E+03  0.18270872610E+03  0.25500000000E-02 0.  1.
         -2   -1    0    0    0  501 -0.00000000000E+00 -0.00000000000E+00 -0.32840526250E+03  0.32840526251E+03  0.25500000000E-02 0. -1.
    5000001    1    1    2    0    0  0.30199765646E+02  0.19085888005E+03  0.62112563592E+02  0.21708548661E+03  0.77000000000E+02 0.  0.
   -5000001    1    1    2    0    0 -0.30199765646E+02 -0.19085888005E+03 -0.20780910001E+03  0.29402850200E+03  0.77000000000E+02 0.  0.
<mgrwt>
<rscale>  0 0.48990818E+03</rscale>
<asrwt>0</asrwt>
<pdfrwt beam="1">  1        2 0.28109035E-01 0.48990818E+03</pdfrwt>
<pdfrwt beam="2">  1       -2 0.50523887E-01 0.48990818E+03</pdfrwt>
<totfact> 0.71359294E+02</totfact>
</mgrwt>
</event>
<event>
 4    1  0.6207184E-004  0.2753610E+03  0.7818608E-02  0.1098250E+00
         -2   -1    0    0    0  501 -0.00000000000E+00  0.00000000000E+00  0.63951244394E+02  0.63951244445E+02  0.25500000000E-02 0. -1.
          2   -1    0    0  501    0  0.00000000000E+00 -0.00000000000E+00 -0.29641207968E+03  0.29641207969E+03  0.25500000000E-02 0.  1.
    5000001    1    1    2    0    0  0.47775302499E+02  0.80479926243E+02 -0.20172153667E+03  0.23532971851E+03  0.77000000000E+02 0.  0.
   -5000001    1    1    2    0    0 -0.47775302499E+02 -0.80479926243E+02 -0.30739298617E+02  0.12503360563E+03  0.77000000000E+02 0.  0.
<mgrwt>
<rscale>  0 0.27536101E+03</rscale>
<asrwt>0</asrwt>
<pdfrwt beam="1">  1        2 0.45601858E-01 0.27536101E+03</pdfrwt>
<pdfrwt beam="2">  1       -2 0.98386532E-02 0.27536101E+03</pdfrwt>
<totfact> 0.74889491E+03</totfact>
</mgrwt>
</event>
<event>
 4    1  0.6207184E-004  0.2309224E+03  0.7818608E-02  0.1125992E+00
          2   -1    0    0  501    0  0.00000000000E+00  0.00000000000E+00  0.35594655635E+02  0.35594655726E+02  0.25500000000E-02 0.  1.
         -2   -1    0    0    0  501 -0.00000000000E+00 -0.00000000000E+00 -0.37453076387E+03  0.37453076388E+03  0.25500000000E-02 0. -1.
    5000001    1    1    2    0    0 -0.57606320561E+02  0.47208815869E+02 -0.92972167027E+02  0.14184493049E+03  0.77000000000E+02 0.  0.
   -5000001    1    1    2    0    0  0.57606320561E+02 -0.47208815869E+02 -0.24596394121E+03  0.26828048911E+03  0.77000000000E+02 0.  0.
<mgrwt>
<rscale>  0 0.23092244E+03</rscale>
<asrwt>0</asrwt>
<pdfrwt beam="1">  1        2 0.54761011E-02 0.23092244E+03</pdfrwt>
<pdfrwt beam="2">  1       -2 0.57620115E-01 0.23092244E+03</pdfrwt>
<totfact> 0.39538633E+03</totfact>
</mgrwt>
</event>
<event>
 4    1  0.6207184E-004  0.2449567E+03  0.7818608E-02  0.1116534E+00
          2   -1    0    0  501    0  0.00000000000E+00  0.00000000000E+00  0.18079211016E+04  0.18079211016E+04  0.25500000000E-02 0.  1.
         -2   -1    0    0    0  501 -0.00000000000E+00 -0.00000000000E+00 -0.82973445451E+01  0.82973449369E+01  0.25500000000E-02 0. -1.
    5000001    1    1    2    0    0 -0.79477276258E+02 -0.49355342321E+02  0.10323123025E+04  0.10393989980E+04  0.77000000000E+02 0.  0.
   -5000001    1    1    2    0    0  0.79477276258E+02  0.49355342321E+02  0.76731145456E+03  0.77681944850E+03  0.77000000000E+02 0.  0.
<mgrwt>
<rscale>  0 0.24495669E+03</rscale>
<asrwt>0</asrwt>
<pdfrwt beam="1">  1        2 0.27814158E+00 0.24495669E+03</pdfrwt>
<pdfrwt beam="2">  1       -2 0.12765152E-02 0.24495669E+03</pdfrwt>
<totfact> 0.13957067E+04</totfact>
</mgrwt>
</event>
<event>
 4    1  0.6207184E-004  0.7948526E+03  0.7818608E-02  0.9567498E-01
         -2   -1    0    0    0  501 -0.00000000000E+00  0.00000000000E+00  0.12593139918E+03  0.12593139921E+03  0.25500000000E-02 0. -1.
          2   -1    0    0  501    0  0.00000000000E+00 -0.00000000000E+00 -0.12542359005E+04  0.12542359005E+04  0.25500000000E-02 0.  1.
    5000001    1    1    2    0    0 -0.15229323170E+03  0.35716795774E+03 -0.62570209295E+03  0.74040143678E+03  0.77000000000E+02 0.  0.
   -5000001    1    1    2    0    0  0.15229323170E+03 -0.35716795774E+03 -0.50260240833E+03  0.63976586289E+03  0.77000000000E+02 0.  0.
<mgrwt>
<rscale>  0 0.79485265E+03</rscale>
<asrwt>0</asrwt>
<pdfrwt beam="1">  1        2 0.19295936E+00 0.79485265E+03</pdfrwt>
<pdfrwt beam="2">  1       -2 0.19374062E-01 0.79485265E+03</pdfrwt>
<totfact> 0.39945456E+02</totfact>
</mgrwt>
</event>
<event>
 4    1  0.6207184E-004  0.1731380E+03  0.7818608E-02  0.1174614E+00
          2   -1    0    0  501    0  0.00000000000E+00  0.00000000000E+00  0.17231542782E+04  0.17231542782E+04  0.25500000000E-02 0.  1.
         -2   -1    0    0    0  501 -0.00000000000E+00 -0.00000000000E+00 -0.43491103273E+01  0.43491110748E+01  0.25500000000E-02 0. -1.
    5000001    1    1    2    0    0  0.21852782490E+02  0.31579137202E+02  0.95427005260E+03  0.95814149232E+03  0.77000000000E+02 0.  0.
   -5000001    1    1    2    0    0 -0.21852782490E+02 -0.31579137202E+02  0.76453511523E+03  0.76936189692E+03  0.77000000000E+02 0.  0.
<mgrwt>
<rscale>  0 0.17313796E+03</rscale>
<asrwt>0</asrwt>
<pdfrwt beam="1">  1        2 0.26510074E+00 0.17313796E+03</pdfrwt>
<pdfrwt beam="2">  1       -2 0.66909374E-03 0.17313796E+03</pdfrwt>
<totfact> 0.38601486E+04</totfact>
</mgrwt>
</event>
<event>
 4    1  0.6207184E-004  0.3610572E+03  0.7818608E-02  0.1058166E+00
          2   -1    0    0  501    0  0.00000000000E+00  0.00000000000E+00  0.96677327127E+03  0.96677327127E+03  0.25500000000E-02 0.  1.
         -2   -1    0    0    0  501 -0.00000000000E+00 -0.00000000000E+00 -0.33710668122E+02  0.33710668218E+02  0.25500000000E-02 0. -1.
    5000001    1    1    2    0    0 -0.15935167661E+03 -0.26100764938E+02  0.53368788530E+03  0.56287295696E+03  0.77000000000E+02 0.  0.
   -5000001    1    1    2    0    0  0.15935167661E+03  0.26100764938E+02  0.39937471785E+03  0.43761098253E+03  0.77000000000E+02 0.  0.
<mgrwt>
<rscale>  0 0.36105719E+03</rscale>
<asrwt>0</asrwt>
<pdfrwt beam="1">  1        2 0.14873436E+00 0.36105719E+03</pdfrwt>
<pdfrwt beam="2">  1       -2 0.51862563E-02 0.36105719E+03</pdfrwt>
<totfact> 0.51208090E+03</totfact>
</mgrwt>
</event>
<event>
 4    1  0.6207184E-004  0.1903687E+03  0.7818608E-02  0.1158129E+00
          2   -1    0    0  501    0  0.00000000000E+00  0.00000000000E+00  0.36277796392E+04  0.36277796392E+04  0.25500000000E-02 0.  1.
         -2   -1    0    0    0  501 -0.00000000000E+00 -0.00000000000E+00 -0.24974126703E+01  0.24974139721E+01  0.25500000000E-02 0. -1.
    5000001    1    1    2    0    0 -0.33455612818E+02 -0.42217059403E+02  0.15237447035E+04  0.15266396037E+04  0.77000000000E+02 0.  0.
   -5000001    1    1    2    0    0  0.33455612818E+02  0.42217059403E+02  0.21015375230E+04  0.21036374494E+04  0.77000000000E+02 0.  0.
<mgrwt>
<rscale>  0 0.19036875E+03</rscale>
<asrwt>0</asrwt>
<pdfrwt beam="1">  1        2 0.55812206E+00 0.19036875E+03</pdfrwt>
<pdfrwt beam="2">  1       -2 0.38421598E-03 0.19036875E+03</pdfrwt>
<totfact> 0.70925886E+03</totfact>
</mgrwt>
</event>
<event>
 4    1  0.6207184E-004  0.4929204E+03  0.7818608E-02  0.1015643E+00
         -2   -1    0    0    0  501 -0.00000000000E+00  0.00000000000E+00  0.17518283709E+03  0.17518283711E+03  0.25500000000E-02 0. -1.
          2   -1    0    0  501    0  0.00000000000E+00 -0.00000000000E+00 -0.34673852083E+03  0.34673852084E+03  0.25500000000E-02 0.  1.
    5000001    1    1    2    0    0 -0.80451924176E+02 -0.15775095949E+03 -0.24794130444E+03  0.31426385056E+03  0.77000000000E+02 0.  0.
   -5000001    1    1    2    0    0  0.80451924176E+02  0.15775095949E+03  0.76385620699E+02  0.20765750738E+03  0.77000000000E+02 0.  0.
<mgrwt>
<rscale>  0 0.49292043E+03</rscale>
<asrwt>0</asrwt>
<pdfrwt beam="1">  1        2 0.53344388E-01 0.49292043E+03</pdfrwt>
<pdfrwt beam="2">  1       -2 0.26951206E-01 0.49292043E+03</pdfrwt>
<totfact> 0.11671265E+03</totfact>
</mgrwt>
</event>
<event>
 4    1  0.6207184E-004  0.2098103E+03  0.7818608E-02  0.1141716E+00
         -2   -1    0    0    0  501 -0.00000000000E+00  0.00000000000E+00  0.58238813312E+02  0.58238813368E+02  0.25500000000E-02 0. -1.
          2   -1    0    0  501    0  0.00000000000E+00 -0.00000000000E+00 -0.18896489808E+03  0.18896489810E+03  0.25500000000E-02 0.  1.
    5000001    1    1    2    0    0 -0.26626007915E+02 -0.63925077221E+02 -0.85104255712E+02  0.13404138964E+03  0.77000000000E+02 0.  0.
   -5000001    1    1    2    0    0  0.26626007915E+02  0.63925077221E+02 -0.45621829055E+02  0.11316232183E+03  0.77000000000E+02 0.  0.
<mgrwt>
<rscale>  0 0.20981031E+03</rscale>
<asrwt>0</asrwt>
<pdfrwt beam="1">  1        2 0.29071523E-01 0.20981031E+03</pdfrwt>
<pdfrwt beam="2">  1       -2 0.89598175E-02 0.20981031E+03</pdfrwt>
<totfact> 0.13933679E+04</totfact>
</mgrwt>
</event>
<event>
 4    1  0.6207184E-004  0.3036506E+03  0.7818608E-02  0.1083430E+00
         -2   -1    0    0    0  501 -0.00000000000E+00  0.00000000000E+00  0.10867890470E+02  0.10867890769E+02  0.25500000000E-02 0. -1.
          2   -1    0    0  501    0  0.00000000000E+00 -0.00000000000E+00 -0.21210120029E+04  0.21210120029E+04  0.25500000000E-02 0.  1.
    5000001    1    1    2    0    0 -0.32025837982E+02 -0.87237203323E+02 -0.17018252590E+04  0.17060991168E+04  0.77000000000E+02 0.  0.
   -5000001    1    1    2    0    0  0.32025837982E+02  0.87237203323E+02 -0.40831885338E+03  0.42578077689E+03  0.77000000000E+02 0.  0.
<mgrwt>
<rscale>  0 0.30365063E+03</rscale>
<asrwt>0</asrwt>
<pdfrwt beam="1">  1        2 0.32630921E+00 0.30365063E+03</pdfrwt>
<pdfrwt beam="2">  1       -2 0.16719849E-02 0.30365063E+03</pdfrwt>
<totfact> 0.64545507E+03</totfact>
</mgrwt>
</event>
<event>
 4    1  0.6207184E-004  0.1936693E+03  0.7818608E-02  0.1155193E+00
          2   -1    0    0  501    0  0.00000000000E+00  0.00000000000E+00  0.38673439353E+04  0.38673439353E+04  0.25500000000E-02 0.  1.
         -2   -1    0    0    0  501 -0.00000000000E+00 -0.00000000000E+00 -0.24246473229E+01  0.24246486638E+01  0.25500000000E-02 0. -1.
    5000001    1    1    2    0    0  0.34189637787E+01  0.54539306046E+02  0.15031063787E+04  0.15060690591E+04  0.77000000000E+02 0.  0.
   -5000001    1    1    2    0    0 -0.34189637787E+01 -0.54539306046E+02  0.23618129093E+04  0.23636995248E+04  0.77000000000E+02 0.  0.
<mgrwt>
<rscale>  0 0.19366928E+03</rscale>
<asrwt>0</asrwt>
<pdfrwt beam="1">  1        2 0.59497947E+00 0.19366928E+03</pdfrwt>
<pdfrwt beam="2">  1       -2 0.37302059E-03 0.19366928E+03</pdfrwt>
<totfact> 0.50222170E+03</totfact>
</mgrwt>
</event>
<event>
 4    1  0.6207184E-004  0.3331498E+03  0.7818608E-02  0.1069752E+00
          2   -1    0    0  501    0  0.00000000000E+00  0.00000000000E+00  0.18533411339E+04  0.18533411339E+04  0.25500000000E-02 0.  1.
         -2   -1    0    0    0  501 -0.00000000000E+00 -0.00000000000E+00 -0.14971447977E+02  0.14971448194E+02  0.25500000000E-02 0. -1.
    5000001    1    1    2    0    0  0.12854901846E+03 -0.67597425931E+02  0.76829473370E+03  0.78568445319E+03  0.77000000000E+02 0.  0.
   -5000001    1    1    2    0    0 -0.12854901846E+03  0.67597425931E+02  0.10700749522E+04  0.10826281289E+04  0.77000000000E+02 0.  0.
<mgrwt>
<rscale>  0 0.33314982E+03</rscale>
<asrwt>0</asrwt>
<pdfrwt beam="1">  1        2 0.28512928E+00 0.33314982E+03</pdfrwt>
<pdfrwt beam="2">  1       -2 0.23033007E-02 0.33314982E+03</pdfrwt>
<totfact> 0.55711397E+03</totfact>
</mgrwt>
</event>
<event>
 4    1  0.6207184E-004  0.3620313E+03  0.7818608E-02  0.1057782E+00
          2   -1    0    0  501    0  0.00000000000E+00  0.00000000000E+00  0.18181843283E+04  0.18181843284E+04  0.25500000000E-02 0.  1.
         -2   -1    0    0    0  501 -0.00000000000E+00 -0.00000000000E+00 -0.18021642638E+02  0.18021642819E+02  0.25500000000E-02 0. -1.
    5000001    1    1    2    0    0  0.16056432252E+03  0.20564987231E+01  0.73553279582E+03  0.75678439768E+03  0.77000000000E+02 0.  0.
   -5000001    1    1    2    0    0 -0.16056432252E+03 -0.20564987231E+01  0.10646298899E+04  0.10794215735E+04  0.77000000000E+02 0.  0.
<mgrwt>
<rscale>  0 0.36203132E+03</rscale>
<asrwt>0</asrwt>
<pdfrwt beam="1">  1        2 0.27972071E+00 0.36203132E+03</pdfrwt>
<pdfrwt beam="2">  1       -2 0.27725600E-02 0.36203132E+03</pdfrwt>
<totfact> 0.44096490E+03</totfact>
</mgrwt>
</event>
<event>
 4    1  0.6207184E-004  0.2037599E+03  0.7818608E-02  0.1146605E+00
         -2   -1    0    0    0  501 -0.00000000000E+00  0.00000000000E+00  0.33275383421E+02  0.33275383519E+02  0.25500000000E-02 0. -1.
          2   -1    0    0  501    0  0.00000000000E+00 -0.00000000000E+00 -0.31192790553E+03  0.31192790554E+03  0.25500000000E-02 0.  1.
    5000001    1    1    2    0    0  0.64521475837E+02 -0.55895071350E+01 -0.11220596956E+03  0.15070979743E+03  0.77000000000E+02 0.  0.
   -5000001    1    1    2    0    0 -0.64521475837E+02  0.55895071350E+01 -0.16644655255E+03  0.19449349164E+03  0.77000000000E+02 0.  0.
<mgrwt>
<rscale>  0 0.20375987E+03</rscale>
<asrwt>0</asrwt>
<pdfrwt beam="1">  1        2 0.47988906E-01 0.20375987E+03</pdfrwt>
<pdfrwt beam="2">  1       -2 0.51192900E-02 0.20375987E+03</pdfrwt>
<totfact> 0.19175393E+04</totfact>
</mgrwt>
</event>
<event>
 4    1  0.6207184E-004  0.2135587E+03  0.7818608E-02  0.1138778E+00
         -2   -1    0    0    0  501 -0.00000000000E+00  0.00000000000E+00  0.87600605125E+02  0.87600605162E+02  0.25500000000E-02 0. -1.
          2   -1    0    0  501    0  0.00000000000E+00 -0.00000000000E+00 -0.13015695524E+03  0.13015695527E+03  0.25500000000E-02 0.  1.
    5000001    1    1    2    0    0  0.41878954034E+02 -0.43191725861E+02  0.22620069346E+02  0.10029974831E+03  0.77000000000E+02 0.  0.
   -5000001    1    1    2    0    0 -0.41878954034E+02  0.43191725861E+02 -0.65176419462E+02  0.11745781212E+03  0.77000000000E+02 0.  0.
<mgrwt>
<rscale>  0 0.21355869E+03</rscale>
<asrwt>0</asrwt>
<pdfrwt beam="1">  1        2 0.20024147E-01 0.21355869E+03</pdfrwt>
<pdfrwt beam="2">  1       -2 0.13477016E-01 0.21355869E+03</pdfrwt>
<totfact> 0.11023999E+04</totfact>
</mgrwt>
</event>
<event>
 4    1  0.6207184E-004  0.3640793E+03  0.7818608E-02  0.1056980E+00
          2   -1    0    0  501    0  0.00000000000E+00  0.00000000000E+00  0.95305876711E+03  0.95305876712E+03  0.25500000000E-02 0.  1.
         -2   -1    0    0    0  501 -0.00000000000E+00 -0.00000000000E+00 -0.34770616871E+02  0.34770616964E+02  0.25500000000E-02 0. -1.
    5000001    1    1    2    0    0  0.10630250814E+03 -0.11465099404E+03  0.31649012390E+03  0.36130329669E+03  0.77000000000E+02 0.  0.
   -5000001    1    1    2    0    0 -0.10630250814E+03  0.11465099404E+03  0.60179802634E+03  0.62652608739E+03  0.77000000000E+02 0.  0.
<mgrwt>
<rscale>  0 0.36407934E+03</rscale>
<asrwt>0</asrwt>
<pdfrwt beam="1">  1        2 0.14662443E+00 0.36407934E+03</pdfrwt>
<pdfrwt beam="2">  1       -2 0.53493256E-02 0.36407934E+03</pdfrwt>
<totfact> 0.49821323E+03</totfact>
</mgrwt>
</event>
<event>
 4    1  0.6207184E-004  0.1946783E+03  0.7818608E-02  0.1154308E+00
         -2   -1    0    0    0  501 -0.00000000000E+00  0.00000000000E+00  0.93333787814E+01  0.93333791298E+01  0.25500000000E-02 0. -1.
          2   -1    0    0  501    0  0.00000000000E+00 -0.00000000000E+00 -0.10151641303E+04  0.10151641303E+04  0.25500000000E-02 0.  1.
    5000001    1    1    2    0    0 -0.41051015244E+02  0.38811284276E+02 -0.60198630770E+03  0.60951457431E+03  0.77000000000E+02 0.  0.
   -5000001    1    1    2    0    0  0.41051015244E+02 -0.38811284276E+02 -0.40384444386E+03  0.41498293516E+03  0.77000000000E+02 0.  0.
<mgrwt>
<rscale>  0 0.19467831E+03</rscale>
<asrwt>0</asrwt>
<pdfrwt beam="1">  1        2 0.15617901E+00 0.19467831E+03</pdfrwt>
<pdfrwt beam="2">  1       -2 0.14359053E-02 0.19467831E+03</pdfrwt>
<totfact> 0.31507391E+04</totfact>
</mgrwt>
</event>
<event>
 4    1  0.6207184E-004  0.2396617E+03  0.7818608E-02  0.1120018E+00
         -2   -1    0    0    0  501 -0.00000000000E+00  0.00000000000E+00  0.26970690863E+02  0.26970690984E+02  0.25500000000E-02 0. -1.
          2   -1    0    0  501    0  0.00000000000E+00 -0.00000000000E+00 -0.53240872037E+03  0.53240872037E+03  0.25500000000E-02 0.  1.
    5000001    1    1    2    0    0 -0.79783404437E+02  0.45030866086E+02 -0.26696630689E+03  0.29256312061E+03  0.77000000000E+02 0.  0.
   -5000001    1    1    2    0    0  0.79783404437E+02 -0.45030866086E+02 -0.23847172261E+03  0.26681629075E+03  0.77000000000E+02 0.  0.
<mgrwt>
<rscale>  0 0.23966169E+03</rscale>
<asrwt>0</asrwt>
<pdfrwt beam="1">  1        2 0.81909026E-01 0.23966169E+03</pdfrwt>
<pdfrwt beam="2">  1       -2 0.41493375E-02 0.23966169E+03</pdfrwt>
<totfact> 0.14855635E+04</totfact>
</mgrwt>
</event>
<event>
 4    1  0.6207184E-004  0.2741771E+03  0.7818608E-02  0.1098912E+00
         -2   -1    0    0    0  501 -0.00000000000E+00  0.00000000000E+00  0.20089343204E+02  0.20089343366E+02  0.25500000000E-02 0. -1.
          2   -1    0    0  501    0  0.00000000000E+00 -0.00000000000E+00 -0.93548453606E+03  0.93548453607E+03  0.25500000000E-02 0.  1.
    5000001    1    1    2    0    0  0.64366293111E+02  0.50886962382E+02 -0.73061167025E+03  0.73922588924E+03  0.77000000000E+02 0.  0.
   -5000001    1    1    2    0    0 -0.64366293111E+02 -0.50886962382E+02 -0.18478352261E+03  0.21634799019E+03  0.77000000000E+02 0.  0.
<mgrwt>
<rscale>  0 0.27417710E+03</rscale>
<asrwt>0</asrwt>
<pdfrwt beam="1">  1        2 0.14392066E+00 0.27417710E+03</pdfrwt>
<pdfrwt beam="2">  1       -2 0.30906689E-02 0.27417710E+03</pdfrwt>
<totfact> 0.11641648E+04</totfact>
</mgrwt>
</event>
<event>
 4    1  0.6207184E-004  0.3408289E+03  0.7818608E-02  0.1066443E+00
          2   -1    0    0  501    0  0.00000000000E+00  0.00000000000E+00  0.42651927103E+03  0.42651927104E+03  0.25500000000E-02 0.  1.
         -2   -1    0    0    0  501 -0.00000000000E+00 -0.00000000000E+00 -0.68088572020E+02  0.68088572067E+02  0.25500000000E-02 0. -1.
    5000001    1    1    2    0    0  0.84394948395E+02 -0.99571062975E+02  0.29232620490E+03  0.32927270456E+03  0.77000000000E+02 0.  0.
   -5000001    1    1    2    0    0 -0.84394948395E+02  0.99571062975E+02  0.66104494111E+02  0.16533513855E+03  0.77000000000E+02 0.  0.
<mgrwt>
<rscale>  0 0.34082892E+03</rscale>
<asrwt>0</asrwt>
<pdfrwt beam="1">  1        2 0.65618349E-01 0.34082892E+03</pdfrwt>
<pdfrwt beam="2">  1       -2 0.10475165E-01 0.34082892E+03</pdfrwt>
<totfact> 0.45937902E+03</totfact>
</mgrwt>
</event>
<event>
 4    1  0.6207184E-004  0.1895129E+03  0.7818608E-02  0.1158901E+00
         -2   -1    0    0    0  501 -0.00000000000E+00  0.00000000000E+00  0.38586445132E+02  0.38586445216E+02  0.25500000000E-02 0. -1.
          2   -1    0    0  501    0  0.00000000000E+00 -0.00000000000E+00 -0.23269266897E+03  0.23269266898E+03  0.25500000000E-02 0.  1.
    5000001    1    1    2    0    0  0.47439168240E+02  0.27612018798E+02 -0.88359495577E+02  0.12941908176E+03  0.77000000000E+02 0.  0.
   -5000001    1    1    2    0    0 -0.47439168240E+02 -0.27612018798E+02 -0.10574672826E+03  0.14186003244E+03  0.77000000000E+02 0.  0.
<mgrwt>
<rscale>  0 0.18951288E+03</rscale>
<asrwt>0</asrwt>
<pdfrwt beam="1">  1        2 0.35798871E-01 0.18951288E+03</pdfrwt>
<pdfrwt beam="2">  1       -2 0.59363763E-02 0.18951288E+03</pdfrwt>
<totfact> 0.20847167E+04</totfact>
</mgrwt>
</event>
<event>
 4    1  0.6207184E-004  0.2431430E+03  0.7818608E-02  0.1117717E+00
          2   -1    0    0  501    0  0.00000000000E+00  0.00000000000E+00  0.17511402313E+03  0.17511402315E+03  0.25500000000E-02 0.  1.
         -2   -1    0    0    0  501 -0.00000000000E+00 -0.00000000000E+00 -0.84400052577E+02  0.84400052616E+02  0.25500000000E-02 0. -1.
    5000001    1    1    2    0    0 -0.84788798444E+02  0.10251941926E+02  0.32495943156E+01  0.11503826545E+03  0.77000000000E+02 0.  0.
   -5000001    1    1    2    0    0  0.84788798444E+02 -0.10251941926E+02  0.87464376234E+02  0.14447581031E+03  0.77000000000E+02 0.  0.
<mgrwt>
<rscale>  0 0.24314303E+03</rscale>
<asrwt>0</asrwt>
<pdfrwt beam="1">  1        2 0.26940618E-01 0.24314303E+03</pdfrwt>
<pdfrwt beam="2">  1       -2 0.12984624E-01 0.24314303E+03</pdfrwt>
<totfact> 0.84535749E+03</totfact>
</mgrwt>
</event>
<event>
 4    1  0.6207184E-004  0.2016727E+03  0.7818608E-02  0.1148335E+00
         -2   -1    0    0    0  501 -0.00000000000E+00  0.00000000000E+00  0.23037485226E+02  0.23037485367E+02  0.25500000000E-02 0. -1.
          2   -1    0    0  501    0  0.00000000000E+00 -0.00000000000E+00 -0.44136630402E+03  0.44136630403E+03  0.25500000000E-02 0.  1.
    5000001    1    1    2    0    0 -0.41829080915E+02 -0.17703476183E+01 -0.32398333758E+03  0.33562927341E+03  0.77000000000E+02 0.  0.
   -5000001    1    1    2    0    0  0.41829080915E+02  0.17703476183E+01 -0.94345481212E+02  0.12877451598E+03  0.77000000000E+02 0.  0.
<mgrwt>
<rscale>  0 0.20167270E+03</rscale>
<asrwt>0</asrwt>
<pdfrwt beam="1">  1        2 0.67902502E-01 0.20167270E+03</pdfrwt>
<pdfrwt beam="2">  1       -2 0.35442288E-02 0.20167270E+03</pdfrwt>
<totfact> 0.22900396E+04</totfact>
</mgrwt>
</event>
<event>
 4    1  0.6207184E-004  0.2459559E+03  0.7818608E-02  0.1115888E+00
         -2   -1    0    0    0  501 -0.00000000000E+00  0.00000000000E+00  0.10923489111E+03  0.10923489114E+03  0.25500000000E-02 0. -1.
          2   -1    0    0  501    0  0.00000000000E+00 -0.00000000000E+00 -0.13845006823E+03  0.13845006826E+03  0.25500000000E-02 0.  1.
    5000001    1    1    2    0    0 -0.57152491838E+02 -0.69617581520E+02 -0.47725908998E+02  0.12774888402E+03  0.77000000000E+02 0.  0.
   -5000001    1    1    2    0    0  0.57152491838E+02  0.69617581520E+02  0.18510731871E+02  0.11993607537E+03  0.77000000000E+02 0.  0.
<mgrwt>
<rscale>  0 0.24595592E+03</rscale>
<asrwt>0</asrwt>
<pdfrwt beam="1">  1        2 0.21300011E-01 0.24595592E+03</pdfrwt>
<pdfrwt beam="2">  1       -2 0.16805368E-01 0.24595592E+03</pdfrwt>
<totfact> 0.71960952E+03</totfact>
</mgrwt>
</event>
<event>
 4    1  0.6207184E-004  0.3810645E+03  0.7818608E-02  0.1050541E+00
         -2   -1    0    0    0  501 -0.00000000000E+00  0.00000000000E+00  0.18887929519E+03  0.18887929521E+03  0.25500000000E-02 0. -1.
          2   -1    0    0  501    0  0.00000000000E+00 -0.00000000000E+00 -0.19219963264E+03  0.19219963265E+03  0.25500000000E-02 0.  1.
    5000001    1    1    2    0    0  0.24942698850E+02  0.17097760457E+03 -0.24421781024E+02  0.19073778566E+03  0.77000000000E+02 0.  0.
   -5000001    1    1    2    0    0 -0.24942698850E+02 -0.17097760457E+03  0.21101443576E+02  0.19034114220E+03  0.77000000000E+02 0.  0.
<mgrwt>
<rscale>  0 0.38106446E+03</rscale>
<asrwt>0</asrwt>
<pdfrwt beam="1">  1        2 0.29569174E-01 0.38106446E+03</pdfrwt>
<pdfrwt beam="2">  1       -2 0.29058353E-01 0.38106446E+03</pdfrwt>
<totfact> 0.19438929E+03</totfact>
</mgrwt>
</event>
<event>
 4    1  0.6207184E-004  0.1987695E+03  0.7818608E-02  0.1150781E+00
          2   -1    0    0  501    0  0.00000000000E+00  0.00000000000E+00  0.52678451241E+02  0.52678451303E+02  0.25500000000E-02 0.  1.
         -2   -1    0    0    0  501 -0.00000000000E+00 -0.00000000000E+00 -0.18750220920E+03  0.18750220922E+03  0.25500000000E-02 0. -1.
    5000001    1    1    2    0    0  0.44785353481E+02 -0.44070448615E+02 -0.66653733012E+02  0.11966475025E+03  0.77000000000E+02 0.  0.
   -5000001    1    1    2    0    0 -0.44785353481E+02  0.44070448615E+02 -0.68170024949E+02  0.12051591027E+03  0.77000000000E+02 0.  0.
<mgrwt>
<rscale>  0 0.19876947E+03</rscale>
<asrwt>0</asrwt>
<pdfrwt beam="1">  1        2 0.81043772E-02 0.19876947E+03</pdfrwt>
<pdfrwt beam="2">  1       -2 0.28846493E-01 0.19876947E+03</pdfrwt>
<totfact> 0.89056002E+03</totfact>
</mgrwt>
</event>
<event>
 4    1  0.6207184E-004  0.2669334E+03  0.7818608E-02  0.1103048E+00
          2   -1    0    0  501    0  0.00000000000E+00  0.00000000000E+00  0.30113877189E+03  0.30113877190E+03  0.25500000000E-02 0.  1.
         -2   -1    0    0    0  501 -0.00000000000E+00 -0.00000000000E+00 -0.59153327791E+02  0.59153327846E+02  0.25500000000E-02 0. -1.
    5000001    1    1    2    0    0 -0.57498930595E+02  0.89775983497E+02  0.15172741075E+03  0.20078859879E+03  0.77000000000E+02 0.  0.
   -5000001    1    1    2    0    0  0.57498930595E+02 -0.89775983497E+02  0.90258033352E+02  0.15950350096E+03  0.77000000000E+02 0.  0.
<mgrwt>
<rscale>  0 0.26693340E+03</rscale>
<asrwt>0</asrwt>
<pdfrwt beam="1">  1        2 0.46329042E-01 0.26693340E+03</pdfrwt>
<pdfrwt beam="2">  1       -2 0.91005119E-02 0.26693340E+03</pdfrwt>
<totfact> 0.83192428E+03</totfact>
</mgrwt>
</event>
<event>
 4    1  0.6207184E-004  0.3821304E+03  0.7818608E-02  0.1050149E+00
         -2   -1    0    0    0  501 -0.00000000000E+00  0.00000000000E+00  0.30832130412E+02  0.30832130517E+02  0.25500000000E-02 0. -1.
          2   -1    0    0  501    0  0.00000000000E+00 -0.00000000000E+00 -0.11840216144E+04  0.11840216144E+04  0.25500000000E-02 0.  1.
    5000001    1    1    2    0    0  0.14961768894E+03 -0.29643642566E+02 -0.84845868333E+03  0.86549138396E+03  0.77000000000E+02 0.  0.
   -5000001    1    1    2    0    0 -0.14961768894E+03  0.29643642566E+02 -0.30473080068E+03  0.34936236098E+03  0.77000000000E+02 0.  0.
<mgrwt>
<rscale>  0 0.38213039E+03</rscale>
<asrwt>0</asrwt>
<pdfrwt beam="1">  1        2 0.18215714E+00 0.38213039E+03</pdfrwt>
<pdfrwt beam="2">  1       -2 0.47434056E-02 0.38213039E+03</pdfrwt>
<totfact> 0.43467757E+03</totfact>
</mgrwt>
</event>
<event>
 4    1  0.6207184E-004  0.5439041E+03  0.7818608E-02  0.1002915E+00
         -2   -1    0    0    0  501 -0.00000000000E+00  0.00000000000E+00  0.75739021711E+03  0.75739021712E+03  0.25500000000E-02 0. -1.
          2   -1    0    0  501    0  0.00000000000E+00 -0.00000000000E+00 -0.97648379743E+02  0.97648379776E+02  0.25500000000E-02 0.  1.
    5000001    1    1    2    0    0 -0.22155506664E+03  0.60750939658E+02  0.13572819954E+03  0.27772012598E+03  0.77000000000E+02 0.  0.
   -5000001    1    1    2    0    0  0.22155506664E+03 -0.60750939658E+02  0.52401363783E+03  0.57731847091E+03  0.77000000000E+02 0.  0.
<mgrwt>
<rscale>  0 0.54390414E+03</rscale>
<asrwt>0</asrwt>
<pdfrwt beam="1">  1        2 0.15022827E-01 0.54390414E+03</pdfrwt>
<pdfrwt beam="2">  1       -2 0.11652157E+00 0.54390414E+03</pdfrwt>
<totfact> 0.23165808E+02</totfact>
</mgrwt>
</event>
<event>
 4    1  0.6207184E-004  0.2686275E+03  0.7818608E-02  0.1102068E+00
          2   -1    0    0  501    0  0.00000000000E+00  0.00000000000E+00  0.12758858798E+04  0.12758858798E+04  0.25500000000E-02 0.  1.
         -2   -1    0    0    0  501 -0.00000000000E+00 -0.00000000000E+00 -0.14139335703E+02  0.14139335933E+02  0.25500000000E-02 0. -1.
    5000001    1    1    2    0    0  0.43730633393E+02 -0.41607361292E+02  0.10727782847E+04  0.10772306108E+04  0.77000000000E+02 0.  0.
   -5000001    1    1    2    0    0 -0.43730633393E+02  0.41607361292E+02  0.18896825937E+03  0.21279460486E+03  0.77000000000E+02 0.  0.
<mgrwt>
<rscale>  0 0.26862747E+03</rscale>
<asrwt>0</asrwt>
<pdfrwt beam="1">  1        2 0.19629017E+00 0.26862747E+03</pdfrwt>
<pdfrwt beam="2">  1       -2 0.21752820E-02 0.26862747E+03</pdfrwt>
<totfact> 0.12338660E+04</totfact>
</mgrwt>
</event>
<event>
 4    1  0.6207184E-004  0.2648507E+03  0.7818608E-02  0.1104263E+00
         -2   -1    0    0    0  501 -0.00000000000E+00  0.00000000000E+00  0.76409832489E+01  0.76409836744E+01  0.25500000000E-02 0. -1.
          2   -1    0    0  501    0  0.00000000000E+00 -0.00000000000E+00 -0.22950552107E+04  0.22950552107E+04  0.25500000000E-02 0.  1.
    5000001    1    1    2    0    0 -0.93881027410E+01  0.10197434116E+03 -0.14347494332E+04  0.14404588987E+04  0.77000000000E+02 0.  0.
   -5000001    1    1    2    0    0  0.93881027410E+01 -0.10197434116E+03 -0.85266479427E+03  0.86223729572E+03  0.77000000000E+02 0.  0.
<mgrwt>
<rscale>  0 0.26485074E+03</rscale>
<asrwt>0</asrwt>
<pdfrwt beam="1">  1        2 0.35308487E+00 0.26485074E+03</pdfrwt>
<pdfrwt beam="2">  1       -2 0.11755378E-02 0.26485074E+03</pdfrwt>
<totfact> 0.87242402E+03</totfact>
</mgrwt>
</event>
<event>
 4    1  0.6207184E-004  0.6322964E+03  0.7818608E-02  0.9840578E-01
         -2   -1    0    0    0  501 -0.00000000000E+00  0.00000000000E+00  0.80042179964E+02  0.80042180005E+02  0.25500000000E-02 0. -1.
          2   -1    0    0  501    0  0.00000000000E+00 -0.00000000000E+00 -0.12487128440E+04  0.12487128440E+04  0.25500000000E-02 0.  1.
    5000001    1    1    2    0    0  0.14284486105E+03 -0.25908836845E+03 -0.75362163033E+03  0.81326871247E+03  0.77000000000E+02 0.  0.
   -5000001    1    1    2    0    0 -0.14284486105E+03  0.25908836845E+03 -0.41504903371E+03  0.51548631154E+03  0.77000000000E+02 0.  0.
<mgrwt>
<rscale>  0 0.63229644E+03</rscale>
<asrwt>0</asrwt>
<pdfrwt beam="1">  1        2 0.19210965E+00 0.63229644E+03</pdfrwt>
<pdfrwt beam="2">  1       -2 0.12314182E-01 0.63229644E+03</pdfrwt>
<totfact> 0.87449591E+02</totfact>
</mgrwt>
</event>
<event>
 4    1  0.6207184E-004  0.2816258E+03  0.7818608E-02  0.1094804E+00
         -2   -1    0    0    0  501 -0.00000000000E+00  0.00000000000E+00  0.14567380920E+02  0.14567381143E+02  0.25500000000E-02 0. -1.
          2   -1    0    0  501    0  0.00000000000E+00 -0.00000000000E+00 -0.13611414707E+04  0.13611414707E+04  0.25500000000E-02 0.  1.
    5000001    1    1    2    0    0  0.81917224877E+02 -0.70119711068E+02 -0.90613055651E+03  0.91576677766E+03  0.77000000000E+02 0.  0.
   -5000001    1    1    2    0    0 -0.81917224877E+02  0.70119711068E+02 -0.44044353322E+03  0.45994207414E+03  0.77000000000E+02 0.  0.
<mgrwt>
<rscale>  0 0.28162575E+03</rscale>
<asrwt>0</asrwt>
<pdfrwt beam="1">  1        2 0.20940628E+00 0.28162575E+03</pdfrwt>
<pdfrwt beam="2">  1       -2 0.22411366E-02 0.28162575E+03</pdfrwt>
<totfact> 0.10608173E+04</totfact>
</mgrwt>
</event>
<event>
 4    1  0.6207184E-004  0.1730847E+03  0.7818608E-02  0.1174669E+00
         -2   -1    0    0    0  501 -0.00000000000E+00  0.00000000000E+00  0.23159803225E+02  0.23159803365E+02  0.25500000000E-02 0. -1.
          2   -1    0    0  501    0  0.00000000000E+00 -0.00000000000E+00 -0.32338681201E+03  0.32338681202E+03  0.25500000000E-02 0.  1.
    5000001    1    1    2    0    0 -0.10113732982E+02 -0.37978625438E+02 -0.15810001195E+03  0.18019233436E+03  0.77000000000E+02 0.  0.
   -5000001    1    1    2    0    0  0.10113732982E+02  0.37978625438E+02 -0.14212699684E+03  0.16635428103E+03  0.77000000000E+02 0.  0.
<mgrwt>
<rscale>  0 0.17308466E+03</rscale>
<asrwt>0</asrwt>
<pdfrwt beam="1">  1        2 0.49751814E-01 0.17308466E+03</pdfrwt>
<pdfrwt beam="2">  1       -2 0.35630469E-02 0.17308466E+03</pdfrwt>
<totfact> 0.31351198E+04</totfact>
</mgrwt>
</event>
<event>
 4    1  0.6207184E-004  0.2983021E+03  0.7818608E-02  0.1086092E+00
         -2   -1    0    0    0  501 -0.00000000000E+00  0.00000000000E+00  0.34921920358E+02  0.34921920451E+02  0.25500000000E-02 0. -1.
          2   -1    0    0  501    0  0.00000000000E+00 -0.00000000000E+00 -0.63702223423E+03  0.63702223424E+03  0.25500000000E-02 0.  1.
    5000001    1    1    2    0    0 -0.10922082056E+03 -0.57400400952E+02 -0.22657763385E+03  0.26924044613E+03  0.77000000000E+02 0.  0.
   -5000001    1    1    2    0    0  0.10922082056E+03  0.57400400952E+02 -0.37552268003E+03  0.40270370856E+03  0.77000000000E+02 0.  0.
<mgrwt>
<rscale>  0 0.29830213E+03</rscale>
<asrwt>0</asrwt>
<pdfrwt beam="1">  1        2 0.98003412E-01 0.29830213E+03</pdfrwt>
<pdfrwt beam="2">  1       -2 0.53726036E-02 0.29830213E+03</pdfrwt>
<totfact> 0.82388445E+03</totfact>
</mgrwt>
</event>
<event>
 4    1  0.6207184E-004  0.2365630E+03  0.7818608E-02  0.1122104E+00
          2   -1    0    0  501    0  0.00000000000E+00  0.00000000000E+00  0.19065580426E+04  0.19065580426E+04  0.25500000000E-02 0.  1.
         -2   -1    0    0    0  501 -0.00000000000E+00 -0.00000000000E+00 -0.73380985730E+01  0.73380990161E+01  0.25500000000E-02 0. -1.
    5000001    1    1    2    0    0 -0.43168725718E+02 -0.63887180830E+02  0.57741499449E+03  0.58760717033E+03  0.77000000000E+02 0.  0.
   -5000001    1    1    2    0    0  0.43168725718E+02  0.63887180830E+02  0.13218049495E+04  0.13262889713E+04  0.77000000000E+02 0.  0.
<mgrwt>
<rscale>  0 0.23656298E+03</rscale>
<asrwt>0</asrwt>
<pdfrwt beam="1">  1        2 0.29331710E+00 0.23656298E+03</pdfrwt>
<pdfrwt beam="2">  1       -2 0.11289364E-02 0.23656298E+03</pdfrwt>
<totfact> 0.14803529E+04</totfact>
</mgrwt>
</event>
<event>
 4    1  0.6207184E-004  0.1073192E+04  0.7818608E-02  0.9231722E-01
         -2   -1    0    0    0  501 -0.00000000000E+00  0.00000000000E+00  0.13038417192E+03  0.13038417194E+03  0.25500000000E-02 0. -1.
          2   -1    0    0  501    0  0.00000000000E+00 -0.00000000000E+00 -0.22083602717E+04  0.22083602717E+04  0.25500000000E-02 0.  1.
    5000001    1    1    2    0    0  0.21824501293E+03 -0.45682665710E+03 -0.68973275150E+03  0.85905864107E+03  0.77000000000E+02 0.  0.
   -5000001    1    1    2    0    0 -0.21824501293E+03  0.45682665710E+03 -0.13882433483E+04  0.14796858026E+04  0.77000000000E+02 0.  0.
<mgrwt>
<rscale>  0 0.10731919E+04</rscale>
<asrwt>0</asrwt>
<pdfrwt beam="1">  1        2 0.33974771E+00 0.10731919E+04</pdfrwt>
<pdfrwt beam="2">  1       -2 0.20059105E-01 0.10731919E+04</pdfrwt>
<totfact> 0.10855575E+02</totfact>
</mgrwt>
</event>
<event>
 4    1  0.6207184E-004  0.5570474E+03  0.7818608E-02  0.9998758E-01
          2   -1    0    0  501    0  0.00000000000E+00  0.00000000000E+00  0.84265789776E+02  0.84265789814E+02  0.25500000000E-02 0.  1.
         -2   -1    0    0    0  501 -0.00000000000E+00 -0.00000000000E+00 -0.92060435907E+03  0.92060435907E+03  0.25500000000E-02 0. -1.
    5000001    1    1    2    0    0  0.12501227889E+03  0.22306618276E+03 -0.27544425055E+03  0.38364713855E+03  0.77000000000E+02 0.  0.
   -5000001    1    1    2    0    0 -0.12501227889E+03 -0.22306618276E+03 -0.56089431875E+03  0.62122301033E+03  0.77000000000E+02 0.  0.
<mgrwt>
<rscale>  0 0.55704741E+03</rscale>
<asrwt>0</asrwt>
<pdfrwt beam="1">  1        2 0.12963968E-01 0.55704741E+03</pdfrwt>
<pdfrwt beam="2">  1       -2 0.14163143E+00 0.55704741E+03</pdfrwt>
<totfact> 0.16988501E+02</totfact>
</mgrwt>
</event>
<event>
 4    1  0.6207184E-004  0.2809210E+03  0.7818608E-02  0.1095187E+00
         -2   -1    0    0    0  501 -0.00000000000E+00  0.00000000000E+00  0.18500457902E+02  0.18500458078E+02  0.25500000000E-02 0. -1.
          2   -1    0    0  501    0  0.00000000000E+00 -0.00000000000E+00 -0.10664139102E+04  0.10664139102E+04  0.25500000000E-02 0.  1.
    5000001    1    1    2    0    0  0.11030067612E+03  0.18926845782E+02 -0.66189423740E+03  0.67569034783E+03  0.77000000000E+02 0.  0.
   -5000001    1    1    2    0    0 -0.11030067612E+03 -0.18926845782E+02 -0.38601921486E+03  0.40922402041E+03  0.77000000000E+02 0.  0.
<mgrwt>
<rscale>  0 0.28092096E+03</rscale>
<asrwt>0</asrwt>
<pdfrwt beam="1">  1        2 0.16406363E+00 0.28092096E+03</pdfrwt>
<pdfrwt beam="2">  1       -2 0.28462251E-02 0.28092096E+03</pdfrwt>
<totfact> 0.10947508E+04</totfact>
</mgrwt>
</event>
<event>
 4    1  0.6207184E-004  0.2510686E+03  0.7818608E-02  0.1112631E+00
         -2   -1    0    0    0  501 -0.00000000000E+00  0.00000000000E+00  0.45293393496E+03  0.45293393497E+03  0.25500000000E-02 0. -1.
          2   -1    0    0  501    0  0.00000000000E+00 -0.00000000000E+00 -0.34792855946E+02  0.34792856039E+02  0.25500000000E-02 0.  1.
    5000001    1    1    2    0    0  0.74118658442E+01  0.98334250464E+02  0.18913592542E+03  0.22677292354E+03  0.77000000000E+02 0.  0.
   -5000001    1    1    2    0    0 -0.74118658442E+01 -0.98334250464E+02  0.22900515360E+03  0.26095386746E+03  0.77000000000E+02 0.  0.
<mgrwt>
<rscale>  0 0.25106864E+03</rscale>
<asrwt>0</asrwt>
<pdfrwt beam="1">  1        2 0.53527475E-02 0.25106864E+03</pdfrwt>
<pdfrwt beam="2">  1       -2 0.69682138E-01 0.25106864E+03</pdfrwt>
<totfact> 0.27464723E+03</totfact>
</mgrwt>
</event>
<event>
 4    1  0.6207184E-004  0.2317609E+03  0.7818608E-02  0.1125406E+00
          2   -1    0    0  501    0  0.00000000000E+00  0.00000000000E+00  0.33528969956E+03  0.33528969957E+03  0.25500000000E-02 0.  1.
         -2   -1    0    0    0  501 -0.00000000000E+00 -0.00000000000E+00 -0.40049768862E+02  0.40049768943E+02  0.25500000000E-02 0. -1.
    5000001    1    1    2    0    0  0.52180580588E+02  0.67691923297E+02  0.12504734463E+03  0.16991423681E+03  0.77000000000E+02 0.  0.
   -5000001    1    1    2    0    0 -0.52180580588E+02 -0.67691923297E+02  0.17019258607E+03  0.20542523171E+03  0.77000000000E+02 0.  0.
<mgrwt>
<rscale>  0 0.23176087E+03</rscale>
<asrwt>0</asrwt>
<pdfrwt beam="1">  1        2 0.51583030E-01 0.23176087E+03</pdfrwt>
<pdfrwt beam="2">  1       -2 0.61615030E-02 0.23176087E+03</pdfrwt>
<totfact> 0.13494574E+04</totfact>
</mgrwt>
</event>
<event>
 4    1  0.6207184E-004  0.4643744E+03  0.7818608E-02  0.1023520E+00
          2   -1    0    0  501    0  0.00000000000E+00  0.00000000000E+00  0.25656502055E+04  0.25656502055E+04  0.25500000000E-02 0.  1.
         -2   -1    0    0    0  501 -0.00000000000E+00 -0.00000000000E+00 -0.21012569961E+02  0.21012570115E+02  0.25500000000E-02 0. -1.
    5000001    1    1    2    0    0 -0.19625329100E+03 -0.30478272126E+02  0.75763554474E+03  0.78701010029E+03  0.77000000000E+02 0.  0.
   -5000001    1    1    2    0    0  0.19625329100E+03  0.30478272126E+02  0.17870020908E+04  0.17996526753E+04  0.77000000000E+02 0.  0.
<mgrwt>
<rscale>  0 0.46437444E+03</rscale>
<asrwt>0</asrwt>
<pdfrwt beam="1">  1        2 0.39471544E+00 0.46437444E+03</pdfrwt>
<pdfrwt beam="2">  1       -2 0.32327029E-02 0.46437444E+03</pdfrwt>
<totfact> 0.13689099E+03</totfact>
</mgrwt>
</event>
<event>
 4    1  0.6207184E-004  0.3921032E+03  0.7818608E-02  0.1046549E+00
         -2   -1    0    0    0  501 -0.00000000000E+00  0.00000000000E+00  0.38733520505E+02  0.38733520589E+02  0.25500000000E-02 0.  1.
          2   -1    0    0  501    0  0.00000000000E+00 -0.00000000000E+00 -0.99232454663E+03  0.99232454663E+03  0.25500000000E-02 0. -1.
    5000001    1    1    2    0    0  0.23080589854E+02 -0.16680427330E+03 -0.30738085583E+03  0.35884309907E+03  0.77000000000E+02 0.  0.
   -5000001    1    1    2    0    0 -0.23080589854E+02  0.16680427330E+03 -0.64621017029E+03  0.67221496815E+03  0.77000000000E+02 0.  0.
<mgrwt>
<rscale>  0 0.39210317E+03</rscale>
<asrwt>0</asrwt>
<pdfrwt beam="1">  1        2 0.15266530E+00 0.39210317E+03</pdfrwt>
<pdfrwt beam="2">  1       -2 0.59590039E-02 0.39210317E+03</pdfrwt>
<totfact> 0.39877309E+03</totfact>
</mgrwt>
</event>
<event>
 4    1  0.6207184E-004  0.1688680E+03  0.7818608E-02  0.1179034E+00
         -2   -1    0    0    0  501 -0.00000000000E+00  0.00000000000E+00  0.80390110082E+01  0.80390114126E+01  0.25500000000E-02 0. -1.
          2   -1    0    0  501    0  0.00000000000E+00 -0.00000000000E+00 -0.88681270232E+03  0.88681270232E+03  0.25500000000E-02 0.  1.
    5000001    1    1    2    0    0  0.17319261329E+02  0.18810250574E+02 -0.56324520957E+03  0.56905882688E+03  0.77000000000E+02 0.  0.
   -5000001    1    1    2    0    0 -0.17319261329E+02 -0.18810250574E+02 -0.31552848174E+03  0.32579288686E+03  0.77000000000E+02 0.  0.
<mgrwt>
<rscale>  0 0.16886796E+03</rscale>
<asrwt>0</asrwt>
<pdfrwt beam="1">  1        2 0.13643265E+00 0.16886796E+03</pdfrwt>
<pdfrwt beam="2">  1       -2 0.12367717E-02 0.16886796E+03</pdfrwt>
<totfact> 0.46443401E+04</totfact>
</mgrwt>
</event>
<event>
 4    1  0.6207184E-004  0.2011575E+03  0.7818608E-02  0.1148766E+00
          2   -1    0    0  501    0  0.00000000000E+00  0.00000000000E+00  0.10601260586E+04  0.10601260586E+04  0.25500000000E-02 0.  1.
         -2   -1    0    0    0  501 -0.00000000000E+00 -0.00000000000E+00 -0.95423425421E+01  0.95423428828E+01  0.25500000000E-02 0. -1.
    5000001    1    1    2    0    0  0.44709978042E+02 -0.28148762864E+02  0.72395482339E+03  0.72995268429E+03  0.77000000000E+02 0.  0.
   -5000001    1    1    2    0    0 -0.44709978042E+02  0.28148762864E+02  0.32662889268E+03  0.33971571722E+03  0.77000000000E+02 0.  0.
<mgrwt>
<rscale>  0 0.20115751E+03</rscale>
<asrwt>0</asrwt>
<pdfrwt beam="1">  1        2 0.16309636E+00 0.20115751E+03</pdfrwt>
<pdfrwt beam="2">  1       -2 0.14680524E-02 0.20115751E+03</pdfrwt>
<totfact> 0.28747942E+04</totfact>
</mgrwt>
</event>
<event>
 4    1  0.6207184E-004  0.2391867E+03  0.7818608E-02  0.1120336E+00
         -2   -1    0    0    0  501 -0.00000000000E+00  0.00000000000E+00  0.64275984751E+01  0.64275989809E+01  0.25500000000E-02 0. -1.
          2   -1    0    0  501    0  0.00000000000E+00 -0.00000000000E+00 -0.22251810561E+04  0.22251810561E+04  0.25500000000E-02 0.  1.
    5000001    1    1    2    0    0  0.88423957598E+02  0.17308169328E+02 -0.12584236332E+04  0.12639926462E+04  0.77000000000E+02 0.  0.
   -5000001    1    1    2    0    0 -0.88423957598E+02 -0.17308169328E+02 -0.96032982440E+03  0.96761600888E+03  0.77000000000E+02 0.  0.
<mgrwt>
<rscale>  0 0.23918671E+03</rscale>
<asrwt>0</asrwt>
<pdfrwt beam="1">  1        2 0.34233493E+00 0.23918671E+03</pdfrwt>
<pdfrwt beam="2">  1       -2 0.98886311E-03 0.23918671E+03</pdfrwt>
<totfact> 0.12203288E+04</totfact>
</mgrwt>
</event>
<event>
 4    1  0.6207184E-004  0.2898274E+03  0.7818608E-02  0.1090439E+00
         -2   -1    0    0    0  501 -0.00000000000E+00  0.00000000000E+00  0.14193758383E+03  0.14193758385E+03  0.25500000000E-02 0. -1.
          2   -1    0    0  501    0  0.00000000000E+00 -0.00000000000E+00 -0.14795218832E+03  0.14795218834E+03  0.25500000000E-02 0.  1.
    5000001    1    1    2    0    0 -0.12390251666E+01  0.11521168859E+03  0.39377613799E+02  0.14406548803E+03  0.77000000000E+02 0.  0.
   -5000001    1    1    2    0    0  0.12390251666E+01 -0.11521168859E+03 -0.45392218287E+02  0.14582428417E+03  0.77000000000E+02 0.  0.
<mgrwt>
<rscale>  0 0.28982737E+03</rscale>
<asrwt>0</asrwt>
<pdfrwt beam="1">  1        2 0.22761875E-01 0.28982737E+03</pdfrwt>
<pdfrwt beam="2">  1       -2 0.21836551E-01 0.28982737E+03</pdfrwt>
<totfact> 0.43022156E+03</totfact>
</mgrwt>
</event>
<event>
 4    1  0.6207184E-004  0.1712256E+03  0.7818608E-02  0.1176576E+00
          2   -1    0    0  501    0  0.00000000000E+00  0.00000000000E+00  0.10460309352E+03  0.10460309355E+03  0.25500000000E-02 0.  1.
         -2   -1    0    0    0  501 -0.00000000000E+00 -0.00000000000E+00 -0.70070156661E+02  0.70070156708E+02  0.25500000000E-02 0. -1.
    5000001    1    1    2    0    0  0.34171389747E+02 -0.13557438693E+02  0.10120633992E+02  0.85923892216E+02  0.77000000000E+02 0.  0.
   -5000001    1    1    2    0    0 -0.34171389747E+02  0.13557438693E+02  0.24412302863E+02  0.88749358038E+02  0.77000000000E+02 0.  0.
<mgrwt>
<rscale>  0 0.17122564E+03</rscale>
<asrwt>0</asrwt>
<pdfrwt beam="1">  1        2 0.16092784E-01 0.17122564E+03</pdfrwt>
<pdfrwt beam="2">  1       -2 0.10780024E-01 0.17122564E+03</pdfrwt>
<totfact> 0.19977109E+04</totfact>
</mgrwt>
</event>
<event>
 4    1  0.6207184E-004  0.2452568E+03  0.7818608E-02  0.1116340E+00
          2   -1    0    0  501    0  0.00000000000E+00  0.00000000000E+00  0.10951993783E+03  0.10951993786E+03  0.25500000000E-02 0.  1.
         -2   -1    0    0    0  501 -0.00000000000E+00 -0.00000000000E+00 -0.13730585445E+03  0.13730585447E+03  0.25500000000E-02 0. -1.
    5000001    1    1    2    0    0 -0.54560863008E+01  0.81805341147E+02 -0.63060853323E+02  0.12894787296E+03  0.77000000000E+02 0.  0.
   -5000001    1    1    2    0    0  0.54560863008E+01 -0.81805341147E+02  0.35274936707E+02  0.11787791938E+03  0.77000000000E+02 0.  0.
<mgrwt>
<rscale>  0 0.24525683E+03</rscale>
<asrwt>0</asrwt>
<pdfrwt beam="1">  1        2 0.16849221E-01 0.24525683E+03</pdfrwt>
<pdfrwt beam="2">  1       -2 0.21123978E-01 0.24525683E+03</pdfrwt>
<totfact> 0.63950133E+03</totfact>
</mgrwt>
</event>
<event>
 4    1  0.6207184E-004  0.3587851E+03  0.7818608E-02  0.1059066E+00
         -2   -1    0    0    0  501 -0.00000000000E+00  0.00000000000E+00  0.29025465854E+02  0.29025465966E+02  0.25500000000E-02 0. -1.
          2   -1    0    0  501    0  0.00000000000E+00 -0.00000000000E+00 -0.11087396718E+04  0.11087396718E+04  0.25500000000E-02 0.  1.
    5000001    1    1    2    0    0 -0.27506645759E+02 -0.97266551697E+02 -0.13829139918E+03  0.18780550771E+03  0.77000000000E+02 0.  0.
   -5000001    1    1    2    0    0  0.27506645759E+02  0.97266551697E+02 -0.94142280676E+03  0.94995963005E+03  0.77000000000E+02 0.  0.
<mgrwt>
<rscale>  0 0.35878509E+03</rscale>
<asrwt>0</asrwt>
<pdfrwt beam="1">  1        2 0.17057530E+00 0.35878509E+03</pdfrwt>
<pdfrwt beam="2">  1       -2 0.44654571E-02 0.35878509E+03</pdfrwt>
<totfact> 0.52728816E+03</totfact>
</mgrwt>
</event>
<event>
 4    1  0.6207184E-004  0.1839865E+03  0.7818608E-02  0.1164000E+00
          2   -1    0    0  501    0  0.00000000000E+00  0.00000000000E+00  0.21794718309E+04  0.21794718309E+04  0.25500000000E-02 0.  1.
         -2   -1    0    0    0  501 -0.00000000000E+00 -0.00000000000E+00 -0.38829380901E+01  0.38829389274E+01  0.25500000000E-02 0. -1.
    5000001    1    1    2    0    0 -0.21671210261E+01  0.38084141335E+02  0.14775390257E+04  0.14800356992E+04  0.77000000000E+02 0.  0.
   -5000001    1    1    2    0    0  0.21671210261E+01 -0.38084141335E+02  0.69804986704E+03  0.70331907063E+03  0.77000000000E+02 0.  0.
<mgrwt>
<rscale>  0 0.18398647E+03</rscale>
<asrwt>0</asrwt>
<pdfrwt beam="1">  1        2 0.33530418E+00 0.18398647E+03</pdfrwt>
<pdfrwt beam="2">  1       -2 0.59737369E-03 0.18398647E+03</pdfrwt>
<totfact> 0.26422973E+04</totfact>
</mgrwt>
</event>
<event>
 4    1  0.6207184E-004  0.1906897E+03  0.7818608E-02  0.1157841E+00
          2   -1    0    0  501    0  0.00000000000E+00  0.00000000000E+00  0.29543457171E+03  0.29543457172E+03  0.25500000000E-02 0.  1.
         -2   -1    0    0    0  501 -0.00000000000E+00 -0.00000000000E+00 -0.30770390200E+02  0.30770390305E+02  0.25500000000E-02 0. -1.
    5000001    1    1    2    0    0 -0.38896085933E+02  0.80378588276E+00  0.62885124873E+02  0.10675715668E+03  0.77000000000E+02 0.  0.
   -5000001    1    1    2    0    0  0.38896085933E+02 -0.80378588276E+00  0.20177905663E+03  0.21944780534E+03  0.77000000000E+02 0.  0.
<mgrwt>
<rscale>  0 0.19068966E+03</rscale>
<asrwt>0</asrwt>
<pdfrwt beam="1">  1        2 0.45451473E-01 0.19068966E+03</pdfrwt>
<pdfrwt beam="2">  1       -2 0.47339061E-02 0.19068966E+03</pdfrwt>
<totfact> 0.22758726E+04</totfact>
</mgrwt>
</event>
<event>
 4    1  0.6207184E-004  0.3137474E+03  0.7818608E-02  0.1078563E+00
          2   -1    0    0  501    0  0.00000000000E+00  0.00000000000E+00  0.10200668738E+04  0.10200668738E+04  0.25500000000E-02 0.  1.
         -2   -1    0    0    0  501 -0.00000000000E+00 -0.00000000000E+00 -0.24125234432E+02  0.24125234567E+02  0.25500000000E-02 0. -1.
    5000001    1    1    2    0    0 -0.41022705169E+02 -0.10695237350E+03  0.74610474967E+03  0.75876410696E+03  0.77000000000E+02 0.  0.
   -5000001    1    1    2    0    0  0.41022705169E+02  0.10695237350E+03  0.24983688973E+03  0.28542800144E+03  0.77000000000E+02 0.  0.
<mgrwt>
<rscale>  0 0.31374737E+03</rscale>
<asrwt>0</asrwt>
<pdfrwt beam="1">  1        2 0.15693332E+00 0.31374737E+03</pdfrwt>
<pdfrwt beam="2">  1       -2 0.37115756E-02 0.31374737E+03</pdfrwt>
<totfact> 0.78700873E+03</totfact>
</mgrwt>
</event>
<event>
 4    1  0.6207184E-004  0.2143836E+03  0.7818608E-02  0.1138141E+00
          2   -1    0    0  501    0  0.00000000000E+00  0.00000000000E+00  0.37470993346E+03  0.37470993347E+03  0.25500000000E-02 0.  1.
         -2   -1    0    0    0  501 -0.00000000000E+00 -0.00000000000E+00 -0.30663949634E+02  0.30663949740E+02  0.25500000000E-02 0. -1.
    5000001    1    1    2    0    0  0.61743044066E+01 -0.70017317282E+02  0.12491995173E+03  0.16270999077E+03  0.77000000000E+02 0.  0.
   -5000001    1    1    2    0    0 -0.61743044066E+01  0.70017317282E+02  0.21912603209E+03  0.24266389244E+03  0.77000000000E+02 0.  0.
<mgrwt>
<rscale>  0 0.21438364E+03</rscale>
<asrwt>0</asrwt>
<pdfrwt beam="1">  1        2 0.57647683E-01 0.21438364E+03</pdfrwt>
<pdfrwt beam="2">  1       -2 0.47175307E-02 0.21438364E+03</pdfrwt>
<totfact> 0.17884460E+04</totfact>
</mgrwt>
</event>
<event>
 4    1  0.6207184E-004  0.3115654E+03  0.7818608E-02  0.1079598E+00
         -2   -1    0    0    0  501 -0.00000000000E+00  0.00000000000E+00  0.70835237719E+01  0.70835242309E+01  0.25500000000E-02 0. -1.
          2   -1    0    0  501    0  0.00000000000E+00 -0.00000000000E+00 -0.34260132505E+04  0.34260132505E+04  0.25500000000E-02 0.  1.
    5000001    1    1    2    0    0  0.74078701146E+02  0.34732179562E+02 -0.28985463172E+04  0.29007229669E+04  0.77000000000E+02 0.  0.
   -5000001    1    1    2    0    0 -0.74078701146E+02 -0.34732179562E+02 -0.52038340959E+03  0.53237380781E+03  0.77000000000E+02 0.  0.
<mgrwt>
<rscale>  0 0.31156538E+03</rscale>
<asrwt>0</asrwt>
<pdfrwt beam="1">  1        2 0.52707764E+00 0.31156538E+03</pdfrwt>
<pdfrwt beam="2">  1       -2 0.10897757E-02 0.31156538E+03</pdfrwt>
<totfact> 0.21228828E+03</totfact>
</mgrwt>
</event>
<event>
 4    1  0.6207184E-004  0.1942300E+03  0.7818608E-02  0.1154701E+00
          2   -1    0    0  501    0  0.00000000000E+00  0.00000000000E+00  0.96976463645E+02  0.96976463679E+02  0.25500000000E-02 0.  1.
         -2   -1    0    0    0  501 -0.00000000000E+00 -0.00000000000E+00 -0.97253719676E+02  0.97253719709E+02  0.25500000000E-02 0. -1.
    5000001    1    1    2    0    0 -0.51950771658E+02 -0.66486353482E+01  0.27415615510E+02  0.97075759083E+02  0.77000000000E+02 0.  0.
   -5000001    1    1    2    0    0  0.51950771658E+02  0.66486353482E+01 -0.27692871540E+02  0.97154424305E+02  0.77000000000E+02 0.  0.
<mgrwt>
<rscale>  0 0.19422999E+03</rscale>
<asrwt>0</asrwt>
<pdfrwt beam="1">  1        2 0.14919456E-01 0.19422999E+03</pdfrwt>
<pdfrwt beam="2">  1       -2 0.14962111E-01 0.19422999E+03</pdfrwt>
<totfact> 0.12990356E+04</totfact>
</mgrwt>
</event>
<event>
 4    1  0.6207184E-004  0.2306450E+03  0.7818608E-02  0.1126187E+00
         -2   -1    0    0    0  501 -0.00000000000E+00  0.00000000000E+00  0.52320727379E+02  0.52320727441E+02  0.25500000000E-02 0. -1.
          2   -1    0    0  501    0  0.00000000000E+00 -0.00000000000E+00 -0.25418750647E+03  0.25418750649E+03  0.25500000000E-02 0.  1.
    5000001    1    1    2    0    0 -0.38627919001E+02  0.71601245785E+02 -0.13736176006E+03  0.17724589600E+03  0.77000000000E+02 0.  0.
   -5000001    1    1    2    0    0  0.38627919001E+02 -0.71601245785E+02 -0.64505019037E+02  0.12926233792E+03  0.77000000000E+02 0.  0.
<mgrwt>
<rscale>  0 0.23064497E+03</rscale>
<asrwt>0</asrwt>
<pdfrwt beam="1">  1        2 0.39105770E-01 0.23064497E+03</pdfrwt>
<pdfrwt beam="2">  1       -2 0.80493428E-02 0.23064497E+03</pdfrwt>
<totfact> 0.12013884E+04</totfact>
</mgrwt>
</event>
<event>
 4    1  0.6207184E-004  0.2880581E+03  0.7818608E-02  0.1091367E+00
          2   -1    0    0  501    0  0.00000000000E+00  0.00000000000E+00  0.27459445071E+03  0.27459445073E+03  0.25500000000E-02 0.  1.
         -2   -1    0    0    0  501 -0.00000000000E+00 -0.00000000000E+00 -0.75545496767E+02  0.75545496810E+02  0.25500000000E-02 0. -1.
    5000001    1    1    2    0    0 -0.11882013163E+03  0.26248747073E+02  0.96053582852E+02  0.17309682603E+03  0.77000000000E+02 0.  0.
   -5000001    1    1    2    0    0  0.11882013163E+03 -0.26248747073E+02  0.10299537109E+03  0.17704312150E+03  0.77000000000E+02 0.  0.
<mgrwt>
<rscale>  0 0.28805815E+03</rscale>
<asrwt>0</asrwt>
<pdfrwt beam="1">  1        2 0.42245300E-01 0.28805815E+03</pdfrwt>
<pdfrwt beam="2">  1       -2 0.11622384E-01 0.28805815E+03</pdfrwt>
<totfact> 0.62390704E+03</totfact>
</mgrwt>
</event>
<event>
 4    1  0.6207184E-004  0.1765246E+03  0.7818608E-02  0.1171210E+00
         -2   -1    0    0    0  501 -0.00000000000E+00  0.00000000000E+00  0.55293757089E+01  0.55293762969E+01  0.25500000000E-02 0. -1.
          2   -1    0    0  501    0  0.00000000000E+00 -0.00000000000E+00 -0.14088817225E+04  0.14088817225E+04  0.25500000000E-02 0.  1.
    5000001    1    1    2    0    0  0.36185882158E+02 -0.15908881160E+02 -0.84016253472E+03  0.84460913760E+03  0.77000000000E+02 0.  0.
   -5000001    1    1    2    0    0 -0.36185882158E+02  0.15908881160E+02 -0.56318981203E+03  0.56980196116E+03  0.77000000000E+02 0.  0.
<mgrwt>
<rscale>  0 0.17652464E+03</rscale>
<asrwt>0</asrwt>
<pdfrwt beam="1">  1        2 0.21675075E+00 0.17652464E+03</pdfrwt>
<pdfrwt beam="2">  1       -2 0.85067435E-03 0.17652464E+03</pdfrwt>
<totfact> 0.40028352E+04</totfact>
</mgrwt>
</event>
<event>
 4    1  0.6207184E-004  0.2078267E+03  0.7818608E-02  0.1143299E+00
         -2   -1    0    0    0  501 -0.00000000000E+00  0.00000000000E+00  0.23748627686E+02  0.23748627823E+02  0.25500000000E-02 0. -1.
          2   -1    0    0  501    0  0.00000000000E+00 -0.00000000000E+00 -0.45467837130E+03  0.45467837131E+03  0.25500000000E-02 0.  1.
    5000001    1    1    2    0    0  0.51122028196E+02  0.45671890582E+02 -0.24544492278E+03  0.26621719230E+03  0.77000000000E+02 0.  0.
   -5000001    1    1    2    0    0 -0.51122028196E+02 -0.45671890582E+02 -0.18548482084E+03  0.21220980683E+03  0.77000000000E+02 0.  0.
<mgrwt>
<rscale>  0 0.20782673E+03</rscale>
<asrwt>0</asrwt>
<pdfrwt beam="1">  1        2 0.69950512E-01 0.20782673E+03</pdfrwt>
<pdfrwt beam="2">  1       -2 0.36536354E-02 0.20782673E+03</pdfrwt>
<totfact> 0.21231269E+04</totfact>
</mgrwt>
</event>
<event>
 4    1  0.6207184E-004  0.2121081E+03  0.7818608E-02  0.1139907E+00
          2   -1    0    0  501    0  0.00000000000E+00  0.00000000000E+00  0.51495130835E+02  0.51495130898E+02  0.25500000000E-02 0.  1.
         -2   -1    0    0    0  501 -0.00000000000E+00 -0.00000000000E+00 -0.21841798687E+03  0.21841798688E+03  0.25500000000E-02 0. -1.
    5000001    1    1    2    0    0 -0.36140645359E+02 -0.57027002026E+02 -0.11854803641E+03  0.15665523337E+03  0.77000000000E+02 0.  0.
   -5000001    1    1    2    0    0  0.36140645359E+02  0.57027002026E+02 -0.48374819627E+02  0.11325788441E+03  0.77000000000E+02 0.  0.
<mgrwt>
<rscale>  0 0.21210811E+03</rscale>
<asrwt>0</asrwt>
<pdfrwt beam="1">  1        2 0.79223280E-02 0.21210811E+03</pdfrwt>
<pdfrwt beam="2">  1       -2 0.33602767E-01 0.21210811E+03</pdfrwt>
<totfact> 0.69697551E+03</totfact>
</mgrwt>
</event>
<event>
 4    1  0.6207184E-004  0.2558115E+03  0.7818608E-02  0.1109686E+00
         -2   -1    0    0    0  501 -0.00000000000E+00  0.00000000000E+00  0.25317005888E+03  0.25317005889E+03  0.25500000000E-02 0. -1.
          2   -1    0    0  501    0  0.00000000000E+00 -0.00000000000E+00 -0.64620102925E+02  0.64620102976E+02  0.25500000000E-02 0.  1.
    5000001    1    1    2    0    0 -0.55810019778E+02  0.66751321868E+02  0.27834588067E+02  0.11947494119E+03  0.77000000000E+02 0.  0.
   -5000001    1    1    2    0    0  0.55810019778E+02 -0.66751321868E+02  0.16071536789E+03  0.19831522068E+03  0.77000000000E+02 0.  0.
<mgrwt>
<rscale>  0 0.25581146E+03</rscale>
<asrwt>0</asrwt>
<pdfrwt beam="1">  1        2 0.99415541E-02 0.25581146E+03</pdfrwt>
<pdfrwt beam="2">  1       -2 0.38949241E-01 0.25581146E+03</pdfrwt>
<totfact> 0.40121456E+03</totfact>
</mgrwt>
</event>
<event>
 4    1  0.6207184E-004  0.1795607E+03  0.7818608E-02  0.1168229E+00
          2   -1    0    0  501    0  0.00000000000E+00  0.00000000000E+00  0.82375443921E+02  0.82375443960E+02  0.25500000000E-02 0.  1.
         -2   -1    0    0    0  501 -0.00000000000E+00 -0.00000000000E+00 -0.97850909907E+02  0.97850909940E+02  0.25500000000E-02 0. -1.
    5000001    1    1    2    0    0 -0.22460957382E+02  0.40009039810E+02 -0.12884536453E+02  0.90555116656E+02  0.77000000000E+02 0.  0.
   -5000001    1    1    2    0    0  0.22460957382E+02 -0.40009039810E+02 -0.25909295333E+01  0.89671237244E+02  0.77000000000E+02 0.  0.
<mgrwt>
<rscale>  0 0.17956071E+03</rscale>
<asrwt>0</asrwt>
<pdfrwt beam="1">  1        2 0.12673145E-01 0.17956071E+03</pdfrwt>
<pdfrwt beam="2">  1       -2 0.15053986E-01 0.17956071E+03</pdfrwt>
<totfact> 0.15523452E+04</totfact>
</mgrwt>
</event>
<event>
 4    1  0.6207184E-004  0.4138398E+03  0.7818608E-02  0.1039090E+00
         -2   -1    0    0    0  501 -0.00000000000E+00  0.00000000000E+00  0.53156943655E+02  0.53156943716E+02  0.25500000000E-02 0. -1.
          2   -1    0    0  501    0  0.00000000000E+00 -0.00000000000E+00 -0.80546099892E+03  0.80546099892E+03  0.25500000000E-02 0.  1.
    5000001    1    1    2    0    0 -0.18514762557E+03 -0.23315553435E+02 -0.28190252607E+03  0.34672942259E+03  0.77000000000E+02 0.  0.
   -5000001    1    1    2    0    0  0.18514762557E+03  0.23315553435E+02 -0.47040152920E+03  0.51188852005E+03  0.77000000000E+02 0.  0.
<mgrwt>
<rscale>  0 0.41383980E+03</rscale>
<asrwt>0</asrwt>
<pdfrwt beam="1">  1        2 0.12391707E+00 0.41383980E+03</pdfrwt>
<pdfrwt beam="2">  1       -2 0.81779919E-02 0.41383980E+03</pdfrwt>
<totfact> 0.32277854E+03</totfact>
</mgrwt>
</event>
<event>
 4    1  0.6207184E-004  0.6138318E+03  0.7818608E-02  0.9877118E-01
         -2   -1    0    0    0  501 -0.00000000000E+00  0.00000000000E+00  0.67420265865E+02  0.67420265914E+02  0.25500000000E-02 0. -1.
          2   -1    0    0  501    0  0.00000000000E+00 -0.00000000000E+00 -0.13971670298E+04  0.13971670298E+04  0.25500000000E-02 0.  1.
    5000001    1    1    2    0    0  0.29084962734E+03  0.59605747324E+02 -0.69122969091E+03  0.75622340378E+03  0.77000000000E+02 0.  0.
   -5000001    1    1    2    0    0 -0.29084962734E+03 -0.59605747324E+02 -0.63851707299E+03  0.70836389189E+03  0.77000000000E+02 0.  0.
<mgrwt>
<rscale>  0 0.61383181E+03</rscale>
<asrwt>0</asrwt>
<pdfrwt beam="1">  1        2 0.21494875E+00 0.61383181E+03</pdfrwt>
<pdfrwt beam="2">  1       -2 0.10372350E-01 0.61383181E+03</pdfrwt>
<totfact> 0.95416860E+02</totfact>
</mgrwt>
</event>
<event>
 4    1  0.6207184E-004  0.2405216E+03  0.7818608E-02  0.1119446E+00
         -2   -1    0    0    0  501 -0.00000000000E+00  0.00000000000E+00  0.38516863730E+02  0.38516863815E+02  0.25500000000E-02 0. -1.
          2   -1    0    0  501    0  0.00000000000E+00 -0.00000000000E+00 -0.37548909613E+03  0.37548909614E+03  0.25500000000E-02 0.  1.
    5000001    1    1    2    0    0 -0.20275040881E+02 -0.84984040708E+02 -0.11683905738E+03  0.16496584431E+03  0.77000000000E+02 0.  0.
   -5000001    1    1    2    0    0  0.20275040881E+02  0.84984040708E+02 -0.22013317502E+03  0.24904011565E+03  0.77000000000E+02 0.  0.
<mgrwt>
<rscale>  0 0.24052162E+03</rscale>
<asrwt>0</asrwt>
<pdfrwt beam="1">  1        2 0.57767551E-01 0.24052162E+03</pdfrwt>
<pdfrwt beam="2">  1       -2 0.59256716E-02 0.24052162E+03</pdfrwt>
<totfact> 0.12706346E+04</totfact>
</mgrwt>
</event>
<event>
 4    1  0.6207184E-004  0.1961551E+03  0.7818608E-02  0.1153024E+00
         -2   -1    0    0    0  501 -0.00000000000E+00  0.00000000000E+00  0.18422107467E+02  0.18422107643E+02  0.25500000000E-02 0. -1.
          2   -1    0    0  501    0  0.00000000000E+00 -0.00000000000E+00 -0.52215539808E+03  0.52215539809E+03  0.25500000000E-02 0.  1.
    5000001    1    1    2    0    0 -0.38615889000E+02 -0.36208507520E+02 -0.33398781650E+03  0.34681278014E+03  0.77000000000E+02 0.  0.
   -5000001    1    1    2    0    0  0.38615889000E+02  0.36208507520E+02 -0.16974547412E+03  0.19376472560E+03  0.77000000000E+02 0.  0.
<mgrwt>
<rscale>  0 0.19615507E+03</rscale>
<asrwt>0</asrwt>
<pdfrwt beam="1">  1        2 0.80331588E-01 0.19615507E+03</pdfrwt>
<pdfrwt beam="2">  1       -2 0.28341708E-02 0.19615507E+03</pdfrwt>
<totfact> 0.26448722E+04</totfact>
</mgrwt>
</event>
<event>
 4    1  0.6207184E-004  0.4108998E+03  0.7818608E-02  0.1040069E+00
         -2   -1    0    0    0  501 -0.00000000000E+00  0.00000000000E+00  0.37627220666E+02  0.37627220753E+02  0.25500000000E-02 0.  1.
          2   -1    0    0  501    0  0.00000000000E+00 -0.00000000000E+00 -0.11217851289E+04  0.11217851289E+04  0.25500000000E-02 0. -1.
    5000001    1    1    2    0    0  0.72465703045E+02 -0.15050435247E+03 -0.28381280441E+03  0.33820340946E+03  0.77000000000E+02 0.  0.
   -5000001    1    1    2    0    0 -0.72465703045E+02  0.15050435247E+03 -0.80034510387E+03  0.82120894023E+03  0.77000000000E+02 0.  0.
<mgrwt>
<rscale>  0 0.41089978E+03</rscale>
<asrwt>0</asrwt>
<pdfrwt beam="1">  1        2 0.17258230E+00 0.41089978E+03</pdfrwt>
<pdfrwt beam="2">  1       -2 0.57888041E-02 0.41089978E+03</pdfrwt>
<totfact> 0.34805707E+03</totfact>
</mgrwt>
</event>
<event>
 4    1  0.6207184E-004  0.2049438E+03  0.7818608E-02  0.1145634E+00
          2   -1    0    0  501    0  0.00000000000E+00  0.00000000000E+00  0.72548317013E+03  0.72548317013E+03  0.25500000000E-02 0.  1.
         -2   -1    0    0    0  501 -0.00000000000E+00 -0.00000000000E+00 -0.14473782906E+02  0.14473783130E+02  0.25500000000E-02 0. -1.
    5000001    1    1    2    0    0  0.19837268238E+02 -0.52185769716E+02  0.21780097312E+03  0.23766180944E+03  0.77000000000E+02 0.  0.
   -5000001    1    1    2    0    0 -0.19837268238E+02  0.52185769716E+02  0.49320841410E+03  0.50229514382E+03  0.77000000000E+02 0.  0.
<mgrwt>
<rscale>  0 0.20494376E+03</rscale>
<asrwt>0</asrwt>
<pdfrwt beam="1">  1        2 0.11161280E+00 0.20494376E+03</pdfrwt>
<pdfrwt beam="2">  1       -2 0.22267359E-02 0.20494376E+03</pdfrwt>
<totfact> 0.25822443E+04</totfact>
</mgrwt>
</event>
<event>
 4    1  0.6207184E-004  0.5809426E+03  0.7818608E-02  0.9945752E-01
         -2   -1    0    0    0  501 -0.00000000000E+00  0.00000000000E+00  0.42363122931E+02  0.42363123008E+02  0.25500000000E-02 0. -1.
          2   -1    0    0  501    0  0.00000000000E+00 -0.00000000000E+00 -0.19916750281E+04  0.19916750281E+04  0.25500000000E-02 0.  1.
    5000001    1    1    2    0    0  0.22797663358E+03  0.73542226122E+02 -0.46651568187E+03  0.53004498480E+03  0.77000000000E+02 0.  0.
   -5000001    1    1    2    0    0 -0.22797663358E+03 -0.73542226122E+02 -0.14827962233E+04  0.15039931663E+04  0.77000000000E+02 0.  0.
<mgrwt>
<rscale>  0 0.58094259E+03</rscale>
<asrwt>0</asrwt>
<pdfrwt beam="1">  1        2 0.30641147E+00 0.58094259E+03</pdfrwt>
<pdfrwt beam="2">  1       -2 0.65174051E-02 0.58094259E+03</pdfrwt>
<totfact> 0.95152437E+02</totfact>
</mgrwt>
</event>
<event>
 4    1  0.6207184E-004  0.2722088E+03  0.7818608E-02  0.1100022E+00
         -2   -1    0    0    0  501 -0.00000000000E+00  0.00000000000E+00  0.72042712376E+01  0.72042716889E+01  0.25500000000E-02 0. -1.
          2   -1    0    0  501    0  0.00000000000E+00 -0.00000000000E+00 -0.25713086228E+04  0.25713086228E+04  0.25500000000E-02 0.  1.
    5000001    1    1    2    0    0  0.28894715494E+02 -0.10564549374E+03 -0.10501137094E+04  0.10586140361E+04  0.77000000000E+02 0.  0.
   -5000001    1    1    2    0    0 -0.28894715494E+02  0.10564549374E+03 -0.15139906422E+04  0.15198988584E+04  0.77000000000E+02 0.  0.
<mgrwt>
<rscale>  0 0.27220878E+03</rscale>
<asrwt>0</asrwt>
<pdfrwt beam="1">  1        2 0.39558521E+00 0.27220878E+03</pdfrwt>
<pdfrwt beam="2">  1       -2 0.11083515E-02 0.27220878E+03</pdfrwt>
<totfact> 0.67257245E+03</totfact>
</mgrwt>
</event>
<event>
 4    1  0.6207184E-004  0.4325726E+03  0.7818608E-02  0.1033050E+00
          2   -1    0    0  501    0  0.00000000000E+00  0.00000000000E+00  0.73761376105E+03  0.73761376106E+03  0.25500000000E-02 0.  1.
         -2   -1    0    0    0  501 -0.00000000000E+00 -0.00000000000E+00 -0.63420401933E+02  0.63420401985E+02  0.25500000000E-02 0. -1.
    5000001    1    1    2    0    0  0.50395177046E+02 -0.18442199734E+03  0.21567204945E+03  0.29831959354E+03  0.77000000000E+02 0.  0.
   -5000001    1    1    2    0    0 -0.50395177046E+02  0.18442199734E+03  0.45852130967E+03  0.50271456951E+03  0.77000000000E+02 0.  0.
<mgrwt>
<rscale>  0 0.43257259E+03</rscale>
<asrwt>0</asrwt>
<pdfrwt beam="1">  1        2 0.11347903E+00 0.43257259E+03</pdfrwt>
<pdfrwt beam="2">  1       -2 0.97569857E-02 0.43257259E+03</pdfrwt>
<totfact> 0.27271441E+03</totfact>
</mgrwt>
</event>
<event>
 4    1  0.6207184E-004  0.2445382E+03  0.7818608E-02  0.1116806E+00
          2   -1    0    0  501    0  0.00000000000E+00  0.00000000000E+00  0.12942504431E+04  0.12942504431E+04  0.25500000000E-02 0.  1.
         -2   -1    0    0    0  501 -0.00000000000E+00 -0.00000000000E+00 -0.11550880514E+02  0.11550880795E+02  0.25500000000E-02 0. -1.
    5000001    1    1    2    0    0  0.64940928327E+02  0.66846125500E+02  0.54361363105E+03  0.55689362407E+03  0.77000000000E+02 0.  0.
   -5000001    1    1    2    0    0 -0.64940928327E+02 -0.66846125500E+02  0.73908593151E+03  0.74890769980E+03  0.77000000000E+02 0.  0.
<mgrwt>
<rscale>  0 0.24453820E+03</rscale>
<asrwt>0</asrwt>
<pdfrwt beam="1">  1        2 0.19911538E+00 0.24453820E+03</pdfrwt>
<pdfrwt beam="2">  1       -2 0.17770592E-02 0.24453820E+03</pdfrwt>
<totfact> 0.16170108E+04</totfact>
</mgrwt>
</event>
<event>
 4    1  0.6207184E-004  0.2709203E+03  0.7818608E-02  0.1100754E+00
          2   -1    0    0  501    0  0.00000000000E+00  0.00000000000E+00  0.83767734911E+03  0.83767734911E+03  0.25500000000E-02 0.  1.
         -2   -1    0    0    0  501 -0.00000000000E+00 -0.00000000000E+00 -0.21905159170E+02  0.21905159318E+02  0.25500000000E-02 0. -1.
    5000001    1    1    2    0    0  0.45094420383E+02 -0.93821128198E+02  0.53418461257E+03  0.54965271868E+03  0.77000000000E+02 0.  0.
   -5000001    1    1    2    0    0 -0.45094420383E+02  0.93821128198E+02  0.28158757737E+03  0.30992978975E+03  0.77000000000E+02 0.  0.
<mgrwt>
<rscale>  0 0.27092033E+03</rscale>
<asrwt>0</asrwt>
<pdfrwt beam="1">  1        2 0.12887347E+00 0.27092033E+03</pdfrwt>
<pdfrwt beam="2">  1       -2 0.33700236E-02 0.27092033E+03</pdfrwt>
<totfact> 0.11844091E+04</totfact>
</mgrwt>
</event>
<event>
 4    1  0.6207184E-004  0.1978089E+03  0.7818608E-02  0.1151601E+00
          2   -1    0    0  501    0  0.00000000000E+00  0.00000000000E+00  0.24617638592E+02  0.24617638724E+02  0.25500000000E-02 0.  1.
         -2   -1    0    0    0  501 -0.00000000000E+00 -0.00000000000E+00 -0.39736095120E+03  0.39736095121E+03  0.25500000000E-02 0. -1.
    5000001    1    1    2    0    0  0.33116796556E+02 -0.17578106686E+02 -0.80837023506E+02  0.11776814687E+03  0.77000000000E+02 0.  0.
   -5000001    1    1    2    0    0 -0.33116796556E+02  0.17578106686E+02 -0.29190628911E+03  0.30421044306E+03  0.77000000000E+02 0.  0.
<mgrwt>
<rscale>  0 0.19780888E+03</rscale>
<asrwt>0</asrwt>
<pdfrwt beam="1">  1        2 0.37873293E-02 0.19780888E+03</pdfrwt>
<pdfrwt beam="2">  1       -2 0.61132449E-01 0.19780888E+03</pdfrwt>
<totfact> 0.56549039E+03</totfact>
</mgrwt>
</event>
<event>
 4    1  0.6207184E-004  0.2561463E+03  0.7818608E-02  0.1109481E+00
         -2   -1    0    0    0  501 -0.00000000000E+00  0.00000000000E+00  0.25552960578E+02  0.25552960706E+02  0.25500000000E-02 0. -1.
          2   -1    0    0  501    0  0.00000000000E+00 -0.00000000000E+00 -0.64191107374E+03  0.64191107375E+03  0.25500000000E-02 0.  1.
    5000001    1    1    2    0    0  0.28084070323E+02  0.90761183639E+02 -0.20904171864E+03  0.24218535793E+03  0.77000000000E+02 0.  0.
   -5000001    1    1    2    0    0 -0.28084070323E+02 -0.90761183639E+02 -0.40731639452E+03  0.42527867653E+03  0.77000000000E+02 0.  0.
<mgrwt>
<rscale>  0 0.25614627E+03</rscale>
<asrwt>0</asrwt>
<pdfrwt beam="1">  1        2 0.98755538E-01 0.25614627E+03</pdfrwt>
<pdfrwt beam="2">  1       -2 0.39312252E-02 0.25614627E+03</pdfrwt>
<totfact> 0.13029567E+04</totfact>
</mgrwt>
</event>
<event>
 4    1  0.6207184E-004  0.4072277E+03  0.7818608E-02  0.1041305E+00
          2   -1    0    0  501    0  0.00000000000E+00  0.00000000000E+00  0.77023689617E+03  0.77023689618E+03  0.25500000000E-02 0.  1.
         -2   -1    0    0    0  501 -0.00000000000E+00 -0.00000000000E+00 -0.53825783599E+02  0.53825783660E+02  0.25500000000E-02 0. -1.
    5000001    1    1    2    0    0 -0.15345462611E+03 -0.10480225413E+03  0.29428536251E+03  0.35646137145E+03  0.77000000000E+02 0.  0.
   -5000001    1    1    2    0    0  0.15345462611E+03  0.10480225413E+03  0.42212575006E+03  0.46760130839E+03  0.77000000000E+02 0.  0.
<mgrwt>
<rscale>  0 0.40722772E+03</rscale>
<asrwt>0</asrwt>
<pdfrwt beam="1">  1        2 0.11849798E+00 0.40722772E+03</pdfrwt>
<pdfrwt beam="2">  1       -2 0.82808901E-02 0.40722772E+03</pdfrwt>
<totfact> 0.33515964E+03</totfact>
</mgrwt>
</event>
<event>
 4    1  0.6207184E-004  0.2297445E+03  0.7818608E-02  0.1126820E+00
          2   -1    0    0  501    0  0.00000000000E+00  0.00000000000E+00  0.54200691443E+03  0.54200691443E+03  0.25500000000E-02 0.  1.
         -2   -1    0    0    0  501 -0.00000000000E+00 -0.00000000000E+00 -0.24345878716E+02  0.24345878850E+02  0.25500000000E-02 0. -1.
    5000001    1    1    2    0    0  0.13185135179E+02  0.78071780886E+02  0.33669091625E+03  0.35434280555E+03  0.77000000000E+02 0.  0.
   -5000001    1    1    2    0    0 -0.13185135179E+02 -0.78071780886E+02  0.18097011946E+03  0.21200998773E+03  0.77000000000E+02 0.  0.
<mgrwt>
<rscale>  0 0.22974451E+03</rscale>
<asrwt>0</asrwt>
<pdfrwt beam="1">  1        2 0.83385678E-01 0.22974451E+03</pdfrwt>
<pdfrwt beam="2">  1       -2 0.37455199E-02 0.22974451E+03</pdfrwt>
<totfact> 0.16935603E+04</totfact>
</mgrwt>
</event>
<event>
 4    1  0.6207184E-004  0.2738598E+03  0.7818608E-02  0.1099091E+00
         -2   -1    0    0    0  501 -0.00000000000E+00  0.00000000000E+00  0.18950496069E+02  0.18950496240E+02  0.25500000000E-02 0. -1.
          2   -1    0    0  501    0  0.00000000000E+00 -0.00000000000E+00 -0.98940944980E+03  0.98940944981E+03  0.25500000000E-02 0.  1.
    5000001    1    1    2    0    0  0.93936081779E+02  0.59927517881E+02 -0.55937508661E+03  0.57553868887E+03  0.77000000000E+02 0.  0.
   -5000001    1    1    2    0    0 -0.93936081779E+02 -0.59927517881E+02 -0.41108386712E+03  0.43282125718E+03  0.77000000000E+02 0.  0.
<mgrwt>
<rscale>  0 0.27385982E+03</rscale>
<asrwt>0</asrwt>
<pdfrwt beam="1">  1        2 0.15221680E+00 0.27385982E+03</pdfrwt>
<pdfrwt beam="2">  1       -2 0.29154617E-02 0.27385982E+03</pdfrwt>
<totfact> 0.11750791E+04</totfact>
</mgrwt>
</event>
<event>
 4    1  0.6207184E-004  0.2575945E+03  0.7818608E-02  0.1108597E+00
         -2   -1    0    0    0  501 -0.00000000000E+00  0.00000000000E+00  0.10288344326E+03  0.10288344329E+03  0.25500000000E-02 0. -1.
          2   -1    0    0  501    0  0.00000000000E+00 -0.00000000000E+00 -0.16123804703E+03  0.16123804705E+03  0.25500000000E-02 0.  1.
    5000001    1    1    2    0    0  0.22464318503E+02 -0.72368202885E+02  0.42727533969E+02  0.11617419917E+03  0.77000000000E+02 0.  0.
   -5000001    1    1    2    0    0 -0.22464318503E+02  0.72368202885E+02 -0.10108213773E+03  0.14794729117E+03  0.77000000000E+02 0.  0.
<mgrwt>
<rscale>  0 0.25759445E+03</rscale>
<asrwt>0</asrwt>
<pdfrwt beam="1">  1        2 0.24805853E-01 0.25759445E+03</pdfrwt>
<pdfrwt beam="2">  1       -2 0.15828222E-01 0.25759445E+03</pdfrwt>
<totfact> 0.67111361E+03</totfact>
</mgrwt>
</event>
<event>
 4    1  0.6207184E-004  0.3873652E+03  0.7818608E-02  0.1048245E+00
         -2   -1    0    0    0  501 -0.00000000000E+00  0.00000000000E+00  0.39958846153E+02  0.39958846234E+02  0.25500000000E-02 0. -1.
          2   -1    0    0  501    0  0.00000000000E+00 -0.00000000000E+00 -0.93878983318E+03  0.93878983318E+03  0.25500000000E-02 0.  1.
    5000001    1    1    2    0    0 -0.12223058989E+03 -0.12435306054E+03 -0.36262267941E+03  0.40966841273E+03  0.77000000000E+02 0.  0.
   -5000001    1    1    2    0    0  0.12223058989E+03  0.12435306054E+03 -0.53620830762E+03  0.56908026668E+03  0.77000000000E+02 0.  0.
<mgrwt>
<rscale>  0 0.38736525E+03</rscale>
<asrwt>0</asrwt>
<pdfrwt beam="1">  1        2 0.14442919E+00 0.38736525E+03</pdfrwt>
<pdfrwt beam="2">  1       -2 0.61475155E-02 0.38736525E+03</pdfrwt>
<totfact> 0.41075612E+03</totfact>
</mgrwt>
</event>
<event>
 4    1  0.6207184E-004  0.2411016E+03  0.7818608E-02  0.1119061E+00
         -2   -1    0    0    0  501 -0.00000000000E+00  0.00000000000E+00  0.23262884899E+02  0.23262885039E+02  0.25500000000E-02 0. -1.
          2   -1    0    0  501    0  0.00000000000E+00 -0.00000000000E+00 -0.62470712781E+03  0.62470712781E+03  0.25500000000E-02 0.  1.
    5000001    1    1    2    0    0  0.77102079956E+02 -0.48974953185E+02 -0.34407516847E+03  0.36422520277E+03  0.77000000000E+02 0.  0.
   -5000001    1    1    2    0    0 -0.77102079956E+02  0.48974953185E+02 -0.25736907444E+03  0.28374481008E+03  0.77000000000E+02 0.  0.
<mgrwt>
<rscale>  0 0.24110156E+03</rscale>
<asrwt>0</asrwt>
<pdfrwt beam="1">  1        2 0.96108776E-01 0.24110156E+03</pdfrwt>
<pdfrwt beam="2">  1       -2 0.35789059E-02 0.24110156E+03</pdfrwt>
<totfact> 0.15439270E+04</totfact>
</mgrwt>
</event>
<event>
 4    1  0.6207184E-004  0.4176799E+03  0.7818608E-02  0.1037824E+00
         -2   -1    0    0    0  501 -0.00000000000E+00  0.00000000000E+00  0.29180015773E+02  0.29180015884E+02  0.25500000000E-02 0. -1.
          2   -1    0    0  501    0  0.00000000000E+00 -0.00000000000E+00 -0.14946575890E+04  0.14946575890E+04  0.25500000000E-02 0.  1.
    5000001    1    1    2    0    0 -0.15544718414E+03 -0.82180367968E+02 -0.43260466514E+03  0.47327923707E+03  0.77000000000E+02 0.  0.
   -5000001    1    1    2    0    0  0.15544718414E+03  0.82180367968E+02 -0.10328729081E+04  0.10505583679E+04  0.77000000000E+02 0.  0.
<mgrwt>
<rscale>  0 0.41767994E+03</rscale>
<asrwt>0</asrwt>
<pdfrwt beam="1">  1        2 0.22994726E+00 0.41767994E+03</pdfrwt>
<pdfrwt beam="2">  1       -2 0.44892344E-02 0.41767994E+03</pdfrwt>
<totfact> 0.31693842E+03</totfact>
</mgrwt>
</event>
<event>
 4    1  0.6207184E-004  0.1791367E+03  0.7818608E-02  0.1168641E+00
          2   -1    0    0  501    0  0.00000000000E+00  0.00000000000E+00  0.26351442090E+03  0.26351442091E+03  0.25500000000E-02 0.  1.
         -2   -1    0    0    0  501 -0.00000000000E+00 -0.00000000000E+00 -0.30444222476E+02  0.30444222583E+02  0.25500000000E-02 0. -1.
    5000001    1    1    2    0    0 -0.31150825002E+02 -0.16047512120E+02  0.68256017229E+02  0.10870041597E+03  0.77000000000E+02 0.  0.
   -5000001    1    1    2    0    0  0.31150825002E+02  0.16047512120E+02  0.16481418119E+03  0.18525822753E+03  0.77000000000E+02 0.  0.
<mgrwt>
<rscale>  0 0.17913673E+03</rscale>
<asrwt>0</asrwt>
<pdfrwt beam="1">  1        2 0.40540682E-01 0.17913673E+03</pdfrwt>
<pdfrwt beam="2">  1       -2 0.46837263E-02 0.17913673E+03</pdfrwt>
<totfact> 0.25993904E+04</totfact>
</mgrwt>
</event>
<event>
 4    1  0.6207184E-004  0.1688158E+03  0.7818608E-02  0.1179088E+00
         -2   -1    0    0    0  501 -0.00000000000E+00  0.00000000000E+00  0.44518332071E+01  0.44518339374E+01  0.25500000000E-02 0. -1.
          2   -1    0    0  501    0  0.00000000000E+00 -0.00000000000E+00 -0.16003957435E+04  0.16003957435E+04  0.25500000000E-02 0.  1.
    5000001    1    1    2    0    0 -0.20360573928E+02  0.20078609549E+02 -0.61314643857E+03  0.61862368097E+03  0.77000000000E+02 0.  0.
   -5000001    1    1    2    0    0  0.20360573928E+02 -0.20078609549E+02 -0.98279747170E+03  0.98622389644E+03  0.77000000000E+02 0.  0.
<mgrwt>
<rscale>  0 0.16881582E+03</rscale>
<asrwt>0</asrwt>
<pdfrwt beam="1">  1        2 0.24621427E+00 0.16881582E+03</pdfrwt>
<pdfrwt beam="2">  1       -2 0.68489875E-03 0.16881582E+03</pdfrwt>
<totfact> 0.43154943E+04</totfact>
</mgrwt>
</event>
<event>
 4    1  0.6207184E-004  0.2925273E+03  0.7818608E-02  0.1089037E+00
          2   -1    0    0  501    0  0.00000000000E+00  0.00000000000E+00  0.15343386754E+04  0.15343386754E+04  0.25500000000E-02 0.  1.
         -2   -1    0    0    0  501 -0.00000000000E+00 -0.00000000000E+00 -0.13942851907E+02  0.13942852140E+02  0.25500000000E-02 0. -1.
    5000001    1    1    2    0    0 -0.49239836490E+02  0.11386240358E+03  0.71440739632E+03  0.72917496965E+03  0.77000000000E+02 0.  0.
   -5000001    1    1    2    0    0  0.49239836490E+02 -0.11386240358E+03  0.80598842714E+03  0.81910655786E+03  0.77000000000E+02 0.  0.
<mgrwt>
<rscale>  0 0.29252731E+03</rscale>
<asrwt>0</asrwt>
<pdfrwt beam="1">  1        2 0.23605223E+00 0.29252731E+03</pdfrwt>
<pdfrwt beam="2">  1       -2 0.21450530E-02 0.29252731E+03</pdfrwt>
<totfact> 0.91298585E+03</totfact>
</mgrwt>
</event>
<event>
 4    1  0.6207184E-004  0.4272645E+03  0.7818608E-02  0.1034728E+00
         -2   -1    0    0    0  501 -0.00000000000E+00  0.00000000000E+00  0.17752305045E+02  0.17752305228E+02  0.25500000000E-02 0. -1.
          2   -1    0    0  501    0  0.00000000000E+00 -0.00000000000E+00 -0.25708626939E+04  0.25708626939E+04  0.25500000000E-02 0.  1.
    5000001    1    1    2    0    0 -0.16683899576E+03 -0.34475910103E+02 -0.19028462434E+04  0.19120085421E+04  0.77000000000E+02 0.  0.
   -5000001    1    1    2    0    0  0.16683899576E+03  0.34475910103E+02 -0.65026414541E+03  0.67660645703E+03  0.77000000000E+02 0.  0.
<mgrwt>
<rscale>  0 0.42726450E+03</rscale>
<asrwt>0</asrwt>
<pdfrwt beam="1">  1        2 0.39551704E+00 0.42726450E+03</pdfrwt>
<pdfrwt beam="2">  1       -2 0.27311259E-02 0.42726450E+03</pdfrwt>
<totfact> 0.17591208E+03</totfact>
</mgrwt>
</event>
<event>
 4    1  0.6207184E-004  0.1692162E+03  0.7818608E-02  0.1178668E+00
         -2   -1    0    0    0  501 -0.00000000000E+00  0.00000000000E+00  0.88459067787E+01  0.88459071462E+01  0.25500000000E-02 0. -1.
          2   -1    0    0  501    0  0.00000000000E+00 -0.00000000000E+00 -0.80924762694E+03  0.80924762694E+03  0.25500000000E-02 0.  1.
    5000001    1    1    2    0    0  0.12223591961E+02 -0.29588501401E+02 -0.46935999324E+03  0.47671028820E+03  0.77000000000E+02 0.  0.
   -5000001    1    1    2    0    0 -0.12223591961E+02  0.29588501401E+02 -0.33104172692E+03  0.34138324589E+03  0.77000000000E+02 0.  0.
<mgrwt>
<rscale>  0 0.16921618E+03</rscale>
<asrwt>0</asrwt>
<pdfrwt beam="1">  1        2 0.12449958E+00 0.16921618E+03</pdfrwt>
<pdfrwt beam="2">  1       -2 0.13609094E-02 0.16921618E+03</pdfrwt>
<totfact> 0.45503256E+04</totfact>
</mgrwt>
</event>
<event>
 4    1  0.6207184E-004  0.2049003E+03  0.7818608E-02  0.1145669E+00
          2   -1    0    0  501    0  0.00000000000E+00  0.00000000000E+00  0.16508217932E+04  0.16508217932E+04  0.25500000000E-02 0.  1.
         -2   -1    0    0    0  501 -0.00000000000E+00 -0.00000000000E+00 -0.63580648901E+01  0.63580654015E+01  0.25500000000E-02 0. -1.
    5000001    1    1    2    0    0 -0.29033647649E+02  0.58013214042E+02  0.97537586821E+03  0.98055880496E+03  0.77000000000E+02 0.  0.
   -5000001    1    1    2    0    0  0.29033647649E+02 -0.58013214042E+02  0.66908786007E+03  0.67662105362E+03  0.77000000000E+02 0.  0.
<mgrwt>
<rscale>  0 0.20490029E+03</rscale>
<asrwt>0</asrwt>
<pdfrwt beam="1">  1        2 0.25397269E+00 0.20490029E+03</pdfrwt>
<pdfrwt beam="2">  1       -2 0.97816347E-03 0.20490029E+03</pdfrwt>
<totfact> 0.24629849E+04</totfact>
</mgrwt>
</event>
<event>
 4    1  0.6207184E-004  0.2152923E+03  0.7818608E-02  0.1137442E+00
         -2   -1    0    0    0  501 -0.00000000000E+00  0.00000000000E+00  0.78781451706E+02  0.78781451747E+02  0.25500000000E-02 0. -1.
          2   -1    0    0  501    0  0.00000000000E+00 -0.00000000000E+00 -0.14708662711E+03  0.14708662713E+03  0.25500000000E-02 0.  1.
    5000001    1    1    2    0    0  0.52403209145E+02  0.46497818919E+02 -0.54105601320E+01  0.10424211075E+03  0.77000000000E+02 0.  0.
   -5000001    1    1    2    0    0 -0.52403209145E+02 -0.46497818919E+02 -0.62894615273E+02  0.12162596813E+03  0.77000000000E+02 0.  0.
<mgrwt>
<rscale>  0 0.21529234E+03</rscale>
<asrwt>0</asrwt>
<pdfrwt beam="1">  1        2 0.22628712E-01 0.21529234E+03</pdfrwt>
<pdfrwt beam="2">  1       -2 0.12120223E-01 0.21529234E+03</pdfrwt>
<totfact> 0.11403196E+04</totfact>
</mgrwt>
</event>
<event>
 4    1  0.6207184E-004  0.1938923E+03  0.7818608E-02  0.1154997E+00
         -2   -1    0    0    0  501 -0.00000000000E+00  0.00000000000E+00  0.60618078739E+02  0.60618078792E+02  0.25500000000E-02 0. -1.
          2   -1    0    0  501    0  0.00000000000E+00 -0.00000000000E+00 -0.15504536353E+03  0.15504536355E+03  0.25500000000E-02 0.  1.
    5000001    1    1    2    0    0  0.31710203215E+02  0.44618661417E+02 -0.23018181501E+02  0.97237845586E+02  0.77000000000E+02 0.  0.
   -5000001    1    1    2    0    0 -0.31710203215E+02 -0.44618661417E+02 -0.71409103289E+02  0.11842559676E+03  0.77000000000E+02 0.  0.
<mgrwt>
<rscale>  0 0.19389226E+03</rscale>
<asrwt>0</asrwt>
<pdfrwt beam="1">  1        2 0.23853133E-01 0.19389226E+03</pdfrwt>
<pdfrwt beam="2">  1       -2 0.93258584E-02 0.19389226E+03</pdfrwt>
<totfact> 0.16195600E+04</totfact>
</mgrwt>
</event>
<event>
 4    1  0.6207184E-004  0.2138090E+03  0.7818608E-02  0.1138585E+00
          2   -1    0    0  501    0  0.00000000000E+00  0.00000000000E+00  0.51615124469E+03  0.51615124469E+03  0.25500000000E-02 0.  1.
         -2   -1    0    0    0  501 -0.00000000000E+00 -0.00000000000E+00 -0.22141900133E+02  0.22141900280E+02  0.25500000000E-02 0. -1.
    5000001    1    1    2    0    0  0.68478717823E+01 -0.66663344006E+02  0.32696387516E+03  0.34252776595E+03  0.77000000000E+02 0.  0.
   -5000001    1    1    2    0    0 -0.68478717823E+01  0.66663344006E+02  0.16704546939E+03  0.19576537903E+03  0.77000000000E+02 0.  0.
<mgrwt>
<rscale>  0 0.21380897E+03</rscale>
<asrwt>0</asrwt>
<pdfrwt beam="1">  1        2 0.79407881E-01 0.21380897E+03</pdfrwt>
<pdfrwt beam="2">  1       -2 0.34064463E-02 0.21380897E+03</pdfrwt>
<totfact> 0.20521960E+04</totfact>
</mgrwt>
</event>
<event>
 4    1  0.6207184E-004  0.2149641E+03  0.7818608E-02  0.1137694E+00
          2   -1    0    0  501    0  0.00000000000E+00  0.00000000000E+00  0.17820214067E+04  0.17820214067E+04  0.25500000000E-02 0.  1.
         -2   -1    0    0    0  501 -0.00000000000E+00 -0.00000000000E+00 -0.64827462079E+01  0.64827467095E+01  0.25500000000E-02 0. -1.
    5000001    1    1    2    0    0 -0.34999496385E+02 -0.66269971151E+02  0.90933589279E+03  0.91566229568E+03  0.77000000000E+02 0.  0.
   -5000001    1    1    2    0    0  0.34999496385E+02  0.66269971151E+02  0.86620276769E+03  0.87284185772E+03  0.77000000000E+02 0.  0.
<mgrwt>
<rscale>  0 0.21496412E+03</rscale>
<asrwt>0</asrwt>
<pdfrwt beam="1">  1        2 0.27415740E+00 0.21496412E+03</pdfrwt>
<pdfrwt beam="2">  1       -2 0.99734465E-03 0.21496412E+03</pdfrwt>
<totfact> 0.20502770E+04</totfact>
</mgrwt>
</event>
<event>
 4    1  0.6207184E-004  0.3270453E+03  0.7818608E-02  0.1072452E+00
         -2   -1    0    0    0  501 -0.00000000000E+00  0.00000000000E+00  0.27447316139E+03  0.27447316140E+03  0.25500000000E-02 0. -1.
          2   -1    0    0  501    0  0.00000000000E+00 -0.00000000000E+00 -0.97421748291E+02  0.97421748324E+02  0.25500000000E-02 0.  1.
    5000001    1    1    2    0    0  0.78129294619E+02 -0.98862325048E+02  0.16839044903E+03  0.22396939371E+03  0.77000000000E+02 0.  0.
   -5000001    1    1    2    0    0 -0.78129294619E+02  0.98862325048E+02  0.86609640682E+01  0.14792551602E+03  0.77000000000E+02 0.  0.
<mgrwt>
<rscale>  0 0.32704529E+03</rscale>
<asrwt>0</asrwt>
<pdfrwt beam="1">  1        2 0.14987962E-01 0.32704529E+03</pdfrwt>
<pdfrwt beam="2">  1       -2 0.42226639E-01 0.32704529E+03</pdfrwt>
<totfact> 0.20992249E+03</totfact>
</mgrwt>
</event>
<event>
 4    1  0.6207184E-004  0.1767718E+03  0.7818608E-02  0.1170964E+00
          2   -1    0    0  501    0  0.00000000000E+00  0.00000000000E+00  0.36710500833E+03  0.36710500834E+03  0.25500000000E-02 0.  1.
         -2   -1    0    0    0  501 -0.00000000000E+00 -0.00000000000E+00 -0.21280205246E+02  0.21280205399E+02  0.25500000000E-02 0. -1.
    5000001    1    1    2    0    0  0.29660669303E+02 -0.31667395626E+02  0.17137332432E+03  0.19282218632E+03  0.77000000000E+02 0.  0.
   -5000001    1    1    2    0    0 -0.29660669303E+02  0.31667395626E+02  0.17445147877E+03  0.19556302742E+03  0.77000000000E+02 0.  0.
<mgrwt>
<rscale>  0 0.17677183E+03</rscale>
<asrwt>0</asrwt>
<pdfrwt beam="1">  1        2 0.56477695E-01 0.17677183E+03</pdfrwt>
<pdfrwt beam="2">  1       -2 0.32738777E-02 0.17677183E+03</pdfrwt>
<totfact> 0.31099906E+04</totfact>
</mgrwt>
</event>
<event>
 4    1  0.6207184E-004  0.2158926E+03  0.7818608E-02  0.1136983E+00
          2   -1    0    0  501    0  0.00000000000E+00  0.00000000000E+00  0.20768471074E+04  0.20768471074E+04  0.25500000000E-02 0.  1.
         -2   -1    0    0    0  501 -0.00000000000E+00 -0.00000000000E+00 -0.56106200623E+01  0.56106206418E+01  0.25500000000E-02 0. -1.
    5000001    1    1    2    0    0  0.75403275985E+02  0.49546608652E+00  0.97654909575E+03  0.98247800786E+03  0.77000000000E+02 0.  0.
   -5000001    1    1    2    0    0 -0.75403275985E+02 -0.49546608652E+00  0.10946873916E+04  0.10999797202E+04  0.77000000000E+02 0.  0.
<mgrwt>
<rscale>  0 0.21589257E+03</rscale>
<asrwt>0</asrwt>
<pdfrwt beam="1">  1        2 0.31951510E+00 0.21589257E+03</pdfrwt>
<pdfrwt beam="2">  1       -2 0.86317193E-03 0.21589257E+03</pdfrwt>
<totfact> 0.17734929E+04</totfact>
</mgrwt>
</event>
<event>
 4    1  0.6207184E-004  0.2006265E+03  0.7818608E-02  0.1149211E+00
         -2   -1    0    0    0  501 -0.00000000000E+00  0.00000000000E+00  0.70754642366E+02  0.70754642412E+02  0.25500000000E-02 0. -1.
          2   -1    0    0  501    0  0.00000000000E+00 -0.00000000000E+00 -0.14222036923E+03  0.14222036926E+03  0.25500000000E-02 0.  1.
    5000001    1    1    2    0    0  0.61146703581E+02 -0.34878870844E+01 -0.56498755562E+02  0.11345569221E+03  0.77000000000E+02 0.  0.
   -5000001    1    1    2    0    0 -0.61146703581E+02  0.34878870844E+01 -0.14966971305E+02  0.99519319457E+02  0.77000000000E+02 0.  0.
<mgrwt>
<rscale>  0 0.20062653E+03</rscale>
<asrwt>0</asrwt>
<pdfrwt beam="1">  1        2 0.21880057E-01 0.20062653E+03</pdfrwt>
<pdfrwt beam="2">  1       -2 0.10885330E-01 0.20062653E+03</pdfrwt>
<totfact> 0.14003567E+04</totfact>
</mgrwt>
</event>
<event>
 4    1  0.6207184E-004  0.4137406E+03  0.7818608E-02  0.1039123E+00
          2   -1    0    0  501    0  0.00000000000E+00  0.00000000000E+00  0.76097631986E+03  0.76097631986E+03  0.25500000000E-02 0.  1.
         -2   -1    0    0    0  501 -0.00000000000E+00 -0.00000000000E+00 -0.56237383150E+02  0.56237383208E+02  0.25500000000E-02 0. -1.
    5000001    1    1    2    0    0 -0.14005643576E+03 -0.78865627436E+02  0.55981760601E+03  0.58750348458E+03  0.77000000000E+02 0.  0.
   -5000001    1    1    2    0    0  0.14005643576E+03  0.78865627436E+02  0.14492133070E+03  0.22971021849E+03  0.77000000000E+02 0.  0.
<mgrwt>
<rscale>  0 0.41374058E+03</rscale>
<asrwt>0</asrwt>
<pdfrwt beam="1">  1        2 0.11707328E+00 0.41374058E+03</pdfrwt>
<pdfrwt beam="2">  1       -2 0.86519053E-02 0.41374058E+03</pdfrwt>
<totfact> 0.31755421E+03</totfact>
</mgrwt>
</event>
<event>
 4    1  0.6207184E-004  0.4193796E+03  0.7818608E-02  0.1037268E+00
         -2   -1    0    0    0  501 -0.00000000000E+00  0.00000000000E+00  0.67947742882E+02  0.67947742930E+02  0.25500000000E-02 0. -1.
          2   -1    0    0  501    0  0.00000000000E+00 -0.00000000000E+00 -0.64711230578E+03  0.64711230578E+03  0.25500000000E-02 0.  1.
    5000001    1    1    2    0    0 -0.18678492050E+03  0.26941778901E+02 -0.20559523507E+03  0.28950451924E+03  0.77000000000E+02 0.  0.
   -5000001    1    1    2    0    0  0.18678492050E+03 -0.26941778901E+02 -0.37356932783E+03  0.42555552948E+03  0.77000000000E+02 0.  0.
<mgrwt>
<rscale>  0 0.41937964E+03</rscale>
<asrwt>0</asrwt>
<pdfrwt beam="1">  1        2 0.99555735E-01 0.41937964E+03</pdfrwt>
<pdfrwt beam="2">  1       -2 0.10453499E-01 0.41937964E+03</pdfrwt>
<totfact> 0.28670042E+03</totfact>
</mgrwt>
</event>
<event>
 4    1  0.6207184E-004  0.2516903E+03  0.7818608E-02  0.1112241E+00
         -2   -1    0    0    0  501 -0.00000000000E+00  0.00000000000E+00  0.16471933343E+02  0.16471933541E+02  0.25500000000E-02 0. -1.
          2   -1    0    0  501    0  0.00000000000E+00 -0.00000000000E+00 -0.96145410561E+03  0.96145410562E+03  0.25500000000E-02 0.  1.
    5000001    1    1    2    0    0 -0.53185346140E+02  0.83990878534E+02 -0.49186351378E+03  0.50768283889E+03  0.77000000000E+02 0.  0.
   -5000001    1    1    2    0    0  0.53185346140E+02 -0.83990878534E+02 -0.45311865849E+03  0.47024320026E+03  0.77000000000E+02 0.  0.
<mgrwt>
<rscale>  0 0.25169035E+03</rscale>
<asrwt>0</asrwt>
<pdfrwt beam="1">  1        2 0.14791597E+00 0.25169035E+03</pdfrwt>
<pdfrwt beam="2">  1       -2 0.25341444E-02 0.25169035E+03</pdfrwt>
<totfact> 0.15005946E+04</totfact>
</mgrwt>
</event>
<event>
 4    1  0.6207184E-004  0.2036654E+03  0.7818608E-02  0.1146683E+00
         -2   -1    0    0    0  501 -0.00000000000E+00  0.00000000000E+00  0.88141422754E+01  0.88141426442E+01  0.25500000000E-02 0. -1.
          2   -1    0    0  501    0  0.00000000000E+00 -0.00000000000E+00 -0.11765071672E+04  0.11765071672E+04  0.25500000000E-02 0.  1.
    5000001    1    1    2    0    0 -0.46583852937E+02  0.46644952524E+02 -0.52709241418E+03  0.53675061252E+03  0.77000000000E+02 0.  0.
   -5000001    1    1    2    0    0  0.46583852937E+02 -0.46644952524E+02 -0.64060061078E+03  0.64857069737E+03  0.77000000000E+02 0.  0.
<mgrwt>
<rscale>  0 0.20366543E+03</rscale>
<asrwt>0</asrwt>
<pdfrwt beam="1">  1        2 0.18100098E+00 0.20366543E+03</pdfrwt>
<pdfrwt beam="2">  1       -2 0.13560228E-02 0.20366543E+03</pdfrwt>
<totfact> 0.27652884E+04</totfact>
</mgrwt>
</event>
<event>
 4    1  0.6207184E-004  0.2531882E+03  0.7818608E-02  0.1111306E+00
          2   -1    0    0  501    0  0.00000000000E+00  0.00000000000E+00  0.93367552735E+02  0.93367552770E+02  0.25500000000E-02 0.  1.
         -2   -1    0    0    0  501 -0.00000000000E+00 -0.00000000000E+00 -0.17164485526E+03  0.17164485528E+03  0.25500000000E-02 0. -1.
    5000001    1    1    2    0    0  0.87644746490E+02  0.45006640587E+02 -0.18471642990E+02  0.12640174397E+03  0.77000000000E+02 0.  0.
   -5000001    1    1    2    0    0 -0.87644746490E+02 -0.45006640587E+02 -0.59805659538E+02  0.13861066408E+03  0.77000000000E+02 0.  0.
<mgrwt>
<rscale>  0 0.25318815E+03</rscale>
<asrwt>0</asrwt>
<pdfrwt beam="1">  1        2 0.14364239E-01 0.25318815E+03</pdfrwt>
<pdfrwt beam="2">  1       -2 0.26406901E-01 0.25318815E+03</pdfrwt>
<totfact> 0.52318074E+03</totfact>
</mgrwt>
</event>
<event>
 4    1  0.6207184E-004  0.1955149E+03  0.7818608E-02  0.1153579E+00
          2   -1    0    0  501    0  0.00000000000E+00  0.00000000000E+00  0.23582798478E+03  0.23582798479E+03  0.25500000000E-02 0.  1.
         -2   -1    0    0    0  501 -0.00000000000E+00 -0.00000000000E+00 -0.40523281566E+02  0.40523281646E+02  0.25500000000E-02 0. -1.
    5000001    1    1    2    0    0  0.28856935383E+02 -0.28958183798E+02  0.16016830521E+03  0.18235730071E+03  0.77000000000E+02 0.  0.
   -5000001    1    1    2    0    0 -0.28856935383E+02  0.28958183798E+02  0.35136398002E+02  0.93993965727E+02  0.77000000000E+02 0.  0.
<mgrwt>
<rscale>  0 0.19551495E+03</rscale>
<asrwt>0</asrwt>
<pdfrwt beam="1">  1        2 0.36281228E-01 0.19551495E+03</pdfrwt>
<pdfrwt beam="2">  1       -2 0.62343511E-02 0.19551495E+03</pdfrwt>
<totfact> 0.19114189E+04</totfact>
</mgrwt>
</event>
<event>
 4    1  0.6207184E-004  0.2182310E+03  0.7818608E-02  0.1135209E+00
          2   -1    0    0  501    0  0.00000000000E+00  0.00000000000E+00  0.12162553108E+04  0.12162553108E+04  0.25500000000E-02 0.  1.
         -2   -1    0    0    0  501 -0.00000000000E+00 -0.00000000000E+00 -0.97892207806E+01  0.97892211128E+01  0.25500000000E-02 0. -1.
    5000001    1    1    2    0    0 -0.73332048318E+02 -0.19838257042E+02  0.68387705774E+03  0.69237849176E+03  0.77000000000E+02 0.  0.
   -5000001    1    1    2    0    0  0.73332048318E+02  0.19838257042E+02  0.52258903226E+03  0.53366604014E+03  0.77000000000E+02 0.  0.
<mgrwt>
<rscale>  0 0.21823100E+03</rscale>
<asrwt>0</asrwt>
<pdfrwt beam="1">  1        2 0.18711610E+00 0.21823100E+03</pdfrwt>
<pdfrwt beam="2">  1       -2 0.15060348E-02 0.21823100E+03</pdfrwt>
<totfact> 0.22636286E+04</totfact>
</mgrwt>
</event>
<event>
 4    1  0.6207184E-004  0.2453678E+03  0.7818608E-02  0.1116268E+00
          2   -1    0    0  501    0  0.00000000000E+00  0.00000000000E+00  0.33127379862E+04  0.33127379862E+04  0.25500000000E-02 0.  1.
         -2   -1    0    0    0  501 -0.00000000000E+00 -0.00000000000E+00 -0.45434755060E+01  0.45434762216E+01  0.25500000000E-02 0. -1.
    5000001    1    1    2    0    0 -0.31216983047E+02 -0.90227037973E+02  0.16185155246E+04  0.16231564686E+04  0.77000000000E+02 0.  0.
   -5000001    1    1    2    0    0  0.31216983047E+02  0.90227037973E+02  0.16896789861E+04  0.16941249938E+04  0.77000000000E+02 0.  0.
<mgrwt>
<rscale>  0 0.24536785E+03</rscale>
<asrwt>0</asrwt>
<pdfrwt beam="1">  1        2 0.50965281E+00 0.24536785E+03</pdfrwt>
<pdfrwt beam="2">  1       -2 0.69899518E-03 0.24536785E+03</pdfrwt>
<totfact> 0.48156013E+03</totfact>
</mgrwt>
</event>
<event>
 4    1  0.6207184E-004  0.2006167E+03  0.7818608E-02  0.1149220E+00
          2   -1    0    0  501    0  0.00000000000E+00  0.00000000000E+00  0.40844929617E+02  0.40844929697E+02  0.25500000000E-02 0.  1.
         -2   -1    0    0    0  501 -0.00000000000E+00 -0.00000000000E+00 -0.24634069968E+03  0.24634069969E+03  0.25500000000E-02 0. -1.
    5000001    1    1    2    0    0 -0.83500213458E+00 -0.63697316796E+02 -0.90373513359E+02  0.13473832904E+03  0.77000000000E+02 0.  0.
   -5000001    1    1    2    0    0  0.83500213458E+00  0.63697316796E+02 -0.11512225670E+03  0.15244730035E+03  0.77000000000E+02 0.  0.
<mgrwt>
<rscale>  0 0.20061673E+03</rscale>
<asrwt>0</asrwt>
<pdfrwt beam="1">  1        2 0.62838355E-02 0.20061673E+03</pdfrwt>
<pdfrwt beam="2">  1       -2 0.37898568E-01 0.20061673E+03</pdfrwt>
<totfact> 0.74676214E+03</totfact>
</mgrwt>
</event>
<event>
 4    1  0.6207184E-004  0.6638655E+03  0.7818608E-02  0.9781104E-01
          2   -1    0    0  501    0  0.00000000000E+00  0.00000000000E+00  0.28537080251E+03  0.28537080252E+03  0.25500000000E-02 0.  1.
         -2   -1    0    0    0  501 -0.00000000000E+00 -0.00000000000E+00 -0.38609186429E+03  0.38609186430E+03  0.25500000000E-02 0. -1.
    5000001    1    1    2    0    0 -0.30217672252E+03  0.62219491136E+02 -0.14667796928E+03  0.35017918754E+03  0.77000000000E+02 0.  0.
   -5000001    1    1    2    0    0  0.30217672252E+03 -0.62219491136E+02  0.45956907496E+02  0.32128347928E+03  0.77000000000E+02 0.  0.
<mgrwt>
<rscale>  0 0.66386548E+03</rscale>
<asrwt>0</asrwt>
<pdfrwt beam="1">  1        2 0.43903200E-01 0.66386548E+03</pdfrwt>
<pdfrwt beam="2">  1       -2 0.59398749E-01 0.66386548E+03</pdfrwt>
<totfact> 0.31018365E+02</totfact>
</mgrwt>
</event>
<event>
 4    1  0.6207184E-004  0.4337933E+03  0.7818608E-02  0.1032668E+00
          2   -1    0    0  501    0  0.00000000000E+00  0.00000000000E+00  0.58240361582E+03  0.58240361582E+03  0.25500000000E-02 0.  1.
         -2   -1    0    0    0  501 -0.00000000000E+00 -0.00000000000E+00 -0.80775863767E+02  0.80775863807E+02  0.25500000000E-02 0. -1.
    5000001    1    1    2    0    0  0.18160597988E+03 -0.64312997844E+02  0.34748212368E+03  0.40470942650E+03  0.77000000000E+02 0.  0.
   -5000001    1    1    2    0    0 -0.18160597988E+03  0.64312997844E+02  0.15414562837E+03  0.25847005313E+03  0.77000000000E+02 0.  0.
<mgrwt>
<rscale>  0 0.43379329E+03</rscale>
<asrwt>0</asrwt>
<pdfrwt beam="1">  1        2 0.89600557E-01 0.43379329E+03</pdfrwt>
<pdfrwt beam="2">  1       -2 0.12427056E-01 0.43379329E+03</pdfrwt>
<totfact> 0.24540025E+03</totfact>
</mgrwt>
</event>
<event>
 4    1  0.6207184E-004  0.2797839E+03  0.7818608E-02  0.1095807E+00
          2   -1    0    0  501    0  0.00000000000E+00  0.00000000000E+00  0.47193049036E+03  0.47193049037E+03  0.25500000000E-02 0.  1.
         -2   -1    0    0    0  501 -0.00000000000E+00 -0.00000000000E+00 -0.41467463120E+02  0.41467463199E+02  0.25500000000E-02 0. -1.
    5000001    1    1    2    0    0 -0.55132840517E+02  0.79359286114E+02  0.94858576361E+02  0.15577122939E+03  0.77000000000E+02 0.  0.
   -5000001    1    1    2    0    0  0.55132840517E+02 -0.79359286114E+02  0.33560445088E+03  0.35762672418E+03  0.77000000000E+02 0.  0.
<mgrwt>
<rscale>  0 0.27978392E+03</rscale>
<asrwt>0</asrwt>
<pdfrwt beam="1">  1        2 0.72604692E-01 0.27978392E+03</pdfrwt>
<pdfrwt beam="2">  1       -2 0.63796096E-02 0.27978392E+03</pdfrwt>
<totfact> 0.88983394E+03</totfact>
</mgrwt>
</event>
<event>
 4    1  0.6207184E-004  0.2186800E+03  0.7818608E-02  0.1134871E+00
          2   -1    0    0  501    0  0.00000000000E+00  0.00000000000E+00  0.98426060449E+03  0.98426060449E+03  0.25500000000E-02 0.  1.
         -2   -1    0    0    0  501 -0.00000000000E+00 -0.00000000000E+00 -0.12146413144E+02  0.12146413412E+02  0.25500000000E-02 0. -1.
    5000001    1    1    2    0    0  0.38029460725E+02  0.67447785205E+02  0.46077285327E+03  0.47353570713E+03  0.77000000000E+02 0.  0.
   -5000001    1    1    2    0    0 -0.38029460725E+02 -0.67447785205E+02  0.51134133807E+03  0.52287131078E+03  0.77000000000E+02 0.  0.
<mgrwt>
<rscale>  0 0.21868000E+03</rscale>
<asrwt>0</asrwt>
<pdfrwt beam="1">  1        2 0.15142472E+00 0.21868000E+03</pdfrwt>
<pdfrwt beam="2">  1       -2 0.18686788E-02 0.21868000E+03</pdfrwt>
<totfact> 0.22577869E+04</totfact>
</mgrwt>
</event>
<event>
 4    1  0.6207184E-004  0.2125783E+03  0.7818608E-02  0.1139540E+00
          2   -1    0    0  501    0  0.00000000000E+00  0.00000000000E+00  0.17439778658E+04  0.17439778658E+04  0.25500000000E-02 0.  1.
         -2   -1    0    0    0  501 -0.00000000000E+00 -0.00000000000E+00 -0.64779383044E+01  0.64779388063E+01  0.25500000000E-02 0. -1.
    5000001    1    1    2    0    0 -0.66567487022E+02 -0.69293649612E+01  0.11142864966E+04  0.11189471135E+04  0.77000000000E+02 0.  0.
   -5000001    1    1    2    0    0  0.66567487022E+02  0.69293649612E+01  0.62321343089E+03  0.63150869105E+03  0.77000000000E+02 0.  0.
<mgrwt>
<rscale>  0 0.21257828E+03</rscale>
<asrwt>0</asrwt>
<pdfrwt beam="1">  1        2 0.26830434E+00 0.21257828E+03</pdfrwt>
<pdfrwt beam="2">  1       -2 0.99660575E-03 0.21257828E+03</pdfrwt>
<totfact> 0.21472807E+04</totfact>
</mgrwt>
</event>
<event>
 4    1  0.6207184E-004  0.2567802E+03  0.7818608E-02  0.1109093E+00
          2   -1    0    0  501    0  0.00000000000E+00  0.00000000000E+00  0.65109169755E+02  0.65109169805E+02  0.25500000000E-02 0.  1.
         -2   -1    0    0    0  501 -0.00000000000E+00 -0.00000000000E+00 -0.25317513177E+03  0.25317513178E+03  0.25500000000E-02 0. -1.
    5000001    1    1    2    0    0 -0.39385025789E+02 -0.94363063360E+02 -0.10639433910E+03  0.16644615759E+03  0.77000000000E+02 0.  0.
   -5000001    1    1    2    0    0  0.39385025789E+02  0.94363063360E+02 -0.81671622909E+02  0.15183814399E+03  0.77000000000E+02 0.  0.
<mgrwt>
<rscale>  0 0.25678024E+03</rscale>
<asrwt>0</asrwt>
<pdfrwt beam="1">  1        2 0.10016795E-01 0.25678024E+03</pdfrwt>
<pdfrwt beam="2">  1       -2 0.38950020E-01 0.25678024E+03</pdfrwt>
<totfact> 0.39751767E+03</totfact>
</mgrwt>
</event>
<event>
 4    1  0.6207184E-004  0.2154312E+03  0.7818608E-02  0.1137336E+00
          2   -1    0    0  501    0  0.00000000000E+00  0.00000000000E+00  0.10220074793E+04  0.10220074793E+04  0.25500000000E-02 0.  1.
         -2   -1    0    0    0  501 -0.00000000000E+00 -0.00000000000E+00 -0.11352804386E+02  0.11352804672E+02  0.25500000000E-02 0. -1.
    5000001    1    1    2    0    0  0.54428236892E+02 -0.48771116253E+02  0.41784871822E+03  0.43112365520E+03  0.77000000000E+02 0.  0.
   -5000001    1    1    2    0    0 -0.54428236892E+02  0.48771116253E+02  0.59280595673E+03  0.60223662881E+03  0.77000000000E+02 0.  0.
<mgrwt>
<rscale>  0 0.21543121E+03</rscale>
<asrwt>0</asrwt>
<pdfrwt beam="1">  1        2 0.15723193E+00 0.21543121E+03</pdfrwt>
<pdfrwt beam="2">  1       -2 0.17465852E-02 0.21543121E+03</pdfrwt>
<totfact> 0.23619587E+04</totfact>
</mgrwt>
</event>
<event>
 4    1  0.6207184E-004  0.8023904E+03  0.7818608E-02  0.9556564E-01
          2   -1    0    0  501    0  0.00000000000E+00  0.00000000000E+00  0.77610315919E+03  0.77610315919E+03  0.25500000000E-02 0.  1.
         -2   -1    0    0    0  501 -0.00000000000E+00 -0.00000000000E+00 -0.20739200409E+03  0.20739200411E+03  0.25500000000E-02 0. -1.
    5000001    1    1    2    0    0  0.18356492987E+03  0.28588807857E+03  0.52826967785E+03  0.63279216926E+03  0.77000000000E+02 0.  0.
   -5000001    1    1    2    0    0 -0.18356492987E+03 -0.28588807857E+03  0.40441477250E+02  0.35070299404E+03  0.77000000000E+02 0.  0.
<mgrwt>
<rscale>  0 0.80239040E+03</rscale>
<asrwt>0</asrwt>
<pdfrwt beam="1">  1        2 0.11940048E+00 0.80239040E+03</pdfrwt>
<pdfrwt beam="2">  1       -2 0.31906463E-01 0.80239040E+03</pdfrwt>
<totfact> 0.32903130E+02</totfact>
</mgrwt>
</event>
<event>
 4    1  0.6207184E-004  0.2054917E+03  0.7818608E-02  0.1145187E+00
         -2   -1    0    0    0  501 -0.00000000000E+00  0.00000000000E+00  0.84242501902E+01  0.84242505761E+01  0.25500000000E-02 0. -1.
          2   -1    0    0  501    0  0.00000000000E+00 -0.00000000000E+00 -0.12531328248E+04  0.12531328248E+04  0.25500000000E-02 0.  1.
    5000001    1    1    2    0    0 -0.25553240056E+01  0.61252294247E+02 -0.44134309970E+03  0.45218481275E+03  0.77000000000E+02 0.  0.
   -5000001    1    1    2    0    0  0.25553240056E+01 -0.61252294247E+02 -0.80336547489E+03  0.80937226261E+03  0.77000000000E+02 0.  0.
<mgrwt>
<rscale>  0 0.20549165E+03</rscale>
<asrwt>0</asrwt>
<pdfrwt beam="1">  1        2 0.19278952E+00 0.20549165E+03</pdfrwt>
<pdfrwt beam="2">  1       -2 0.12960395E-02 0.20549165E+03</pdfrwt>
<totfact> 0.26762755E+04</totfact>
</mgrwt>
</event>
<event>
 4    1  0.6207184E-004  0.2539739E+03  0.7818608E-02  0.1110819E+00
         -2   -1    0    0    0  501 -0.00000000000E+00  0.00000000000E+00  0.91607440060E+01  0.91607443609E+01  0.25500000000E-02 0. -1.
          2   -1    0    0  501    0  0.00000000000E+00 -0.00000000000E+00 -0.17603036108E+04  0.17603036108E+04  0.25500000000E-02 0.  1.
    5000001    1    1    2    0    0  0.32395735948E+02 -0.88846011911E+02 -0.11222497781E+04  0.11288563513E+04  0.77000000000E+02 0.  0.
   -5000001    1    1    2    0    0 -0.32395735948E+02  0.88846011911E+02 -0.62889308869E+03  0.64060800381E+03  0.77000000000E+02 0.  0.
<mgrwt>
<rscale>  0 0.25397394E+03</rscale>
<asrwt>0</asrwt>
<pdfrwt beam="1">  1        2 0.27081567E+00 0.25397394E+03</pdfrwt>
<pdfrwt beam="2">  1       -2 0.14093467E-02 0.25397394E+03</pdfrwt>
<totfact> 0.12808262E+04</totfact>
</mgrwt>
</event>
<event>
 4    1  0.6207184E-004  0.3193849E+03  0.7818608E-02  0.1075933E+00
         -2   -1    0    0    0  501 -0.00000000000E+00  0.00000000000E+00  0.10177612224E+02  0.10177612543E+02  0.25500000000E-02 0. -1.
          2   -1    0    0  501    0  0.00000000000E+00 -0.00000000000E+00 -0.25056639738E+04  0.25056639738E+04  0.25500000000E-02 0.  1.
    5000001    1    1    2    0    0  0.55817450719E+02  0.98067554369E+02 -0.59627678900E+03  0.61172529956E+03  0.77000000000E+02 0.  0.
   -5000001    1    1    2    0    0 -0.55817450719E+02 -0.98067554369E+02 -0.18992095726E+04  0.19041162868E+04  0.77000000000E+02 0.  0.
<mgrwt>
<rscale>  0 0.31938489E+03</rscale>
<asrwt>0</asrwt>
<pdfrwt beam="1">  1        2 0.38548627E+00 0.31938489E+03</pdfrwt>
<pdfrwt beam="2">  1       -2 0.15657885E-02 0.31938489E+03</pdfrwt>
<totfact> 0.44039558E+03</totfact>
</mgrwt>
</event>
<event>
 4    1  0.6207184E-004  0.3492160E+03  0.7818608E-02  0.1062937E+00
         -2   -1    0    0    0  501 -0.00000000000E+00  0.00000000000E+00  0.25844499972E+02  0.25844500098E+02  0.25500000000E-02 0. -1.
          2   -1    0    0  501    0  0.00000000000E+00 -0.00000000000E+00 -0.11796690507E+04  0.11796690507E+04  0.25500000000E-02 0.  1.
    5000001    1    1    2    0    0 -0.62794027538E+02 -0.14123058943E+03 -0.48757216746E+03  0.51724731780E+03  0.77000000000E+02 0.  0.
   -5000001    1    1    2    0    0  0.62794027538E+02  0.14123058943E+03 -0.66625238331E+03  0.68826623305E+03  0.77000000000E+02 0.  0.
<mgrwt>
<rscale>  0 0.34921602E+03</rscale>
<asrwt>0</asrwt>
<pdfrwt beam="1">  1        2 0.18148750E+00 0.34921602E+03</pdfrwt>
<pdfrwt beam="2">  1       -2 0.39760778E-02 0.34921602E+03</pdfrwt>
<totfact> 0.57147351E+03</totfact>
</mgrwt>
</event>
<event>
 4    1  0.6207184E-004  0.1700559E+03  0.7818608E-02  0.1177790E+00
          2   -1    0    0  501    0  0.00000000000E+00  0.00000000000E+00  0.13743321757E+04  0.13743321757E+04  0.25500000000E-02 0.  1.
         -2   -1    0    0    0  501 -0.00000000000E+00 -0.00000000000E+00 -0.52605570358E+01  0.52605576539E+01  0.25500000000E-02 0. -1.
    5000001    1    1    2    0    0 -0.79931436517E+01 -0.34921334553E+02  0.65073127581E+03  0.65624963487E+03  0.77000000000E+02 0.  0.
   -5000001    1    1    2    0    0  0.79931436517E+01  0.34921334553E+02  0.71834034282E+03  0.72334309845E+03  0.77000000000E+02 0.  0.
<mgrwt>
<rscale>  0 0.17005591E+03</rscale>
<asrwt>0</asrwt>
<pdfrwt beam="1">  1        2 0.21143562E+00 0.17005591E+03</pdfrwt>
<pdfrwt beam="2">  1       -2 0.80931691E-03 0.17005591E+03</pdfrwt>
<totfact> 0.44739887E+04</totfact>
</mgrwt>
</event>
<event>
 4    1  0.6207184E-004  0.1705267E+03  0.7818608E-02  0.1177300E+00
         -2   -1    0    0    0  501 -0.00000000000E+00  0.00000000000E+00  0.15225487244E+02  0.15225487458E+02  0.25500000000E-02 0. -1.
          2   -1    0    0  501    0  0.00000000000E+00 -0.00000000000E+00 -0.47747840291E+03  0.47747840292E+03  0.25500000000E-02 0.  1.
    5000001    1    1    2    0    0 -0.24886283615E+02  0.53679726086E+01 -0.15508230013E+03  0.17500760571E+03  0.77000000000E+02 0.  0.
   -5000001    1    1    2    0    0  0.24886283615E+02 -0.53679726086E+01 -0.30717061554E+03  0.31769628467E+03  0.77000000000E+02 0.  0.
<mgrwt>
<rscale>  0 0.17052673E+03</rscale>
<asrwt>0</asrwt>
<pdfrwt beam="1">  1        2 0.73458205E-01 0.17052673E+03</pdfrwt>
<pdfrwt beam="2">  1       -2 0.23423830E-02 0.17052673E+03</pdfrwt>
<totfact> 0.38195518E+04</totfact>
</mgrwt>
</event>
<event>
 4    1  0.6207184E-004  0.2411790E+03  0.7818608E-02  0.1119010E+00
         -2   -1    0    0    0  501 -0.00000000000E+00  0.00000000000E+00  0.17721665044E+02  0.17721665227E+02  0.25500000000E-02 0. -1.
          2   -1    0    0  501    0  0.00000000000E+00 -0.00000000000E+00 -0.82056779556E+03  0.82056779556E+03  0.25500000000E-02 0.  1.
    5000001    1    1    2    0    0  0.39673896847E+02 -0.77569733811E+02 -0.51252611666E+03  0.52555028490E+03  0.77000000000E+02 0.  0.
   -5000001    1    1    2    0    0 -0.39673896847E+02  0.77569733811E+02 -0.29032001385E+03  0.31273917589E+03  0.77000000000E+02 0.  0.
<mgrwt>
<rscale>  0 0.24117900E+03</rscale>
<asrwt>0</asrwt>
<pdfrwt beam="1">  1        2 0.12624117E+00 0.24117900E+03</pdfrwt>
<pdfrwt beam="2">  1       -2 0.27264107E-02 0.24117900E+03</pdfrwt>
<totfact> 0.16588311E+04</totfact>
</mgrwt>
</event>
<event>
 4    1  0.6207184E-004  0.2510565E+03  0.7818608E-02  0.1112639E+00
         -2   -1    0    0    0  501 -0.00000000000E+00  0.00000000000E+00  0.64184462815E+01  0.64184467881E+01  0.25500000000E-02 0. -1.
          2   -1    0    0  501    0  0.00000000000E+00 -0.00000000000E+00 -0.24550088413E+04  0.24550088413E+04  0.25500000000E-02 0.  1.
    5000001    1    1    2    0    0 -0.85138674143E+01 -0.98709992338E+02 -0.12585322960E+04  0.12647721885E+04  0.77000000000E+02 0.  0.
   -5000001    1    1    2    0    0  0.85138674143E+01  0.98709992338E+02 -0.11900580990E+04  0.11966550997E+04  0.77000000000E+02 0.  0.
<mgrwt>
<rscale>  0 0.25105651E+03</rscale>
<asrwt>0</asrwt>
<pdfrwt beam="1">  1        2 0.37769292E+00 0.25105651E+03</pdfrwt>
<pdfrwt beam="2">  1       -2 0.98745527E-03 0.25105651E+03</pdfrwt>
<totfact> 0.92113684E+03</totfact>
</mgrwt>
</event>
<event>
 4    1  0.6207184E-004  0.2605098E+03  0.7818608E-02  0.1106837E+00
         -2   -1    0    0    0  501 -0.00000000000E+00  0.00000000000E+00  0.78682904982E+02  0.78682905023E+02  0.25500000000E-02 0. -1.
          2   -1    0    0  501    0  0.00000000000E+00 -0.00000000000E+00 -0.21562924878E+03  0.21562924879E+03  0.25500000000E-02 0.  1.
    5000001    1    1    2    0    0  0.15604308405E+02  0.10047216879E+03 -0.98346257785E+02  0.16105631799E+03  0.77000000000E+02 0.  0.
   -5000001    1    1    2    0    0 -0.15604308405E+02 -0.10047216879E+03 -0.38600086010E+02  0.13325583583E+03  0.77000000000E+02 0.  0.
<mgrwt>
<rscale>  0 0.26050977E+03</rscale>
<asrwt>0</asrwt>
<pdfrwt beam="1">  1        2 0.33173730E-01 0.26050977E+03</pdfrwt>
<pdfrwt beam="2">  1       -2 0.12105062E-01 0.26050977E+03</pdfrwt>
<totfact> 0.75613169E+03</totfact>
</mgrwt>
</event>
<event>
 4    1  0.6207184E-004  0.2376212E+03  0.7818608E-02  0.1121388E+00
         -2   -1    0    0    0  501 -0.00000000000E+00  0.00000000000E+00  0.29671197275E+02  0.29671197385E+02  0.25500000000E-02 0. -1.
          2   -1    0    0  501    0  0.00000000000E+00 -0.00000000000E+00 -0.47574616929E+03  0.47574616930E+03  0.25500000000E-02 0.  1.
    5000001    1    1    2    0    0 -0.67525705525E+02 -0.12235927449E+02 -0.97607961766E+02  0.14200617250E+03  0.77000000000E+02 0.  0.
   -5000001    1    1    2    0    0  0.67525705525E+02  0.12235927449E+02 -0.34846701025E+03  0.36341119419E+03  0.77000000000E+02 0.  0.
<mgrwt>
<rscale>  0 0.23762120E+03</rscale>
<asrwt>0</asrwt>
<pdfrwt beam="1">  1        2 0.73191713E-01 0.23762120E+03</pdfrwt>
<pdfrwt beam="2">  1       -2 0.45647999E-02 0.23762120E+03</pdfrwt>
<totfact> 0.14582512E+04</totfact>
</mgrwt>
</event>
<event>
 4    1  0.6207184E-004  0.3637949E+03  0.7818608E-02  0.1057091E+00
          2   -1    0    0  501    0  0.00000000000E+00  0.00000000000E+00  0.75953192511E+03  0.75953192512E+03  0.25500000000E-02 0. -1.
         -2   -1    0    0    0  501 -0.00000000000E+00 -0.00000000000E+00 -0.43561931652E+02  0.43561931727E+02  0.25500000000E-02 0.  1.
    5000001    1    1    2    0    0  0.11736866656E+02 -0.15274179169E+03  0.22388919126E+03  0.28199854420E+03  0.77000000000E+02 0.  0.
   -5000001    1    1    2    0    0 -0.11736866656E+02  0.15274179169E+03  0.49208080220E+03  0.52109531264E+03  0.77000000000E+02 0.  0.
<mgrwt>
<rscale>  0 0.36379488E+03</rscale>
<asrwt>0</asrwt>
<pdfrwt beam="1">  1        2 0.11685107E+00 0.36379488E+03</pdfrwt>
<pdfrwt beam="2">  1       -2 0.67018356E-02 0.36379488E+03</pdfrwt>
<totfact> 0.47481251E+03</totfact>
</mgrwt>
</event>
<event>
 4    1  0.6207184E-004  0.3966968E+03  0.7818608E-02  0.1044930E+00
         -2   -1    0    0    0  501 -0.00000000000E+00  0.00000000000E+00  0.31919519365E+02  0.31919519467E+02  0.25500000000E-02 0. -1.
          2   -1    0    0  501    0  0.00000000000E+00 -0.00000000000E+00 -0.12325399043E+04  0.12325399043E+04  0.25500000000E-02 0.  1.
    5000001    1    1    2    0    0  0.49928829415E+02  0.15716744012E+03 -0.85166787783E+03  0.87089704694E+03  0.77000000000E+02 0.  0.
   -5000001    1    1    2    0    0 -0.49928829415E+02 -0.15716744012E+03 -0.34895250710E+03  0.39356237683E+03  0.77000000000E+02 0.  0.
<mgrwt>
<rscale>  0 0.39669677E+03</rscale>
<asrwt>0</asrwt>
<pdfrwt beam="1">  1        2 0.18962149E+00 0.39669677E+03</pdfrwt>
<pdfrwt beam="2">  1       -2 0.49106962E-02 0.39669677E+03</pdfrwt>
<totfact> 0.38658925E+03</totfact>
</mgrwt>
</event>
<event>
 4    1  0.6207184E-004  0.2392367E+03  0.7818608E-02  0.1120302E+00
         -2   -1    0    0    0  501 -0.00000000000E+00  0.00000000000E+00  0.20393267512E+02  0.20393267671E+02  0.25500000000E-02 0. -1.
          2   -1    0    0  501    0  0.00000000000E+00 -0.00000000000E+00 -0.70163087342E+03  0.70163087342E+03  0.25500000000E-02 0.  1.
    5000001    1    1    2    0    0  0.30508378145E+02  0.79756317729E+02 -0.44015510172E+03  0.45492564769E+03  0.77000000000E+02 0.  0.
   -5000001    1    1    2    0    0 -0.30508378145E+02 -0.79756317729E+02 -0.24108250418E+03  0.26709849340E+03  0.77000000000E+02 0.  0.
<mgrwt>
<rscale>  0 0.23923667E+03</rscale>
<asrwt>0</asrwt>
<pdfrwt beam="1">  1        2 0.10794319E+00 0.23923667E+03</pdfrwt>
<pdfrwt beam="2">  1       -2 0.31374263E-02 0.23923667E+03</pdfrwt>
<totfact> 0.16357897E+04</totfact>
</mgrwt>
</event>
<event>
 4    1  0.6207184E-004  0.5366209E+03  0.7818608E-02  0.1004639E+00
          2   -1    0    0  501    0  0.00000000000E+00  0.00000000000E+00  0.33823743714E+04  0.33823743714E+04  0.25500000000E-02 0.  1.
         -2   -1    0    0    0  501 -0.00000000000E+00 -0.00000000000E+00 -0.21284015485E+02  0.21284015638E+02  0.25500000000E-02 0. -1.
    5000001    1    1    2    0    0  0.20319528979E+03 -0.82273555412E+02  0.82947415193E+03  0.86140213166E+03  0.77000000000E+02 0.  0.
   -5000001    1    1    2    0    0 -0.20319528979E+03  0.82273555412E+02  0.25316162040E+04  0.25422562554E+04  0.77000000000E+02 0.  0.
<mgrwt>
<rscale>  0 0.53662094E+03</rscale>
<asrwt>0</asrwt>
<pdfrwt beam="1">  1        2 0.52036548E+00 0.53662094E+03</pdfrwt>
<pdfrwt beam="2">  1       -2 0.32744627E-02 0.53662094E+03</pdfrwt>
<totfact> 0.42732519E+02</totfact>
</mgrwt>
</event>
<event>
 4    1  0.6207184E-004  0.1636599E+03  0.7818608E-02  0.1184626E+00
         -2   -1    0    0    0  501 -0.00000000000E+00  0.00000000000E+00  0.14226777182E+03  0.14226777184E+03  0.25500000000E-02 0. -1.
          2   -1    0    0  501    0  0.00000000000E+00 -0.00000000000E+00 -0.47067175171E+02  0.47067175240E+02  0.25500000000E-02 0.  1.
    5000001    1    1    2    0    0 -0.62781990975E+01  0.21950784992E+02  0.29459417978E+02  0.85545952875E+02  0.77000000000E+02 0.  0.
   -5000001    1    1    2    0    0  0.62781990975E+01 -0.21950784992E+02  0.65741178669E+02  0.10378899421E+03  0.77000000000E+02 0.  0.
<mgrwt>
<rscale>  0 0.16365992E+03</rscale>
<asrwt>0</asrwt>
<pdfrwt beam="1">  1        2 0.72411040E-02 0.16365992E+03</pdfrwt>
<pdfrwt beam="2">  1       -2 0.21887349E-01 0.16365992E+03</pdfrwt>
<totfact> 0.16430741E+04</totfact>
</mgrwt>
</event>
<event>
 4    1  0.6207184E-004  0.3782873E+03  0.7818608E-02  0.1051569E+00
          2   -1    0    0  501    0  0.00000000000E+00  0.00000000000E+00  0.17959646892E+03  0.17959646893E+03  0.25500000000E-02 0.  1.
         -2   -1    0    0    0  501 -0.00000000000E+00 -0.00000000000E+00 -0.19919839935E+03  0.19919839936E+03  0.25500000000E-02 0. -1.
    5000001    1    1    2    0    0  0.16807276912E+03 -0.37099434144E+02 -0.24703990541E+02  0.19016863801E+03  0.77000000000E+02 0.  0.
   -5000001    1    1    2    0    0 -0.16807276912E+03  0.37099434144E+02  0.51020601086E+01  0.18862623029E+03  0.77000000000E+02 0.  0.
<mgrwt>
<rscale>  0 0.37828735E+03</rscale>
<asrwt>0</asrwt>
<pdfrwt beam="1">  1        2 0.27630226E-01 0.37828735E+03</pdfrwt>
<pdfrwt beam="2">  1       -2 0.30645908E-01 0.37828735E+03</pdfrwt>
<totfact> 0.19019559E+03</totfact>
</mgrwt>
</event>
<event>
 4    1  0.6207184E-004  0.2242785E+03  0.7818608E-02  0.1130733E+00
          2   -1    0    0  501    0  0.00000000000E+00  0.00000000000E+00  0.13133453295E+04  0.13133453295E+04  0.25500000000E-02 0.  1.
         -2   -1    0    0    0  501 -0.00000000000E+00 -0.00000000000E+00 -0.95749447507E+01  0.95749450903E+01  0.25500000000E-02 0. -1.
    5000001    1    1    2    0    0 -0.27294207009E+02  0.73938134127E+02  0.52894755365E+03  0.54030207840E+03  0.77000000000E+02 0.  0.
   -5000001    1    1    2    0    0  0.27294207009E+02 -0.73938134127E+02  0.77482283110E+03  0.78261819619E+03  0.77000000000E+02 0.  0.
<mgrwt>
<rscale>  0 0.22427848E+03</rscale>
<asrwt>0</asrwt>
<pdfrwt beam="1">  1        2 0.20205313E+00 0.22427848E+03</pdfrwt>
<pdfrwt beam="2">  1       -2 0.14730684E-02 0.22427848E+03</pdfrwt>
<totfact> 0.20680195E+04</totfact>
</mgrwt>
</event>
<event>
 4    1  0.6207184E-004  0.2765152E+03  0.7818608E-02  0.1097608E+00
          2   -1    0    0  501    0  0.00000000000E+00  0.00000000000E+00  0.10150424064E+04  0.10150424064E+04  0.25500000000E-02 0.  1.
         -2   -1    0    0    0  501 -0.00000000000E+00 -0.00000000000E+00 -0.18831882140E+02  0.18831882312E+02  0.25500000000E-02 0. -1.
    5000001    1    1    2    0    0  0.90393143227E+02  0.61092585579E+02  0.36418353020E+03  0.38789414539E+03  0.77000000000E+02 0.  0.
   -5000001    1    1    2    0    0 -0.90393143227E+02 -0.61092585579E+02  0.63202699404E+03  0.64598014331E+03  0.77000000000E+02 0.  0.
<mgrwt>
<rscale>  0 0.27651516E+03</rscale>
<asrwt>0</asrwt>
<pdfrwt beam="1">  1        2 0.15616040E+00 0.27651516E+03</pdfrwt>
<pdfrwt beam="2">  1       -2 0.28972121E-02 0.27651516E+03</pdfrwt>
<totfact> 0.11443693E+04</totfact>
</mgrwt>
</event>
<event>
 4    1  0.6207184E-004  0.1767176E+03  0.7818608E-02  0.1171018E+00
          2   -1    0    0  501    0  0.00000000000E+00  0.00000000000E+00  0.85555704877E+03  0.85555704877E+03  0.25500000000E-02 0.  1.
         -2   -1    0    0    0  501 -0.00000000000E+00 -0.00000000000E+00 -0.91253717607E+01  0.91253721170E+01  0.25500000000E-02 0. -1.
    5000001    1    1    2    0    0  0.26251876706E+02  0.15376684494E+02  0.27219087138E+03  0.28450390845E+03  0.77000000000E+02 0.  0.
   -5000001    1    1    2    0    0 -0.26251876706E+02 -0.15376684494E+02  0.57424080563E+03  0.58017851244E+03  0.77000000000E+02 0.  0.
<mgrwt>
<rscale>  0 0.17671759E+03</rscale>
<asrwt>0</asrwt>
<pdfrwt beam="1">  1        2 0.13162414E+00 0.17671759E+03</pdfrwt>
<pdfrwt beam="2">  1       -2 0.14039037E-02 0.17671759E+03</pdfrwt>
<totfact> 0.40674042E+04</totfact>
</mgrwt>
</event>
<event>
 4    1  0.6207184E-004  0.2471893E+03  0.7818608E-02  0.1115094E+00
         -2   -1    0    0    0  501 -0.00000000000E+00  0.00000000000E+00  0.40057881517E+01  0.40057889633E+01  0.25500000000E-02 0. -1.
          2   -1    0    0  501    0  0.00000000000E+00 -0.00000000000E+00 -0.38133920286E+04  0.38133920286E+04  0.25500000000E-02 0.  1.
    5000001    1    1    2    0    0 -0.73782648111E+01 -0.63079985740E+02 -0.77901960271E+03  0.78538784355E+03  0.77000000000E+02 0.  0.
   -5000001    1    1    2    0    0  0.73782648111E+01  0.63079985740E+02 -0.30303666377E+04  0.30320099740E+04  0.77000000000E+02 0.  0.
<mgrwt>
<rscale>  0 0.24718934E+03</rscale>
<asrwt>0</asrwt>
<pdfrwt beam="1">  1        2 0.58667280E+00 0.24718934E+03</pdfrwt>
<pdfrwt beam="2">  1       -2 0.61627821E-03 0.24718934E+03</pdfrwt>
<totfact> 0.26584037E+03</totfact>
</mgrwt>
</event>
<event>
 4    1  0.6207184E-004  0.2209186E+03  0.7818608E-02  0.1133200E+00
          2   -1    0    0  501    0  0.00000000000E+00  0.00000000000E+00  0.62701045393E+02  0.62701045445E+02  0.25500000000E-02 0.  1.
         -2   -1    0    0    0  501 -0.00000000000E+00 -0.00000000000E+00 -0.19459424215E+03  0.19459424217E+03  0.25500000000E-02 0. -1.
    5000001    1    1    2    0    0  0.63091050050E+02 -0.39926573070E+02 -0.96708872241E+02  0.14441681967E+03  0.77000000000E+02 0.  0.
   -5000001    1    1    2    0    0 -0.63091050050E+02  0.39926573070E+02 -0.35184324516E+02  0.11287846794E+03  0.77000000000E+02 0.  0.
<mgrwt>
<rscale>  0 0.22091865E+03</rscale>
<asrwt>0</asrwt>
<pdfrwt beam="1">  1        2 0.96463148E-02 0.22091865E+03</pdfrwt>
<pdfrwt beam="2">  1       -2 0.29937575E-01 0.22091865E+03</pdfrwt>
<totfact> 0.67382262E+03</totfact>
</mgrwt>
</event>
<event>
 4    1  0.6207184E-004  0.2915047E+03  0.7818608E-02  0.1089566E+00
          2   -1    0    0  501    0  0.00000000000E+00  0.00000000000E+00  0.36646935464E+04  0.36646935464E+04  0.25500000000E-02 0.  1.
         -2   -1    0    0    0  501 -0.00000000000E+00 -0.00000000000E+00 -0.57968682657E+01  0.57968688266E+01  0.25500000000E-02 0. -1.
    5000001    1    1    2    0    0 -0.51311506969E+02 -0.11057736386E+03  0.15610027416E+04  0.15676475317E+04  0.77000000000E+02 0.  0.
   -5000001    1    1    2    0    0  0.51311506969E+02  0.11057736386E+03  0.20978939365E+04  0.21028428836E+04  0.77000000000E+02 0.  0.
<mgrwt>
<rscale>  0 0.29150469E+03</rscale>
<asrwt>0</asrwt>
<pdfrwt beam="1">  1        2 0.56379866E+00 0.29150469E+03</pdfrwt>
<pdfrwt beam="2">  1       -2 0.89182648E-03 0.29150469E+03</pdfrwt>
<totfact> 0.19698826E+03</totfact>
</mgrwt>
</event>
<event>
 4    1  0.6207184E-004  0.2628295E+03  0.7818608E-02  0.1105455E+00
         -2   -1    0    0    0  501 -0.00000000000E+00  0.00000000000E+00  0.63144861023E+03  0.63144861024E+03  0.25500000000E-02 0. -1.
          2   -1    0    0  501    0  0.00000000000E+00 -0.00000000000E+00 -0.27349546706E+02  0.27349546825E+02  0.25500000000E-02 0.  1.
    5000001    1    1    2    0    0  0.47105632107E+02 -0.93234880752E+02  0.25012378741E+03  0.28178465642E+03  0.77000000000E+02 0.  0.
   -5000001    1    1    2    0    0 -0.47105632107E+02  0.93234880752E+02  0.35397527612E+03  0.37701350064E+03  0.77000000000E+02 0.  0.
<mgrwt>
<rscale>  0 0.26282948E+03</rscale>
<asrwt>0</asrwt>
<pdfrwt beam="1">  1        2 0.42076223E-02 0.26282948E+03</pdfrwt>
<pdfrwt beam="2">  1       -2 0.97145948E-01 0.26282948E+03</pdfrwt>
<totfact> 0.18109640E+03</totfact>
</mgrwt>
</event>
<event>
 4    1  0.6207184E-004  0.4269701E+03  0.7818608E-02  0.1034821E+00
         -2   -1    0    0    0  501 -0.00000000000E+00  0.00000000000E+00  0.44587478040E+03  0.44587478040E+03  0.25500000000E-02 0. -1.
          2   -1    0    0  501    0  0.00000000000E+00 -0.00000000000E+00 -0.10221676047E+03  0.10221676050E+03  0.25500000000E-02 0.  1.
    5000001    1    1    2    0    0  0.15509965947E+03 -0.84751488421E+02  0.28953701137E+03  0.34784968033E+03  0.77000000000E+02 0.  0.
   -5000001    1    1    2    0    0 -0.15509965947E+03  0.84751488421E+02  0.54121008561E+02  0.20024186057E+03  0.77000000000E+02 0.  0.
<mgrwt>
<rscale>  0 0.42697014E+03</rscale>
<asrwt>0</asrwt>
<pdfrwt beam="1">  1        2 0.15725656E-01 0.42697014E+03</pdfrwt>
<pdfrwt beam="2">  1       -2 0.68596118E-01 0.42697014E+03</pdfrwt>
<totfact> 0.73879175E+02</totfact>
</mgrwt>
</event>
<event>
 4    1  0.6207184E-004  0.2405652E+03  0.7818608E-02  0.1119417E+00
         -2   -1    0    0    0  501 -0.00000000000E+00  0.00000000000E+00  0.11022840429E+02  0.11022840724E+02  0.25500000000E-02 0. -1.
          2   -1    0    0  501    0  0.00000000000E+00 -0.00000000000E+00 -0.13125383183E+04  0.13125383183E+04  0.25500000000E-02 0.  1.
    5000001    1    1    2    0    0 -0.36749546321E+01 -0.84840446608E+02 -0.85121765174E+03  0.85890156439E+03  0.77000000000E+02 0.  0.
   -5000001    1    1    2    0    0  0.36749546321E+01  0.84840446608E+02 -0.45029782609E+03  0.46465959460E+03  0.77000000000E+02 0.  0.
<mgrwt>
<rscale>  0 0.24056517E+03</rscale>
<asrwt>0</asrwt>
<pdfrwt beam="1">  1        2 0.20192885E+00 0.24056517E+03</pdfrwt>
<pdfrwt beam="2">  1       -2 0.16958227E-02 0.24056517E+03</pdfrwt>
<totfact> 0.16907956E+04</totfact>
</mgrwt>
</event>
<event>
 4    1  0.6207184E-004  0.2279342E+03  0.7818608E-02  0.1128102E+00
         -2   -1    0    0    0  501 -0.00000000000E+00  0.00000000000E+00  0.33735111762E+03  0.33735111763E+03  0.25500000000E-02 0. -1.
          2   -1    0    0  501    0  0.00000000000E+00 -0.00000000000E+00 -0.38501421780E+02  0.38501421864E+02  0.25500000000E-02 0.  1.
    5000001    1    1    2    0    0  0.12325114778E+01 -0.83764154361E+02  0.13879645388E+03  0.17947536948E+03  0.77000000000E+02 0.  0.
   -5000001    1    1    2    0    0 -0.12325114778E+01  0.83764154361E+02  0.16005324196E+03  0.19637717001E+03  0.77000000000E+02 0.  0.
<mgrwt>
<rscale>  0 0.22793418E+03</rscale>
<asrwt>0</asrwt>
<pdfrwt beam="1">  1        2 0.59232956E-02 0.22793418E+03</pdfrwt>
<pdfrwt beam="2">  1       -2 0.51900172E-01 0.22793418E+03</pdfrwt>
<totfact> 0.44086646E+03</totfact>
</mgrwt>
</event>
<event>
 4    1  0.6207184E-004  0.2820610E+03  0.7818608E-02  0.1094569E+00
         -2   -1    0    0    0  501 -0.00000000000E+00  0.00000000000E+00  0.36605363107E+02  0.36605363196E+02  0.25500000000E-02 0. -1.
          2   -1    0    0  501    0  0.00000000000E+00 -0.00000000000E+00 -0.54335195079E+03  0.54335195079E+03  0.25500000000E-02 0.  1.
    5000001    1    1    2    0    0  0.27830148564E+02 -0.11023990692E+03 -0.31946605922E+03  0.34772822324E+03  0.77000000000E+02 0.  0.
   -5000001    1    1    2    0    0 -0.27830148564E+02  0.11023990692E+03 -0.18728052846E+03  0.23222909075E+03  0.77000000000E+02 0.  0.
<mgrwt>
<rscale>  0 0.28206095E+03</rscale>
<asrwt>0</asrwt>
<pdfrwt beam="1">  1        2 0.83592602E-01 0.28206095E+03</pdfrwt>
<pdfrwt beam="2">  1       -2 0.56315947E-02 0.28206095E+03</pdfrwt>
<totfact> 0.92018937E+03</totfact>
</mgrwt>
</event>
<event>
 4    1  0.6207184E-004  0.2670662E+03  0.7818608E-02  0.1102971E+00
         -2   -1    0    0    0  501 -0.00000000000E+00  0.00000000000E+00  0.18126293816E+02  0.18126293995E+02  0.25500000000E-02 0. -1.
          2   -1    0    0  501    0  0.00000000000E+00 -0.00000000000E+00 -0.98371374204E+03  0.98371374204E+03  0.25500000000E-02 0.  1.
    5000001    1    1    2    0    0  0.78414028655E+02  0.26892921249E+02 -0.74884639094E+03  0.75734530191E+03  0.77000000000E+02 0.  0.
   -5000001    1    1    2    0    0 -0.78414028655E+02 -0.26892921249E+02 -0.21674105728E+03  0.24449473412E+03  0.77000000000E+02 0.  0.
<mgrwt>
<rscale>  0 0.26706617E+03</rscale>
<asrwt>0</asrwt>
<pdfrwt beam="1">  1        2 0.15134053E+00 0.26706617E+03</pdfrwt>
<pdfrwt beam="2">  1       -2 0.27886614E-02 0.26706617E+03</pdfrwt>
<totfact> 0.12644262E+04</totfact>
</mgrwt>
</event>
<event>
 4    1  0.6207184E-004  0.3039345E+03  0.7818608E-02  0.1083290E+00
         -2   -1    0    0    0  501 -0.00000000000E+00  0.00000000000E+00  0.13239109826E+02  0.13239110072E+02  0.25500000000E-02 0. -1.
          2   -1    0    0  501    0  0.00000000000E+00 -0.00000000000E+00 -0.17443803520E+04  0.17443803520E+04  0.25500000000E-02 0.  1.
    5000001    1    1    2    0    0  0.71054618702E+02 -0.10208028209E+03 -0.11037175837E+04  0.11133690527E+04  0.77000000000E+02 0.  0.
   -5000001    1    1    2    0    0 -0.71054618702E+02  0.10208028209E+03 -0.62742365851E+03  0.64425040946E+03  0.77000000000E+02 0.  0.
<mgrwt>
<rscale>  0 0.30393449E+03</rscale>
<asrwt>0</asrwt>
<pdfrwt beam="1">  1        2 0.26836603E+00 0.30393449E+03</pdfrwt>
<pdfrwt beam="2">  1       -2 0.20367875E-02 0.30393449E+03</pdfrwt>
<totfact> 0.76285654E+03</totfact>
</mgrwt>
</event>
<event>
 4    1  0.6207184E-004  0.3758912E+03  0.7818608E-02  0.1052463E+00
          2   -1    0    0  501    0  0.00000000000E+00  0.00000000000E+00  0.83953815915E+03  0.83953815915E+03  0.25500000000E-02 0.  1.
         -2   -1    0    0    0  501 -0.00000000000E+00 -0.00000000000E+00 -0.42074986053E+02  0.42074986130E+02  0.25500000000E-02 0. -1.
    5000001    1    1    2    0    0  0.11200970871E+03 -0.89762544503E+02  0.61863736871E+03  0.63972234853E+03  0.77000000000E+02 0.  0.
   -5000001    1    1    2    0    0 -0.11200970871E+03  0.89762544503E+02  0.17882580439E+03  0.24189079676E+03  0.77000000000E+02 0.  0.
<mgrwt>
<rscale>  0 0.37589124E+03</rscale>
<asrwt>0</asrwt>
<pdfrwt beam="1">  1        2 0.12915971E+00 0.37589124E+03</pdfrwt>
<pdfrwt beam="2">  1       -2 0.64730752E-02 0.37589124E+03</pdfrwt>
<totfact> 0.44069818E+03</totfact>
</mgrwt>
</event>
<event>
 4    1  0.6207184E-004  0.2539177E+03  0.7818608E-02  0.1110854E+00
          2   -1    0    0  501    0  0.00000000000E+00  0.00000000000E+00  0.27520825376E+04  0.27520825376E+04  0.25500000000E-02 0.  1.
         -2   -1    0    0    0  501 -0.00000000000E+00 -0.00000000000E+00 -0.58568545368E+01  0.58568550919E+01  0.25500000000E-02 0. -1.
    5000001    1    1    2    0    0  0.74794850818E+02  0.17347228410E+02  0.66134137066E+03  0.67022131015E+03  0.77000000000E+02 0.  0.
   -5000001    1    1    2    0    0 -0.74794850818E+02 -0.17347228410E+02  0.20848843124E+04  0.20877180825E+04  0.77000000000E+02 0.  0.
<mgrwt>
<rscale>  0 0.25391769E+03</rscale>
<asrwt>0</asrwt>
<pdfrwt beam="1">  1        2 0.42339819E+00 0.25391769E+03</pdfrwt>
<pdfrwt beam="2">  1       -2 0.90105272E-03 0.25391769E+03</pdfrwt>
<totfact> 0.71992567E+03</totfact>
</mgrwt>
</event>
<event>
 4    1  0.6207184E-004  0.2042583E+03  0.7818608E-02  0.1146195E+00
          2   -1    0    0  501    0  0.00000000000E+00  0.00000000000E+00  0.28936104313E+02  0.28936104425E+02  0.25500000000E-02 0.  1.
         -2   -1    0    0    0  501 -0.00000000000E+00 -0.00000000000E+00 -0.36046197660E+03  0.36046197661E+03  0.25500000000E-02 0. -1.
    5000001    1    1    2    0    0  0.45732669201E+02  0.36117364146E+02 -0.22914677875E+03  0.24866279825E+03  0.77000000000E+02 0.  0.
   -5000001    1    1    2    0    0 -0.45732669201E+02 -0.36117364146E+02 -0.10237909354E+03  0.14073528278E+03  0.77000000000E+02 0.  0.
<mgrwt>
<rscale>  0 0.20425832E+03</rscale>
<asrwt>0</asrwt>
<pdfrwt beam="1">  1        2 0.44517086E-02 0.20425832E+03</pdfrwt>
<pdfrwt beam="2">  1       -2 0.55455685E-01 0.20425832E+03</pdfrwt>
<totfact> 0.55794831E+03</totfact>
</mgrwt>
</event>
<event>
 4    1  0.6207184E-004  0.2857341E+03  0.7818608E-02  0.1092598E+00
         -2   -1    0    0    0  501 -0.00000000000E+00  0.00000000000E+00  0.14396865108E+03  0.14396865110E+03  0.25500000000E-02 0. -1.
          2   -1    0    0  501    0  0.00000000000E+00 -0.00000000000E+00 -0.14177387998E+03  0.14177388000E+03  0.25500000000E-02 0.  1.
    5000001    1    1    2    0    0 -0.84522545485E+02 -0.12425560256E+02 -0.83660875718E+02  0.14222024247E+03  0.77000000000E+02 0.  0.
   -5000001    1    1    2    0    0  0.84522545485E+02  0.12425560256E+02  0.85855646815E+02  0.14352228863E+03  0.77000000000E+02 0.  0.
<mgrwt>
<rscale>  0 0.28573410E+03</rscale>
<asrwt>0</asrwt>
<pdfrwt beam="1">  1        2 0.21811366E-01 0.28573410E+03</pdfrwt>
<pdfrwt beam="2">  1       -2 0.22149023E-01 0.28573410E+03</pdfrwt>
<totfact> 0.44034675E+03</totfact>
</mgrwt>
</event>
<event>
 4    1  0.6207184E-004  0.2424520E+03  0.7818608E-02  0.1118170E+00
         -2   -1    0    0    0  501 -0.00000000000E+00  0.00000000000E+00  0.16963505048E+02  0.16963505240E+02  0.25500000000E-02 0. -1.
          2   -1    0    0  501    0  0.00000000000E+00 -0.00000000000E+00 -0.86631516657E+03  0.86631516657E+03  0.25500000000E-02 0.  1.
    5000001    1    1    2    0    0  0.72332645173E+02 -0.57080446595E+02 -0.48526026526E+03  0.49989670331E+03  0.77000000000E+02 0.  0.
   -5000001    1    1    2    0    0 -0.72332645173E+02  0.57080446595E+02 -0.36409139626E+03  0.38338196850E+03  0.77000000000E+02 0.  0.
<mgrwt>
<rscale>  0 0.24245199E+03</rscale>
<asrwt>0</asrwt>
<pdfrwt beam="1">  1        2 0.13327922E+00 0.24245199E+03</pdfrwt>
<pdfrwt beam="2">  1       -2 0.26097707E-02 0.24245199E+03</pdfrwt>
<totfact> 0.16499550E+04</totfact>
</mgrwt>
</event>
<event>
 4    1  0.6207184E-004  0.5387490E+03  0.7818608E-02  0.1004132E+00
          2   -1    0    0  501    0  0.00000000000E+00  0.00000000000E+00  0.17186420765E+03  0.17186420767E+03  0.25500000000E-02 0.  1.
         -2   -1    0    0    0  501 -0.00000000000E+00 -0.00000000000E+00 -0.42220896129E+03  0.42220896130E+03  0.25500000000E-02 0. -1.
    5000001    1    1    2    0    0  0.23118418063E+03  0.11285426056E+03 -0.14860030281E+03  0.30690920400E+03  0.77000000000E+02 0.  0.
   -5000001    1    1    2    0    0 -0.23118418063E+03 -0.11285426056E+03 -0.10174445083E+03  0.28716396497E+03  0.77000000000E+02 0.  0.
<mgrwt>
<rscale>  0 0.53874895E+03</rscale>
<asrwt>0</asrwt>
<pdfrwt beam="1">  1        2 0.26440647E-01 0.53874895E+03</pdfrwt>
<pdfrwt beam="2">  1       -2 0.64955224E-01 0.53874895E+03</pdfrwt>
<totfact> 0.45339889E+02</totfact>
</mgrwt>
</event>
<event>
 4    1  0.6207184E-004  0.2933801E+03  0.7818608E-02  0.1088597E+00
          2   -1    0    0  501    0  0.00000000000E+00  0.00000000000E+00  0.20012339386E+03  0.20012339388E+03  0.25500000000E-02 0.  1.
         -2   -1    0    0    0  501 -0.00000000000E+00 -0.00000000000E+00 -0.10752353406E+03  0.10752353409E+03  0.25500000000E-02 0. -1.
    5000001    1    1    2    0    0 -0.80409335331E+02  0.94500823453E+02  0.60864467373E+02  0.15820730144E+03  0.77000000000E+02 0.  0.
   -5000001    1    1    2    0    0  0.80409335331E+02 -0.94500823453E+02  0.31735392430E+02  0.14943962652E+03  0.77000000000E+02 0.  0.
<mgrwt>
<rscale>  0 0.29338013E+03</rscale>
<asrwt>0</asrwt>
<pdfrwt beam="1">  1        2 0.30788214E-01 0.29338013E+03</pdfrwt>
<pdfrwt beam="2">  1       -2 0.16542082E-01 0.29338013E+03</pdfrwt>
<totfact> 0.49324803E+03</totfact>
</mgrwt>
</event>
<event>
 4    1  0.6207184E-004  0.2748379E+03  0.7818608E-02  0.1098542E+00
         -2   -1    0    0    0  501 -0.00000000000E+00  0.00000000000E+00  0.98574078940E+02  0.98574078973E+02  0.25500000000E-02 0. -1.
          2   -1    0    0  501    0  0.00000000000E+00 -0.00000000000E+00 -0.19157132019E+03  0.19157132021E+03  0.25500000000E-02 0.  1.
    5000001    1    1    2    0    0  0.39321909396E+02  0.43822754076E+02 -0.14933191446E+03  0.17803276948E+03  0.77000000000E+02 0.  0.
   -5000001    1    1    2    0    0 -0.39321909396E+02 -0.43822754076E+02  0.56334673205E+02  0.11211262970E+03  0.77000000000E+02 0.  0.
<mgrwt>
<rscale>  0 0.27483789E+03</rscale>
<asrwt>0</asrwt>
<pdfrwt beam="1">  1        2 0.29472511E-01 0.27483789E+03</pdfrwt>
<pdfrwt beam="2">  1       -2 0.15165243E-01 0.27483789E+03</pdfrwt>
<totfact> 0.59669157E+03</totfact>
</mgrwt>
</event>
<event>
 4    1  0.6207184E-004  0.2460258E+03  0.7818608E-02  0.1115843E+00
          2   -1    0    0  501    0  0.00000000000E+00  0.00000000000E+00  0.11444018864E+03  0.11444018867E+03  0.25500000000E-02 0.  1.
         -2   -1    0    0    0  501 -0.00000000000E+00 -0.00000000000E+00 -0.13222775554E+03  0.13222775557E+03  0.25500000000E-02 0. -1.
    5000001    1    1    2    0    0 -0.42087809017E+02 -0.85940454860E+02 -0.20919879210E+01  0.12284348523E+03  0.77000000000E+02 0.  0.
   -5000001    1    1    2    0    0  0.42087809017E+02  0.85940454860E+02 -0.15695578977E+02  0.12382445901E+03  0.77000000000E+02 0.  0.
<mgrwt>
<rscale>  0 0.24602577E+03</rscale>
<asrwt>0</asrwt>
<pdfrwt beam="1">  1        2 0.17606183E-01 0.24602577E+03</pdfrwt>
<pdfrwt beam="2">  1       -2 0.20342732E-01 0.24602577E+03</pdfrwt>
<totfact> 0.64829004E+03</totfact>
</mgrwt>
</event>
<event>
 4    1  0.6207184E-004  0.2077600E+03  0.7818608E-02  0.1143352E+00
         -2   -1    0    0    0  501 -0.00000000000E+00  0.00000000000E+00  0.19191598335E+03  0.19191598337E+03  0.25500000000E-02 0. -1.
          2   -1    0    0  501    0  0.00000000000E+00 -0.00000000000E+00 -0.56227989681E+02  0.56227989739E+02  0.25500000000E-02 0.  1.
    5000001    1    1    2    0    0  0.18704225437E+01  0.65045335985E+02  0.97766824580E+02  0.14043413475E+03  0.77000000000E+02 0.  0.
   -5000001    1    1    2    0    0 -0.18704225437E+01 -0.65045335985E+02  0.37921169089E+02  0.10770983836E+03  0.77000000000E+02 0.  0.
<mgrwt>
<rscale>  0 0.20775996E+03</rscale>
<asrwt>0</asrwt>
<pdfrwt beam="1">  1        2 0.86504600E-02 0.20775996E+03</pdfrwt>
<pdfrwt beam="2">  1       -2 0.29525536E-01 0.20775996E+03</pdfrwt>
<totfact> 0.78887063E+03</totfact>
</mgrwt>
</event>
<event>
 4    1  0.6207184E-004  0.2434415E+03  0.7818608E-02  0.1117521E+00
         -2   -1    0    0    0  501 -0.00000000000E+00  0.00000000000E+00  0.83142465353E+02  0.83142465392E+02  0.25500000000E-02 0. -1.
          2   -1    0    0  501    0  0.00000000000E+00 -0.00000000000E+00 -0.17819941168E+03  0.17819941169E+03  0.25500000000E-02 0.  1.
    5000001    1    1    2    0    0  0.60644171862E+02  0.91595720188E+01  0.29327059412E+02  0.10271655054E+03  0.77000000000E+02 0.  0.
   -5000001    1    1    2    0    0 -0.60644171862E+02 -0.91595720188E+01 -0.12438400574E+03  0.15862532655E+03  0.77000000000E+02 0.  0.
<mgrwt>
<rscale>  0 0.24344148E+03</rscale>
<asrwt>0</asrwt>
<pdfrwt beam="1">  1        2 0.27415294E-01 0.24344148E+03</pdfrwt>
<pdfrwt beam="2">  1       -2 0.12791149E-01 0.24344148E+03</pdfrwt>
<totfact> 0.84969392E+03</totfact>
</mgrwt>
</event>
<event>
 4    1  0.6207184E-004  0.3115062E+03  0.7818608E-02  0.1079626E+00
          2   -1    0    0  501    0  0.00000000000E+00  0.00000000000E+00  0.97423105972E+02  0.97423106006E+02  0.25500000000E-02 0.  1.
         -2   -1    0    0    0  501 -0.00000000000E+00 -0.00000000000E+00 -0.24900690918E+03  0.24900690920E+03  0.25500000000E-02 0. -1.
    5000001    1    1    2    0    0  0.14007132626E+02  0.11287760674E+03  0.58743848783E+01  0.13748113422E+03  0.77000000000E+02 0.  0.
   -5000001    1    1    2    0    0 -0.14007132626E+02 -0.11287760674E+03 -0.15745818809E+03  0.20894888098E+03  0.77000000000E+02 0.  0.
<mgrwt>
<rscale>  0 0.31150619E+03</rscale>
<asrwt>0</asrwt>
<pdfrwt beam="1">  1        2 0.14988170E-01 0.31150619E+03</pdfrwt>
<pdfrwt beam="2">  1       -2 0.38308755E-01 0.31150619E+03</pdfrwt>
<totfact> 0.25277305E+03</totfact>
</mgrwt>
</event>
<event>
 4    1  0.6207184E-004  0.1880296E+03  0.7818608E-02  0.1160251E+00
         -2   -1    0    0    0  501 -0.00000000000E+00  0.00000000000E+00  0.54926377227E+02  0.54926377287E+02  0.25500000000E-02 0.  1.
          2   -1    0    0  501    0  0.00000000000E+00 -0.00000000000E+00 -0.16092047999E+03  0.16092048001E+03  0.25500000000E-02 0. -1.
    5000001    1    1    2    0    0 -0.86020078351E+00  0.38511401822E+02 -0.96344725849E+02  0.12920980696E+03  0.77000000000E+02 0.  0.
   -5000001    1    1    2    0    0  0.86020078351E+00 -0.38511401822E+02 -0.96493769097E+01  0.86637050333E+02  0.77000000000E+02 0.  0.
<mgrwt>
<rscale>  0 0.18802956E+03</rscale>
<asrwt>0</asrwt>
<pdfrwt beam="1">  1        2 0.24756997E-01 0.18802956E+03</pdfrwt>
<pdfrwt beam="2">  1       -2 0.84502120E-02 0.18802956E+03</pdfrwt>
<totfact> 0.18089094E+04</totfact>
</mgrwt>
</event>
<event>
 4    1  0.6207184E-004  0.3751824E+03  0.7818608E-02  0.1052729E+00
          2   -1    0    0  501    0  0.00000000000E+00  0.00000000000E+00  0.10181092807E+04  0.10181092807E+04  0.25500000000E-02 0.  1.
         -2   -1    0    0    0  501 -0.00000000000E+00 -0.00000000000E+00 -0.34564525461E+02  0.34564525555E+02  0.25500000000E-02 0. -1.
    5000001    1    1    2    0    0 -0.10334706273E+03  0.19985070930E+02  0.11344695106E+03  0.17285609373E+03  0.77000000000E+02 0.  0.
   -5000001    1    1    2    0    0  0.10334706273E+03 -0.19985070930E+02  0.87009780421E+03  0.87981771256E+03  0.77000000000E+02 0.  0.
<mgrwt>
<rscale>  0 0.37518243E+03</rscale>
<asrwt>0</asrwt>
<pdfrwt beam="1">  1        2 0.15663220E+00 0.37518243E+03</pdfrwt>
<pdfrwt beam="2">  1       -2 0.53176194E-02 0.37518243E+03</pdfrwt>
<totfact> 0.45801533E+03</totfact>
</mgrwt>
</event>
<event>
 4    1  0.6207184E-004  0.3952638E+03  0.7818608E-02  0.1045432E+00
          2   -1    0    0  501    0  0.00000000000E+00  0.00000000000E+00  0.12507727165E+04  0.12507727165E+04  0.25500000000E-02 0.  1.
         -2   -1    0    0    0  501 -0.00000000000E+00 -0.00000000000E+00 -0.31227394499E+02  0.31227394603E+02  0.25500000000E-02 0. -1.
    5000001    1    1    2    0    0 -0.14822496536E+03 -0.10368596312E+03  0.67528249361E+03  0.70331846661E+03  0.77000000000E+02 0.  0.
   -5000001    1    1    2    0    0  0.14822496536E+03  0.10368596312E+03  0.54426282838E+03  0.57868164448E+03  0.77000000000E+02 0.  0.
<mgrwt>
<rscale>  0 0.39526383E+03</rscale>
<asrwt>0</asrwt>
<pdfrwt beam="1">  1        2 0.19242661E+00 0.39526383E+03</pdfrwt>
<pdfrwt beam="2">  1       -2 0.48042136E-02 0.39526383E+03</pdfrwt>
<totfact> 0.39033567E+03</totfact>
</mgrwt>
</event>
<event>
 4    1  0.6207184E-004  0.3017934E+03  0.7818608E-02  0.1084348E+00
          2   -1    0    0  501    0  0.00000000000E+00  0.00000000000E+00  0.74894575040E+03  0.74894575040E+03  0.25500000000E-02 0.  1.
         -2   -1    0    0    0  501 -0.00000000000E+00 -0.00000000000E+00 -0.30402483596E+02  0.30402483703E+02  0.25500000000E-02 0. -1.
    5000001    1    1    2    0    0 -0.80240190834E+02 -0.10063262163E+03  0.31641654694E+03  0.35016259643E+03  0.77000000000E+02 0.  0.
   -5000001    1    1    2    0    0  0.80240190834E+02  0.10063262163E+03  0.40212671986E+03  0.42918563768E+03  0.77000000000E+02 0.  0.
<mgrwt>
<rscale>  0 0.30179338E+03</rscale>
<asrwt>0</asrwt>
<pdfrwt beam="1">  1        2 0.11522242E+00 0.30179338E+03</pdfrwt>
<pdfrwt beam="2">  1       -2 0.46773054E-02 0.30179338E+03</pdfrwt>
<totfact> 0.83637811E+03</totfact>
</mgrwt>
</event>
<event>
 4    1  0.6207184E-004  0.2907584E+03  0.7818608E-02  0.1089954E+00
         -2   -1    0    0    0  501 -0.00000000000E+00  0.00000000000E+00  0.19111508209E+02  0.19111508379E+02  0.25500000000E-02 0. -1.
          2   -1    0    0  501    0  0.00000000000E+00 -0.00000000000E+00 -0.11058839825E+04  0.11058839825E+04  0.25500000000E-02 0.  1.
    5000001    1    1    2    0    0  0.78790276380E+02 -0.73890031367E+02 -0.31322824200E+03  0.34015963307E+03  0.77000000000E+02 0.  0.
   -5000001    1    1    2    0    0 -0.78790276380E+02  0.73890031367E+02 -0.77354423229E+03  0.78483585780E+03  0.77000000000E+02 0.  0.
<mgrwt>
<rscale>  0 0.29075839E+03</rscale>
<asrwt>0</asrwt>
<pdfrwt beam="1">  1        2 0.17013595E+00 0.29075839E+03</pdfrwt>
<pdfrwt beam="2">  1       -2 0.29402329E-02 0.29075839E+03</pdfrwt>
<totfact> 0.98937031E+03</totfact>
</mgrwt>
</event>
<event>
 4    1  0.6207184E-004  0.2174346E+03  0.7818608E-02  0.1135810E+00
          2   -1    0    0  501    0  0.00000000000E+00  0.00000000000E+00  0.21719531143E+04  0.21719531143E+04  0.25500000000E-02 0.  1.
         -2   -1    0    0    0  501 -0.00000000000E+00 -0.00000000000E+00 -0.54418534900E+01  0.54418540875E+01  0.25500000000E-02 0. -1.
    5000001    1    1    2    0    0  0.46356514713E+02 -0.55731059950E+02  0.13357150333E+04  0.13398949689E+04  0.77000000000E+02 0.  0.
   -5000001    1    1    2    0    0 -0.46356514713E+02  0.55731059950E+02  0.83079622751E+03  0.83749999949E+03  0.77000000000E+02 0.  0.
<mgrwt>
<rscale>  0 0.21743460E+03</rscale>
<asrwt>0</asrwt>
<pdfrwt beam="1">  1        2 0.33414673E+00 0.21743460E+03</pdfrwt>
<pdfrwt beam="2">  1       -2 0.83720804E-03 0.21743460E+03</pdfrwt>
<totfact> 0.16524608E+04</totfact>
</mgrwt>
</event>
<event>
 4    1  0.6207184E-004  0.3051821E+03  0.7818608E-02  0.1082678E+00
          2   -1    0    0  501    0  0.00000000000E+00  0.00000000000E+00  0.12244886079E+03  0.12244886081E+03  0.25500000000E-02 0. -1.
         -2   -1    0    0    0  501 -0.00000000000E+00 -0.00000000000E+00 -0.19015310671E+03  0.19015310673E+03  0.25500000000E-02 0.  1.
    5000001    1    1    2    0    0  0.74501460692E+02 -0.10132598739E+03 -0.74017831255E+02  0.16500019003E+03  0.77000000000E+02 0.  0.
   -5000001    1    1    2    0    0 -0.74501460692E+02  0.10132598739E+03  0.63135853267E+01  0.14760177752E+03  0.77000000000E+02 0.  0.
<mgrwt>
<rscale>  0 0.30518212E+03</rscale>
<asrwt>0</asrwt>
<pdfrwt beam="1">  1        2 0.18838286E-01 0.30518212E+03</pdfrwt>
<pdfrwt beam="2">  1       -2 0.29254324E-01 0.30518212E+03</pdfrwt>
<totfact> 0.31860822E+03</totfact>
</mgrwt>
</event>
<event>
 4    1  0.6207184E-004  0.1734859E+03  0.7818608E-02  0.1174261E+00
          2   -1    0    0  501    0  0.00000000000E+00  0.00000000000E+00  0.51322759277E+02  0.51322759341E+02  0.25500000000E-02 0.  1.
         -2   -1    0    0    0  501 -0.00000000000E+00 -0.00000000000E+00 -0.14660822469E+03  0.14660822471E+03  0.25500000000E-02 0. -1.
    5000001    1    1    2    0    0 -0.53173821462E+01 -0.26417665587E+02 -0.81278569903E+02  0.11515803721E+03  0.77000000000E+02 0.  0.
   -5000001    1    1    2    0    0  0.53173821462E+01  0.26417665587E+02 -0.14006895512E+02  0.82772946847E+02  0.77000000000E+02 0.  0.
<mgrwt>
<rscale>  0 0.17348589E+03</rscale>
<asrwt>0</asrwt>
<pdfrwt beam="1">  1        2 0.78958092E-02 0.17348589E+03</pdfrwt>
<pdfrwt beam="2">  1       -2 0.22555111E-01 0.17348589E+03</pdfrwt>
<totfact> 0.14050171E+04</totfact>
</mgrwt>
</event>
<event>
 4    1  0.6207184E-004  0.2804179E+03  0.7818608E-02  0.1095461E+00
         -2   -1    0    0    0  501 -0.00000000000E+00  0.00000000000E+00  0.72412627040E+01  0.72412631530E+01  0.25500000000E-02 0. -1.
          2   -1    0    0  501    0  0.00000000000E+00 -0.00000000000E+00 -0.27147963300E+04  0.27147963300E+04  0.25500000000E-02 0.  1.
    5000001    1    1    2    0    0  0.11058604133E+02 -0.99650397760E+02 -0.76515258135E+03  0.77552560709E+03  0.77000000000E+02 0.  0.
   -5000001    1    1    2    0    0 -0.11058604133E+02  0.99650397760E+02 -0.19424024859E+04  0.19465119861E+04  0.77000000000E+02 0.  0.
<mgrwt>
<rscale>  0 0.28041793E+03</rscale>
<asrwt>0</asrwt>
<pdfrwt beam="1">  1        2 0.41766016E+00 0.28041793E+03</pdfrwt>
<pdfrwt beam="2">  1       -2 0.11140426E-02 0.28041793E+03</pdfrwt>
<totfact> 0.55487588E+03</totfact>
</mgrwt>
</event>
<event>
 4    1  0.6207184E-004  0.3183680E+03  0.7818608E-02  0.1076403E+00
          2   -1    0    0  501    0  0.00000000000E+00  0.00000000000E+00  0.86339229883E+03  0.86339229883E+03  0.25500000000E-02 0.  1.
         -2   -1    0    0    0  501 -0.00000000000E+00 -0.00000000000E+00 -0.29348811816E+02  0.29348811927E+02  0.25500000000E-02 0. -1.
    5000001    1    1    2    0    0  0.83229963653E+02  0.11168729022E+03  0.40848851091E+03  0.43839838183E+03  0.77000000000E+02 0.  0.
   -5000001    1    1    2    0    0 -0.83229963653E+02 -0.11168729022E+03  0.42555497610E+03  0.45434272892E+03  0.77000000000E+02 0.  0.
<mgrwt>
<rscale>  0 0.31836795E+03</rscale>
<asrwt>0</asrwt>
<pdfrwt beam="1">  1        2 0.13282957E+00 0.31836795E+03</pdfrwt>
<pdfrwt beam="2">  1       -2 0.45152022E-02 0.31836795E+03</pdfrwt>
<totfact> 0.73627762E+03</totfact>
</mgrwt>
</event>
<event>
 4    1  0.6207184E-004  0.1869696E+03  0.7818608E-02  0.1161223E+00
         -2   -1    0    0    0  501 -0.00000000000E+00  0.00000000000E+00  0.13622828305E+04  0.13622828305E+04  0.25500000000E-02 0. -1.
          2   -1    0    0  501    0  0.00000000000E+00 -0.00000000000E+00 -0.64152655847E+01  0.64152660915E+01  0.25500000000E-02 0.  1.
    5000001    1    1    2    0    0 -0.20490775942E+02 -0.29539080113E+02  0.96314680019E+03  0.96688840507E+03  0.77000000000E+02 0.  0.
   -5000001    1    1    2    0    0  0.20490775942E+02  0.29539080113E+02  0.39272076477E+03  0.40180969156E+03  0.77000000000E+02 0.  0.
<mgrwt>
<rscale>  0 0.18696959E+03</rscale>
<asrwt>0</asrwt>
<pdfrwt beam="1">  1        2 0.98696421E-03 0.18696959E+03</pdfrwt>
<pdfrwt beam="2">  1       -2 0.20958192E+00 0.18696959E+03</pdfrwt>
<totfact> 0.18103227E+03</totfact>
</mgrwt>
</event>
<event>
 4    1  0.6207184E-004  0.4586045E+03  0.7818608E-02  0.1025187E+00
         -2   -1    0    0    0  501 -0.00000000000E+00  0.00000000000E+00  0.39951324123E+02  0.39951324204E+02  0.25500000000E-02 0. -1.
          2   -1    0    0  501    0  0.00000000000E+00 -0.00000000000E+00 -0.13160893909E+04  0.13160893909E+04  0.25500000000E-02 0.  1.
    5000001    1    1    2    0    0  0.94480083099E+01  0.19140957261E+03 -0.34351185390E+03  0.40081951440E+03  0.77000000000E+02 0.  0.
   -5000001    1    1    2    0    0 -0.94480083099E+01 -0.19140957261E+03 -0.93262621284E+03  0.95522120067E+03  0.77000000000E+02 0.  0.
<mgrwt>
<rscale>  0 0.45860447E+03</rscale>
<asrwt>0</asrwt>
<pdfrwt beam="1">  1        2 0.20247526E+00 0.45860447E+03</pdfrwt>
<pdfrwt beam="2">  1       -2 0.61463586E-02 0.45860447E+03</pdfrwt>
<totfact> 0.24488056E+03</totfact>
</mgrwt>
</event>
<event>
 4    1  0.6207184E-004  0.3966272E+03  0.7818608E-02  0.1044954E+00
          2   -1    0    0  501    0  0.00000000000E+00  0.00000000000E+00  0.52046832911E+03  0.52046832912E+03  0.25500000000E-02 0.  1.
         -2   -1    0    0    0  501 -0.00000000000E+00 -0.00000000000E+00 -0.75563277844E+02  0.75563277887E+02  0.25500000000E-02 0. -1.
    5000001    1    1    2    0    0  0.85102475452E+02 -0.12842096773E+03  0.74716706596E+02  0.18773908098E+03  0.77000000000E+02 0.  0.
   -5000001    1    1    2    0    0 -0.85102475452E+02  0.12842096773E+03  0.37018834467E+03  0.40829252603E+03  0.77000000000E+02 0.  0.
<mgrwt>
<rscale>  0 0.39662725E+03</rscale>
<asrwt>0</asrwt>
<pdfrwt beam="1">  1        2 0.80072052E-01 0.39662725E+03</pdfrwt>
<pdfrwt beam="2">  1       -2 0.11625119E-01 0.39662725E+03</pdfrwt>
<totfact> 0.31140524E+03</totfact>
</mgrwt>
</event>
<event>
 4    1  0.6207184E-004  0.2242511E+03  0.7818608E-02  0.1130753E+00
         -2   -1    0    0    0  501 -0.00000000000E+00  0.00000000000E+00  0.39606844590E+02  0.39606844673E+02  0.25500000000E-02 0.  1.
          2   -1    0    0  501    0  0.00000000000E+00 -0.00000000000E+00 -0.31742329245E+03  0.31742329246E+03  0.25500000000E-02 0. -1.
    5000001    1    1    2    0    0 -0.43131252547E+02  0.68892955185E+02 -0.12927755683E+03  0.17102114174E+03  0.77000000000E+02 0.  0.
   -5000001    1    1    2    0    0  0.43131252547E+02 -0.68892955185E+02 -0.14853889103E+03  0.18600899539E+03  0.77000000000E+02 0.  0.
<mgrwt>
<rscale>  0 0.22425106E+03</rscale>
<asrwt>0</asrwt>
<pdfrwt beam="1">  1        2 0.48834351E-01 0.22425106E+03</pdfrwt>
<pdfrwt beam="2">  1       -2 0.60933609E-02 0.22425106E+03</pdfrwt>
<totfact> 0.14528349E+04</totfact>
</mgrwt>
</event>
<event>
 4    1  0.6207184E-004  0.4851584E+03  0.7818608E-02  0.1017727E+00
          2   -1    0    0  501    0  0.00000000000E+00  0.00000000000E+00  0.72865732877E+03  0.72865732878E+03  0.25500000000E-02 0.  1.
         -2   -1    0    0    0  501 -0.00000000000E+00 -0.00000000000E+00 -0.80757665287E+02  0.80757665327E+02  0.25500000000E-02 0. -1.
    5000001    1    1    2    0    0 -0.41864915514E+02  0.15504551550E+03  0.59871623185E+03  0.62464542687E+03  0.77000000000E+02 0.  0.
   -5000001    1    1    2    0    0  0.41864915514E+02 -0.15504551550E+03  0.49183431638E+02  0.18476956724E+03  0.77000000000E+02 0.  0.
<mgrwt>
<rscale>  0 0.48515839E+03</rscale>
<asrwt>0</asrwt>
<pdfrwt beam="1">  1        2 0.11210113E+00 0.48515839E+03</pdfrwt>
<pdfrwt beam="2">  1       -2 0.12424256E-01 0.48515839E+03</pdfrwt>
<totfact> 0.18710229E+03</totfact>
</mgrwt>
</event>
<event>
 4    1  0.6207184E-004  0.2000276E+03  0.7818608E-02  0.1149716E+00
         -2   -1    0    0    0  501 -0.00000000000E+00  0.00000000000E+00  0.73759421857E+01  0.73759426265E+01  0.25500000000E-02 0. -1.
          2   -1    0    0  501    0  0.00000000000E+00 -0.00000000000E+00 -0.13561327430E+04  0.13561327430E+04  0.25500000000E-02 0.  1.
    5000001    1    1    2    0    0 -0.10885935081E+02 -0.33332238910E+02 -0.31084084202E+03  0.32214991976E+03  0.77000000000E+02 0.  0.
   -5000001    1    1    2    0    0  0.10885935081E+02  0.33332238910E+02 -0.10379159588E+04  0.10413587659E+04  0.77000000000E+02 0.  0.
<mgrwt>
<rscale>  0 0.20002757E+03</rscale>
<asrwt>0</asrwt>
<pdfrwt beam="1">  1        2 0.20863561E+00 0.20002757E+03</pdfrwt>
<pdfrwt beam="2">  1       -2 0.11347614E-02 0.20002757E+03</pdfrwt>
<totfact> 0.28444116E+04</totfact>
</mgrwt>
</event>
<event>
 4    1  0.6207184E-004  0.2469516E+03  0.7818608E-02  0.1115247E+00
          2   -1    0    0  501    0  0.00000000000E+00  0.00000000000E+00  0.17121089657E+03  0.17121089659E+03  0.25500000000E-02 0.  1.
         -2   -1    0    0    0  501 -0.00000000000E+00 -0.00000000000E+00 -0.89049641543E+02  0.89049641580E+02  0.25500000000E-02 0. -1.
    5000001    1    1    2    0    0 -0.35812830957E+02 -0.34960606588E+02  0.12806649847E+03  0.15759070691E+03  0.77000000000E+02 0.  0.
   -5000001    1    1    2    0    0  0.35812830957E+02  0.34960606588E+02 -0.45905243447E+02  0.10266983126E+03  0.77000000000E+02 0.  0.
<mgrwt>
<rscale>  0 0.24695157E+03</rscale>
<asrwt>0</asrwt>
<pdfrwt beam="1">  1        2 0.26340138E-01 0.24695157E+03</pdfrwt>
<pdfrwt beam="2">  1       -2 0.13699945E-01 0.24695157E+03</pdfrwt>
<totfact> 0.79480305E+03</totfact>
</mgrwt>
</event>
<event>
 4    1  0.6207184E-004  0.3724089E+03  0.7818608E-02  0.1053776E+00
          2   -1    0    0  501    0  0.00000000000E+00  0.00000000000E+00  0.52072271849E+03  0.52072271849E+03  0.25500000000E-02 0.  1.
         -2   -1    0    0    0  501 -0.00000000000E+00 -0.00000000000E+00 -0.66584580124E+02  0.66584580173E+02  0.25500000000E-02 0. -1.
    5000001    1    1    2    0    0 -0.56937288821E+02 -0.14563456556E+03  0.12375340795E+03  0.21376432707E+03  0.77000000000E+02 0.  0.
   -5000001    1    1    2    0    0  0.56937288821E+02  0.14563456556E+03  0.33038473041E+03  0.37354297160E+03  0.77000000000E+02 0.  0.
<mgrwt>
<rscale>  0 0.37240893E+03</rscale>
<asrwt>0</asrwt>
<pdfrwt beam="1">  1        2 0.80111184E-01 0.37240893E+03</pdfrwt>
<pdfrwt beam="2">  1       -2 0.10243782E-01 0.37240893E+03</pdfrwt>
<totfact> 0.38141185E+03</totfact>
</mgrwt>
</event>
<event>
 4    1  0.6207184E-004  0.3265189E+03  0.7818608E-02  0.1072688E+00
         -2   -1    0    0    0  501 -0.00000000000E+00  0.00000000000E+00  0.28783333113E+03  0.28783333114E+03  0.25500000000E-02 0. -1.
          2   -1    0    0  501    0  0.00000000000E+00 -0.00000000000E+00 -0.92600990535E+02  0.92600990570E+02  0.25500000000E-02 0.  1.
    5000001    1    1    2    0    0 -0.33082098077E+02  0.13567137045E+03  0.56861787606E+02  0.16930271369E+03  0.77000000000E+02 0.  0.
   -5000001    1    1    2    0    0  0.33082098077E+02 -0.13567137045E+03  0.13837055299E+03  0.21113160802E+03  0.77000000000E+02 0.  0.
<mgrwt>
<rscale>  0 0.32651892E+03</rscale>
<asrwt>0</asrwt>
<pdfrwt beam="1">  1        2 0.14246306E-01 0.32651892E+03</pdfrwt>
<pdfrwt beam="2">  1       -2 0.44282051E-01 0.32651892E+03</pdfrwt>
<totfact> 0.20334240E+03</totfact>
</mgrwt>
</event>
<event>
 4    1  0.6207184E-004  0.2256108E+03  0.7818608E-02  0.1129768E+00
         -2   -1    0    0    0  501 -0.00000000000E+00  0.00000000000E+00  0.72267570558E+01  0.72267575057E+01  0.25500000000E-02 0. -1.
          2   -1    0    0  501    0  0.00000000000E+00 -0.00000000000E+00 -0.17608253887E+04  0.17608253887E+04  0.25500000000E-02 0.  1.
    5000001    1    1    2    0    0  0.21063554907E+02  0.76335431619E+02 -0.69718820273E+03  0.70588324919E+03  0.77000000000E+02 0.  0.
   -5000001    1    1    2    0    0 -0.21063554907E+02 -0.76335431619E+02 -0.10564104289E+04  0.10621688970E+04  0.77000000000E+02 0.  0.
<mgrwt>
<rscale>  0 0.22561079E+03</rscale>
<asrwt>0</asrwt>
<pdfrwt beam="1">  1        2 0.27089587E+00 0.22561079E+03</pdfrwt>
<pdfrwt beam="2">  1       -2 0.11118102E-02 0.22561079E+03</pdfrwt>
<totfact> 0.18004697E+04</totfact>
</mgrwt>
</event>
<event>
 4    1  0.6207184E-004  0.2681447E+03  0.7818608E-02  0.1102346E+00
         -2   -1    0    0    0  501 -0.00000000000E+00  0.00000000000E+00  0.18017864417E+03  0.18017864419E+03  0.25500000000E-02 0. -1.
          2   -1    0    0  501    0  0.00000000000E+00 -0.00000000000E+00 -0.99764320128E+02  0.99764320161E+02  0.25500000000E-02 0.  1.
    5000001    1    1    2    0    0  0.83792218658E+02  0.87504099233E+01 -0.33235024207E+02  0.11887502856E+03  0.77000000000E+02 0.  0.
   -5000001    1    1    2    0    0 -0.83792218658E+02 -0.87504099233E+01  0.11364934825E+03  0.16106793579E+03  0.77000000000E+02 0.  0.
<mgrwt>
<rscale>  0 0.26814474E+03</rscale>
<asrwt>0</asrwt>
<pdfrwt beam="1">  1        2 0.15348357E-01 0.26814474E+03</pdfrwt>
<pdfrwt beam="2">  1       -2 0.27719791E-01 0.26814474E+03</pdfrwt>
<totfact> 0.44447779E+03</totfact>
</mgrwt>
</event>
<event>
 4    1  0.6207184E-004  0.2302214E+03  0.7818608E-02  0.1126484E+00
          2   -1    0    0  501    0  0.00000000000E+00  0.00000000000E+00  0.18544003847E+03  0.18544003849E+03  0.25500000000E-02 0.  1.
         -2   -1    0    0    0  501 -0.00000000000E+00 -0.00000000000E+00 -0.71454222551E+02  0.71454222596E+02  0.25500000000E-02 0. -1.
    5000001    1    1    2    0    0 -0.34643627996E+02  0.58423325156E+01  0.14405238637E+03  0.16707604206E+03  0.77000000000E+02 0.  0.
   -5000001    1    1    2    0    0  0.34643627996E+02 -0.58423325156E+01 -0.30066570454E+02  0.89818219025E+02  0.77000000000E+02 0.  0.
<mgrwt>
<rscale>  0 0.23022140E+03</rscale>
<asrwt>0</asrwt>
<pdfrwt beam="1">  1        2 0.28529236E-01 0.23022140E+03</pdfrwt>
<pdfrwt beam="2">  1       -2 0.10992957E-01 0.23022140E+03</pdfrwt>
<totfact> 0.10348538E+04</totfact>
</mgrwt>
</event>
<event>
 4    1  0.6207184E-004  0.1985710E+03  0.7818608E-02  0.1150950E+00
         -2   -1    0    0    0  501 -0.00000000000E+00  0.00000000000E+00  0.27630255925E+01  0.27630267692E+01  0.25500000000E-02 0. -1.
          2   -1    0    0  501    0  0.00000000000E+00 -0.00000000000E+00 -0.35676869814E+04  0.35676869814E+04  0.25500000000E-02 0.  1.
    5000001    1    1    2    0    0  0.57633092231E+02 -0.18007287767E+02 -0.14800987446E+04  0.14833297441E+04  0.77000000000E+02 0.  0.
   -5000001    1    1    2    0    0 -0.57633092231E+02  0.18007287767E+02 -0.20848252112E+04  0.20871202641E+04  0.77000000000E+02 0.  0.
<mgrwt>
<rscale>  0 0.19857102E+03</rscale>
<asrwt>0</asrwt>
<pdfrwt beam="1">  1        2 0.54887123E+00 0.19857102E+03</pdfrwt>
<pdfrwt beam="2">  1       -2 0.42508381E-03 0.19857102E+03</pdfrwt>
<totfact> 0.67376965E+03</totfact>
</mgrwt>
</event>
<event>
 4    1  0.6207184E-004  0.3578242E+03  0.7818608E-02  0.1059449E+00
          2   -1    0    0  501    0  0.00000000000E+00  0.00000000000E+00  0.13512118977E+04  0.13512118977E+04  0.25500000000E-02 0.  1.
         -2   -1    0    0    0  501 -0.00000000000E+00 -0.00000000000E+00 -0.23689500219E+02  0.23689500356E+02  0.25500000000E-02 0. -1.
    5000001    1    1    2    0    0 -0.10060886075E+03 -0.10361568508E+03  0.94143049671E+03  0.95555153351E+03  0.77000000000E+02 0.  0.
   -5000001    1    1    2    0    0  0.10060886075E+03  0.10361568508E+03  0.38609190074E+03  0.41934986452E+03  0.77000000000E+02 0.  0.
<mgrwt>
<rscale>  0 0.35782417E+03</rscale>
<asrwt>0</asrwt>
<pdfrwt beam="1">  1        2 0.20787880E+00 0.35782417E+03</pdfrwt>
<pdfrwt beam="2">  1       -2 0.36445377E-02 0.35782417E+03</pdfrwt>
<totfact> 0.52161844E+03</totfact>
</mgrwt>
</event>
<event>
 4    1  0.6207184E-004  0.2897458E+03  0.7818608E-02  0.1090482E+00
         -2   -1    0    0    0  501 -0.00000000000E+00  0.00000000000E+00  0.19746241709E+03  0.19746241711E+03  0.25500000000E-02 0. -1.
          2   -1    0    0  501    0  0.00000000000E+00 -0.00000000000E+00 -0.10628940429E+03  0.10628940432E+03  0.25500000000E-02 0.  1.
    5000001    1    1    2    0    0  0.44774029684E+02  0.52364544541E+02  0.15204532234E+03  0.18383019149E+03  0.77000000000E+02 0.  0.
   -5000001    1    1    2    0    0 -0.44774029684E+02 -0.52364544541E+02 -0.60872309530E+02  0.11992162994E+03  0.77000000000E+02 0.  0.
<mgrwt>
<rscale>  0 0.28974584E+03</rscale>
<asrwt>0</asrwt>
<pdfrwt beam="1">  1        2 0.16352216E-01 0.28974584E+03</pdfrwt>
<pdfrwt beam="2">  1       -2 0.30378833E-01 0.28974584E+03</pdfrwt>
<totfact> 0.35041413E+03</totfact>
</mgrwt>
</event>
<event>
 4    1  0.6207184E-004  0.2901705E+03  0.7818608E-02  0.1090260E+00
          2   -1    0    0  501    0  0.00000000000E+00  0.00000000000E+00  0.25444720826E+03  0.25444720827E+03  0.25500000000E-02 0. -1.
         -2   -1    0    0    0  501 -0.00000000000E+00 -0.00000000000E+00 -0.82727307992E+02  0.82727308032E+02  0.25500000000E-02 0.  1.
    5000001    1    1    2    0    0 -0.77663485401E+02 -0.78416444224E+02  0.22855182520E+02  0.13649950570E+03  0.77000000000E+02 0.  0.
   -5000001    1    1    2    0    0  0.77663485401E+02  0.78416444224E+02  0.14886471775E+03  0.20067501060E+03  0.77000000000E+02 0.  0.
<mgrwt>
<rscale>  0 0.29017052E+03</rscale>
<asrwt>0</asrwt>
<pdfrwt beam="1">  1        2 0.39145724E-01 0.29017052E+03</pdfrwt>
<pdfrwt beam="2">  1       -2 0.12727278E-01 0.29017052E+03</pdfrwt>
<totfact> 0.58490517E+03</totfact>
</mgrwt>
</event>
<event>
 4    1  0.6207184E-004  0.1685673E+03  0.7818608E-02  0.1179350E+00
         -2   -1    0    0    0  501 -0.00000000000E+00  0.00000000000E+00  0.43321100803E+02  0.43321100878E+02  0.25500000000E-02 0. -1.
          2   -1    0    0  501    0  0.00000000000E+00 -0.00000000000E+00 -0.16397855599E+03  0.16397855601E+03  0.25500000000E-02 0.  1.
    5000001    1    1    2    0    0  0.26333237248E+02 -0.19222753384E+02 -0.47326931482E+02  0.96082215186E+02  0.77000000000E+02 0.  0.
   -5000001    1    1    2    0    0 -0.26333237248E+02  0.19222753384E+02 -0.73330523702E+02  0.11121744170E+03  0.77000000000E+02 0.  0.
<mgrwt>
<rscale>  0 0.16856728E+03</rscale>
<asrwt>0</asrwt>
<pdfrwt beam="1">  1        2 0.25227470E-01 0.16856728E+03</pdfrwt>
<pdfrwt beam="2">  1       -2 0.66647849E-02 0.16856728E+03</pdfrwt>
<totfact> 0.25328345E+04</totfact>
</mgrwt>
</event>
<event>
 4    1  0.6207184E-004  0.2610512E+03  0.7818608E-02  0.1106513E+00
          2   -1    0    0  501    0  0.00000000000E+00  0.00000000000E+00  0.22789028481E+03  0.22789028482E+03  0.25500000000E-02 0.  1.
         -2   -1    0    0    0  501 -0.00000000000E+00 -0.00000000000E+00 -0.74759374820E+02  0.74759374864E+02  0.25500000000E-02 0. -1.
    5000001    1    1    2    0    0 -0.26938159693E+02  0.99362702420E+02  0.10272990392E+03  0.16456319224E+03  0.77000000000E+02 0.  0.
   -5000001    1    1    2    0    0  0.26938159693E+02 -0.99362702420E+02  0.50401006069E+02  0.13808646745E+03  0.77000000000E+02 0.  0.
<mgrwt>
<rscale>  0 0.26105122E+03</rscale>
<asrwt>0</asrwt>
<pdfrwt beam="1">  1        2 0.35060043E-01 0.26105122E+03</pdfrwt>
<pdfrwt beam="2">  1       -2 0.11501442E-01 0.26105122E+03</pdfrwt>
<totfact> 0.77326105E+03</totfact>
</mgrwt>
</event>
<event>
 4    1  0.6207184E-004  0.2692491E+03  0.7818608E-02  0.1101710E+00
          2   -1    0    0  501    0  0.00000000000E+00  0.00000000000E+00  0.14755984764E+03  0.14755984766E+03  0.25500000000E-02 0.  1.
         -2   -1    0    0    0  501 -0.00000000000E+00 -0.00000000000E+00 -0.12282320127E+03  0.12282320129E+03  0.25500000000E-02 0. -1.
    5000001    1    1    2    0    0  0.56888591074E+02  0.55153167143E+02 -0.64874985669E+02  0.12812473378E+03  0.77000000000E+02 0.  0.
   -5000001    1    1    2    0    0 -0.56888591074E+02 -0.55153167143E+02  0.89611632038E+02  0.14225831518E+03  0.77000000000E+02 0.  0.
<mgrwt>
<rscale>  0 0.26924913E+03</rscale>
<asrwt>0</asrwt>
<pdfrwt beam="1">  1        2 0.22701515E-01 0.26924913E+03</pdfrwt>
<pdfrwt beam="2">  1       -2 0.18895877E-01 0.26924913E+03</pdfrwt>
<totfact> 0.55165247E+03</totfact>
</mgrwt>
</event>
<event>
 4    1  0.6207184E-004  0.3684425E+03  0.7818608E-02  0.1055290E+00
         -2   -1    0    0    0  501 -0.00000000000E+00  0.00000000000E+00  0.11734425085E+02  0.11734425362E+02  0.25500000000E-02 0. -1.
          2   -1    0    0  501    0  0.00000000000E+00 -0.00000000000E+00 -0.28921294754E+04  0.28921294754E+04  0.25500000000E-02 0.  1.
    5000001    1    1    2    0    0  0.83505745317E+01  0.10663829377E+03 -0.24546429182E+04  0.24581786578E+04  0.77000000000E+02 0.  0.
   -5000001    1    1    2    0    0 -0.83505745317E+01 -0.10663829377E+03 -0.42575213211E+03  0.44568524296E+03  0.77000000000E+02 0.  0.
<mgrwt>
<rscale>  0 0.36844254E+03</rscale>
<asrwt>0</asrwt>
<pdfrwt beam="1">  1        2 0.44494243E+00 0.36844254E+03</pdfrwt>
<pdfrwt beam="2">  1       -2 0.18052985E-02 0.36844254E+03</pdfrwt>
<totfact> 0.21453327E+03</totfact>
</mgrwt>
</event>
<event>
 4    1  0.6207184E-004  0.6928601E+03  0.7818608E-02  0.9729521E-01
         -2   -1    0    0    0  501 -0.00000000000E+00  0.00000000000E+00  0.96252371881E+03  0.96252371881E+03  0.25500000000E-02 0. -1.
          2   -1    0    0  501    0  0.00000000000E+00 -0.00000000000E+00 -0.12468658608E+03  0.12468658611E+03  0.25500000000E-02 0.  1.
    5000001    1    1    2    0    0 -0.27554988823E+03 -0.18831845946E+03  0.33748501683E+03  0.48084999705E+03  0.77000000000E+02 0.  0.
   -5000001    1    1    2    0    0  0.27554988823E+03  0.18831845946E+03  0.50035211589E+03  0.60636030787E+03  0.77000000000E+02 0.  0.
<mgrwt>
<rscale>  0 0.69286015E+03</rscale>
<asrwt>0</asrwt>
<pdfrwt beam="1">  1        2 0.19182552E-01 0.69286015E+03</pdfrwt>
<pdfrwt beam="2">  1       -2 0.14808057E+00 0.69286015E+03</pdfrwt>
<totfact> 0.93765421E+01</totfact>
</mgrwt>
</event>
<event>
 4    1  0.6207184E-004  0.3529475E+03  0.7818608E-02  0.1061412E+00
         -2   -1    0    0    0  501 -0.00000000000E+00  0.00000000000E+00  0.81445330853E+02  0.81445330893E+02  0.25500000000E-02 0. -1.
          2   -1    0    0  501    0  0.00000000000E+00 -0.00000000000E+00 -0.38237909985E+03  0.38237909986E+03  0.25500000000E-02 0.  1.
    5000001    1    1    2    0    0 -0.11612978528E+03  0.10829334928E+03 -0.15131425890E+03  0.23246200007E+03  0.77000000000E+02 0.  0.
   -5000001    1    1    2    0    0  0.11612978528E+03 -0.10829334928E+03 -0.14961951009E+03  0.23136243068E+03  0.77000000000E+02 0.  0.
<mgrwt>
<rscale>  0 0.35294754E+03</rscale>
<asrwt>0</asrwt>
<pdfrwt beam="1">  1        2 0.58827553E-01 0.35294754E+03</pdfrwt>
<pdfrwt beam="2">  1       -2 0.12530051E-01 0.35294754E+03</pdfrwt>
<totfact> 0.38790012E+03</totfact>
</mgrwt>
</event>
<event>
 4    1  0.6207184E-004  0.3608380E+03  0.7818608E-02  0.1058253E+00
         -2   -1    0    0    0  501 -0.00000000000E+00  0.00000000000E+00  0.38947441139E+02  0.38947441223E+02  0.25500000000E-02 0. -1.
          2   -1    0    0  501    0  0.00000000000E+00 -0.00000000000E+00 -0.83576788321E+03  0.83576788321E+03  0.25500000000E-02 0.  1.
    5000001    1    1    2    0    0  0.64968069603E+02  0.12871604023E+03 -0.58355586761E+03  0.60601577513E+03  0.77000000000E+02 0.  0.
   -5000001    1    1    2    0    0 -0.64968069603E+02 -0.12871604023E+03 -0.21326457445E+03  0.26869954930E+03  0.77000000000E+02 0.  0.
<mgrwt>
<rscale>  0 0.36083803E+03</rscale>
<asrwt>0</asrwt>
<pdfrwt beam="1">  1        2 0.12857966E+00 0.36083803E+03</pdfrwt>
<pdfrwt beam="2">  1       -2 0.59919147E-02 0.36083803E+03</pdfrwt>
<totfact> 0.49940947E+03</totfact>
</mgrwt>
</event>
<event>
 4    1  0.6207184E-004  0.2222479E+03  0.7818608E-02  0.1132218E+00
          2   -1    0    0  501    0  0.00000000000E+00  0.00000000000E+00  0.21658200760E+03  0.21658200761E+03  0.25500000000E-02 0.  1.
         -2   -1    0    0    0  501 -0.00000000000E+00 -0.00000000000E+00 -0.57015488423E+02  0.57015488480E+02  0.25500000000E-02 0. -1.
    5000001    1    1    2    0    0 -0.12350316267E+01  0.16299793932E+02  0.17634253138E+03  0.19311368921E+03  0.77000000000E+02 0.  0.
   -5000001    1    1    2    0    0  0.12350316267E+01 -0.16299793932E+02 -0.16776012206E+02  0.80483806886E+02  0.77000000000E+02 0.  0.
<mgrwt>
<rscale>  0 0.22224787E+03</rscale>
<asrwt>0</asrwt>
<pdfrwt beam="1">  1        2 0.33320308E-01 0.22224787E+03</pdfrwt>
<pdfrwt beam="2">  1       -2 0.87716137E-02 0.22224787E+03</pdfrwt>
<totfact> 0.12460358E+04</totfact>
</mgrwt>
</event>
<event>
 4    1  0.6207184E-004  0.2954402E+03  0.7818608E-02  0.1087542E+00
          2   -1    0    0  501    0  0.00000000000E+00  0.00000000000E+00  0.29614129782E+03  0.29614129783E+03  0.25500000000E-02 0.  1.
         -2   -1    0    0    0  501 -0.00000000000E+00 -0.00000000000E+00 -0.73685205703E+02  0.73685205747E+02  0.25500000000E-02 0. -1.
    5000001    1    1    2    0    0 -0.37970775918E+02 -0.12020586088E+03  0.10997398660E+03  0.18415891654E+03  0.77000000000E+02 0.  0.
   -5000001    1    1    2    0    0  0.37970775918E+02  0.12020586088E+03  0.11248210552E+03  0.18566758704E+03  0.77000000000E+02 0.  0.
<mgrwt>
<rscale>  0 0.29544023E+03</rscale>
<asrwt>0</asrwt>
<pdfrwt beam="1">  1        2 0.45560199E-01 0.29544023E+03</pdfrwt>
<pdfrwt beam="2">  1       -2 0.11336186E-01 0.29544023E+03</pdfrwt>
<totfact> 0.59917147E+03</totfact>
</mgrwt>
</event>
<event>
 4    1  0.6207184E-004  0.2161391E+03  0.7818608E-02  0.1136795E+00
          2   -1    0    0  501    0  0.00000000000E+00  0.00000000000E+00  0.10727784107E+04  0.10727784107E+04  0.25500000000E-02 0.  1.
         -2   -1    0    0    0  501 -0.00000000000E+00 -0.00000000000E+00 -0.10886710278E+02  0.10886710577E+02  0.25500000000E-02 0. -1.
    5000001    1    1    2    0    0 -0.56655933812E+02 -0.42540489220E+01  0.27915647233E+03  0.29510223281E+03  0.77000000000E+02 0.  0.
   -5000001    1    1    2    0    0  0.56655933812E+02  0.42540489220E+01  0.78273522806E+03  0.78856288843E+03  0.77000000000E+02 0.  0.
<mgrwt>
<rscale>  0 0.21613910E+03</rscale>
<asrwt>0</asrwt>
<pdfrwt beam="1">  1        2 0.16504282E+00 0.21613910E+03</pdfrwt>
<pdfrwt beam="2">  1       -2 0.16748787E-02 0.21613910E+03</pdfrwt>
<totfact> 0.23426497E+04</totfact>
</mgrwt>
</event>
<event>
 4    1  0.6207184E-004  0.2891551E+03  0.7818608E-02  0.1090791E+00
          2   -1    0    0  501    0  0.00000000000E+00  0.00000000000E+00  0.58587691562E+03  0.58587691562E+03  0.25500000000E-02 0.  1.
         -2   -1    0    0    0  501 -0.00000000000E+00 -0.00000000000E+00 -0.35677585531E+02  0.35677585622E+02  0.25500000000E-02 0. -1.
    5000001    1    1    2    0    0 -0.69017775621E+02 -0.94554492064E+02  0.35169343872E+03  0.37857797104E+03  0.77000000000E+02 0.  0.
   -5000001    1    1    2    0    0  0.69017775621E+02  0.94554492064E+02  0.19850589137E+03  0.24297653020E+03  0.77000000000E+02 0.  0.
<mgrwt>
<rscale>  0 0.28915514E+03</rscale>
<asrwt>0</asrwt>
<pdfrwt beam="1">  1        2 0.90134913E-01 0.28915514E+03</pdfrwt>
<pdfrwt beam="2">  1       -2 0.54888591E-02 0.28915514E+03</pdfrwt>
<totfact> 0.87854205E+03</totfact>
</mgrwt>
</event>
<event>
 4    1  0.6207184E-004  0.2373616E+03  0.7818608E-02  0.1121563E+00
         -2   -1    0    0    0  501 -0.00000000000E+00  0.00000000000E+00  0.69690739565E+01  0.69690744230E+01  0.25500000000E-02 0. -1.
          2   -1    0    0  501    0  0.00000000000E+00 -0.00000000000E+00 -0.20210916232E+04  0.20210916232E+04  0.25500000000E-02 0.  1.
    5000001    1    1    2    0    0  0.58411622591E+02 -0.15383192237E+01 -0.15954230763E+04  0.15983485466E+04  0.77000000000E+02 0.  0.
   -5000001    1    1    2    0    0 -0.58411622591E+02  0.15383192237E+01 -0.41869947288E+03  0.42971215095E+03  0.77000000000E+02 0.  0.
<mgrwt>
<rscale>  0 0.23736164E+03</rscale>
<asrwt>0</asrwt>
<pdfrwt beam="1">  1        2 0.31093671E+00 0.23736164E+03</pdfrwt>
<pdfrwt beam="2">  1       -2 0.10721669E-02 0.23736164E+03</pdfrwt>
<totfact> 0.13899970E+04</totfact>
</mgrwt>
</event>
<event>
 4    1  0.6207184E-004  0.5344945E+03  0.7818608E-02  0.1005148E+00
         -2   -1    0    0    0  501 -0.00000000000E+00  0.00000000000E+00  0.28074264724E+03  0.28074264725E+03  0.25500000000E-02 0. -1.
          2   -1    0    0  501    0  0.00000000000E+00 -0.00000000000E+00 -0.25440060646E+03  0.25440060647E+03  0.25500000000E-02 0.  1.
    5000001    1    1    2    0    0  0.78808766413E+02 -0.22345257145E+02  0.25591521485E+03  0.27952053480E+03  0.77000000000E+02 0.  0.
   -5000001    1    1    2    0    0 -0.78808766413E+02  0.22345257145E+02 -0.22957317407E+03  0.25562271893E+03  0.77000000000E+02 0.  0.
<mgrwt>
<rscale>  0 0.53449453E+03</rscale>
<asrwt>0</asrwt>
<pdfrwt beam="1">  1        2 0.39138555E-01 0.53449453E+03</pdfrwt>
<pdfrwt beam="2">  1       -2 0.43191176E-01 0.53449453E+03</pdfrwt>
<totfact> 0.67474493E+02</totfact>
</mgrwt>
</event>
<event>
 4    1  0.6207184E-004  0.2326923E+03  0.7818608E-02  0.1124759E+00
         -2   -1    0    0    0  501 -0.00000000000E+00  0.00000000000E+00  0.55388058588E+02  0.55388058647E+02  0.25500000000E-02 0. -1.
          2   -1    0    0  501    0  0.00000000000E+00 -0.00000000000E+00 -0.24439243879E+03  0.24439243881E+03  0.25500000000E-02 0.  1.
    5000001    1    1    2    0    0 -0.74958496137E+02  0.43414761305E+02 -0.81376240141E+02  0.14161465356E+03  0.77000000000E+02 0.  0.
   -5000001    1    1    2    0    0  0.74958496137E+02 -0.43414761305E+02 -0.10762814006E+03  0.15816584390E+03  0.77000000000E+02 0.  0.
<mgrwt>
<rscale>  0 0.23269227E+03</rscale>
<asrwt>0</asrwt>
<pdfrwt beam="1">  1        2 0.37598836E-01 0.23269227E+03</pdfrwt>
<pdfrwt beam="2">  1       -2 0.85212399E-02 0.23269227E+03</pdfrwt>
<totfact> 0.11472217E+04</totfact>
</mgrwt>
</event>
<event>
 4    1  0.6207184E-004  0.2276229E+03  0.7818608E-02  0.1128324E+00
         -2   -1    0    0    0  501 -0.00000000000E+00  0.00000000000E+00  0.37271499037E+02  0.37271499124E+02  0.25500000000E-02 0. -1.
          2   -1    0    0  501    0  0.00000000000E+00 -0.00000000000E+00 -0.34753212509E+03  0.34753212510E+03  0.25500000000E-02 0.  1.
    5000001    1    1    2    0    0 -0.61059503896E+02  0.32608378904E+02 -0.75254288045E+02  0.12799912992E+03  0.77000000000E+02 0.  0.
   -5000001    1    1    2    0    0  0.61059503896E+02 -0.32608378904E+02 -0.23500633801E+03  0.25680449430E+03  0.77000000000E+02 0.  0.
<mgrwt>
<rscale>  0 0.22762287E+03</rscale>
<asrwt>0</asrwt>
<pdfrwt beam="1">  1        2 0.53466479E-01 0.22762287E+03</pdfrwt>
<pdfrwt beam="2">  1       -2 0.57340770E-02 0.22762287E+03</pdfrwt>
<totfact> 0.14477894E+04</totfact>
</mgrwt>
</event>
<event>
 4    1  0.6207184E-004  0.1944824E+03  0.7818608E-02  0.1154480E+00
          2   -1    0    0  501    0  0.00000000000E+00  0.00000000000E+00  0.16063982768E+03  0.16063982770E+03  0.25500000000E-02 0.  1.
         -2   -1    0    0    0  501 -0.00000000000E+00 -0.00000000000E+00 -0.58863682373E+02  0.58863682429E+02  0.25500000000E-02 0. -1.
    5000001    1    1    2    0    0 -0.21689310623E+02  0.27867933132E+02  0.10477828469E+03  0.13473877258E+03  0.77000000000E+02 0.  0.
   -5000001    1    1    2    0    0  0.21689310623E+02 -0.27867933132E+02 -0.30021393800E+01  0.84764737558E+02  0.77000000000E+02 0.  0.
<mgrwt>
<rscale>  0 0.19448241E+03</rscale>
<asrwt>0</asrwt>
<pdfrwt beam="1">  1        2 0.24713820E-01 0.19448241E+03</pdfrwt>
<pdfrwt beam="2">  1       -2 0.90559512E-02 0.19448241E+03</pdfrwt>
<totfact> 0.16306760E+04</totfact>
</mgrwt>
</event>
<event>
 4    1  0.6207184E-004  0.3158163E+03  0.7818608E-02  0.1077591E+00
          2   -1    0    0  501    0  0.00000000000E+00  0.00000000000E+00  0.94427615582E+02  0.94427615616E+02  0.25500000000E-02 0. -1.
         -2   -1    0    0    0  501 -0.00000000000E+00 -0.00000000000E+00 -0.26406444735E+03  0.26406444736E+03  0.25500000000E-02 0.  1.
    5000001    1    1    2    0    0 -0.12185365760E+02  0.13725872076E+03 -0.89571958436E+02  0.18149538644E+03  0.77000000000E+02 0.  0.
   -5000001    1    1    2    0    0  0.12185365760E+02 -0.13725872076E+03 -0.80064873331E+02  0.17699667653E+03  0.77000000000E+02 0.  0.
<mgrwt>
<rscale>  0 0.31581625E+03</rscale>
<asrwt>0</asrwt>
<pdfrwt beam="1">  1        2 0.14527326E-01 0.31581625E+03</pdfrwt>
<pdfrwt beam="2">  1       -2 0.40625299E-01 0.31581625E+03</pdfrwt>
<totfact> 0.23459423E+03</totfact>
</mgrwt>
</event>
<event>
 4    1  0.6207184E-004  0.5226718E+03  0.7818608E-02  0.1008025E+00
         -2   -1    0    0    0  501 -0.00000000000E+00  0.00000000000E+00  0.29402291178E+03  0.29402291179E+03  0.25500000000E-02 0. -1.
          2   -1    0    0  501    0  0.00000000000E+00 -0.00000000000E+00 -0.23228277110E+03  0.23228277112E+03  0.25500000000E-02 0.  1.
    5000001    1    1    2    0    0  0.23782518656E+03 -0.82126273169E+01  0.10715421533E+03  0.27210162159E+03  0.77000000000E+02 0.  0.
   -5000001    1    1    2    0    0 -0.23782518656E+03  0.82126273169E+01 -0.45414074653E+02  0.25420406131E+03  0.77000000000E+02 0.  0.
<mgrwt>
<rscale>  0 0.52267182E+03</rscale>
<asrwt>0</asrwt>
<pdfrwt beam="1">  1        2 0.35735811E-01 0.52267182E+03</pdfrwt>
<pdfrwt beam="2">  1       -2 0.45234294E-01 0.52267182E+03</pdfrwt>
<totfact> 0.68117515E+02</totfact>
</mgrwt>
</event>
<event>
 4    1  0.6207184E-004  0.2181424E+03  0.7818608E-02  0.1135276E+00
         -2   -1    0    0    0  501 -0.00000000000E+00  0.00000000000E+00  0.99622704622E+01  0.99622707886E+01  0.25500000000E-02 0. -1.
          2   -1    0    0  501    0  0.00000000000E+00 -0.00000000000E+00 -0.11941576260E+04  0.11941576260E+04  0.25500000000E-02 0.  1.
    5000001    1    1    2    0    0  0.70732789671E+02 -0.22944320215E+02 -0.70761391580E+03  0.71566474218E+03  0.77000000000E+02 0.  0.
   -5000001    1    1    2    0    0 -0.70732789671E+02  0.22944320215E+02 -0.47658143974E+03  0.48845515462E+03  0.77000000000E+02 0.  0.
<mgrwt>
<rscale>  0 0.21814235E+03</rscale>
<asrwt>0</asrwt>
<pdfrwt beam="1">  1        2 0.18371644E+00 0.21814235E+03</pdfrwt>
<pdfrwt beam="2">  1       -2 0.15326580E-02 0.21814235E+03</pdfrwt>
<totfact> 0.22706854E+04</totfact>
</mgrwt>
</event>
<event>
 4    1  0.6207184E-004  0.3340352E+03  0.7818608E-02  0.1069365E+00
         -2   -1    0    0    0  501 -0.00000000000E+00  0.00000000000E+00  0.52840105147E+03  0.52840105148E+03  0.25500000000E-02 0. -1.
          2   -1    0    0  501    0  0.00000000000E+00 -0.00000000000E+00 -0.52791114882E+02  0.52791114943E+02  0.25500000000E-02 0.  1.
    5000001    1    1    2    0    0 -0.14579473114E+03  0.11388590456E+02  0.19589953555E+03  0.25630339766E+03  0.77000000000E+02 0.  0.
   -5000001    1    1    2    0    0  0.14579473114E+03 -0.11388590456E+02  0.27971040104E+03  0.32488876876E+03  0.77000000000E+02 0.  0.
<mgrwt>
<rscale>  0 0.33403521E+03</rscale>
<asrwt>0</asrwt>
<pdfrwt beam="1">  1        2 0.81217098E-02 0.33403521E+03</pdfrwt>
<pdfrwt beam="2">  1       -2 0.81292471E-01 0.33403521E+03</pdfrwt>
<totfact> 0.11517535E+03</totfact>
</mgrwt>
</event>
<event>
 4    1  0.6207184E-004  0.9836025E+03  0.7818608E-02  0.9326714E-01
         -2   -1    0    0    0  501 -0.00000000000E+00  0.00000000000E+00  0.34571276856E+03  0.34571276857E+03  0.25500000000E-02 0. -1.
          2   -1    0    0  501    0  0.00000000000E+00 -0.00000000000E+00 -0.69962259217E+03  0.69962259218E+03  0.25500000000E-02 0.  1.
    5000001    1    1    2    0    0 -0.31548655661E+03  0.83459707336E+02 -0.55931620434E+03  0.65212031603E+03  0.77000000000E+02 0.  0.
   -5000001    1    1    2    0    0  0.31548655661E+03 -0.83459707336E+02  0.20540638072E+03  0.39321504471E+03  0.77000000000E+02 0.  0.
<mgrwt>
<rscale>  0 0.98360249E+03</rscale>
<asrwt>0</asrwt>
<pdfrwt beam="1">  1        2 0.10763424E+00 0.98360249E+03</pdfrwt>
<pdfrwt beam="2">  1       -2 0.53186580E-01 0.98360249E+03</pdfrwt>
<totfact> 0.13658560E+02</totfact>
</mgrwt>
</event>
<event>
 4    1  0.6207184E-004  0.1726912E+03  0.7818608E-02  0.1175070E+00
         -2   -1    0    0    0  501 -0.00000000000E+00  0.00000000000E+00  0.41065592110E+01  0.41065600027E+01  0.25500000000E-02 0. -1.
          2   -1    0    0  501    0  0.00000000000E+00 -0.00000000000E+00 -0.18155241974E+04  0.18155241974E+04  0.25500000000E-02 0.  1.
    5000001    1    1    2    0    0 -0.47709337713E+01  0.38731369956E+02 -0.92591527343E+03  0.92993062881E+03  0.77000000000E+02 0.  0.
   -5000001    1    1    2    0    0  0.47709337713E+01 -0.38731369956E+02 -0.88550236478E+03  0.88970012861E+03  0.77000000000E+02 0.  0.
<mgrwt>
<rscale>  0 0.17269115E+03</rscale>
<asrwt>0</asrwt>
<pdfrwt beam="1">  1        2 0.27931077E+00 0.17269115E+03</pdfrwt>
<pdfrwt beam="2">  1       -2 0.63177985E-03 0.17269115E+03</pdfrwt>
<totfact> 0.37536036E+04</totfact>
</mgrwt>
</event>
<event>
 4    1  0.6207184E-004  0.2842719E+03  0.7818608E-02  0.1093378E+00
          2   -1    0    0  501    0  0.00000000000E+00  0.00000000000E+00  0.34261237669E+03  0.34261237670E+03  0.25500000000E-02 0.  1.
         -2   -1    0    0    0  501 -0.00000000000E+00 -0.00000000000E+00 -0.58966429696E+02  0.58966429751E+02  0.25500000000E-02 0. -1.
    5000001    1    1    2    0    0  0.93476452160E+02  0.68872619194E+02  0.10205864114E+03  0.17270278230E+03  0.77000000000E+02 0.  0.
   -5000001    1    1    2    0    0 -0.93476452160E+02 -0.68872619194E+02  0.18158730585E+03  0.22887602414E+03  0.77000000000E+02 0.  0.
<mgrwt>
<rscale>  0 0.28427190E+03</rscale>
<asrwt>0</asrwt>
<pdfrwt beam="1">  1        2 0.52709595E-01 0.28427190E+03</pdfrwt>
<pdfrwt beam="2">  1       -2 0.90717587E-02 0.28427190E+03</pdfrwt>
<totfact> 0.72938886E+03</totfact>
</mgrwt>
</event>
<event>
 4    1  0.6207184E-004  0.8573311E+03  0.7818608E-02  0.9480550E-01
         -2   -1    0    0    0  501 -0.00000000000E+00  0.00000000000E+00  0.10204604721E+03  0.10204604724E+03  0.25500000000E-02 0. -1.
          2   -1    0    0  501    0  0.00000000000E+00 -0.00000000000E+00 -0.18006984615E+04  0.18006984615E+04  0.25500000000E-02 0.  1.
    5000001    1    1    2    0    0  0.26100261486E+03 -0.32323932729E+03 -0.10096622112E+04  0.10945103053E+04  0.77000000000E+02 0.  0.
   -5000001    1    1    2    0    0 -0.26100261486E+03  0.32323932729E+03 -0.68899020306E+03  0.80823420342E+03  0.77000000000E+02 0.  0.
<mgrwt>
<rscale>  0 0.85733112E+03</rscale>
<asrwt>0</asrwt>
<pdfrwt beam="1">  1        2 0.27703051E+00 0.85733112E+03</pdfrwt>
<pdfrwt beam="2">  1       -2 0.15699393E-01 0.85733112E+03</pdfrwt>
<totfact> 0.28269410E+02</totfact>
</mgrwt>
</event>
<event>
 4    1  0.6207184E-004  0.2056995E+03  0.7818608E-02  0.1145018E+00
         -2   -1    0    0    0  501 -0.00000000000E+00  0.00000000000E+00  0.80728391264E+01  0.80728395291E+01  0.25500000000E-02 0. -1.
          2   -1    0    0  501    0  0.00000000000E+00 -0.00000000000E+00 -0.13103280675E+04  0.13103280675E+04  0.25500000000E-02 0.  1.
    5000001    1    1    2    0    0 -0.32841869716E+02  0.59413944780E+02 -0.61035750760E+03  0.61892963438E+03  0.77000000000E+02 0.  0.
   -5000001    1    1    2    0    0  0.32841869716E+02 -0.59413944780E+02 -0.69189772077E+03  0.69947127264E+03  0.77000000000E+02 0.  0.
<mgrwt>
<rscale>  0 0.20569947E+03</rscale>
<asrwt>0</asrwt>
<pdfrwt beam="1">  1        2 0.20158877E+00 0.20569947E+03</pdfrwt>
<pdfrwt beam="2">  1       -2 0.12419763E-02 0.20569947E+03</pdfrwt>
<totfact> 0.26477522E+04</totfact>
</mgrwt>
</event>
<event>
 4    1  0.6207184E-004  0.3152400E+03  0.7818608E-02  0.1077861E+00
          2   -1    0    0  501    0  0.00000000000E+00  0.00000000000E+00  0.84162030025E+03  0.84162030025E+03  0.25500000000E-02 0.  1.
         -2   -1    0    0    0  501 -0.00000000000E+00 -0.00000000000E+00 -0.29519328283E+02  0.29519328393E+02  0.25500000000E-02 0. -1.
    5000001    1    1    2    0    0  0.12510387826E+03 -0.57125483670E+02  0.40363388952E+03  0.43331699483E+03  0.77000000000E+02 0.  0.
   -5000001    1    1    2    0    0 -0.12510387826E+03  0.57125483670E+02  0.40846708245E+03  0.43782263382E+03  0.77000000000E+02 0.  0.
<mgrwt>
<rscale>  0 0.31524001E+03</rscale>
<asrwt>0</asrwt>
<pdfrwt beam="1">  1        2 0.12948006E+00 0.31524001E+03</pdfrwt>
<pdfrwt beam="2">  1       -2 0.45414347E-02 0.31524001E+03</pdfrwt>
<totfact> 0.75457248E+03</totfact>
</mgrwt>
</event>
<event>
 4    1  0.6207184E-004  0.1870744E+03  0.7818608E-02  0.1161127E+00
          2   -1    0    0  501    0  0.00000000000E+00  0.00000000000E+00  0.20561511463E+02  0.20561511621E+02  0.25500000000E-02 0.  1.
         -2   -1    0    0    0  501 -0.00000000000E+00 -0.00000000000E+00 -0.42551390938E+03  0.42551390939E+03  0.25500000000E-02 0. -1.
    5000001    1    1    2    0    0  0.36272883762E+02 -0.32845795183E+02 -0.15328181499E+03  0.17837848291E+03  0.77000000000E+02 0.  0.
   -5000001    1    1    2    0    0 -0.36272883762E+02  0.32845795183E+02 -0.25167058293E+03  0.26769693811E+03  0.77000000000E+02 0.  0.
<mgrwt>
<rscale>  0 0.18707441E+03</rscale>
<asrwt>0</asrwt>
<pdfrwt beam="1">  1        2 0.31633098E-02 0.18707441E+03</pdfrwt>
<pdfrwt beam="2">  1       -2 0.65463672E-01 0.18707441E+03</pdfrwt>
<totfact> 0.62202900E+03</totfact>
</mgrwt>
</event>
<event>
 4    1  0.6207184E-004  0.4581805E+03  0.7818608E-02  0.1025310E+00
         -2   -1    0    0    0  501 -0.00000000000E+00  0.00000000000E+00  0.79541596625E+02  0.79541596666E+02  0.25500000000E-02 0. -1.
          2   -1    0    0  501    0  0.00000000000E+00 -0.00000000000E+00 -0.65981015011E+03  0.65981015011E+03  0.25500000000E-02 0.  1.
    5000001    1    1    2    0    0 -0.56664181571E+02  0.16854699003E+03 -0.92933389236E+02  0.21490586813E+03  0.77000000000E+02 0.  0.
   -5000001    1    1    2    0    0  0.56664181571E+02 -0.16854699003E+03 -0.48733516425E+03  0.52444587865E+03  0.77000000000E+02 0.  0.
<mgrwt>
<rscale>  0 0.45818054E+03</rscale>
<asrwt>0</asrwt>
<pdfrwt beam="1">  1        2 0.10150925E+00 0.45818054E+03</pdfrwt>
<pdfrwt beam="2">  1       -2 0.12237169E-01 0.45818054E+03</pdfrwt>
<totfact> 0.21686767E+03</totfact>
</mgrwt>
</event>
<event>
 4    1  0.6207184E-004  0.1839328E+03  0.7818608E-02  0.1164050E+00
         -2   -1    0    0    0  501 -0.00000000000E+00  0.00000000000E+00  0.22348248778E+02  0.22348248924E+02  0.25500000000E-02 0. -1.
          2   -1    0    0  501    0  0.00000000000E+00 -0.00000000000E+00 -0.37845555324E+03  0.37845555325E+03  0.25500000000E-02 0.  1.
    5000001    1    1    2    0    0 -0.26123061368E+02  0.36323229937E+02 -0.12802839938E+03  0.15595532186E+03  0.77000000000E+02 0.  0.
   -5000001    1    1    2    0    0  0.26123061368E+02 -0.36323229937E+02 -0.22807890508E+03  0.24484848031E+03  0.77000000000E+02 0.  0.
<mgrwt>
<rscale>  0 0.18393280E+03</rscale>
<asrwt>0</asrwt>
<pdfrwt beam="1">  1        2 0.58223927E-01 0.18393280E+03</pdfrwt>
<pdfrwt beam="2">  1       -2 0.34381924E-02 0.18393280E+03</pdfrwt>
<totfact> 0.28088067E+04</totfact>
</mgrwt>
</event>
<event>
 4    1  0.6207184E-004  0.3166123E+03  0.7818608E-02  0.1077219E+00
         -2   -1    0    0    0  501 -0.00000000000E+00  0.00000000000E+00  0.55738270620E+03  0.55738270621E+03  0.25500000000E-02 0. -1.
          2   -1    0    0  501    0  0.00000000000E+00 -0.00000000000E+00 -0.44961628946E+02  0.44961629018E+02  0.25500000000E-02 0.  1.
    5000001    1    1    2    0    0 -0.16304540261E+02 -0.13734426841E+03  0.25924754625E+03  0.30375578403E+03  0.77000000000E+02 0.  0.
   -5000001    1    1    2    0    0  0.16304540261E+02  0.13734426841E+03  0.25317353101E+03  0.29858855119E+03  0.77000000000E+02 0.  0.
<mgrwt>
<rscale>  0 0.31661228E+03</rscale>
<asrwt>0</asrwt>
<pdfrwt beam="1">  1        2 0.69171734E-02 0.31661228E+03</pdfrwt>
<pdfrwt beam="2">  1       -2 0.85751189E-01 0.31661228E+03</pdfrwt>
<totfact> 0.12554999E+03</totfact>
</mgrwt>
</event>
<event>
 4    1  0.6207184E-004  0.1940909E+03  0.7818608E-02  0.1154822E+00
          2   -1    0    0  501    0  0.00000000000E+00  0.00000000000E+00  0.92501947720E+02  0.92501947755E+02  0.25500000000E-02 0.  1.
         -2   -1    0    0    0  501 -0.00000000000E+00 -0.00000000000E+00 -0.10181214747E+03  0.10181214750E+03  0.25500000000E-02 0. -1.
    5000001    1    1    2    0    0  0.49731550013E+02  0.16606100974E+02 -0.31886232992E+02  0.98461776902E+02  0.77000000000E+02 0.  0.
   -5000001    1    1    2    0    0 -0.49731550013E+02 -0.16606100974E+02  0.22576033245E+02  0.95852318351E+02  0.77000000000E+02 0.  0.
<mgrwt>
<rscale>  0 0.19409093E+03</rscale>
<asrwt>0</asrwt>
<pdfrwt beam="1">  1        2 0.14231069E-01 0.19409093E+03</pdfrwt>
<pdfrwt beam="2">  1       -2 0.15663407E-01 0.19409093E+03</pdfrwt>
<totfact> 0.12737816E+04</totfact>
</mgrwt>
</event>
<event>
 4    1  0.6207184E-004  0.1730260E+03  0.7818608E-02  0.1174728E+00
         -2   -1    0    0    0  501 -0.00000000000E+00  0.00000000000E+00  0.86267115193E+02  0.86267115230E+02  0.25500000000E-02 0. -1.
          2   -1    0    0  501    0  0.00000000000E+00 -0.00000000000E+00 -0.86759630795E+02  0.86759630833E+02  0.25500000000E-02 0.  1.
    5000001    1    1    2    0    0  0.28979889669E+02 -0.26510769380E+02  0.33381914123E+01  0.86503170001E+02  0.77000000000E+02 0.  0.
   -5000001    1    1    2    0    0 -0.28979889669E+02  0.26510769380E+02 -0.38307070152E+01  0.86523576062E+02  0.77000000000E+02 0.  0.
<mgrwt>
<rscale>  0 0.17302605E+03</rscale>
<asrwt>0</asrwt>
<pdfrwt beam="1">  1        2 0.13347635E-01 0.17302605E+03</pdfrwt>
<pdfrwt beam="2">  1       -2 0.13271864E-01 0.17302605E+03</pdfrwt>
<totfact> 0.17862681E+04</totfact>
</mgrwt>
</event>
<event>
 4    1  0.6207184E-004  0.2059463E+03  0.7818608E-02  0.1144817E+00
          2   -1    0    0  501    0  0.00000000000E+00  0.00000000000E+00  0.17124943316E+03  0.17124943318E+03  0.25500000000E-02 0.  1.
         -2   -1    0    0    0  501 -0.00000000000E+00 -0.00000000000E+00 -0.61918261713E+02  0.61918261766E+02  0.25500000000E-02 0. -1.
    5000001    1    1    2    0    0 -0.33317124674E+02 -0.58291199401E+02  0.40053369414E+02  0.10973225198E+03  0.77000000000E+02 0.  0.
   -5000001    1    1    2    0    0  0.33317124674E+02  0.58291199401E+02  0.69277802030E+02  0.12343544296E+03  0.77000000000E+02 0.  0.
<mgrwt>
<rscale>  0 0.20594628E+03</rscale>
<asrwt>0</asrwt>
<pdfrwt beam="1">  1        2 0.26346066E-01 0.20594628E+03</pdfrwt>
<pdfrwt beam="2">  1       -2 0.95258866E-02 0.20594628E+03</pdfrwt>
<totfact> 0.14084285E+04</totfact>
</mgrwt>
</event>
<event>
 4    1  0.6207184E-004  0.1936577E+03  0.7818608E-02  0.1155203E+00
          2   -1    0    0  501    0  0.00000000000E+00  0.00000000000E+00  0.53364481989E+03  0.53364481989E+03  0.25500000000E-02 0.  1.
         -2   -1    0    0    0  501 -0.00000000000E+00 -0.00000000000E+00 -0.17569410193E+02  0.17569410378E+02  0.25500000000E-02 0. -1.
    5000001    1    1    2    0    0  0.49674892907E+02 -0.31256907665E+02  0.26229345190E+03  0.27959156670E+03  0.77000000000E+02 0.  0.
   -5000001    1    1    2    0    0 -0.49674892907E+02  0.31256907665E+02  0.25378195780E+03  0.27162266357E+03  0.77000000000E+02 0.  0.
<mgrwt>
<rscale>  0 0.19365769E+03</rscale>
<asrwt>0</asrwt>
<pdfrwt beam="1">  1        2 0.82099190E-01 0.19365769E+03</pdfrwt>
<pdfrwt beam="2">  1       -2 0.27029866E-02 0.19365769E+03</pdfrwt>
<totfact> 0.27654520E+04</totfact>
</mgrwt>
</event>
<event>
 4    1  0.6207184E-004  0.3001263E+03  0.7818608E-02  0.1085178E+00
         -2   -1    0    0    0  501 -0.00000000000E+00  0.00000000000E+00  0.15223959826E+03  0.15223959828E+03  0.25500000000E-02 0.  1.
          2   -1    0    0  501    0  0.00000000000E+00 -0.00000000000E+00 -0.14791778896E+03  0.14791778898E+03  0.25500000000E-02 0. -1.
    5000001    1    1    2    0    0  0.12434575919E+03  0.27244710074E+02 -0.17482993088E+02  0.14979585142E+03  0.77000000000E+02 0.  0.
   -5000001    1    1    2    0    0 -0.12434575919E+03 -0.27244710074E+02  0.21804802387E+02  0.15036153585E+03  0.77000000000E+02 0.  0.
<mgrwt>
<rscale>  0 0.30012627E+03</rscale>
<asrwt>0</asrwt>
<pdfrwt beam="1">  1        2 0.22756583E-01 0.30012627E+03</pdfrwt>
<pdfrwt beam="2">  1       -2 0.23421477E-01 0.30012627E+03</pdfrwt>
<totfact> 0.38125708E+03</totfact>
</mgrwt>
</event>
<event>
 4    1  0.6207184E-004  0.2399019E+03  0.7818608E-02  0.1119858E+00
          2   -1    0    0  501    0  0.00000000000E+00  0.00000000000E+00  0.24387597432E+02  0.24387597565E+02  0.25500000000E-02 0.  1.
         -2   -1    0    0    0  501 -0.00000000000E+00 -0.00000000000E+00 -0.58998159735E+03  0.58998159735E+03  0.25500000000E-02 0. -1.
    5000001    1    1    2    0    0  0.30511755844E+02 -0.86318676517E+02 -0.26027364560E+03  0.28644938777E+03  0.77000000000E+02 0.  0.
   -5000001    1    1    2    0    0 -0.30511755844E+02  0.86318676517E+02 -0.30532035431E+03  0.32791980715E+03  0.77000000000E+02 0.  0.
<mgrwt>
<rscale>  0 0.23990193E+03</rscale>
<asrwt>0</asrwt>
<pdfrwt beam="1">  1        2 0.37519385E-02 0.23990193E+03</pdfrwt>
<pdfrwt beam="2">  1       -2 0.90766389E-01 0.23990193E+03</pdfrwt>
<totfact> 0.24577590E+03</totfact>
</mgrwt>
</event>
<event>
 4    1  0.6207184E-004  0.2743575E+03  0.7818608E-02  0.1098811E+00
          2   -1    0    0  501    0  0.00000000000E+00  0.00000000000E+00  0.10362818424E+04  0.10362818424E+04  0.25500000000E-02 0.  1.
         -2   -1    0    0    0  501 -0.00000000000E+00 -0.00000000000E+00 -0.18159156005E+02  0.18159156184E+02  0.25500000000E-02 0. -1.
    5000001    1    1    2    0    0  0.81770520520E+02 -0.24137060896E+02  0.79718121119E+03  0.80541659979E+03  0.77000000000E+02 0.  0.
   -5000001    1    1    2    0    0 -0.81770520520E+02  0.24137060896E+02  0.22094147523E+03  0.24902439883E+03  0.77000000000E+02 0.  0.
<mgrwt>
<rscale>  0 0.27435746E+03</rscale>
<asrwt>0</asrwt>
<pdfrwt beam="1">  1        2 0.15942793E+00 0.27435746E+03</pdfrwt>
<pdfrwt beam="2">  1       -2 0.27937171E-02 0.27435746E+03</pdfrwt>
<totfact> 0.11723874E+04</totfact>
</mgrwt>
</event>
<event>
 4    1  0.6207184E-004  0.2052598E+03  0.7818608E-02  0.1145376E+00
          2   -1    0    0  501    0  0.00000000000E+00  0.00000000000E+00  0.22284838340E+04  0.22284838340E+04  0.25500000000E-02 0.  1.
         -2   -1    0    0    0  501 -0.00000000000E+00 -0.00000000000E+00 -0.47264848866E+01  0.47264855744E+01  0.25500000000E-02 0. -1.
    5000001    1    1    2    0    0  0.22971122445E+02 -0.60115188302E+02  0.13458317849E+04  0.13495679685E+04  0.77000000000E+02 0.  0.
   -5000001    1    1    2    0    0 -0.22971122445E+02  0.60115188302E+02  0.87792556425E+03  0.88364235112E+03  0.77000000000E+02 0.  0.
<mgrwt>
<rscale>  0 0.20525980E+03</rscale>
<asrwt>0</asrwt>
<pdfrwt beam="1">  1        2 0.34284477E+00 0.20525980E+03</pdfrwt>
<pdfrwt beam="2">  1       -2 0.72714924E-03 0.20525980E+03</pdfrwt>
<totfact> 0.18865706E+04</totfact>
</mgrwt>
</event>
<event>
 4    1  0.6207184E-004  0.1971133E+03  0.7818608E-02  0.1152198E+00
          2   -1    0    0  501    0  0.00000000000E+00  0.00000000000E+00  0.13641148889E+04  0.13641148889E+04  0.25500000000E-02 0.  1.
         -2   -1    0    0    0  501 -0.00000000000E+00 -0.00000000000E+00 -0.71206740838E+01  0.71206745403E+01  0.25500000000E-02 0. -1.
    5000001    1    1    2    0    0 -0.42172925340E+02 -0.39045155194E+02  0.83112051492E+03  0.83665607635E+03  0.77000000000E+02 0.  0.
   -5000001    1    1    2    0    0  0.42172925340E+02  0.39045155194E+02  0.52587369991E+03  0.53457948711E+03  0.77000000000E+02 0.  0.
<mgrwt>
<rscale>  0 0.19711335E+03</rscale>
<asrwt>0</asrwt>
<pdfrwt beam="1">  1        2 0.20986392E+00 0.19711335E+03</pdfrwt>
<pdfrwt beam="2">  1       -2 0.10954879E-02 0.19711335E+03</pdfrwt>
<totfact> 0.29607393E+04</totfact>
</mgrwt>
</event>
<event>
 4    1  0.6207184E-004  0.4167934E+03  0.7818608E-02  0.1038115E+00
          2   -1    0    0  501    0  0.00000000000E+00  0.00000000000E+00  0.10905401126E+04  0.10905401126E+04  0.25500000000E-02 0.  1.
         -2   -1    0    0    0  501 -0.00000000000E+00 -0.00000000000E+00 -0.39823549810E+02  0.39823549891E+02  0.25500000000E-02 0. -1.
    5000001    1    1    2    0    0 -0.10030835910E+03  0.12893591423E+03  0.80738444248E+03  0.82733601085E+03  0.77000000000E+02 0.  0.
   -5000001    1    1    2    0    0  0.10030835910E+03 -0.12893591423E+03  0.24333212027E+03  0.30302765161E+03  0.77000000000E+02 0.  0.
<mgrwt>
<rscale>  0 0.41679337E+03</rscale>
<asrwt>0</asrwt>
<pdfrwt beam="1">  1        2 0.16777541E+00 0.41679337E+03</pdfrwt>
<pdfrwt beam="2">  1       -2 0.61266997E-02 0.41679337E+03</pdfrwt>
<totfact> 0.33272800E+03</totfact>
</mgrwt>
</event>
<event>
 4    1  0.6207184E-004  0.2239839E+03  0.7818608E-02  0.1130947E+00
         -2   -1    0    0    0  501 -0.00000000000E+00  0.00000000000E+00  0.30851432210E+02  0.30851432315E+02  0.25500000000E-02 0. -1.
          2   -1    0    0  501    0  0.00000000000E+00 -0.00000000000E+00 -0.40653527312E+03  0.40653527313E+03  0.25500000000E-02 0.  1.
    5000001    1    1    2    0    0  0.65787346687E+02  0.10162572501E+02 -0.27905780195E+03  0.29704125925E+03  0.77000000000E+02 0.  0.
   -5000001    1    1    2    0    0 -0.65787346687E+02 -0.10162572501E+02 -0.96626038962E+02  0.14034544620E+03  0.77000000000E+02 0.  0.
<mgrwt>
<rscale>  0 0.22398389E+03</rscale>
<asrwt>0</asrwt>
<pdfrwt beam="1">  1        2 0.62543884E-01 0.22398389E+03</pdfrwt>
<pdfrwt beam="2">  1       -2 0.47463745E-02 0.22398389E+03</pdfrwt>
<totfact> 0.16273068E+04</totfact>
</mgrwt>
</event>
<event>
 4    1  0.6207184E-004  0.6609003E+03  0.7818608E-02  0.9786538E-01
          2   -1    0    0  501    0  0.00000000000E+00  0.00000000000E+00  0.21888678898E+04  0.21888678898E+04  0.25500000000E-02 0.  1.
         -2   -1    0    0    0  501 -0.00000000000E+00 -0.00000000000E+00 -0.49887573115E+02  0.49887573180E+02  0.25500000000E-02 0. -1.
    5000001    1    1    2    0    0  0.83756328131E+02  0.19779618494E+03  0.18791493581E+04  0.18929526575E+04  0.77000000000E+02 0.  0.
   -5000001    1    1    2    0    0 -0.83756328131E+02 -0.19779618494E+03  0.25983095859E+03  0.34580280554E+03  0.77000000000E+02 0.  0.
<mgrwt>
<rscale>  0 0.66090032E+03</rscale>
<asrwt>0</asrwt>
<pdfrwt beam="1">  1        2 0.33674895E+00 0.66090032E+03</pdfrwt>
<pdfrwt beam="2">  1       -2 0.76750102E-02 0.66090032E+03</pdfrwt>
<totfact> 0.57038889E+02</totfact>
</mgrwt>
</event>
<event>
 4    1  0.6207184E-004  0.3571635E+03  0.7818608E-02  0.1059713E+00
         -2   -1    0    0    0  501 -0.00000000000E+00  0.00000000000E+00  0.58970903532E+02  0.58970903587E+02  0.25500000000E-02 0. -1.
          2   -1    0    0  501    0  0.00000000000E+00 -0.00000000000E+00 -0.54079945525E+03  0.54079945526E+03  0.25500000000E-02 0.  1.
    5000001    1    1    2    0    0 -0.15893608864E+03  0.26367252403E+02 -0.24520223034E+03  0.30332992934E+03  0.77000000000E+02 0.  0.
   -5000001    1    1    2    0    0  0.15893608864E+03 -0.26367252403E+02 -0.23662632138E+03  0.29644042950E+03  0.77000000000E+02 0.  0.
<mgrwt>
<rscale>  0 0.35716345E+03</rscale>
<asrwt>0</asrwt>
<pdfrwt beam="1">  1        2 0.83199913E-01 0.35716345E+03</pdfrwt>
<pdfrwt beam="2">  1       -2 0.90724471E-02 0.35716345E+03</pdfrwt>
<totfact> 0.44307008E+03</totfact>
</mgrwt>
</event>
<event>
 4    1  0.6207184E-004  0.2723243E+03  0.7818608E-02  0.1099957E+00
         -2   -1    0    0    0  501 -0.00000000000E+00  0.00000000000E+00  0.59463727115E+02  0.59463727169E+02  0.25500000000E-02 0. -1.
          2   -1    0    0  501    0  0.00000000000E+00 -0.00000000000E+00 -0.31178883720E+03  0.31178883721E+03  0.25500000000E-02 0.  1.
    5000001    1    1    2    0    0  0.64897584504E+02 -0.81797427120E+02 -0.18251395291E+03  0.22392601136E+03  0.77000000000E+02 0.  0.
   -5000001    1    1    2    0    0 -0.64897584504E+02  0.81797427120E+02 -0.69811157177E+02  0.14732655302E+03  0.77000000000E+02 0.  0.
<mgrwt>
<rscale>  0 0.27232427E+03</rscale>
<asrwt>0</asrwt>
<pdfrwt beam="1">  1        2 0.47967512E-01 0.27232427E+03</pdfrwt>
<pdfrwt beam="2">  1       -2 0.91482659E-02 0.27232427E+03</pdfrwt>
<totfact> 0.79546272E+03</totfact>
</mgrwt>
</event>
<event>
 4    1  0.6207184E-004  0.1643159E+03  0.7818608E-02  0.1183909E+00
         -2   -1    0    0    0  501 -0.00000000000E+00  0.00000000000E+00  0.15480411750E+02  0.15480411960E+02  0.25500000000E-02 0. -1.
          2   -1    0    0  501    0  0.00000000000E+00 -0.00000000000E+00 -0.43603036785E+03  0.43603036786E+03  0.25500000000E-02 0.  1.
    5000001    1    1    2    0    0  0.56109004220E+01  0.26691753936E+02 -0.23438666035E+03  0.24821369519E+03  0.77000000000E+02 0.  0.
   -5000001    1    1    2    0    0 -0.56109004220E+01 -0.26691753936E+02 -0.18616329576E+03  0.20329708463E+03  0.77000000000E+02 0.  0.
<mgrwt>
<rscale>  0 0.16431591E+03</rscale>
<asrwt>0</asrwt>
<pdfrwt beam="1">  1        2 0.67081586E-01 0.16431591E+03</pdfrwt>
<pdfrwt beam="2">  1       -2 0.23816022E-02 0.16431591E+03</pdfrwt>
<totfact> 0.41014067E+04</totfact>
</mgrwt>
</event>
<event>
 4    1  0.6207184E-004  0.2398318E+03  0.7818608E-02  0.1119905E+00
         -2   -1    0    0    0  501 -0.00000000000E+00  0.00000000000E+00  0.10360485077E+02  0.10360485391E+02  0.25500000000E-02 0. -1.
          2   -1    0    0  501    0  0.00000000000E+00 -0.00000000000E+00 -0.13879487750E+04  0.13879487750E+04  0.25500000000E-02 0.  1.
    5000001    1    1    2    0    0  0.86254463237E+02 -0.30344674902E+02 -0.63342367137E+03  0.64460466891E+03  0.77000000000E+02 0.  0.
   -5000001    1    1    2    0    0 -0.86254463237E+02  0.30344674902E+02 -0.74416461852E+03  0.75370459145E+03  0.77000000000E+02 0.  0.
<mgrwt>
<rscale>  0 0.23983180E+03</rscale>
<asrwt>0</asrwt>
<pdfrwt beam="1">  1        2 0.21353043E+00 0.23983180E+03</pdfrwt>
<pdfrwt beam="2">  1       -2 0.15939219E-02 0.23983180E+03</pdfrwt>
<totfact> 0.16835213E+04</totfact>
</mgrwt>
</event>
<event>
 4    1  0.6207184E-004  0.6228331E+03  0.7818608E-02  0.9859135E-01
         -2   -1    0    0    0  501 -0.00000000000E+00  0.00000000000E+00  0.36382916447E+02  0.36382916536E+02  0.25500000000E-02 0.  1.
          2   -1    0    0  501    0  0.00000000000E+00 -0.00000000000E+00 -0.26655438022E+04  0.26655438022E+04  0.25500000000E-02 0. -1.
    5000001    1    1    2    0    0 -0.21872995168E+02 -0.28809292556E+03 -0.93700677035E+03  0.98355815759E+03  0.77000000000E+02 0.  0.
   -5000001    1    1    2    0    0  0.21872995168E+02  0.28809292556E+03 -0.16921541154E+04  0.17183685612E+04  0.77000000000E+02 0.  0.
<mgrwt>
<rscale>  0 0.62283307E+03</rscale>
<asrwt>0</asrwt>
<pdfrwt beam="1">  1        2 0.41008351E+00 0.62283307E+03</pdfrwt>
<pdfrwt beam="2">  1       -2 0.55973739E-02 0.62283307E+03</pdfrwt>
<totfact> 0.50885542E+02</totfact>
</mgrwt>
</event>
<event>
 4    1  0.6207184E-004  0.2740724E+03  0.7818608E-02  0.1098971E+00
          2   -1    0    0  501    0  0.00000000000E+00  0.00000000000E+00  0.13839562918E+04  0.13839562918E+04  0.25500000000E-02 0. -1.
         -2   -1    0    0    0  501 -0.00000000000E+00 -0.00000000000E+00 -0.13569009028E+02  0.13569009267E+02  0.25500000000E-02 0.  1.
    5000001    1    1    2    0    0  0.53296601021E+02 -0.78011530808E+02  0.36579270799E+03  0.38556404376E+03  0.77000000000E+02 0.  0.
   -5000001    1    1    2    0    0 -0.53296601021E+02  0.78011530808E+02  0.10045945747E+04  0.10119612573E+04  0.77000000000E+02 0.  0.
<mgrwt>
<rscale>  0 0.27407237E+03</rscale>
<asrwt>0</asrwt>
<pdfrwt beam="1">  1        2 0.21291644E+00 0.27407237E+03</pdfrwt>
<pdfrwt beam="2">  1       -2 0.20875390E-02 0.27407237E+03</pdfrwt>
<totfact> 0.11438844E+04</totfact>
</mgrwt>
</event>
<event>
 4    1  0.6207184E-004  0.2340597E+03  0.7818608E-02  0.1123815E+00
          2   -1    0    0  501    0  0.00000000000E+00  0.00000000000E+00  0.24467535293E+04  0.24467535293E+04  0.25500000000E-02 0.  1.
         -2   -1    0    0    0  501 -0.00000000000E+00 -0.00000000000E+00 -0.55976154822E+01  0.55976160630E+01  0.25500000000E-02 0. -1.
    5000001    1    1    2    0    0  0.28126848395E+02 -0.66594931913E+02  0.69242858759E+03  0.70043725877E+03  0.77000000000E+02 0.  0.
   -5000001    1    1    2    0    0 -0.28126848395E+02  0.66594931913E+02  0.17487273263E+04  0.17519138866E+04  0.77000000000E+02 0.  0.
<mgrwt>
<rscale>  0 0.23405970E+03</rscale>
<asrwt>0</asrwt>
<pdfrwt beam="1">  1        2 0.37642235E+00 0.23405970E+03</pdfrwt>
<pdfrwt beam="2">  1       -2 0.86117457E-03 0.23405970E+03</pdfrwt>
<totfact> 0.11336657E+04</totfact>
</mgrwt>
</event>
