<event>
 4    1  0.5399378E-005  0.6363608E+03  0.7818608E-02  0.9832714E-01
         -2   -1    0    0    0  501 -0.00000000000E+00  0.00000000000E+00  0.93351120143E+02  0.93351120178E+02  0.25500000000E-02 0. -1.
          2   -1    0    0  501    0  0.00000000000E+00 -0.00000000000E+00 -0.10844944103E+04  0.10844944103E+04  0.25500000000E-02 0.  1.
    5000001    1    1    2    0    0 -0.25039325591E+03  0.96756710913E+02 -0.41373042337E+03  0.52005433075E+03  0.16500000000E+03 0.  0.
   -5000001    1    1    2    0    0  0.25039325591E+03 -0.96756710913E+02 -0.57741286679E+03  0.65779119973E+03  0.16500000000E+03 0.  0.
<mgrwt>
<rscale>  0 0.63636080E+03</rscale>
<asrwt>0</asrwt>
<pdfrwt beam="1">  1        2 0.15492777E+00 0.63636080E+03</pdfrwt>
<pdfrwt beam="2">  1       -2 0.13335875E-01 0.63636080E+03</pdfrwt>
<totfact> 0.10718859E+03</totfact>
</mgrwt>
</event>
<event>
 4    1  0.5399378E-005  0.3472616E+03  0.7818608E-02  0.1063745E+00
         -2   -1    0    0    0  501 -0.00000000000E+00  0.00000000000E+00  0.19724315254E+02  0.19724315419E+02  0.25500000000E-02 0. -1.
          2   -1    0    0  501    0  0.00000000000E+00 -0.00000000000E+00 -0.15284515063E+04  0.15284515063E+04  0.25500000000E-02 0.  1.
    5000001    1    1    2    0    0 -0.54007847384E+02 -0.19464339643E+01 -0.76070512985E+03  0.78026785834E+03  0.16500000000E+03 0.  0.
   -5000001    1    1    2    0    0  0.54007847384E+02  0.19464339643E+01 -0.74802206123E+03  0.76790796341E+03  0.16500000000E+03 0.  0.
<mgrwt>
<rscale>  0 0.34726163E+03</rscale>
<asrwt>0</asrwt>
<pdfrwt beam="1">  1        2 0.21835014E+00 0.34726163E+03</pdfrwt>
<pdfrwt beam="2">  1       -2 0.28177603E-02 0.34726163E+03</pdfrwt>
<totfact> 0.70454937E+03</totfact>
</mgrwt>
</event>
<event>
 4    1  0.5399378E-005  0.6064577E+03  0.7818608E-02  0.9892098E-01
          2   -1    0    0  501    0  0.00000000000E+00  0.00000000000E+00  0.76196804132E+03  0.76196804133E+03  0.25500000000E-02 0.  1.
         -2   -1    0    0    0  501 -0.00000000000E+00 -0.00000000000E+00 -0.12067137729E+03  0.12067137732E+03  0.25500000000E-02 0. -1.
    5000001    1    1    2    0    0 -0.11147292326E+03  0.22203604708E+03  0.40031762808E+03  0.49920478981E+03  0.16500000000E+03 0.  0.
   -5000001    1    1    2    0    0  0.11147292326E+03 -0.22203604708E+03  0.24097903595E+03  0.38343462884E+03  0.16500000000E+03 0.  0.
<mgrwt>
<rscale>  0 0.60645769E+03</rscale>
<asrwt>0</asrwt>
<pdfrwt beam="1">  1        2 0.10885258E+00 0.60645769E+03</pdfrwt>
<pdfrwt beam="2">  1       -2 0.17238768E-01 0.60645769E+03</pdfrwt>
<totfact> 0.11204207E+03</totfact>
</mgrwt>
</event>
<event>
 4    1  0.5399378E-005  0.5052086E+03  0.7818608E-02  0.1012428E+00
         -2   -1    0    0    0  501 -0.00000000000E+00  0.00000000000E+00  0.19798873109E+03  0.19798873110E+03  0.25500000000E-02 0. -1.
          2   -1    0    0  501    0  0.00000000000E+00 -0.00000000000E+00 -0.32228572213E+03  0.32228572214E+03  0.25500000000E-02 0.  1.
    5000001    1    1    2    0    0 -0.95132748241E+02  0.12204646701E+03 -0.17792145088E+03  0.28779614761E+03  0.16500000000E+03 0.  0.
   -5000001    1    1    2    0    0  0.95132748241E+02 -0.12204646701E+03  0.53624459831E+02  0.23247830563E+03  0.16500000000E+03 0.  0.
<mgrwt>
<rscale>  0 0.50520863E+03</rscale>
<asrwt>0</asrwt>
<pdfrwt beam="1">  1        2 0.46040817E-01 0.50520863E+03</pdfrwt>
<pdfrwt beam="2">  1       -2 0.28284104E-01 0.50520863E+03</pdfrwt>
<totfact> 0.12575857E+03</totfact>
</mgrwt>
</event>
<event>
 4    1  0.5399378E-005  0.4986337E+03  0.7818608E-02  0.1014136E+00
         -2   -1    0    0    0  501 -0.00000000000E+00  0.00000000000E+00  0.14230967971E+03  0.14230967973E+03  0.25500000000E-02 0. -1.
          2   -1    0    0  501    0  0.00000000000E+00 -0.00000000000E+00 -0.43678610296E+03  0.43678610297E+03  0.25500000000E-02 0.  1.
    5000001    1    1    2    0    0  0.11067339722E+03  0.24668116451E+01 -0.32213534346E+03  0.37848496076E+03  0.16500000000E+03 0.  0.
   -5000001    1    1    2    0    0 -0.11067339722E+03 -0.24668116451E+01  0.27658920206E+02  0.20061082194E+03  0.16500000000E+03 0.  0.
<mgrwt>
<rscale>  0 0.49863369E+03</rscale>
<asrwt>0</asrwt>
<pdfrwt beam="1">  1        2 0.62398014E-01 0.49863369E+03</pdfrwt>
<pdfrwt beam="2">  1       -2 0.20329954E-01 0.49863369E+03</pdfrwt>
<totfact> 0.16181045E+03</totfact>
</mgrwt>
</event>
<event>
 4    1  0.5399378E-005  0.5426347E+03  0.7818608E-02  0.1003213E+00
         -2   -1    0    0    0  501 -0.00000000000E+00  0.00000000000E+00  0.13829526102E+04  0.13829526102E+04  0.25500000000E-02 0. -1.
          2   -1    0    0  501    0  0.00000000000E+00 -0.00000000000E+00 -0.53228940045E+02  0.53228940106E+02  0.25500000000E-02 0.  1.
    5000001    1    1    2    0    0 -0.64294833423E+02 -0.15122905314E+03  0.29637324539E+03  0.37691663893E+03  0.16500000000E+03 0.  0.
   -5000001    1    1    2    0    0  0.64294833423E+02  0.15122905314E+03  0.10333504248E+04  0.10592649114E+04  0.16500000000E+03 0.  0.
<mgrwt>
<rscale>  0 0.54263469E+03</rscale>
<asrwt>0</asrwt>
<pdfrwt beam="1">  1        2 0.76041338E-02 0.54263469E+03</pdfrwt>
<pdfrwt beam="2">  1       -2 0.19756467E+00 0.54263469E+03</pdfrwt>
<totfact> 0.13416389E+02</totfact>
</mgrwt>
</event>
<event>
 4    1  0.5399378E-005  0.4742662E+03  0.7818608E-02  0.1020723E+00
          2   -1    0    0  501    0  0.00000000000E+00  0.00000000000E+00  0.12384776934E+04  0.12384776934E+04  0.25500000000E-02 0.  1.
         -2   -1    0    0    0  501 -0.00000000000E+00 -0.00000000000E+00 -0.45404209756E+02  0.45404209828E+02  0.25500000000E-02 0. -1.
    5000001    1    1    2    0    0  0.16242409607E+03  0.46937795344E+02  0.54090239648E+03  0.59024159980E+03  0.16500000000E+03 0.  0.
   -5000001    1    1    2    0    0 -0.16242409607E+03 -0.46937795344E+02  0.65217108720E+03  0.69364030347E+03  0.16500000000E+03 0.  0.
<mgrwt>
<rscale>  0 0.47426617E+03</rscale>
<asrwt>0</asrwt>
<pdfrwt beam="1">  1        2 0.17692536E+00 0.47426617E+03</pdfrwt>
<pdfrwt beam="2">  1       -2 0.64863167E-02 0.47426617E+03</pdfrwt>
<totfact> 0.28069224E+03</totfact>
</mgrwt>
</event>
<event>
 4    1  0.5399378E-005  0.5682024E+03  0.7818608E-02  0.9973664E-01
          2   -1    0    0  501    0  0.00000000000E+00  0.00000000000E+00  0.76930326910E+03  0.76930326910E+03  0.25500000000E-02 0.  1.
         -2   -1    0    0    0  501 -0.00000000000E+00 -0.00000000000E+00 -0.10491765049E+03  0.10491765052E+03  0.25500000000E-02 0. -1.
    5000001    1    1    2    0    0  0.47770150715E+01  0.21104784818E+03  0.18684465224E+03  0.32664956477E+03  0.16500000000E+03 0.  0.
   -5000001    1    1    2    0    0 -0.47770150715E+01 -0.21104784818E+03  0.47754096637E+03  0.54757135485E+03  0.16500000000E+03 0.  0.
<mgrwt>
<rscale>  0 0.56820240E+03</rscale>
<asrwt>0</asrwt>
<pdfrwt beam="1">  1        2 0.10990046E+00 0.56820240E+03</pdfrwt>
<pdfrwt beam="2">  1       -2 0.14988237E-01 0.56820240E+03</pdfrwt>
<totfact> 0.14040136E+03</totfact>
</mgrwt>
</event>
<event>
 4    1  0.5399378E-005  0.4539698E+03  0.7818608E-02  0.1026545E+00
         -2   -1    0    0    0  501 -0.00000000000E+00  0.00000000000E+00  0.30264692926E+03  0.30264692928E+03  0.25500000000E-02 0. -1.
          2   -1    0    0  501    0  0.00000000000E+00 -0.00000000000E+00 -0.17023848156E+03  0.17023848158E+03  0.25500000000E-02 0.  1.
    5000001    1    1    2    0    0 -0.13411672385E+03 -0.32675026887E+02  0.14162408655E+03  0.25756035194E+03  0.16500000000E+03 0.  0.
   -5000001    1    1    2    0    0  0.13411672385E+03  0.32675026887E+02 -0.92156388522E+01  0.21532505892E+03  0.16500000000E+03 0.  0.
<mgrwt>
<rscale>  0 0.45396984E+03</rscale>
<asrwt>0</asrwt>
<pdfrwt beam="1">  1        2 0.24319783E-01 0.45396984E+03</pdfrwt>
<pdfrwt beam="2">  1       -2 0.43235275E-01 0.45396984E+03</pdfrwt>
<totfact> 0.11467003E+03</totfact>
</mgrwt>
</event>
<event>
 4    1  0.5399378E-005  0.6336225E+03  0.7818608E-02  0.9838005E-01
          2   -1    0    0  501    0  0.00000000000E+00  0.00000000000E+00  0.53190327992E+03  0.53190327992E+03  0.25500000000E-02 0.  1.
         -2   -1    0    0    0  501 -0.00000000000E+00 -0.00000000000E+00 -0.18869851820E+03  0.18869851822E+03  0.25500000000E-02 0. -1.
    5000001    1    1    2    0    0  0.13305489831E+03  0.21141501976E+03  0.28948689132E+03  0.41644636725E+03  0.16500000000E+03 0.  0.
   -5000001    1    1    2    0    0 -0.13305489831E+03 -0.21141501976E+03  0.53717870395E+02  0.30415543090E+03  0.16500000000E+03 0.  0.
<mgrwt>
<rscale>  0 0.63362248E+03</rscale>
<asrwt>0</asrwt>
<pdfrwt beam="1">  1        2 0.75986182E-01 0.63362248E+03</pdfrwt>
<pdfrwt beam="2">  1       -2 0.26956931E-01 0.63362248E+03</pdfrwt>
<totfact> 0.78373661E+02</totfact>
</mgrwt>
</event>
<event>
 4    1  0.5399378E-005  0.3771209E+03  0.7818608E-02  0.1052003E+00
          2   -1    0    0  501    0  0.00000000000E+00  0.00000000000E+00  0.14902391937E+04  0.14902391937E+04  0.25500000000E-02 0.  1.
         -2   -1    0    0    0  501 -0.00000000000E+00 -0.00000000000E+00 -0.23858611288E+02  0.23858611425E+02  0.25500000000E-02 0. -1.
    5000001    1    1    2    0    0 -0.61269368989E+02 -0.66616991474E+02  0.68597845533E+03  0.71132496111E+03  0.16500000000E+03 0.  0.
   -5000001    1    1    2    0    0  0.61269368989E+02  0.66616991474E+02  0.78040212712E+03  0.80277284405E+03  0.16500000000E+03 0.  0.
<mgrwt>
<rscale>  0 0.37712087E+03</rscale>
<asrwt>0</asrwt>
<pdfrwt beam="1">  1        2 0.21289130E+00 0.37712087E+03</pdfrwt>
<pdfrwt beam="2">  1       -2 0.34083732E-02 0.37712087E+03</pdfrwt>
<totfact> 0.55414400E+03</totfact>
</mgrwt>
</event>
<event>
 4    1  0.5399378E-005  0.5076762E+03  0.7818608E-02  0.1011795E+00
         -2   -1    0    0    0  501 -0.00000000000E+00  0.00000000000E+00  0.16021323151E+03  0.16021323153E+03  0.25500000000E-02 0. -1.
          2   -1    0    0  501    0  0.00000000000E+00 -0.00000000000E+00 -0.40217517525E+03  0.40217517526E+03  0.25500000000E-02 0.  1.
    5000001    1    1    2    0    0 -0.18897466996E+03 -0.10401408319E+02 -0.79692659659E+02  0.26343032321E+03  0.16500000000E+03 0.  0.
   -5000001    1    1    2    0    0  0.18897466996E+03  0.10401408319E+02 -0.16226928408E+03  0.29895808358E+03  0.16500000000E+03 0.  0.
<mgrwt>
<rscale>  0 0.50767621E+03</rscale>
<asrwt>0</asrwt>
<pdfrwt beam="1">  1        2 0.57453596E-01 0.50767621E+03</pdfrwt>
<pdfrwt beam="2">  1       -2 0.22887605E-01 0.50767621E+03</pdfrwt>
<totfact> 0.14407578E+03</totfact>
</mgrwt>
</event>
<event>
 4    1  0.5399378E-005  0.4341719E+03  0.7818608E-02  0.1032550E+00
         -2   -1    0    0    0  501 -0.00000000000E+00  0.00000000000E+00  0.41303674709E+02  0.41303674788E+02  0.25500000000E-02 0. -1.
          2   -1    0    0  501    0  0.00000000000E+00 -0.00000000000E+00 -0.11409712176E+04  0.11409712176E+04  0.25500000000E-02 0.  1.
    5000001    1    1    2    0    0  0.22858655064E+02 -0.11412897989E+03 -0.76688316564E+03  0.79302126825E+03  0.16500000000E+03 0.  0.
   -5000001    1    1    2    0    0 -0.22858655064E+02  0.11412897989E+03 -0.33278437726E+03  0.38925362415E+03  0.16500000000E+03 0.  0.
<mgrwt>
<rscale>  0 0.43417187E+03</rscale>
<asrwt>0</asrwt>
<pdfrwt beam="1">  1        2 0.16299587E+00 0.43417187E+03</pdfrwt>
<pdfrwt beam="2">  1       -2 0.59005257E-02 0.43417187E+03</pdfrwt>
<totfact> 0.36853680E+03</totfact>
</mgrwt>
</event>
<event>
 4    1  0.5399378E-005  0.4974993E+03  0.7818608E-02  0.1014434E+00
          2   -1    0    0  501    0  0.00000000000E+00  0.00000000000E+00  0.26524418575E+04  0.26524418575E+04  0.25500000000E-02 0.  1.
         -2   -1    0    0    0  501 -0.00000000000E+00 -0.00000000000E+00 -0.23328084855E+02  0.23328084994E+02  0.25500000000E-02 0. -1.
    5000001    1    1    2    0    0 -0.61825251947E+02 -0.16156454828E+03  0.16842996268E+04  0.17011806776E+04  0.16500000000E+03 0.  0.
   -5000001    1    1    2    0    0  0.61825251947E+02  0.16156454828E+03  0.94481414588E+03  0.97458926492E+03  0.16500000000E+03 0.  0.
<mgrwt>
<rscale>  0 0.49749930E+03</rscale>
<asrwt>0</asrwt>
<pdfrwt beam="1">  1        2 0.37892050E+00 0.49749930E+03</pdfrwt>
<pdfrwt beam="2">  1       -2 0.33325815E-02 0.49749930E+03</pdfrwt>
<totfact> 0.14882257E+03</totfact>
</mgrwt>
</event>
<event>
 4    1  0.5399378E-005  0.7432366E+03  0.7818608E-02  0.9646021E-01
          2   -1    0    0  501    0  0.00000000000E+00  0.00000000000E+00  0.34099628161E+04  0.34099628161E+04  0.25500000000E-02 0.  1.
         -2   -1    0    0    0  501 -0.00000000000E+00 -0.00000000000E+00 -0.40499017835E+02  0.40499017915E+02  0.25500000000E-02 0. -1.
    5000001    1    1    2    0    0  0.28060566839E+03 -0.17920101375E+03  0.16626615099E+04  0.17036786202E+04  0.16500000000E+03 0.  0.
   -5000001    1    1    2    0    0 -0.28060566839E+03  0.17920101375E+03  0.17068022883E+04  0.17467832138E+04  0.16500000000E+03 0.  0.
<mgrwt>
<rscale>  0 0.74323656E+03</rscale>
<asrwt>0</asrwt>
<pdfrwt beam="1">  1        2 0.48713744E+00 0.74323656E+03</pdfrwt>
<pdfrwt beam="2">  1       -2 0.57855753E-02 0.74323656E+03</pdfrwt>
<totfact> 0.23828388E+02</totfact>
</mgrwt>
</event>
<event>
 4    1  0.5399378E-005  0.5887883E+03  0.7818608E-02  0.9928944E-01
         -2   -1    0    0    0  501 -0.00000000000E+00  0.00000000000E+00  0.12087839100E+03  0.12087839102E+03  0.25500000000E-02 0. -1.
          2   -1    0    0  501    0  0.00000000000E+00 -0.00000000000E+00 -0.71698441596E+03  0.71698441597E+03  0.25500000000E-02 0.  1.
    5000001    1    1    2    0    0 -0.93131865138E+02 -0.21834497253E+03 -0.37721808490E+03  0.47525420031E+03  0.16500000000E+03 0.  0.
   -5000001    1    1    2    0    0  0.93131865138E+02  0.21834497253E+03 -0.21888794006E+03  0.36260860668E+03  0.16500000000E+03 0.  0.
<mgrwt>
<rscale>  0 0.58878832E+03</rscale>
<asrwt>0</asrwt>
<pdfrwt beam="1">  1        2 0.10242634E+00 0.58878832E+03</pdfrwt>
<pdfrwt beam="2">  1       -2 0.17268342E-01 0.58878832E+03</pdfrwt>
<totfact> 0.12053122E+03</totfact>
</mgrwt>
</event>
<event>
 4    1  0.5399378E-005  0.5031881E+03  0.7818608E-02  0.1012950E+00
         -2   -1    0    0    0  501 -0.00000000000E+00  0.00000000000E+00  0.37000246146E+02  0.37000246233E+02  0.25500000000E-02 0. -1.
          2   -1    0    0  501    0  0.00000000000E+00 -0.00000000000E+00 -0.17107879882E+04  0.17107879882E+04  0.25500000000E-02 0.  1.
    5000001    1    1    2    0    0  0.16945857138E+03  0.76443096376E+02 -0.97208221993E+03  0.10033586581E+04  0.16500000000E+03 0.  0.
   -5000001    1    1    2    0    0 -0.16945857138E+03 -0.76443096376E+02 -0.70170552208E+03  0.74442957633E+03  0.16500000000E+03 0.  0.
<mgrwt>
<rscale>  0 0.50318814E+03</rscale>
<asrwt>0</asrwt>
<pdfrwt beam="1">  1        2 0.24439823E+00 0.50318814E+03</pdfrwt>
<pdfrwt beam="2">  1       -2 0.52857506E-02 0.50318814E+03</pdfrwt>
<totfact> 0.21871905E+03</totfact>
</mgrwt>
</event>
<event>
 4    1  0.5399378E-005  0.5484085E+03  0.7818608E-02  0.1001863E+00
          2   -1    0    0  501    0  0.00000000000E+00  0.00000000000E+00  0.37212283251E+03  0.37212283252E+03  0.25500000000E-02 0.  1.
         -2   -1    0    0    0  501 -0.00000000000E+00 -0.00000000000E+00 -0.20205145245E+03  0.20205145246E+03  0.25500000000E-02 0. -1.
    5000001    1    1    2    0    0 -0.19317282511E+03 -0.93809250665E+02  0.40039256723E+02  0.27375912396E+03  0.16500000000E+03 0.  0.
   -5000001    1    1    2    0    0  0.19317282511E+03  0.93809250665E+02  0.13003212334E+03  0.30041516102E+03  0.16500000000E+03 0.  0.
<mgrwt>
<rscale>  0 0.54840846E+03</rscale>
<asrwt>0</asrwt>
<pdfrwt beam="1">  1        2 0.53160404E-01 0.54840846E+03</pdfrwt>
<pdfrwt beam="2">  1       -2 0.28864493E-01 0.54840846E+03</pdfrwt>
<totfact> 0.10343054E+03</totfact>
</mgrwt>
</event>
<event>
 4    1  0.5399378E-005  0.3639662E+03  0.7818608E-02  0.1057024E+00
          2   -1    0    0  501    0  0.00000000000E+00  0.00000000000E+00  0.26124661370E+03  0.26124661371E+03  0.25500000000E-02 0.  1.
         -2   -1    0    0    0  501 -0.00000000000E+00 -0.00000000000E+00 -0.12676851396E+03  0.12676851399E+03  0.25500000000E-02 0. -1.
    5000001    1    1    2    0    0  0.18284308613E+02  0.63687554765E+02  0.25916801283E+02  0.17968611845E+03  0.16500000000E+03 0.  0.
   -5000001    1    1    2    0    0 -0.18284308613E+02 -0.63687554765E+02  0.10856129846E+03  0.20832900925E+03  0.16500000000E+03 0.  0.
<mgrwt>
<rscale>  0 0.36396618E+03</rscale>
<asrwt>0</asrwt>
<pdfrwt beam="1">  1        2 0.37320945E-01 0.36396618E+03</pdfrwt>
<pdfrwt beam="2">  1       -2 0.18109788E-01 0.36396618E+03</pdfrwt>
<totfact> 0.34526082E+03</totfact>
</mgrwt>
</event>
<event>
 4    1  0.5399378E-005  0.3975691E+03  0.7818608E-02  0.1044625E+00
         -2   -1    0    0    0  501 -0.00000000000E+00  0.00000000000E+00  0.47969828750E+02  0.47969828818E+02  0.25500000000E-02 0. -1.
          2   -1    0    0  501    0  0.00000000000E+00 -0.00000000000E+00 -0.82375305758E+03  0.82375305758E+03  0.25500000000E-02 0.  1.
    5000001    1    1    2    0    0 -0.59527398562E+02  0.58230293629E+02 -0.54835898456E+03  0.57866817281E+03  0.16500000000E+03 0.  0.
   -5000001    1    1    2    0    0  0.59527398562E+02 -0.58230293629E+02 -0.22742424426E+03  0.29305471359E+03  0.16500000000E+03 0.  0.
<mgrwt>
<rscale>  0 0.39756908E+03</rscale>
<asrwt>0</asrwt>
<pdfrwt beam="1">  1        2 0.11767900E+00 0.39756908E+03</pdfrwt>
<pdfrwt beam="2">  1       -2 0.68528332E-02 0.39756908E+03</pdfrwt>
<totfact> 0.45545221E+03</totfact>
</mgrwt>
</event>
<event>
 4    1  0.5399378E-005  0.4465455E+03  0.7818608E-02  0.1028757E+00
         -2   -1    0    0    0  501 -0.00000000000E+00  0.00000000000E+00  0.11071028778E+03  0.11071028781E+03  0.25500000000E-02 0. -1.
          2   -1    0    0  501    0  0.00000000000E+00 -0.00000000000E+00 -0.45028078432E+03  0.45028078433E+03  0.25500000000E-02 0.  1.
    5000001    1    1    2    0    0  0.12966171391E+03  0.68775152067E+02 -0.21113867040E+03  0.30552695419E+03  0.16500000000E+03 0.  0.
   -5000001    1    1    2    0    0 -0.12966171391E+03 -0.68775152067E+02 -0.12843182613E+03  0.25546411795E+03  0.16500000000E+03 0.  0.
<mgrwt>
<rscale>  0 0.44654547E+03</rscale>
<asrwt>0</asrwt>
<pdfrwt beam="1">  1        2 0.64325825E-01 0.44654547E+03</pdfrwt>
<pdfrwt beam="2">  1       -2 0.15815756E-01 0.44654547E+03</pdfrwt>
<totfact> 0.24005410E+03</totfact>
</mgrwt>
</event>
<event>
 4    1  0.5399378E-005  0.4437080E+03  0.7818608E-02  0.1029615E+00
          2   -1    0    0  501    0  0.00000000000E+00  0.00000000000E+00  0.18742239200E+03  0.18742239202E+03  0.25500000000E-02 0.  1.
         -2   -1    0    0    0  501 -0.00000000000E+00 -0.00000000000E+00 -0.26261108918E+03  0.26261108920E+03  0.25500000000E-02 0. -1.
    5000001    1    1    2    0    0  0.95851410036E+02 -0.48883537696E+02  0.65924895253E+02  0.20772141170E+03  0.16500000000E+03 0.  0.
   -5000001    1    1    2    0    0 -0.95851410036E+02  0.48883537696E+02 -0.14111359243E+03  0.24231206952E+03  0.16500000000E+03 0.  0.
<mgrwt>
<rscale>  0 0.44370801E+03</rscale>
<asrwt>0</asrwt>
<pdfrwt beam="1">  1        2 0.26774627E-01 0.44370801E+03</pdfrwt>
<pdfrwt beam="2">  1       -2 0.37515870E-01 0.44370801E+03</pdfrwt>
<totfact> 0.13526979E+03</totfact>
</mgrwt>
</event>
<event>
 4    1  0.5399378E-005  0.4700751E+03  0.7818608E-02  0.1021899E+00
          2   -1    0    0  501    0  0.00000000000E+00  0.00000000000E+00  0.15143172183E+04  0.15143172183E+04  0.25500000000E-02 0.  1.
         -2   -1    0    0    0  501 -0.00000000000E+00 -0.00000000000E+00 -0.36480233213E+02  0.36480233302E+02  0.25500000000E-02 0. -1.
    5000001    1    1    2    0    0  0.59460811295E+02  0.14308546608E+03  0.53004440207E+03  0.57635154797E+03  0.16500000000E+03 0.  0.
   -5000001    1    1    2    0    0 -0.59460811295E+02 -0.14308546608E+03  0.94779258301E+03  0.97444590362E+03  0.16500000000E+03 0.  0.
<mgrwt>
<rscale>  0 0.47007508E+03</rscale>
<asrwt>0</asrwt>
<pdfrwt beam="1">  1        2 0.21633103E+00 0.47007508E+03</pdfrwt>
<pdfrwt beam="2">  1       -2 0.52114620E-02 0.47007508E+03</pdfrwt>
<totfact> 0.28171613E+03</totfact>
</mgrwt>
</event>
<event>
 4    1  0.5399378E-005  0.7664835E+03  0.7818608E-02  0.9609839E-01
          2   -1    0    0  501    0  0.00000000000E+00  0.00000000000E+00  0.39901435316E+03  0.39901435316E+03  0.25500000000E-02 0.  1.
         -2   -1    0    0    0  501 -0.00000000000E+00 -0.00000000000E+00 -0.36809259457E+03  0.36809259458E+03  0.25500000000E-02 0. -1.
    5000001    1    1    2    0    0 -0.17453970289E+03 -0.29774513510E+03 -0.76437209833E+01  0.38262213715E+03  0.16500000000E+03 0.  0.
   -5000001    1    1    2    0    0  0.17453970289E+03  0.29774513510E+03  0.38565479571E+02  0.38448481060E+03  0.16500000000E+03 0.  0.
<mgrwt>
<rscale>  0 0.76648347E+03</rscale>
<asrwt>0</asrwt>
<pdfrwt beam="1">  1        2 0.57002050E-01 0.76648347E+03</pdfrwt>
<pdfrwt beam="2">  1       -2 0.52584656E-01 0.76648347E+03</pdfrwt>
<totfact> 0.29808262E+02</totfact>
</mgrwt>
</event>
<event>
 4    1  0.5399378E-005  0.4704216E+03  0.7818608E-02  0.1021801E+00
          2   -1    0    0  501    0  0.00000000000E+00  0.00000000000E+00  0.39444359760E+03  0.39444359761E+03  0.25500000000E-02 0.  1.
         -2   -1    0    0    0  501 -0.00000000000E+00 -0.00000000000E+00 -0.14025861592E+03  0.14025861594E+03  0.25500000000E-02 0. -1.
    5000001    1    1    2    0    0 -0.18695826967E+02  0.16655845667E+03  0.12390590310E+03  0.26583627716E+03  0.16500000000E+03 0.  0.
   -5000001    1    1    2    0    0  0.18695826967E+02 -0.16655845667E+03  0.13027907858E+03  0.26886593639E+03  0.16500000000E+03 0.  0.
<mgrwt>
<rscale>  0 0.47042157E+03</rscale>
<asrwt>0</asrwt>
<pdfrwt beam="1">  1        2 0.56349086E-01 0.47042157E+03</pdfrwt>
<pdfrwt beam="2">  1       -2 0.20036945E-01 0.47042157E+03</pdfrwt>
<totfact> 0.18569953E+03</totfact>
</mgrwt>
</event>
<event>
 4    1  0.5399378E-005  0.5695844E+03  0.7818608E-02  0.9970599E-01
          2   -1    0    0  501    0  0.00000000000E+00  0.00000000000E+00  0.11822906111E+04  0.11822906111E+04  0.25500000000E-02 0.  1.
         -2   -1    0    0    0  501 -0.00000000000E+00 -0.00000000000E+00 -0.68601237611E+02  0.68601237658E+02  0.25500000000E-02 0. -1.
    5000001    1    1    2    0    0  0.17983226416E+03  0.31473412427E+02  0.87167907906E+03  0.90574810836E+03  0.16500000000E+03 0.  0.
   -5000001    1    1    2    0    0 -0.17983226416E+03 -0.31473412427E+02  0.24201029440E+03  0.34514374037E+03  0.16500000000E+03 0.  0.
<mgrwt>
<rscale>  0 0.56958441E+03</rscale>
<asrwt>0</asrwt>
<pdfrwt beam="1">  1        2 0.16889864E+00 0.56958441E+03</pdfrwt>
<pdfrwt beam="2">  1       -2 0.98001777E-02 0.56958441E+03</pdfrwt>
<totfact> 0.15634137E+03</totfact>
</mgrwt>
</event>
<event>
 4    1  0.5399378E-005  0.4263106E+03  0.7818608E-02  0.1035032E+00
          2   -1    0    0  501    0  0.00000000000E+00  0.00000000000E+00  0.79285570520E+03  0.79285570521E+03  0.25500000000E-02 0.  1.
         -2   -1    0    0    0  501 -0.00000000000E+00 -0.00000000000E+00 -0.57305728159E+02  0.57305728216E+02  0.25500000000E-02 0. -1.
    5000001    1    1    2    0    0  0.34765489172E+02  0.12650556528E+03  0.30477889019E+03  0.37057721083E+03  0.16500000000E+03 0.  0.
   -5000001    1    1    2    0    0 -0.34765489172E+02 -0.12650556528E+03  0.43077108686E+03  0.47958422259E+03  0.16500000000E+03 0.  0.
<mgrwt>
<rscale>  0 0.42631056E+03</rscale>
<asrwt>0</asrwt>
<pdfrwt beam="1">  1        2 0.11326511E+00 0.42631056E+03</pdfrwt>
<pdfrwt beam="2">  1       -2 0.81865322E-02 0.42631056E+03</pdfrwt>
<totfact> 0.36173727E+03</totfact>
</mgrwt>
</event>
<event>
 4    1  0.5399378E-005  0.6881998E+03  0.7818608E-02  0.9737628E-01
          2   -1    0    0  501    0  0.00000000000E+00  0.00000000000E+00  0.19433448788E+04  0.19433448788E+04  0.25500000000E-02 0.  1.
         -2   -1    0    0    0  501 -0.00000000000E+00 -0.00000000000E+00 -0.60928323503E+02  0.60928323556E+02  0.25500000000E-02 0. -1.
    5000001    1    1    2    0    0 -0.16293952392E+03 -0.22481169138E+03  0.59550751346E+03  0.67745389778E+03  0.16500000000E+03 0.  0.
   -5000001    1    1    2    0    0  0.16293952392E+03  0.22481169138E+03  0.12869090418E+04  0.13268193046E+04  0.16500000000E+03 0.  0.
<mgrwt>
<rscale>  0 0.68819981E+03</rscale>
<asrwt>0</asrwt>
<pdfrwt beam="1">  1        2 0.27762068E+00 0.68819981E+03</pdfrwt>
<pdfrwt beam="2">  1       -2 0.87040467E-02 0.68819981E+03</pdfrwt>
<totfact> 0.75376385E+02</totfact>
</mgrwt>
</event>
<event>
 4    1  0.5399378E-005  0.4428670E+03  0.7818608E-02  0.1029871E+00
          2   -1    0    0  501    0  0.00000000000E+00  0.00000000000E+00  0.11260802571E+04  0.11260802571E+04  0.25500000000E-02 0.  1.
         -2   -1    0    0    0  501 -0.00000000000E+00 -0.00000000000E+00 -0.43542899523E+02  0.43542899597E+02  0.25500000000E-02 0. -1.
    5000001    1    1    2    0    0  0.12262574252E+03  0.82239341305E+02  0.54846155849E+03  0.59146890292E+03  0.16500000000E+03 0.  0.
   -5000001    1    1    2    0    0 -0.12262574252E+03 -0.82239341305E+02  0.53407579908E+03  0.57815425377E+03  0.16500000000E+03 0.  0.
<mgrwt>
<rscale>  0 0.44286702E+03</rscale>
<asrwt>0</asrwt>
<pdfrwt beam="1">  1        2 0.16086859E+00 0.44286702E+03</pdfrwt>
<pdfrwt beam="2">  1       -2 0.62204148E-02 0.44286702E+03</pdfrwt>
<totfact> 0.34619060E+03</totfact>
</mgrwt>
</event>
<event>
 4    1  0.5399378E-005  0.3870688E+03  0.7818608E-02  0.1048352E+00
         -2   -1    0    0    0  501 -0.00000000000E+00  0.00000000000E+00  0.58554704622E+02  0.58554704677E+02  0.25500000000E-02 0. -1.
          2   -1    0    0  501    0  0.00000000000E+00 -0.00000000000E+00 -0.63966794596E+03  0.63966794597E+03  0.25500000000E-02 0.  1.
    5000001    1    1    2    0    0 -0.65641639772E+02 -0.59804928199E+02 -0.37791159995E+03  0.42181468880E+03  0.16500000000E+03 0.  0.
   -5000001    1    1    2    0    0  0.65641639772E+02  0.59804928199E+02 -0.20320164139E+03  0.27640796185E+03  0.16500000000E+03 0.  0.
<mgrwt>
<rscale>  0 0.38706882E+03</rscale>
<asrwt>0</asrwt>
<pdfrwt beam="1">  1        2 0.91381131E-01 0.38706882E+03</pdfrwt>
<pdfrwt beam="2">  1       -2 0.83649582E-02 0.38706882E+03</pdfrwt>
<totfact> 0.45296713E+03</totfact>
</mgrwt>
</event>
<event>
 4    1  0.5399378E-005  0.3733874E+03  0.7818608E-02  0.1053405E+00
          2   -1    0    0  501    0  0.00000000000E+00  0.00000000000E+00  0.16661726848E+03  0.16661726850E+03  0.25500000000E-02 0.  1.
         -2   -1    0    0    0  501 -0.00000000000E+00 -0.00000000000E+00 -0.20918921894E+03  0.20918921896E+03  0.25500000000E-02 0. -1.
    5000001    1    1    2    0    0 -0.39968532767E+01 -0.82946303255E+02 -0.48544129961E+02  0.19099109040E+03  0.16500000000E+03 0.  0.
   -5000001    1    1    2    0    0  0.39968532767E+01  0.82946303255E+02  0.59721794980E+01  0.18481539705E+03  0.16500000000E+03 0.  0.
<mgrwt>
<rscale>  0 0.37338739E+03</rscale>
<asrwt>0</asrwt>
<pdfrwt beam="1">  1        2 0.23802467E-01 0.37338739E+03</pdfrwt>
<pdfrwt beam="2">  1       -2 0.29884174E-01 0.37338739E+03</pdfrwt>
<totfact> 0.23570981E+03</totfact>
</mgrwt>
</event>
<event>
 4    1  0.5399378E-005  0.5244911E+03  0.7818608E-02  0.1007577E+00
          2   -1    0    0  501    0  0.00000000000E+00  0.00000000000E+00  0.26511886046E+02  0.26511886168E+02  0.25500000000E-02 0.  1.
         -2   -1    0    0    0  501 -0.00000000000E+00 -0.00000000000E+00 -0.25940338788E+04  0.25940338788E+04  0.25500000000E-02 0. -1.
    5000001    1    1    2    0    0 -0.15567348759E+03  0.13157514166E+03 -0.12776865384E+04  0.13043213343E+04  0.16500000000E+03 0.  0.
   -5000001    1    1    2    0    0  0.15567348759E+03 -0.13157514166E+03 -0.12898354543E+04  0.13162244306E+04  0.16500000000E+03 0.  0.
<mgrwt>
<rscale>  0 0.52449111E+03</rscale>
<asrwt>0</asrwt>
<pdfrwt beam="1">  1        2 0.37874140E-02 0.52449111E+03</pdfrwt>
<pdfrwt beam="2">  1       -2 0.37057611E+00 0.52449111E+03</pdfrwt>
<totfact> 0.30284603E+01</totfact>
</mgrwt>
</event>
<event>
 4    1  0.5399378E-005  0.6614006E+03  0.7818608E-02  0.9785619E-01
          2   -1    0    0  501    0  0.00000000000E+00  0.00000000000E+00  0.11689546130E+04  0.11689546130E+04  0.25500000000E-02 0.  1.
         -2   -1    0    0    0  501 -0.00000000000E+00 -0.00000000000E+00 -0.93555966138E+02  0.93555966173E+02  0.25500000000E-02 0. -1.
    5000001    1    1    2    0    0 -0.23616942810E+03  0.80868303105E+02  0.80644665747E+03  0.86017259463E+03  0.16500000000E+03 0.  0.
   -5000001    1    1    2    0    0  0.23616942810E+03 -0.80868303105E+02  0.26895198942E+03  0.40233798457E+03  0.16500000000E+03 0.  0.
<mgrwt>
<rscale>  0 0.66140057E+03</rscale>
<asrwt>0</asrwt>
<pdfrwt beam="1">  1        2 0.16699351E+00 0.66140057E+03</pdfrwt>
<pdfrwt beam="2">  1       -2 0.13365139E-01 0.66140057E+03</pdfrwt>
<totfact> 0.95383661E+02</totfact>
</mgrwt>
</event>
<event>
 4    1  0.5399378E-005  0.4170751E+03  0.7818608E-02  0.1038022E+00
          2   -1    0    0  501    0  0.00000000000E+00  0.00000000000E+00  0.14829443613E+04  0.14829443613E+04  0.25500000000E-02 0.  1.
         -2   -1    0    0    0  501 -0.00000000000E+00 -0.00000000000E+00 -0.29325384415E+02  0.29325384526E+02  0.25500000000E-02 0. -1.
    5000001    1    1    2    0    0  0.43442688002E+02 -0.11660153780E+03  0.62556148023E+03  0.65881359375E+03  0.16500000000E+03 0.  0.
   -5000001    1    1    2    0    0 -0.43442688002E+02  0.11660153780E+03  0.82805749661E+03  0.85345615204E+03  0.16500000000E+03 0.  0.
<mgrwt>
<rscale>  0 0.41707512E+03</rscale>
<asrwt>0</asrwt>
<pdfrwt beam="1">  1        2 0.21184924E+00 0.41707512E+03</pdfrwt>
<pdfrwt beam="2">  1       -2 0.41893398E-02 0.41707512E+03</pdfrwt>
<totfact> 0.40895473E+03</totfact>
</mgrwt>
</event>
<event>
 4    1  0.5399378E-005  0.5085622E+03  0.7818608E-02  0.1011568E+00
          2   -1    0    0  501    0  0.00000000000E+00  0.00000000000E+00  0.54848469075E+03  0.54848469076E+03  0.25500000000E-02 0. -1.
         -2   -1    0    0    0  501 -0.00000000000E+00 -0.00000000000E+00 -0.11788639690E+03  0.11788639693E+03  0.25500000000E-02 0.  1.
    5000001    1    1    2    0    0  0.30043347109E+02 -0.79722397499E+02  0.44291376656E+03  0.48026645519E+03  0.16500000000E+03 0.  0.
   -5000001    1    1    2    0    0 -0.30043347109E+02  0.79722397499E+02 -0.12315472712E+02  0.18610463250E+03  0.16500000000E+03 0.  0.
<mgrwt>
<rscale>  0 0.50856222E+03</rscale>
<asrwt>0</asrwt>
<pdfrwt beam="1">  1        2 0.78354956E-01 0.50856222E+03</pdfrwt>
<pdfrwt beam="2">  1       -2 0.16840914E-01 0.50856222E+03</pdfrwt>
<totfact> 0.17292735E+03</totfact>
</mgrwt>
</event>
<event>
 4    1  0.5399378E-005  0.6632057E+03  0.7818608E-02  0.9782310E-01
          2   -1    0    0  501    0  0.00000000000E+00  0.00000000000E+00  0.10585356500E+03  0.10585356503E+03  0.25500000000E-02 0.  1.
         -2   -1    0    0    0  501 -0.00000000000E+00 -0.00000000000E+00 -0.10387976515E+04  0.10387976515E+04  0.25500000000E-02 0. -1.
    5000001    1    1    2    0    0 -0.26641269519E+03  0.13433060571E+02 -0.65219492866E+03  0.72369841526E+03  0.16500000000E+03 0.  0.
   -5000001    1    1    2    0    0  0.26641269519E+03 -0.13433060571E+02 -0.28074915788E+03  0.42095280131E+03  0.16500000000E+03 0.  0.
<mgrwt>
<rscale>  0 0.66320565E+03</rscale>
<asrwt>0</asrwt>
<pdfrwt beam="1">  1        2 0.15121938E-01 0.66320565E+03</pdfrwt>
<pdfrwt beam="2">  1       -2 0.14839966E+00 0.66320565E+03</pdfrwt>
<totfact> 0.12416554E+02</totfact>
</mgrwt>
</event>
<event>
 4    1  0.5399378E-005  0.4428163E+03  0.7818608E-02  0.1029886E+00
          2   -1    0    0  501    0  0.00000000000E+00  0.00000000000E+00  0.22444707666E+04  0.22444707666E+04  0.25500000000E-02 0. -1.
         -2   -1    0    0    0  501 -0.00000000000E+00 -0.00000000000E+00 -0.21841034784E+02  0.21841034933E+02  0.25500000000E-02 0.  1.
    5000001    1    1    2    0    0  0.82836187566E+02 -0.11372968979E+03  0.13402130466E+04  0.13576421791E+04  0.16500000000E+03 0.  0.
   -5000001    1    1    2    0    0 -0.82836187566E+02  0.11372968979E+03  0.88241668526E+03  0.90866962243E+03  0.16500000000E+03 0.  0.
<mgrwt>
<rscale>  0 0.44281628E+03</rscale>
<asrwt>0</asrwt>
<pdfrwt beam="1">  1        2 0.32063869E+00 0.44281628E+03</pdfrwt>
<pdfrwt beam="2">  1       -2 0.31201477E-02 0.44281628E+03</pdfrwt>
<totfact> 0.26570821E+03</totfact>
</mgrwt>
</event>
<event>
 4    1  0.5399378E-005  0.5446217E+03  0.7818608E-02  0.1002747E+00
          2   -1    0    0  501    0  0.00000000000E+00  0.00000000000E+00  0.10395718426E+04  0.10395718426E+04  0.25500000000E-02 0. -1.
         -2   -1    0    0    0  501 -0.00000000000E+00 -0.00000000000E+00 -0.71330510609E+02  0.71330510655E+02  0.25500000000E-02 0.  1.
    5000001    1    1    2    0    0 -0.64033549792E+02  0.14033318866E+03  0.79437006247E+03  0.82585864135E+03  0.16500000000E+03 0.  0.
   -5000001    1    1    2    0    0  0.64033549792E+02 -0.14033318866E+03  0.17387126954E+03  0.28504371193E+03  0.16500000000E+03 0.  0.
<mgrwt>
<rscale>  0 0.54462167E+03</rscale>
<asrwt>0</asrwt>
<pdfrwt beam="1">  1        2 0.14851026E+00 0.54462167E+03</pdfrwt>
<pdfrwt beam="2">  1       -2 0.10190073E-01 0.54462167E+03</pdfrwt>
<totfact> 0.17755989E+03</totfact>
</mgrwt>
</event>
<event>
 4    1  0.5399378E-005  0.9802818E+03  0.7818608E-02  0.9330440E-01
          2   -1    0    0  501    0  0.00000000000E+00  0.00000000000E+00  0.53643772501E+03  0.53643772502E+03  0.25500000000E-02 0.  1.
         -2   -1    0    0    0  501 -0.00000000000E+00 -0.00000000000E+00 -0.44783968329E+03  0.44783968330E+03  0.25500000000E-02 0. -1.
    5000001    1    1    2    0    0 -0.33661478102E+03 -0.29186168912E+03 -0.76692528626E+02  0.48124785748E+03  0.16500000000E+03 0.  0.
   -5000001    1    1    2    0    0  0.33661478102E+03  0.29186168912E+03  0.16529057035E+03  0.50302955084E+03  0.16500000000E+03 0.  0.
<mgrwt>
<rscale>  0 0.98028180E+03</rscale>
<asrwt>0</asrwt>
<pdfrwt beam="1">  1        2 0.76633961E-01 0.98028180E+03</pdfrwt>
<pdfrwt beam="2">  1       -2 0.63977097E-01 0.98028180E+03</pdfrwt>
<totfact> 0.13983249E+02</totfact>
</mgrwt>
</event>
<event>
 4    1  0.5399378E-005  0.4171299E+03  0.7818608E-02  0.1038004E+00
          2   -1    0    0  501    0  0.00000000000E+00  0.00000000000E+00  0.17272424644E+04  0.17272424644E+04  0.25500000000E-02 0.  1.
         -2   -1    0    0    0  501 -0.00000000000E+00 -0.00000000000E+00 -0.25184266407E+02  0.25184266536E+02  0.25500000000E-02 0. -1.
    5000001    1    1    2    0    0 -0.10803080857E+03 -0.67047973726E+02  0.89473888914E+03  0.91866684174E+03  0.16500000000E+03 0.  0.
   -5000001    1    1    2    0    0  0.10803080857E+03  0.67047973726E+02  0.80731930884E+03  0.83375988918E+03  0.16500000000E+03 0.  0.
<mgrwt>
<rscale>  0 0.41712988E+03</rscale>
<asrwt>0</asrwt>
<pdfrwt beam="1">  1        2 0.24674900E+00 0.41712988E+03</pdfrwt>
<pdfrwt beam="2">  1       -2 0.35977513E-02 0.41712988E+03</pdfrwt>
<totfact> 0.38755874E+03</totfact>
</mgrwt>
</event>
<event>
 4    1  0.5399378E-005  0.3427057E+03  0.7818608E-02  0.1065649E+00
          2   -1    0    0  501    0  0.00000000000E+00  0.00000000000E+00  0.18221805526E+03  0.18221805528E+03  0.25500000000E-02 0.  1.
         -2   -1    0    0    0  501 -0.00000000000E+00 -0.00000000000E+00 -0.16113546944E+03  0.16113546946E+03  0.25500000000E-02 0. -1.
    5000001    1    1    2    0    0 -0.13048931621E+02  0.44264642595E+02  0.13221922331E+02  0.17184135832E+03  0.16500000000E+03 0.  0.
   -5000001    1    1    2    0    0  0.13048931621E+02 -0.44264642595E+02  0.78606634891E+01  0.17151216642E+03  0.16500000000E+03 0.  0.
<mgrwt>
<rscale>  0 0.34270566E+03</rscale>
<asrwt>0</asrwt>
<pdfrwt beam="1">  1        2 0.26031151E-01 0.34270566E+03</pdfrwt>
<pdfrwt beam="2">  1       -2 0.23019353E-01 0.34270566E+03</pdfrwt>
<totfact> 0.33928583E+03</totfact>
</mgrwt>
</event>
<event>
 4    1  0.5399378E-005  0.4977479E+03  0.7818608E-02  0.1014368E+00
         -2   -1    0    0    0  501 -0.00000000000E+00  0.00000000000E+00  0.22621670153E+03  0.22621670155E+03  0.25500000000E-02 0. -1.
          2   -1    0    0  501    0  0.00000000000E+00 -0.00000000000E+00 -0.27380043837E+03  0.27380043838E+03  0.25500000000E-02 0.  1.
    5000001    1    1    2    0    0 -0.96299673097E+02  0.63711364987E+02  0.12309537712E+03  0.23603016107E+03  0.16500000000E+03 0.  0.
   -5000001    1    1    2    0    0  0.96299673097E+02 -0.63711364987E+02 -0.17067911396E+03  0.26398697886E+03  0.16500000000E+03 0.  0.
<mgrwt>
<rscale>  0 0.49774786E+03</rscale>
<asrwt>0</asrwt>
<pdfrwt beam="1">  1        2 0.39114348E-01 0.49774786E+03</pdfrwt>
<pdfrwt beam="2">  1       -2 0.32316672E-01 0.49774786E+03</pdfrwt>
<totfact> 0.11765775E+03</totfact>
</mgrwt>
</event>
<event>
 4    1  0.5399378E-005  0.7062187E+03  0.7818608E-02  0.9706656E-01
         -2   -1    0    0    0  501 -0.00000000000E+00  0.00000000000E+00  0.66485585982E+02  0.66485586031E+02  0.25500000000E-02 0. -1.
          2   -1    0    0  501    0  0.00000000000E+00 -0.00000000000E+00 -0.18753873500E+04  0.18753873500E+04  0.25500000000E-02 0.  1.
    5000001    1    1    2    0    0 -0.15878985911E+03 -0.14489019821E+03 -0.15269586396E+04  0.15508175509E+04  0.16500000000E+03 0.  0.
   -5000001    1    1    2    0    0  0.15878985911E+03  0.14489019821E+03 -0.28194312442E+03  0.39105538521E+03  0.16500000000E+03 0.  0.
<mgrwt>
<rscale>  0 0.70621874E+03</rscale>
<asrwt>0</asrwt>
<pdfrwt beam="1">  1        2 0.26791245E+00 0.70621874E+03</pdfrwt>
<pdfrwt beam="2">  1       -2 0.94979420E-02 0.70621874E+03</pdfrwt>
<totfact> 0.70786588E+02</totfact>
</mgrwt>
</event>
<event>
 4    1  0.5399378E-005  0.8774991E+03  0.7818608E-02  0.9454154E-01
          2   -1    0    0  501    0  0.00000000000E+00  0.00000000000E+00  0.10274564634E+04  0.10274564634E+04  0.25500000000E-02 0.  1.
         -2   -1    0    0    0  501 -0.00000000000E+00 -0.00000000000E+00 -0.18735700657E+03  0.18735700658E+03  0.25500000000E-02 0. -1.
    5000001    1    1    2    0    0  0.24709389465E+03  0.26416126986E+01 -0.26865885674E+02  0.29834400732E+03  0.16500000000E+03 0.  0.
   -5000001    1    1    2    0    0 -0.24709389465E+03 -0.26416126986E+01  0.86696534253E+03  0.91646946269E+03  0.16500000000E+03 0.  0.
<mgrwt>
<rscale>  0 0.87749910E+03</rscale>
<asrwt>0</asrwt>
<pdfrwt beam="1">  1        2 0.14677950E+00 0.87749910E+03</pdfrwt>
<pdfrwt beam="2">  1       -2 0.26765287E-01 0.87749910E+03</pdfrwt>
<totfact> 0.34210173E+02</totfact>
</mgrwt>
</event>
<event>
 4    1  0.5399378E-005  0.4319827E+03  0.7818608E-02  0.1033235E+00
          2   -1    0    0  501    0  0.00000000000E+00  0.00000000000E+00  0.39917913237E+03  0.39917913237E+03  0.25500000000E-02 0.  1.
         -2   -1    0    0    0  501 -0.00000000000E+00 -0.00000000000E+00 -0.11687049906E+03  0.11687049909E+03  0.25500000000E-02 0. -1.
    5000001    1    1    2    0    0  0.10140313341E+03 -0.95623401489E+02  0.14224530441E+03  0.25862164837E+03  0.16500000000E+03 0.  0.
   -5000001    1    1    2    0    0 -0.10140313341E+03  0.95623401489E+02  0.14006332889E+03  0.25742798309E+03  0.16500000000E+03 0.  0.
<mgrwt>
<rscale>  0 0.43198271E+03</rscale>
<asrwt>0</asrwt>
<pdfrwt beam="1">  1        2 0.57025591E-01 0.43198271E+03</pdfrwt>
<pdfrwt beam="2">  1       -2 0.16695786E-01 0.43198271E+03</pdfrwt>
<totfact> 0.25020422E+03</totfact>
</mgrwt>
</event>
<event>
 4    1  0.5399378E-005  0.7578536E+03  0.7818608E-02  0.9623109E-01
         -2   -1    0    0    0  501 -0.00000000000E+00  0.00000000000E+00  0.53170678308E+02  0.53170678369E+02  0.25500000000E-02 0. -1.
          2   -1    0    0  501    0  0.00000000000E+00 -0.00000000000E+00 -0.27004641140E+04  0.27004641140E+04  0.25500000000E-02 0.  1.
    5000001    1    1    2    0    0  0.11713389678E+03 -0.28379507638E+03 -0.18638064714E+04  0.18961169684E+04  0.16500000000E+03 0.  0.
   -5000001    1    1    2    0    0 -0.11713389678E+03  0.28379507638E+03 -0.78348696430E+03  0.85751782394E+03  0.16500000000E+03 0.  0.
<mgrwt>
<rscale>  0 0.75785357E+03</rscale>
<asrwt>0</asrwt>
<pdfrwt beam="1">  1        2 0.38578050E+00 0.75785357E+03</pdfrwt>
<pdfrwt beam="2">  1       -2 0.75958129E-02 0.75785357E+03</pdfrwt>
<totfact> 0.38220307E+02</totfact>
</mgrwt>
</event>
<event>
 4    1  0.5399378E-005  0.3737444E+03  0.7818608E-02  0.1053270E+00
          2   -1    0    0  501    0  0.00000000000E+00  0.00000000000E+00  0.79129716086E+02  0.79129716127E+02  0.25500000000E-02 0.  1.
         -2   -1    0    0    0  501 -0.00000000000E+00 -0.00000000000E+00 -0.44131613714E+03  0.44131613715E+03  0.25500000000E-02 0. -1.
    5000001    1    1    2    0    0  0.33884754513E+02  0.34967822172E+02 -0.79474728352E+02  0.18950503324E+03  0.16500000000E+03 0.  0.
   -5000001    1    1    2    0    0 -0.33884754513E+02 -0.34967822172E+02 -0.28271169271E+03  0.33094082004E+03  0.16500000000E+03 0.  0.
<mgrwt>
<rscale>  0 0.37374441E+03</rscale>
<asrwt>0</asrwt>
<pdfrwt beam="1">  1        2 0.11304245E-01 0.37374441E+03</pdfrwt>
<pdfrwt beam="2">  1       -2 0.63045161E-01 0.37374441E+03</pdfrwt>
<totfact> 0.13204127E+03</totfact>
</mgrwt>
</event>
<event>
 4    1  0.5399378E-005  0.3902115E+03  0.7818608E-02  0.1047223E+00
          2   -1    0    0  501    0  0.00000000000E+00  0.00000000000E+00  0.77604730667E+03  0.77604730667E+03  0.25500000000E-02 0.  1.
         -2   -1    0    0    0  501 -0.00000000000E+00 -0.00000000000E+00 -0.49051456081E+02  0.49051456147E+02  0.25500000000E-02 0. -1.
    5000001    1    1    2    0    0  0.11866613253E+02 -0.89515676675E+02  0.25388286406E+03  0.31596737418E+03  0.16500000000E+03 0.  0.
   -5000001    1    1    2    0    0 -0.11866613253E+02  0.89515676675E+02  0.47311298652E+03  0.50913138864E+03  0.16500000000E+03 0.  0.
<mgrwt>
<rscale>  0 0.39021148E+03</rscale>
<asrwt>0</asrwt>
<pdfrwt beam="1">  1        2 0.11086391E+00 0.39021148E+03</pdfrwt>
<pdfrwt beam="2">  1       -2 0.70073504E-02 0.39021148E+03</pdfrwt>
<totfact> 0.47395434E+03</totfact>
</mgrwt>
</event>
<event>
 4    1  0.5399378E-005  0.9069564E+03  0.7818608E-02  0.9416927E-01
          2   -1    0    0  501    0  0.00000000000E+00  0.00000000000E+00  0.33364971450E+03  0.33364971451E+03  0.25500000000E-02 0.  1.
         -2   -1    0    0    0  501 -0.00000000000E+00 -0.00000000000E+00 -0.61634240661E+03  0.61634240661E+03  0.25500000000E-02 0. -1.
    5000001    1    1    2    0    0 -0.29063624813E+03  0.30648330046E+03 -0.13715316391E+03  0.47374827974E+03  0.16500000000E+03 0.  0.
   -5000001    1    1    2    0    0  0.29063624813E+03 -0.30648330046E+03 -0.14553952819E+03  0.47624384138E+03  0.16500000000E+03 0.  0.
<mgrwt>
<rscale>  0 0.90695638E+03</rscale>
<asrwt>0</asrwt>
<pdfrwt beam="1">  1        2 0.47664245E-01 0.90695638E+03</pdfrwt>
<pdfrwt beam="2">  1       -2 0.88048915E-01 0.90695638E+03</pdfrwt>
<totfact> 0.11816023E+02</totfact>
</mgrwt>
</event>
<event>
 4    1  0.5399378E-005  0.4335066E+03  0.7818608E-02  0.1032758E+00
         -2   -1    0    0    0  501 -0.00000000000E+00  0.00000000000E+00  0.45758683869E+02  0.45758683940E+02  0.25500000000E-02 0. -1.
          2   -1    0    0  501    0  0.00000000000E+00 -0.00000000000E+00 -0.10267341244E+04  0.10267341244E+04  0.25500000000E-02 0.  1.
    5000001    1    1    2    0    0  0.53260916387E+02 -0.12888668289E+03 -0.53394136691E+03  0.57599208808E+03  0.16500000000E+03 0.  0.
   -5000001    1    1    2    0    0 -0.53260916387E+02  0.12888668289E+03 -0.44703407365E+03  0.49650072029E+03  0.16500000000E+03 0.  0.
<mgrwt>
<rscale>  0 0.43350664E+03</rscale>
<asrwt>0</asrwt>
<pdfrwt beam="1">  1        2 0.14667629E+00 0.43350664E+03</pdfrwt>
<pdfrwt beam="2">  1       -2 0.65369555E-02 0.43350664E+03</pdfrwt>
<totfact> 0.36588343E+03</totfact>
</mgrwt>
</event>
<event>
 4    1  0.5399378E-005  0.3546353E+03  0.7818608E-02  0.1060728E+00
          2   -1    0    0  501    0  0.00000000000E+00  0.00000000000E+00  0.11340224888E+04  0.11340224888E+04  0.25500000000E-02 0.  1.
         -2   -1    0    0    0  501 -0.00000000000E+00 -0.00000000000E+00 -0.27725681243E+02  0.27725681360E+02  0.25500000000E-02 0. -1.
    5000001    1    1    2    0    0  0.45959854344E+02  0.44420967863E+02  0.59064496363E+03  0.61658089790E+03  0.16500000000E+03 0.  0.
   -5000001    1    1    2    0    0 -0.45959854344E+02 -0.44420967863E+02  0.51565184391E+03  0.54516727224E+03  0.16500000000E+03 0.  0.
<mgrwt>
<rscale>  0 0.35463528E+03</rscale>
<asrwt>0</asrwt>
<pdfrwt beam="1">  1        2 0.16200324E+00 0.35463528E+03</pdfrwt>
<pdfrwt beam="2">  1       -2 0.39608109E-02 0.35463528E+03</pdfrwt>
<totfact> 0.68342682E+03</totfact>
</mgrwt>
</event>
<event>
 4    1  0.5399378E-005  0.8000884E+03  0.7818608E-02  0.9559889E-01
         -2   -1    0    0    0  501 -0.00000000000E+00  0.00000000000E+00  0.10388764935E+03  0.10388764938E+03  0.25500000000E-02 0. -1.
          2   -1    0    0  501    0  0.00000000000E+00 -0.00000000000E+00 -0.15404657079E+04  0.15404657079E+04  0.25500000000E-02 0.  1.
    5000001    1    1    2    0    0  0.54522196425E+02  0.35120397434E+03 -0.88390234627E+03  0.96686361977E+03  0.16500000000E+03 0.  0.
   -5000001    1    1    2    0    0 -0.54522196425E+02 -0.35120397434E+03 -0.55267571232E+03  0.67748973755E+03  0.16500000000E+03 0.  0.
<mgrwt>
<rscale>  0 0.80008840E+03</rscale>
<asrwt>0</asrwt>
<pdfrwt beam="1">  1        2 0.22006652E+00 0.80008840E+03</pdfrwt>
<pdfrwt beam="2">  1       -2 0.14841094E-01 0.80008840E+03</pdfrwt>
<totfact> 0.50019286E+02</totfact>
</mgrwt>
</event>
<event>
 4    1  0.5399378E-005  0.3732623E+03  0.7818608E-02  0.1053453E+00
         -2   -1    0    0    0  501 -0.00000000000E+00  0.00000000000E+00  0.38237666319E+03  0.38237666320E+03  0.25500000000E-02 0. -1.
          2   -1    0    0  501    0  0.00000000000E+00 -0.00000000000E+00 -0.91091274667E+02  0.91091274702E+02  0.25500000000E-02 0.  1.
    5000001    1    1    2    0    0 -0.79579298912E+02  0.10794056933E+02  0.18878524933E+03  0.26327598988E+03  0.16500000000E+03 0.  0.
   -5000001    1    1    2    0    0  0.79579298912E+02 -0.10794056933E+02  0.10250013919E+03  0.21019194803E+03  0.16500000000E+03 0.  0.
<mgrwt>
<rscale>  0 0.37326225E+03</rscale>
<asrwt>0</asrwt>
<pdfrwt beam="1">  1        2 0.13013039E-01 0.37326225E+03</pdfrwt>
<pdfrwt beam="2">  1       -2 0.54625239E-01 0.37326225E+03</pdfrwt>
<totfact> 0.14957105E+03</totfact>
</mgrwt>
</event>
<event>
 4    1  0.5399378E-005  0.5824007E+03  0.7818608E-02  0.9942607E-01
         -2   -1    0    0    0  501 -0.00000000000E+00  0.00000000000E+00  0.17337826961E+03  0.17337826963E+03  0.25500000000E-02 0. -1.
          2   -1    0    0  501    0  0.00000000000E+00 -0.00000000000E+00 -0.48909031537E+03  0.48909031537E+03  0.25500000000E-02 0.  1.
    5000001    1    1    2    0    0  0.11429976275E+03 -0.65072992544E+02  0.70416798949E+02  0.22244652323E+03  0.16500000000E+03 0.  0.
   -5000001    1    1    2    0    0 -0.11429976275E+03  0.65072992544E+02 -0.38612884471E+03  0.44002206177E+03  0.16500000000E+03 0.  0.
<mgrwt>
<rscale>  0 0.58240066E+03</rscale>
<asrwt>0</asrwt>
<pdfrwt beam="1">  1        2 0.69870044E-01 0.58240066E+03</pdfrwt>
<pdfrwt beam="2">  1       -2 0.24768324E-01 0.58240066E+03</pdfrwt>
<totfact> 0.10056997E+03</totfact>
</mgrwt>
</event>
<event>
 4    1  0.5399378E-005  0.5068312E+03  0.7818608E-02  0.1012011E+00
          2   -1    0    0  501    0  0.00000000000E+00  0.00000000000E+00  0.16893288053E+04  0.16893288053E+04  0.25500000000E-02 0.  1.
         -2   -1    0    0    0  501 -0.00000000000E+00 -0.00000000000E+00 -0.38014784385E+02  0.38014784470E+02  0.25500000000E-02 0. -1.
    5000001    1    1    2    0    0 -0.58847153926E+02  0.13491901451E+03  0.40370508483E+03  0.46029221536E+03  0.16500000000E+03 0.  0.
   -5000001    1    1    2    0    0  0.58847153926E+02 -0.13491901451E+03  0.12476089361E+04  0.12670513744E+04  0.16500000000E+03 0.  0.
<mgrwt>
<rscale>  0 0.50683122E+03</rscale>
<asrwt>0</asrwt>
<pdfrwt beam="1">  1        2 0.24133266E+00 0.50683122E+03</pdfrwt>
<pdfrwt beam="2">  1       -2 0.54306841E-02 0.50683122E+03</pdfrwt>
<totfact> 0.21501681E+03</totfact>
</mgrwt>
</event>
<event>
 4    1  0.5399378E-005  0.6185829E+03  0.7818608E-02  0.9867585E-01
         -2   -1    0    0    0  501 -0.00000000000E+00  0.00000000000E+00  0.41695350846E+02  0.41695350924E+02  0.25500000000E-02 0. -1.
          2   -1    0    0  501    0  0.00000000000E+00 -0.00000000000E+00 -0.22942895219E+04  0.22942895219E+04  0.25500000000E-02 0.  1.
    5000001    1    1    2    0    0  0.13690072073E+03 -0.43367425960E+02 -0.19520462128E+04  0.19642637191E+04  0.16500000000E+03 0.  0.
   -5000001    1    1    2    0    0 -0.13690072073E+03  0.43367425960E+02 -0.30054795825E+03  0.37172115379E+03  0.16500000000E+03 0.  0.
<mgrwt>
<rscale>  0 0.61858292E+03</rscale>
<asrwt>0</asrwt>
<pdfrwt beam="1">  1        2 0.32775557E+00 0.61858292E+03</pdfrwt>
<pdfrwt beam="2">  1       -2 0.59564802E-02 0.61858292E+03</pdfrwt>
<totfact> 0.91908587E+02</totfact>
</mgrwt>
</event>
<event>
 4    1  0.5399378E-005  0.3785238E+03  0.7818608E-02  0.1051481E+00
          2   -1    0    0  501    0  0.00000000000E+00  0.00000000000E+00  0.12998579891E+04  0.12998579891E+04  0.25500000000E-02 0.  1.
         -2   -1    0    0    0  501 -0.00000000000E+00 -0.00000000000E+00 -0.27556902847E+02  0.27556902965E+02  0.25500000000E-02 0. -1.
    5000001    1    1    2    0    0 -0.54519553013E+02 -0.70919303128E+02  0.55074443898E+03  0.58184737371E+03  0.16500000000E+03 0.  0.
   -5000001    1    1    2    0    0  0.54519553013E+02  0.70919303128E+02  0.72155664726E+03  0.74556751835E+03  0.16500000000E+03 0.  0.
<mgrwt>
<rscale>  0 0.37852377E+03</rscale>
<asrwt>0</asrwt>
<pdfrwt beam="1">  1        2 0.18569399E+00 0.37852377E+03</pdfrwt>
<pdfrwt beam="2">  1       -2 0.39367007E-02 0.37852377E+03</pdfrwt>
<totfact> 0.56029769E+03</totfact>
</mgrwt>
</event>
<event>
 4    1  0.5399378E-005  0.6557439E+03  0.7818608E-02  0.9796060E-01
         -2   -1    0    0    0  501 -0.00000000000E+00  0.00000000000E+00  0.71763311462E+02  0.71763311507E+02  0.25500000000E-02 0. -1.
          2   -1    0    0  501    0  0.00000000000E+00 -0.00000000000E+00 -0.14979803478E+04  0.14979803478E+04  0.25500000000E-02 0.  1.
    5000001    1    1    2    0    0  0.24905547276E+03 -0.12336064889E+03 -0.84484679314E+03  0.90456485787E+03  0.16500000000E+03 0.  0.
   -5000001    1    1    2    0    0 -0.24905547276E+03  0.12336064889E+03 -0.58137024315E+03  0.66517880140E+03  0.16500000000E+03 0.  0.
<mgrwt>
<rscale>  0 0.65574394E+03</rscale>
<asrwt>0</asrwt>
<pdfrwt beam="1">  1        2 0.21399717E+00 0.65574394E+03</pdfrwt>
<pdfrwt beam="2">  1       -2 0.10251903E-01 0.65574394E+03</pdfrwt>
<totfact> 0.97863323E+02</totfact>
</mgrwt>
</event>
<event>
 4    1  0.5399378E-005  0.4371721E+03  0.7818608E-02  0.1031618E+00
          2   -1    0    0  501    0  0.00000000000E+00  0.00000000000E+00  0.33771008727E+04  0.33771008727E+04  0.25500000000E-02 0.  1.
         -2   -1    0    0    0  501 -0.00000000000E+00 -0.00000000000E+00 -0.14148190862E+02  0.14148191092E+02  0.25500000000E-02 0. -1.
    5000001    1    1    2    0    0  0.92294154267E+02  0.74844384011E+02  0.23037489179E+04  0.23127049032E+04  0.16500000000E+03 0.  0.
   -5000001    1    1    2    0    0 -0.92294154267E+02 -0.74844384011E+02  0.10592037640E+04  0.10785441606E+04  0.16500000000E+03 0.  0.
<mgrwt>
<rscale>  0 0.43717213E+03</rscale>
<asrwt>0</asrwt>
<pdfrwt beam="1">  1        2 0.48244333E+00 0.43717213E+03</pdfrwt>
<pdfrwt beam="2">  1       -2 0.20211687E-02 0.43717213E+03</pdfrwt>
<totfact> 0.12843480E+03</totfact>
</mgrwt>
</event>
<event>
 4    1  0.5399378E-005  0.5094275E+03  0.7818608E-02  0.1011347E+00
          2   -1    0    0  501    0  0.00000000000E+00  0.00000000000E+00  0.55689319601E+02  0.55689319659E+02  0.25500000000E-02 0.  1.
         -2   -1    0    0    0  501 -0.00000000000E+00 -0.00000000000E+00 -0.11650186154E+04  0.11650186155E+04  0.25500000000E-02 0. -1.
    5000001    1    1    2    0    0  0.16549516233E+03  0.91448119451E+02 -0.45014136777E+03  0.51536749828E+03  0.16500000000E+03 0.  0.
   -5000001    1    1    2    0    0 -0.16549516233E+03 -0.91448119451E+02 -0.65918792808E+03  0.70534043684E+03  0.16500000000E+03 0.  0.
<mgrwt>
<rscale>  0 0.50942750E+03</rscale>
<asrwt>0</asrwt>
<pdfrwt beam="1">  1        2 0.79556178E-02 0.50942750E+03</pdfrwt>
<pdfrwt beam="2">  1       -2 0.16643122E+00 0.50942750E+03</pdfrwt>
<totfact> 0.20580380E+02</totfact>
</mgrwt>
</event>
<event>
 4    1  0.5399378E-005  0.4243129E+03  0.7818608E-02  0.1035672E+00
          2   -1    0    0  501    0  0.00000000000E+00  0.00000000000E+00  0.26296065453E+03  0.26296065455E+03  0.25500000000E-02 0.  1.
         -2   -1    0    0    0  501 -0.00000000000E+00 -0.00000000000E+00 -0.17116763244E+03  0.17116763246E+03  0.25500000000E-02 0. -1.
    5000001    1    1    2    0    0  0.16702963361E+02  0.11493256519E+03  0.11296336663E+03  0.23124490421E+03  0.16500000000E+03 0.  0.
   -5000001    1    1    2    0    0 -0.16702963361E+02 -0.11493256519E+03 -0.21170344534E+02  0.20288338279E+03  0.16500000000E+03 0.  0.
<mgrwt>
<rscale>  0 0.42431287E+03</rscale>
<asrwt>0</asrwt>
<pdfrwt beam="1">  1        2 0.37565808E-01 0.42431287E+03</pdfrwt>
<pdfrwt beam="2">  1       -2 0.24452519E-01 0.42431287E+03</pdfrwt>
<totfact> 0.20399779E+03</totfact>
</mgrwt>
</event>
<event>
 4    1  0.5399378E-005  0.1047291E+04  0.7818608E-02  0.9258145E-01
         -2   -1    0    0    0  501 -0.00000000000E+00  0.00000000000E+00  0.62351965138E+02  0.62351965190E+02  0.25500000000E-02 0. -1.
          2   -1    0    0  501    0  0.00000000000E+00 -0.00000000000E+00 -0.43976895869E+04  0.43976895869E+04  0.25500000000E-02 0.  1.
    5000001    1    1    2    0    0 -0.66105694981E+02 -0.48791005166E+03 -0.18802999128E+04  0.19506867876E+04  0.16500000000E+03 0.  0.
   -5000001    1    1    2    0    0  0.66105694981E+02  0.48791005166E+03 -0.24550377090E+04  0.25093547645E+04  0.16500000000E+03 0.  0.
<mgrwt>
<rscale>  0 0.10472910E+04</rscale>
<asrwt>0</asrwt>
<pdfrwt beam="1">  1        2 0.62824117E+00 0.10472910E+04</pdfrwt>
<pdfrwt beam="2">  1       -2 0.89074264E-02 0.10472910E+04</pdfrwt>
<totfact> 0.25566473E+01</totfact>
</mgrwt>
</event>
<event>
 4    1  0.5399378E-005  0.7708462E+03  0.7818608E-02  0.9603202E-01
         -2   -1    0    0    0  501 -0.00000000000E+00  0.00000000000E+00  0.15015758832E+03  0.15015758834E+03  0.25500000000E-02 0. -1.
          2   -1    0    0  501    0  0.00000000000E+00 -0.00000000000E+00 -0.98930051756E+03  0.98930051757E+03  0.25500000000E-02 0.  1.
    5000001    1    1    2    0    0 -0.34356799713E+03 -0.42996221399E+02 -0.36351046931E+03  0.52844347380E+03  0.16500000000E+03 0.  0.
   -5000001    1    1    2    0    0  0.34356799713E+03  0.42996221399E+02 -0.47563245993E+03  0.61101463211E+03  0.16500000000E+03 0.  0.
<mgrwt>
<rscale>  0 0.77084624E+03</rscale>
<asrwt>0</asrwt>
<pdfrwt beam="1">  1        2 0.14132864E+00 0.77084624E+03</pdfrwt>
<pdfrwt beam="2">  1       -2 0.21451084E-01 0.77084624E+03</pdfrwt>
<totfact> 0.53948549E+02</totfact>
</mgrwt>
</event>
<event>
 4    1  0.5399378E-005  0.5583622E+03  0.7818608E-02  0.9995767E-01
          2   -1    0    0  501    0  0.00000000000E+00  0.00000000000E+00  0.57353914363E+03  0.57353914363E+03  0.25500000000E-02 0.  1.
         -2   -1    0    0    0  501 -0.00000000000E+00 -0.00000000000E+00 -0.13589669783E+03  0.13589669786E+03  0.25500000000E-02 0. -1.
    5000001    1    1    2    0    0  0.34090490840E+02  0.17965587740E+03  0.51807396790E+02  0.25168909832E+03  0.16500000000E+03 0.  0.
   -5000001    1    1    2    0    0 -0.34090490840E+02 -0.17965587740E+03  0.38583504900E+03  0.45774674318E+03  0.16500000000E+03 0.  0.
<mgrwt>
<rscale>  0 0.55836216E+03</rscale>
<asrwt>0</asrwt>
<pdfrwt beam="1">  1        2 0.81934162E-01 0.55836216E+03</pdfrwt>
<pdfrwt beam="2">  1       -2 0.19413814E-01 0.55836216E+03</pdfrwt>
<totfact> 0.12868282E+03</totfact>
</mgrwt>
</event>
<event>
 4    1  0.5399378E-005  0.7403542E+03  0.7818608E-02  0.9650606E-01
          2   -1    0    0  501    0  0.00000000000E+00  0.00000000000E+00  0.23104885115E+04  0.23104885115E+04  0.25500000000E-02 0.  1.
         -2   -1    0    0    0  501 -0.00000000000E+00 -0.00000000000E+00 -0.59308267678E+02  0.59308267733E+02  0.25500000000E-02 0. -1.
    5000001    1    1    2    0    0  0.16214712518E+03 -0.23290523111E+03  0.16732103592E+04  0.17051083377E+04  0.16500000000E+03 0.  0.
   -5000001    1    1    2    0    0 -0.16214712518E+03  0.23290523111E+03  0.57796988461E+03  0.66468844160E+03  0.16500000000E+03 0.  0.
<mgrwt>
<rscale>  0 0.74035416E+03</rscale>
<asrwt>0</asrwt>
<pdfrwt beam="1">  1        2 0.33006982E+00 0.74035416E+03</pdfrwt>
<pdfrwt beam="2">  1       -2 0.84726089E-02 0.74035416E+03</pdfrwt>
<totfact> 0.51134757E+02</totfact>
</mgrwt>
</event>
<event>
 4    1  0.5399378E-005  0.6137590E+03  0.7818608E-02  0.9877265E-01
         -2   -1    0    0    0  501 -0.00000000000E+00  0.00000000000E+00  0.96298290538E+02  0.96298290572E+02  0.25500000000E-02 0. -1.
          2   -1    0    0  501    0  0.00000000000E+00 -0.00000000000E+00 -0.97795119405E+03  0.97795119406E+03  0.25500000000E-02 0.  1.
    5000001    1    1    2    0    0 -0.11350816049E+03  0.23121394444E+03 -0.48391452526E+03  0.57248778010E+03  0.16500000000E+03 0.  0.
   -5000001    1    1    2    0    0  0.11350816049E+03 -0.23121394444E+03 -0.39773837825E+03  0.50176170453E+03  0.16500000000E+03 0.  0.
<mgrwt>
<rscale>  0 0.61375900E+03</rscale>
<asrwt>0</asrwt>
<pdfrwt beam="1">  1        2 0.13970731E+00 0.61375900E+03</pdfrwt>
<pdfrwt beam="2">  1       -2 0.13756899E-01 0.61375900E+03</pdfrwt>
<totfact> 0.11801737E+03</totfact>
</mgrwt>
</event>
<event>
 4    1  0.5399378E-005  0.3649569E+03  0.7818608E-02  0.1056638E+00
         -2   -1    0    0    0  501 -0.00000000000E+00  0.00000000000E+00  0.38321909024E+02  0.38321909109E+02  0.25500000000E-02 0. -1.
          2   -1    0    0  501    0  0.00000000000E+00 -0.00000000000E+00 -0.86891226090E+03  0.86891226091E+03  0.25500000000E-02 0.  1.
    5000001    1    1    2    0    0  0.65339589758E+02 -0.35735324072E+02 -0.47236741440E+03  0.50586781827E+03  0.16500000000E+03 0.  0.
   -5000001    1    1    2    0    0 -0.65339589758E+02  0.35735324072E+02 -0.35822293748E+03  0.40136635175E+03  0.16500000000E+03 0.  0.
<mgrwt>
<rscale>  0 0.36495686E+03</rscale>
<asrwt>0</asrwt>
<pdfrwt beam="1">  1        2 0.12413031E+00 0.36495686E+03</pdfrwt>
<pdfrwt beam="2">  1       -2 0.54745590E-02 0.36495686E+03</pdfrwt>
<totfact> 0.60148010E+03</totfact>
</mgrwt>
</event>
<event>
 4    1  0.5399378E-005  0.3557254E+03  0.7818608E-02  0.1060289E+00
         -2   -1    0    0    0  501 -0.00000000000E+00  0.00000000000E+00  0.21250540278E+02  0.21250540431E+02  0.25500000000E-02 0. -1.
          2   -1    0    0  501    0  0.00000000000E+00 -0.00000000000E+00 -0.14886742571E+04  0.14886742571E+04  0.25500000000E-02 0.  1.
    5000001    1    1    2    0    0  0.60646706570E+02  0.18613902355E+02 -0.65035774699E+03  0.67395452328E+03  0.16500000000E+03 0.  0.
   -5000001    1    1    2    0    0 -0.60646706570E+02 -0.18613902355E+02 -0.81706596981E+03  0.83597027423E+03  0.16500000000E+03 0.  0.
<mgrwt>
<rscale>  0 0.35572536E+03</rscale>
<asrwt>0</asrwt>
<pdfrwt beam="1">  1        2 0.21266768E+00 0.35572536E+03</pdfrwt>
<pdfrwt beam="2">  1       -2 0.30357924E-02 0.35572536E+03</pdfrwt>
<totfact> 0.66042401E+03</totfact>
</mgrwt>
</event>
<event>
 4    1  0.5399378E-005  0.8790625E+03  0.7818608E-02  0.9452139E-01
          2   -1    0    0  501    0  0.00000000000E+00  0.00000000000E+00  0.23256526687E+04  0.23256526687E+04  0.25500000000E-02 0.  1.
         -2   -1    0    0    0  501 -0.00000000000E+00 -0.00000000000E+00 -0.83068181532E+02  0.83068181571E+02  0.25500000000E-02 0. -1.
    5000001    1    1    2    0    0 -0.22829057571E+03 -0.20185093722E+03  0.18621457957E+04  0.18941151898E+04  0.16500000000E+03 0.  0.
   -5000001    1    1    2    0    0  0.22829057571E+03  0.20185093722E+03  0.38043869146E+03  0.51460566046E+03  0.16500000000E+03 0.  0.
<mgrwt>
<rscale>  0 0.87906254E+03</rscale>
<asrwt>0</asrwt>
<pdfrwt beam="1">  1        2 0.33223610E+00 0.87906254E+03</pdfrwt>
<pdfrwt beam="2">  1       -2 0.11866883E-01 0.87906254E+03</pdfrwt>
<totfact> 0.28701239E+02</totfact>
</mgrwt>
</event>
<event>
 4    1  0.5399378E-005  0.3582160E+03  0.7818608E-02  0.1059293E+00
          2   -1    0    0  501    0  0.00000000000E+00  0.00000000000E+00  0.12402370279E+04  0.12402370279E+04  0.25500000000E-02 0.  1.
         -2   -1    0    0    0  501 -0.00000000000E+00 -0.00000000000E+00 -0.25865755955E+02  0.25865756080E+02  0.25500000000E-02 0. -1.
    5000001    1    1    2    0    0  0.25242306962E+02  0.64918867913E+02  0.60102825415E+03  0.62714559374E+03  0.16500000000E+03 0.  0.
   -5000001    1    1    2    0    0 -0.25242306962E+02 -0.64918867913E+02  0.61334301777E+03  0.63895719021E+03  0.16500000000E+03 0.  0.
<mgrwt>
<rscale>  0 0.35821596E+03</rscale>
<asrwt>0</asrwt>
<pdfrwt beam="1">  1        2 0.17717674E+00 0.35821596E+03</pdfrwt>
<pdfrwt beam="2">  1       -2 0.36951076E-02 0.35821596E+03</pdfrwt>
<totfact> 0.66345407E+03</totfact>
</mgrwt>
</event>
<event>
 4    1  0.5399378E-005  0.7884983E+03  0.7818608E-02  0.9576816E-01
          2   -1    0    0  501    0  0.00000000000E+00  0.00000000000E+00  0.18582846169E+04  0.18582846169E+04  0.25500000000E-02 0.  1.
         -2   -1    0    0    0  501 -0.00000000000E+00 -0.00000000000E+00 -0.83642931327E+02  0.83642931366E+02  0.25500000000E-02 0. -1.
    5000001    1    1    2    0    0  0.61873050148E+02 -0.34926774052E+03  0.10077509658E+04  0.10810195364E+04  0.16500000000E+03 0.  0.
   -5000001    1    1    2    0    0 -0.61873050148E+02  0.34926774052E+03  0.76689071969E+03  0.86090801184E+03  0.16500000000E+03 0.  0.
<mgrwt>
<rscale>  0 0.78849825E+03</rscale>
<asrwt>0</asrwt>
<pdfrwt beam="1">  1        2 0.26546920E+00 0.78849825E+03</pdfrwt>
<pdfrwt beam="2">  1       -2 0.11948991E-01 0.78849825E+03</pdfrwt>
<totfact> 0.49359715E+02</totfact>
</mgrwt>
</event>
<event>
 4    1  0.5399378E-005  0.5471937E+03  0.7818608E-02  0.1002146E+00
         -2   -1    0    0    0  501 -0.00000000000E+00  0.00000000000E+00  0.26266720410E+02  0.26266720534E+02  0.25500000000E-02 0. -1.
          2   -1    0    0  501    0  0.00000000000E+00 -0.00000000000E+00 -0.28498131902E+04  0.28498131902E+04  0.25500000000E-02 0.  1.
    5000001    1    1    2    0    0  0.18584456055E+03 -0.81156003765E+02 -0.18357172190E+04  0.18542403312E+04  0.16500000000E+03 0.  0.
   -5000001    1    1    2    0    0 -0.18584456055E+03  0.81156003765E+02 -0.98782925084E+03  0.10218395796E+04  0.16500000000E+03 0.  0.
<mgrwt>
<rscale>  0 0.54719374E+03</rscale>
<asrwt>0</asrwt>
<pdfrwt beam="1">  1        2 0.40711597E+00 0.54719374E+03</pdfrwt>
<pdfrwt beam="2">  1       -2 0.37523904E-02 0.54719374E+03</pdfrwt>
<totfact> 0.97493620E+02</totfact>
</mgrwt>
</event>
<event>
 4    1  0.5399378E-005  0.4312654E+03  0.7818608E-02  0.1033461E+00
          2   -1    0    0  501    0  0.00000000000E+00  0.00000000000E+00  0.73288794015E+02  0.73288794059E+02  0.25500000000E-02 0.  1.
         -2   -1    0    0    0  501 -0.00000000000E+00 -0.00000000000E+00 -0.63444171666E+03  0.63444171667E+03  0.25500000000E-02 0. -1.
    5000001    1    1    2    0    0 -0.10913589865E+02 -0.13270125755E+03 -0.34505424215E+03  0.40498908655E+03  0.16500000000E+03 0.  0.
   -5000001    1    1    2    0    0  0.10913589865E+02  0.13270125755E+03 -0.21609868050E+03  0.30274142418E+03  0.16500000000E+03 0.  0.
<mgrwt>
<rscale>  0 0.43126543E+03</rscale>
<asrwt>0</asrwt>
<pdfrwt beam="1">  1        2 0.10469828E-01 0.43126543E+03</pdfrwt>
<pdfrwt beam="2">  1       -2 0.90634528E-01 0.43126543E+03</pdfrwt>
<totfact> 0.65564468E+02</totfact>
</mgrwt>
</event>
<event>
 4    1  0.5399378E-005  0.4706413E+03  0.7818608E-02  0.1021739E+00
          2   -1    0    0  501    0  0.00000000000E+00  0.00000000000E+00  0.12915411567E+04  0.12915411567E+04  0.25500000000E-02 0.  1.
         -2   -1    0    0    0  501 -0.00000000000E+00 -0.00000000000E+00 -0.42875766160E+02  0.42875766236E+02  0.25500000000E-02 0. -1.
    5000001    1    1    2    0    0  0.13473365887E+03 -0.92583239526E+02  0.51726425423E+03  0.56702039097E+03  0.16500000000E+03 0.  0.
   -5000001    1    1    2    0    0 -0.13473365887E+03  0.92583239526E+02  0.73140113627E+03  0.76739653193E+03  0.16500000000E+03 0.  0.
<mgrwt>
<rscale>  0 0.47064134E+03</rscale>
<asrwt>0</asrwt>
<pdfrwt beam="1">  1        2 0.18450593E+00 0.47064134E+03</pdfrwt>
<pdfrwt beam="2">  1       -2 0.61251077E-02 0.47064134E+03</pdfrwt>
<totfact> 0.28722278E+03</totfact>
</mgrwt>
</event>
<event>
 4    1  0.5399378E-005  0.5102801E+03  0.7818608E-02  0.1011130E+00
          2   -1    0    0  501    0  0.00000000000E+00  0.00000000000E+00  0.39062295674E+03  0.39062295675E+03  0.25500000000E-02 0.  1.
         -2   -1    0    0    0  501 -0.00000000000E+00 -0.00000000000E+00 -0.16664774448E+03  0.16664774450E+03  0.25500000000E-02 0. -1.
    5000001    1    1    2    0    0 -0.11554221026E+03 -0.14495646874E+03  0.17667991787E+03  0.30463613305E+03  0.16500000000E+03 0.  0.
   -5000001    1    1    2    0    0  0.11554221026E+03  0.14495646874E+03  0.47295294401E+02  0.25263456821E+03  0.16500000000E+03 0.  0.
<mgrwt>
<rscale>  0 0.51028006E+03</rscale>
<asrwt>0</asrwt>
<pdfrwt beam="1">  1        2 0.55803279E-01 0.51028006E+03</pdfrwt>
<pdfrwt beam="2">  1       -2 0.23806821E-01 0.51028006E+03</pdfrwt>
<totfact> 0.13876952E+03</totfact>
</mgrwt>
</event>
<event>
 4    1  0.5399378E-005  0.6241044E+03  0.7818608E-02  0.9856622E-01
         -2   -1    0    0    0  501 -0.00000000000E+00  0.00000000000E+00  0.41848827126E+03  0.41848827127E+03  0.25500000000E-02 0. -1.
          2   -1    0    0  501    0  0.00000000000E+00 -0.00000000000E+00 -0.23268651014E+03  0.23268651015E+03  0.25500000000E-02 0.  1.
    5000001    1    1    2    0    0 -0.24912821171E+03 -0.89807392291E+02  0.88080782255E+02  0.32421205681E+03  0.16500000000E+03 0.  0.
   -5000001    1    1    2    0    0  0.24912821171E+03  0.89807392291E+02  0.97720978869E+02  0.32696272462E+03  0.16500000000E+03 0.  0.
<mgrwt>
<rscale>  0 0.62410440E+03</rscale>
<asrwt>0</asrwt>
<pdfrwt beam="1">  1        2 0.33240930E-01 0.62410440E+03</pdfrwt>
<pdfrwt beam="2">  1       -2 0.59784039E-01 0.62410440E+03</pdfrwt>
<totfact> 0.41733470E+02</totfact>
</mgrwt>
</event>
<event>
 4    1  0.5399378E-005  0.4955732E+03  0.7818608E-02  0.1014941E+00
         -2   -1    0    0    0  501 -0.00000000000E+00  0.00000000000E+00  0.37264973309E+03  0.37264973310E+03  0.25500000000E-02 0. -1.
          2   -1    0    0  501    0  0.00000000000E+00 -0.00000000000E+00 -0.16476115739E+03  0.16476115741E+03  0.25500000000E-02 0.  1.
    5000001    1    1    2    0    0  0.83088186243E+02  0.16491454531E+03  0.11319355530E+03  0.27228337244E+03  0.16500000000E+03 0.  0.
   -5000001    1    1    2    0    0 -0.83088186243E+02 -0.16491454531E+03  0.94695020396E+02  0.26512751806E+03  0.16500000000E+03 0.  0.
<mgrwt>
<rscale>  0 0.49557321E+03</rscale>
<asrwt>0</asrwt>
<pdfrwt beam="1">  1        2 0.23537308E-01 0.49557321E+03</pdfrwt>
<pdfrwt beam="2">  1       -2 0.53235677E-01 0.49557321E+03</pdfrwt>
<totfact> 0.78512176E+02</totfact>
</mgrwt>
</event>
<event>
 4    1  0.5399378E-005  0.5185936E+03  0.7818608E-02  0.1009037E+00
         -2   -1    0    0    0  501 -0.00000000000E+00  0.00000000000E+00  0.43177514029E+02  0.43177514104E+02  0.25500000000E-02 0. -1.
          2   -1    0    0  501    0  0.00000000000E+00 -0.00000000000E+00 -0.15571720567E+04  0.15571720567E+04  0.25500000000E-02 0.  1.
    5000001    1    1    2    0    0  0.12053058989E+03 -0.11206815588E+03 -0.40619036521E+03  0.46829745616E+03  0.16500000000E+03 0.  0.
   -5000001    1    1    2    0    0 -0.12053058989E+03  0.11206815588E+03 -0.11078041774E+04  0.11320521146E+04  0.16500000000E+03 0.  0.
<mgrwt>
<rscale>  0 0.51859355E+03</rscale>
<asrwt>0</asrwt>
<pdfrwt beam="1">  1        2 0.22245312E+00 0.51859355E+03</pdfrwt>
<pdfrwt beam="2">  1       -2 0.61682173E-02 0.51859355E+03</pdfrwt>
<totfact> 0.20585926E+03</totfact>
</mgrwt>
</event>
<event>
 4    1  0.5399378E-005  0.6067329E+03  0.7818608E-02  0.9891535E-01
         -2   -1    0    0    0  501 -0.00000000000E+00  0.00000000000E+00  0.10666590151E+03  0.10666590154E+03  0.25500000000E-02 0. -1.
          2   -1    0    0  501    0  0.00000000000E+00 -0.00000000000E+00 -0.86279873677E+03  0.86279873677E+03  0.25500000000E-02 0.  1.
    5000001    1    1    2    0    0 -0.51700168384E+01  0.24772239437E+03 -0.28471769516E+03  0.41192508989E+03  0.16500000000E+03 0.  0.
   -5000001    1    1    2    0    0  0.51700168384E+01 -0.24772239437E+03 -0.47141514010E+03  0.55753954843E+03  0.16500000000E+03 0.  0.
<mgrwt>
<rscale>  0 0.60673291E+03</rscale>
<asrwt>0</asrwt>
<pdfrwt beam="1">  1        2 0.12325696E+00 0.60673291E+03</pdfrwt>
<pdfrwt beam="2">  1       -2 0.15237986E-01 0.60673291E+03</pdfrwt>
<totfact> 0.11776292E+03</totfact>
</mgrwt>
</event>
<event>
 4    1  0.5399378E-005  0.4897442E+03  0.7818608E-02  0.1016491E+00
         -2   -1    0    0    0  501 -0.00000000000E+00  0.00000000000E+00  0.40665863053E+03  0.40665863054E+03  0.25500000000E-02 0.  1.
          2   -1    0    0  501    0  0.00000000000E+00 -0.00000000000E+00 -0.14745128597E+03  0.14745128599E+03  0.25500000000E-02 0. -1.
    5000001    1    1    2    0    0  0.15685348374E+03 -0.57520610084E+02  0.51006503675E+02  0.24028795093E+03  0.16500000000E+03 0.  0.
   -5000001    1    1    2    0    0 -0.15685348374E+03  0.57520610084E+02  0.20820084088E+03  0.31382196560E+03  0.16500000000E+03 0.  0.
<mgrwt>
<rscale>  0 0.48974417E+03</rscale>
<asrwt>0</asrwt>
<pdfrwt beam="1">  1        2 0.21064469E-01 0.48974417E+03</pdfrwt>
<pdfrwt beam="2">  1       -2 0.58094091E-01 0.48974417E+03</pdfrwt>
<totfact> 0.74505646E+02</totfact>
</mgrwt>
</event>
<event>
 4    1  0.5399378E-005  0.4996237E+03  0.7818608E-02  0.1013877E+00
          2   -1    0    0  501    0  0.00000000000E+00  0.00000000000E+00  0.73319886830E+03  0.73319886831E+03  0.25500000000E-02 0.  1.
         -2   -1    0    0    0  501 -0.00000000000E+00 -0.00000000000E+00 -0.85114649459E+02  0.85114649497E+02  0.25500000000E-02 0. -1.
    5000001    1    1    2    0    0 -0.15498941844E+03  0.37908922364E+02  0.48553671747E+03  0.53705652425E+03  0.16500000000E+03 0.  0.
   -5000001    1    1    2    0    0  0.15498941844E+03 -0.37908922364E+02  0.16254750137E+03  0.28125699356E+03  0.16500000000E+03 0.  0.
<mgrwt>
<rscale>  0 0.49962372E+03</rscale>
<asrwt>0</asrwt>
<pdfrwt beam="1">  1        2 0.10474269E+00 0.49962372E+03</pdfrwt>
<pdfrwt beam="2">  1       -2 0.12159236E-01 0.49962372E+03</pdfrwt>
<totfact> 0.21104033E+03</totfact>
</mgrwt>
</event>
<event>
 4    1  0.5399378E-005  0.3765782E+03  0.7818608E-02  0.1052206E+00
          2   -1    0    0  501    0  0.00000000000E+00  0.00000000000E+00  0.11397513535E+04  0.11397513535E+04  0.25500000000E-02 0.  1.
         -2   -1    0    0    0  501 -0.00000000000E+00 -0.00000000000E+00 -0.31105721782E+02  0.31105721887E+02  0.25500000000E-02 0. -1.
    5000001    1    1    2    0    0 -0.12010719845E+02 -0.31441527891E+02  0.29242992460E+03  0.33745086734E+03  0.16500000000E+03 0.  0.
   -5000001    1    1    2    0    0  0.12010719845E+02  0.31441527891E+02  0.81621570709E+03  0.83340620802E+03  0.16500000000E+03 0.  0.
<mgrwt>
<rscale>  0 0.37657822E+03</rscale>
<asrwt>0</asrwt>
<pdfrwt beam="1">  1        2 0.16282159E+00 0.37657822E+03</pdfrwt>
<pdfrwt beam="2">  1       -2 0.44436755E-02 0.37657822E+03</pdfrwt>
<totfact> 0.57012998E+03</totfact>
</mgrwt>
</event>
<event>
 4    1  0.5399378E-005  0.4131778E+03  0.7818608E-02  0.1039310E+00
         -2   -1    0    0    0  501 -0.00000000000E+00  0.00000000000E+00  0.13137703817E+03  0.13137703820E+03  0.25500000000E-02 0. -1.
          2   -1    0    0  501    0  0.00000000000E+00 -0.00000000000E+00 -0.32485869572E+03  0.32485869573E+03  0.25500000000E-02 0.  1.
    5000001    1    1    2    0    0 -0.28083795741E+02  0.11689262917E+03 -0.61798384421E+02  0.21329938268E+03  0.16500000000E+03 0.  0.
   -5000001    1    1    2    0    0  0.28083795741E+02 -0.11689262917E+03 -0.13168327313E+03  0.24293635125E+03  0.16500000000E+03 0.  0.
<mgrwt>
<rscale>  0 0.41317780E+03</rscale>
<asrwt>0</asrwt>
<pdfrwt beam="1">  1        2 0.46408385E-01 0.41317780E+03</pdfrwt>
<pdfrwt beam="2">  1       -2 0.18768148E-01 0.41317780E+03</pdfrwt>
<totfact> 0.25676440E+03</totfact>
</mgrwt>
</event>
<event>
 4    1  0.5399378E-005  0.4460451E+03  0.7818608E-02  0.1028908E+00
          2   -1    0    0  501    0  0.00000000000E+00  0.00000000000E+00  0.13082993337E+04  0.13082993337E+04  0.25500000000E-02 0.  1.
         -2   -1    0    0    0  501 -0.00000000000E+00 -0.00000000000E+00 -0.38018105413E+02  0.38018105499E+02  0.25500000000E-02 0. -1.
    5000001    1    1    2    0    0 -0.91407977252E+02 -0.95413174509E+02  0.84973974838E+03  0.87563790013E+03  0.16500000000E+03 0.  0.
   -5000001    1    1    2    0    0  0.91407977252E+02  0.95413174509E+02  0.42054147991E+03  0.47067953907E+03  0.16500000000E+03 0.  0.
<mgrwt>
<rscale>  0 0.44604512E+03</rscale>
<asrwt>0</asrwt>
<pdfrwt beam="1">  1        2 0.18689990E+00 0.44604512E+03</pdfrwt>
<pdfrwt beam="2">  1       -2 0.54311579E-02 0.44604512E+03</pdfrwt>
<totfact> 0.33906718E+03</totfact>
</mgrwt>
</event>
<event>
 4    1  0.5399378E-005  0.6486650E+03  0.7818608E-02  0.9809287E-01
         -2   -1    0    0    0  501 -0.00000000000E+00  0.00000000000E+00  0.19611443800E+03  0.19611443801E+03  0.25500000000E-02 0. -1.
          2   -1    0    0  501    0  0.00000000000E+00 -0.00000000000E+00 -0.53637856351E+03  0.53637856352E+03  0.25500000000E-02 0.  1.
    5000001    1    1    2    0    0 -0.70155311117E+02 -0.20333127532E+03  0.30925716500E+02  0.27284936346E+03  0.16500000000E+03 0.  0.
   -5000001    1    1    2    0    0  0.70155311117E+02  0.20333127532E+03 -0.37118984201E+03  0.45964363807E+03  0.16500000000E+03 0.  0.
<mgrwt>
<rscale>  0 0.64866503E+03</rscale>
<asrwt>0</asrwt>
<pdfrwt beam="1">  1        2 0.76625509E-01 0.64866503E+03</pdfrwt>
<pdfrwt beam="2">  1       -2 0.28016348E-01 0.64866503E+03</pdfrwt>
<totfact> 0.72329818E+02</totfact>
</mgrwt>
</event>
<event>
 4    1  0.5399378E-005  0.5340656E+03  0.7818608E-02  0.1005251E+00
          2   -1    0    0  501    0  0.00000000000E+00  0.00000000000E+00  0.25772193967E+04  0.25772193967E+04  0.25500000000E-02 0.  1.
         -2   -1    0    0    0  501 -0.00000000000E+00 -0.00000000000E+00 -0.27668005733E+02  0.27668005851E+02  0.25500000000E-02 0. -1.
    5000001    1    1    2    0    0 -0.25786743938E+02  0.17936546206E+03  0.75756646798E+03  0.79622162652E+03  0.16500000000E+03 0.  0.
   -5000001    1    1    2    0    0  0.25786743938E+02 -0.17936546206E+03  0.17919849230E+04  0.18086657760E+04  0.16500000000E+03 0.  0.
<mgrwt>
<rscale>  0 0.53406562E+03</rscale>
<asrwt>0</asrwt>
<pdfrwt beam="1">  1        2 0.36817410E+00 0.53406562E+03</pdfrwt>
<pdfrwt beam="2">  1       -2 0.39525733E-02 0.53406562E+03</pdfrwt>
<totfact> 0.12512512E+03</totfact>
</mgrwt>
</event>
<event>
 4    1  0.5399378E-005  0.1047075E+04  0.7818608E-02  0.9258369E-01
          2   -1    0    0  501    0  0.00000000000E+00  0.00000000000E+00  0.28844695324E+03  0.28844695325E+03  0.25500000000E-02 0.  1.
         -2   -1    0    0    0  501 -0.00000000000E+00 -0.00000000000E+00 -0.95023183464E+03  0.95023183465E+03  0.25500000000E-02 0. -1.
    5000001    1    1    2    0    0 -0.42448841852E+03 -0.24004819889E+03 -0.44345017330E+03  0.67947524712E+03  0.16500000000E+03 0.  0.
   -5000001    1    1    2    0    0  0.42448841852E+03  0.24004819889E+03 -0.21833470811E+03  0.55920354077E+03  0.16500000000E+03 0.  0.
<mgrwt>
<rscale>  0 0.10470749E+04</rscale>
<asrwt>0</asrwt>
<pdfrwt beam="1">  1        2 0.41206708E-01 0.10470749E+04</pdfrwt>
<pdfrwt beam="2">  1       -2 0.13574740E+00 0.10470749E+04</pdfrwt>
<totfact> 0.48261743E+01</totfact>
</mgrwt>
</event>
<event>
 4    1  0.5399378E-005  0.6457780E+03  0.7818608E-02  0.9814734E-01
          2   -1    0    0  501    0  0.00000000000E+00  0.00000000000E+00  0.65041076703E+03  0.65041076703E+03  0.25500000000E-02 0.  1.
         -2   -1    0    0    0  501 -0.00000000000E+00 -0.00000000000E+00 -0.16029455015E+03  0.16029455017E+03  0.25500000000E-02 0. -1.
    5000001    1    1    2    0    0  0.16201969598E+03  0.19906477539E+03  0.11246614726E+03  0.32519348236E+03  0.16500000000E+03 0.  0.
   -5000001    1    1    2    0    0 -0.16201969598E+03 -0.19906477539E+03  0.37765006962E+03  0.48551183484E+03  0.16500000000E+03 0.  0.
<mgrwt>
<rscale>  0 0.64577798E+03</rscale>
<asrwt>0</asrwt>
<pdfrwt beam="1">  1        2 0.92915824E-01 0.64577798E+03</pdfrwt>
<pdfrwt beam="2">  1       -2 0.22899221E-01 0.64577798E+03</pdfrwt>
<totfact> 0.82926808E+02</totfact>
</mgrwt>
</event>
<event>
 4    1  0.5399378E-005  0.6439661E+03  0.7818608E-02  0.9818168E-01
          2   -1    0    0  501    0  0.00000000000E+00  0.00000000000E+00  0.29877654002E+04  0.29877654002E+04  0.25500000000E-02 0. -1.
         -2   -1    0    0    0  501 -0.00000000000E+00 -0.00000000000E+00 -0.34699201761E+02  0.34699201855E+02  0.25500000000E-02 0.  1.
    5000001    1    1    2    0    0  0.18047522546E+03  0.19409918799E+03  0.18461685959E+04  0.18723806467E+04  0.16500000000E+03 0.  0.
   -5000001    1    1    2    0    0 -0.18047522546E+03 -0.19409918799E+03  0.11068976026E+04  0.11500839554E+04  0.16500000000E+03 0.  0.
<mgrwt>
<rscale>  0 0.64396607E+03</rscale>
<asrwt>0</asrwt>
<pdfrwt beam="1">  1        2 0.42682359E+00 0.64396607E+03</pdfrwt>
<pdfrwt beam="2">  1       -2 0.49570293E-02 0.64396607E+03</pdfrwt>
<totfact> 0.53045181E+02</totfact>
</mgrwt>
</event>
<event>
 4    1  0.5399378E-005  0.6062812E+03  0.7818608E-02  0.9892459E-01
          2   -1    0    0  501    0  0.00000000000E+00  0.00000000000E+00  0.15137430308E+04  0.15137430308E+04  0.25500000000E-02 0.  1.
         -2   -1    0    0    0  501 -0.00000000000E+00 -0.00000000000E+00 -0.60706628741E+02  0.60706628795E+02  0.25500000000E-02 0. -1.
    5000001    1    1    2    0    0 -0.25045545575E+03 -0.16068741804E+02  0.83305733178E+03  0.88554822444E+03  0.16500000000E+03 0.  0.
   -5000001    1    1    2    0    0  0.25045545575E+03  0.16068741804E+02  0.61997907030E+03  0.68890143518E+03  0.16500000000E+03 0.  0.
<mgrwt>
<rscale>  0 0.60628124E+03</rscale>
<asrwt>0</asrwt>
<pdfrwt beam="1">  1        2 0.21624898E+00 0.60628124E+03</pdfrwt>
<pdfrwt beam="2">  1       -2 0.86723765E-02 0.60628124E+03</pdfrwt>
<totfact> 0.12607112E+03</totfact>
</mgrwt>
</event>
<event>
 4    1  0.5399378E-005  0.4638478E+03  0.7818608E-02  0.1023671E+00
         -2   -1    0    0    0  501 -0.00000000000E+00  0.00000000000E+00  0.12133779216E+03  0.12133779219E+03  0.25500000000E-02 0. -1.
          2   -1    0    0  501    0  0.00000000000E+00 -0.00000000000E+00 -0.44329722803E+03  0.44329722803E+03  0.25500000000E-02 0.  1.
    5000001    1    1    2    0    0  0.64180441801E+02 -0.14927111286E+03 -0.17650726912E+03  0.29117144485E+03  0.16500000000E+03 0.  0.
   -5000001    1    1    2    0    0 -0.64180441801E+02  0.14927111286E+03 -0.14545216675E+03  0.27346357537E+03  0.16500000000E+03 0.  0.
<mgrwt>
<rscale>  0 0.46384785E+03</rscale>
<asrwt>0</asrwt>
<pdfrwt beam="1">  1        2 0.63328175E-01 0.46384785E+03</pdfrwt>
<pdfrwt beam="2">  1       -2 0.17333971E-01 0.46384785E+03</pdfrwt>
<totfact> 0.20926356E+03</totfact>
</mgrwt>
</event>
<event>
 4    1  0.5399378E-005  0.5357566E+03  0.7818608E-02  0.1004846E+00
         -2   -1    0    0    0  501 -0.00000000000E+00  0.00000000000E+00  0.52848276684E+02  0.52848276746E+02  0.25500000000E-02 0. -1.
          2   -1    0    0  501    0  0.00000000000E+00 -0.00000000000E+00 -0.13578263252E+04  0.13578263252E+04  0.25500000000E-02 0.  1.
    5000001    1    1    2    0    0  0.29537658271E+02  0.20763545961E+03 -0.71417350065E+03  0.76239999106E+03  0.16500000000E+03 0.  0.
   -5000001    1    1    2    0    0 -0.29537658271E+02 -0.20763545961E+03 -0.59080454790E+03  0.64827461092E+03  0.16500000000E+03 0.  0.
<mgrwt>
<rscale>  0 0.53575659E+03</rscale>
<asrwt>0</asrwt>
<pdfrwt beam="1">  1        2 0.19397517E+00 0.53575659E+03</pdfrwt>
<pdfrwt beam="2">  1       -2 0.75497546E-02 0.53575659E+03</pdfrwt>
<totfact> 0.19035046E+03</totfact>
</mgrwt>
</event>
<event>
 4    1  0.5399378E-005  0.4762385E+03  0.7818608E-02  0.1020174E+00
          2   -1    0    0  501    0  0.00000000000E+00  0.00000000000E+00  0.13459049199E+04  0.13459049199E+04  0.25500000000E-02 0.  1.
         -2   -1    0    0    0  501 -0.00000000000E+00 -0.00000000000E+00 -0.42128369981E+02  0.42128370058E+02  0.25500000000E-02 0. -1.
    5000001    1    1    2    0    0 -0.11734642739E+03 -0.42405100509E+02  0.99560320890E+03  0.10168673100E+04  0.16500000000E+03 0.  0.
   -5000001    1    1    2    0    0  0.11734642739E+03  0.42405100509E+02  0.30817334104E+03  0.37116597999E+03  0.16500000000E+03 0.  0.
<mgrwt>
<rscale>  0 0.47623851E+03</rscale>
<asrwt>0</asrwt>
<pdfrwt beam="1">  1        2 0.19227211E+00 0.47623851E+03</pdfrwt>
<pdfrwt beam="2">  1       -2 0.60183393E-02 0.47623851E+03</pdfrwt>
<totfact> 0.27602120E+03</totfact>
</mgrwt>
</event>
<event>
 4    1  0.5399378E-005  0.9037873E+03  0.7818608E-02  0.9420860E-01
         -2   -1    0    0    0  501 -0.00000000000E+00  0.00000000000E+00  0.57601263624E+02  0.57601263681E+02  0.25500000000E-02 0. -1.
          2   -1    0    0  501    0  0.00000000000E+00 -0.00000000000E+00 -0.35451974538E+04  0.35451974538E+04  0.25500000000E-02 0.  1.
    5000001    1    1    2    0    0 -0.33079072946E+03 -0.11227674676E+03 -0.26782878400E+04  0.27060080060E+04  0.16500000000E+03 0.  0.
   -5000001    1    1    2    0    0  0.33079072946E+03  0.11227674676E+03 -0.80930835018E+03  0.89679071150E+03  0.16500000000E+03 0.  0.
<mgrwt>
<rscale>  0 0.90378726E+03</rscale>
<asrwt>0</asrwt>
<pdfrwt beam="1">  1        2 0.50645664E+00 0.90378726E+03</pdfrwt>
<pdfrwt beam="2">  1       -2 0.82287542E-02 0.90378726E+03</pdfrwt>
<totfact> 0.11109655E+02</totfact>
</mgrwt>
</event>
<event>
 4    1  0.5399378E-005  0.3784926E+03  0.7818608E-02  0.1051492E+00
         -2   -1    0    0    0  501 -0.00000000000E+00  0.00000000000E+00  0.11999511943E+03  0.11999511946E+03  0.25500000000E-02 0. -1.
          2   -1    0    0  501    0  0.00000000000E+00 -0.00000000000E+00 -0.29846350103E+03  0.29846350104E+03  0.25500000000E-02 0.  1.
    5000001    1    1    2    0    0 -0.31830946319E+02  0.58506936104E+02 -0.16048182943E+03  0.23961570961E+03  0.16500000000E+03 0.  0.
   -5000001    1    1    2    0    0  0.31830946319E+02 -0.58506936104E+02 -0.17986552162E+02  0.17884291089E+03  0.16500000000E+03 0.  0.
<mgrwt>
<rscale>  0 0.37849261E+03</rscale>
<asrwt>0</asrwt>
<pdfrwt beam="1">  1        2 0.42637643E-01 0.37849261E+03</pdfrwt>
<pdfrwt beam="2">  1       -2 0.17142160E-01 0.37849261E+03</pdfrwt>
<totfact> 0.32801607E+03</totfact>
</mgrwt>
</event>
<event>
 4    1  0.5399378E-005  0.4810813E+03  0.7818608E-02  0.1018838E+00
          2   -1    0    0  501    0  0.00000000000E+00  0.00000000000E+00  0.19142670949E+03  0.19142670951E+03  0.25500000000E-02 0.  1.
         -2   -1    0    0    0  501 -0.00000000000E+00 -0.00000000000E+00 -0.30225562957E+03  0.30225562958E+03  0.25500000000E-02 0. -1.
    5000001    1    1    2    0    0  0.15814738144E+03  0.73188844682E+02 -0.38627515179E+02  0.24307259445E+03  0.16500000000E+03 0.  0.
   -5000001    1    1    2    0    0 -0.15814738144E+03 -0.73188844682E+02 -0.72201404904E+02  0.25060974465E+03  0.16500000000E+03 0.  0.
<mgrwt>
<rscale>  0 0.48108128E+03</rscale>
<asrwt>0</asrwt>
<pdfrwt beam="1">  1        2 0.27346673E-01 0.48108128E+03</pdfrwt>
<pdfrwt beam="2">  1       -2 0.43179375E-01 0.48108128E+03</pdfrwt>
<totfact> 0.10068625E+03</totfact>
</mgrwt>
</event>
<event>
 4    1  0.5399378E-005  0.8751682E+03  0.7818608E-02  0.9457166E-01
         -2   -1    0    0    0  501 -0.00000000000E+00  0.00000000000E+00  0.24619340583E+03  0.24619340584E+03  0.25500000000E-02 0. -1.
          2   -1    0    0  501    0  0.00000000000E+00 -0.00000000000E+00 -0.77776186080E+03  0.77776186080E+03  0.25500000000E-02 0.  1.
    5000001    1    1    2    0    0 -0.25606985538E+03 -0.21162175443E+03  0.58478380482E+01  0.37096460072E+03  0.16500000000E+03 0.  0.
   -5000001    1    1    2    0    0  0.25606985538E+03  0.21162175443E+03 -0.53741629301E+03  0.65299066592E+03  0.16500000000E+03 0.  0.
<mgrwt>
<rscale>  0 0.87516819E+03</rscale>
<asrwt>0</asrwt>
<pdfrwt beam="1">  1        2 0.11110884E+00 0.87516819E+03</pdfrwt>
<pdfrwt beam="2">  1       -2 0.35170487E-01 0.87516819E+03</pdfrwt>
<totfact> 0.29958205E+02</totfact>
</mgrwt>
</event>
<event>
 4    1  0.5399378E-005  0.4711584E+03  0.7818608E-02  0.1021594E+00
          2   -1    0    0  501    0  0.00000000000E+00  0.00000000000E+00  0.47169649017E+03  0.47169649017E+03  0.25500000000E-02 0.  1.
         -2   -1    0    0    0  501 -0.00000000000E+00 -0.00000000000E+00 -0.11765520788E+03  0.11765520791E+03  0.25500000000E-02 0. -1.
    5000001    1    1    2    0    0 -0.68371356726E+02  0.14869241716E+03  0.22527959156E+03  0.32366645133E+03  0.16500000000E+03 0.  0.
   -5000001    1    1    2    0    0  0.68371356726E+02 -0.14869241716E+03  0.12876169073E+03  0.26568524675E+03  0.16500000000E+03 0.  0.
<mgrwt>
<rscale>  0 0.47115835E+03</rscale>
<asrwt>0</asrwt>
<pdfrwt beam="1">  1        2 0.67385211E-01 0.47115835E+03</pdfrwt>
<pdfrwt beam="2">  1       -2 0.16807887E-01 0.47115835E+03</pdfrwt>
<totfact> 0.20577685E+03</totfact>
</mgrwt>
</event>
<event>
 4    1  0.5399378E-005  0.4781098E+03  0.7818608E-02  0.1019656E+00
         -2   -1    0    0    0  501 -0.00000000000E+00  0.00000000000E+00  0.46663595205E+02  0.46663595275E+02  0.25500000000E-02 0. -1.
          2   -1    0    0  501    0  0.00000000000E+00 -0.00000000000E+00 -0.12246644268E+04  0.12246644268E+04  0.25500000000E-02 0.  1.
    5000001    1    1    2    0    0  0.14354457507E+03  0.33924570472E+02 -0.34870622753E+03  0.41300963019E+03  0.16500000000E+03 0.  0.
   -5000001    1    1    2    0    0 -0.14354457507E+03 -0.33924570472E+02 -0.82929460406E+03  0.85831839188E+03  0.16500000000E+03 0.  0.
<mgrwt>
<rscale>  0 0.47810980E+03</rscale>
<asrwt>0</asrwt>
<pdfrwt beam="1">  1        2 0.17495204E+00 0.47810980E+03</pdfrwt>
<pdfrwt beam="2">  1       -2 0.66662287E-02 0.47810980E+03</pdfrwt>
<totfact> 0.27366200E+03</totfact>
</mgrwt>
</event>
<event>
 4    1  0.5399378E-005  0.3707268E+03  0.7818608E-02  0.1054415E+00
          2   -1    0    0  501    0  0.00000000000E+00  0.00000000000E+00  0.11757450776E+03  0.11757450779E+03  0.25500000000E-02 0.  1.
         -2   -1    0    0    0  501 -0.00000000000E+00 -0.00000000000E+00 -0.29223668243E+03  0.29223668244E+03  0.25500000000E-02 0. -1.
    5000001    1    1    2    0    0 -0.40434008109E+02  0.73538735302E+02 -0.97918366534E+02  0.20941791019E+03  0.16500000000E+03 0.  0.
   -5000001    1    1    2    0    0  0.40434008109E+02 -0.73538735302E+02 -0.76743808134E+02  0.20039328005E+03  0.16500000000E+03 0.  0.
<mgrwt>
<rscale>  0 0.37072677E+03</rscale>
<asrwt>0</asrwt>
<pdfrwt beam="1">  1        2 0.16796358E-01 0.37072677E+03</pdfrwt>
<pdfrwt beam="2">  1       -2 0.41748097E-01 0.37072677E+03</pdfrwt>
<totfact> 0.18806554E+03</totfact>
</mgrwt>
</event>
<event>
 4    1  0.5399378E-005  0.5565586E+03  0.7818608E-02  0.9999872E-01
         -2   -1    0    0    0  501 -0.00000000000E+00  0.00000000000E+00  0.92014480379E+02  0.92014480414E+02  0.25500000000E-02 0. -1.
          2   -1    0    0  501    0  0.00000000000E+00 -0.00000000000E+00 -0.84159990481E+03  0.84159990482E+03  0.25500000000E-02 0.  1.
    5000001    1    1    2    0    0  0.18524306167E+03  0.98576842127E+02 -0.50668543661E+03  0.57270194462E+03  0.16500000000E+03 0.  0.
   -5000001    1    1    2    0    0 -0.18524306167E+03 -0.98576842127E+02 -0.24289998782E+03  0.36091244061E+03  0.16500000000E+03 0.  0.
<mgrwt>
<rscale>  0 0.55655863E+03</rscale>
<asrwt>0</asrwt>
<pdfrwt beam="1">  1        2 0.12022855E+00 0.55655863E+03</pdfrwt>
<pdfrwt beam="2">  1       -2 0.13144926E-01 0.55655863E+03</pdfrwt>
<totfact> 0.15586255E+03</totfact>
</mgrwt>
</event>
<event>
 4    1  0.5399378E-005  0.8887729E+03  0.7818608E-02  0.9439726E-01
          2   -1    0    0  501    0  0.00000000000E+00  0.00000000000E+00  0.50067500818E+03  0.50067500818E+03  0.25500000000E-02 0.  1.
         -2   -1    0    0    0  501 -0.00000000000E+00 -0.00000000000E+00 -0.39442613691E+03  0.39442613692E+03  0.25500000000E-02 0. -1.
    5000001    1    1    2    0    0 -0.18617681649E+03 -0.36811542663E+03  0.62329261345E+02  0.44864318912E+03  0.16500000000E+03 0.  0.
   -5000001    1    1    2    0    0  0.18617681649E+03  0.36811542663E+03  0.43919609926E+02  0.44645795598E+03  0.16500000000E+03 0.  0.
<mgrwt>
<rscale>  0 0.88877288E+03</rscale>
<asrwt>0</asrwt>
<pdfrwt beam="1">  1        2 0.71525001E-01 0.88877288E+03</pdfrwt>
<pdfrwt beam="2">  1       -2 0.56346591E-01 0.88877288E+03</pdfrwt>
<totfact> 0.19891599E+02</totfact>
</mgrwt>
</event>
<event>
 4    1  0.5399378E-005  0.6050760E+03  0.7818608E-02  0.9894931E-01
         -2   -1    0    0    0  501 -0.00000000000E+00  0.00000000000E+00  0.27917539872E+03  0.27917539873E+03  0.25500000000E-02 0. -1.
          2   -1    0    0  501    0  0.00000000000E+00 -0.00000000000E+00 -0.32785569641E+03  0.32785569642E+03  0.25500000000E-02 0.  1.
    5000001    1    1    2    0    0 -0.21662452352E+03 -0.12219718745E+03 -0.73956070006E+02  0.30749445052E+03  0.16500000000E+03 0.  0.
   -5000001    1    1    2    0    0  0.21662452352E+03  0.12219718745E+03  0.25275772312E+02  0.29953664463E+03  0.16500000000E+03 0.  0.
<mgrwt>
<rscale>  0 0.60507601E+03</rscale>
<asrwt>0</asrwt>
<pdfrwt beam="1">  1        2 0.46836528E-01 0.60507601E+03</pdfrwt>
<pdfrwt beam="2">  1       -2 0.39882200E-01 0.60507601E+03</pdfrwt>
<totfact> 0.64643001E+02</totfact>
</mgrwt>
</event>
<event>
 4    1  0.5399378E-005  0.6899756E+03  0.7818608E-02  0.9734530E-01
          2   -1    0    0  501    0  0.00000000000E+00  0.00000000000E+00  0.78534065705E+03  0.78534065705E+03  0.25500000000E-02 0.  1.
         -2   -1    0    0    0  501 -0.00000000000E+00 -0.00000000000E+00 -0.15154772872E+03  0.15154772874E+03  0.25500000000E-02 0. -1.
    5000001    1    1    2    0    0  0.40412961767E+02  0.28197972068E+03  0.45699826364E+03  0.56322125610E+03  0.16500000000E+03 0.  0.
   -5000001    1    1    2    0    0 -0.40412961767E+02 -0.28197972068E+03  0.17679466469E+03  0.37366712970E+03  0.16500000000E+03 0.  0.
<mgrwt>
<rscale>  0 0.68997563E+03</rscale>
<asrwt>0</asrwt>
<pdfrwt beam="1">  1        2 0.11219152E+00 0.68997563E+03</pdfrwt>
<pdfrwt beam="2">  1       -2 0.21649675E-01 0.68997563E+03</pdfrwt>
<totfact> 0.72465473E+02</totfact>
</mgrwt>
</event>
<event>
 4    1  0.5399378E-005  0.4614323E+03  0.7818608E-02  0.1024367E+00
          2   -1    0    0  501    0  0.00000000000E+00  0.00000000000E+00  0.12690336577E+04  0.12690336577E+04  0.25500000000E-02 0.  1.
         -2   -1    0    0    0  501 -0.00000000000E+00 -0.00000000000E+00 -0.41945247838E+02  0.41945247916E+02  0.25500000000E-02 0. -1.
    5000001    1    1    2    0    0 -0.15254514715E+03  0.39312463413E+02  0.51555934878E+03  0.56377471903E+03  0.16500000000E+03 0.  0.
   -5000001    1    1    2    0    0  0.15254514715E+03 -0.39312463413E+02  0.71152906108E+03  0.74720418659E+03  0.16500000000E+03 0.  0.
<mgrwt>
<rscale>  0 0.46143225E+03</rscale>
<asrwt>0</asrwt>
<pdfrwt beam="1">  1        2 0.18129053E+00 0.46143225E+03</pdfrwt>
<pdfrwt beam="2">  1       -2 0.59921780E-02 0.46143225E+03</pdfrwt>
<totfact> 0.30567351E+03</totfact>
</mgrwt>
</event>
<event>
 4    1  0.5399378E-005  0.4827305E+03  0.7818608E-02  0.1018387E+00
          2   -1    0    0  501    0  0.00000000000E+00  0.00000000000E+00  0.34847580566E+02  0.34847580659E+02  0.25500000000E-02 0.  1.
         -2   -1    0    0    0  501 -0.00000000000E+00 -0.00000000000E+00 -0.16717713735E+04  0.16717713735E+04  0.25500000000E-02 0. -1.
    5000001    1    1    2    0    0 -0.96451962948E+02 -0.13401089230E+03 -0.10355415068E+04  0.10615239577E+04  0.16500000000E+03 0.  0.
   -5000001    1    1    2    0    0  0.96451962948E+02  0.13401089230E+03 -0.60138228607E+03  0.64509499643E+03  0.16500000000E+03 0.  0.
<mgrwt>
<rscale>  0 0.48273052E+03</rscale>
<asrwt>0</asrwt>
<pdfrwt beam="1">  1        2 0.49782268E-02 0.48273052E+03</pdfrwt>
<pdfrwt beam="2">  1       -2 0.23882443E+00 0.48273052E+03</pdfrwt>
<totfact> 0.13053757E+02</totfact>
</mgrwt>
</event>
<event>
 4    1  0.5399378E-005  0.5564371E+03  0.7818608E-02  0.1000015E+00
          2   -1    0    0  501    0  0.00000000000E+00  0.00000000000E+00  0.73072747544E+02  0.73072747589E+02  0.25500000000E-02 0.  1.
         -2   -1    0    0    0  501 -0.00000000000E+00 -0.00000000000E+00 -0.10592945323E+04  0.10592945323E+04  0.25500000000E-02 0. -1.
    5000001    1    1    2    0    0  0.13888789626E+03 -0.17310435729E+03 -0.43119788496E+03  0.51226124412E+03  0.16500000000E+03 0.  0.
   -5000001    1    1    2    0    0 -0.13888789626E+03  0.17310435729E+03 -0.55502389975E+03  0.62010603572E+03  0.16500000000E+03 0.  0.
<mgrwt>
<rscale>  0 0.55643710E+03</rscale>
<asrwt>0</asrwt>
<pdfrwt beam="1">  1        2 0.10438965E-01 0.55643710E+03</pdfrwt>
<pdfrwt beam="2">  1       -2 0.15132778E+00 0.55643710E+03</pdfrwt>
<totfact> 0.18735088E+02</totfact>
</mgrwt>
</event>
<event>
 4    1  0.5399378E-005  0.3769048E+03  0.7818608E-02  0.1052084E+00
         -2   -1    0    0    0  501 -0.00000000000E+00  0.00000000000E+00  0.11159462437E+02  0.11159462729E+02  0.25500000000E-02 0. -1.
          2   -1    0    0  501    0  0.00000000000E+00 -0.00000000000E+00 -0.31824384838E+04  0.31824384838E+04  0.25500000000E-02 0.  1.
    5000001    1    1    2    0    0  0.33680654584E+02  0.38058946048E+02 -0.22257146642E+04  0.22324008682E+04  0.16500000000E+03 0.  0.
   -5000001    1    1    2    0    0 -0.33680654584E+02 -0.38058946048E+02 -0.94556435713E+03  0.96119707830E+03  0.16500000000E+03 0.  0.
<mgrwt>
<rscale>  0 0.37690478E+03</rscale>
<asrwt>0</asrwt>
<pdfrwt beam="1">  1        2 0.45463349E+00 0.37690478E+03</pdfrwt>
<pdfrwt beam="2">  1       -2 0.15942110E-02 0.37690478E+03</pdfrwt>
<totfact> 0.23652261E+03</totfact>
</mgrwt>
</event>
<event>
 4    1  0.5399378E-005  0.7340567E+03  0.7818608E-02  0.9660700E-01
          2   -1    0    0  501    0  0.00000000000E+00  0.00000000000E+00  0.99205888215E+03  0.99205888215E+03  0.25500000000E-02 0.  1.
         -2   -1    0    0    0  501 -0.00000000000E+00 -0.00000000000E+00 -0.13578812144E+03  0.13578812146E+03  0.25500000000E-02 0. -1.
    5000001    1    1    2    0    0 -0.92720601750E+02  0.30480444482E+03  0.30930101361E+03  0.47370346905E+03  0.16500000000E+03 0.  0.
   -5000001    1    1    2    0    0  0.92720601750E+02 -0.30480444482E+03  0.54696974710E+03  0.65414353456E+03  0.16500000000E+03 0.  0.
<mgrwt>
<rscale>  0 0.73405671E+03</rscale>
<asrwt>0</asrwt>
<pdfrwt beam="1">  1        2 0.14172269E+00 0.73405671E+03</pdfrwt>
<pdfrwt beam="2">  1       -2 0.19398304E-01 0.73405671E+03</pdfrwt>
<totfact> 0.64189764E+02</totfact>
</mgrwt>
</event>
<event>
 4    1  0.5399378E-005  0.5132701E+03  0.7818608E-02  0.1010372E+00
          2   -1    0    0  501    0  0.00000000000E+00  0.00000000000E+00  0.15600724350E+04  0.15600724350E+04  0.25500000000E-02 0.  1.
         -2   -1    0    0    0  501 -0.00000000000E+00 -0.00000000000E+00 -0.42216980592E+02  0.42216980669E+02  0.25500000000E-02 0. -1.
    5000001    1    1    2    0    0  0.18587643434E+03  0.34924234034E+02  0.92607275346E+03  0.95948188918E+03  0.16500000000E+03 0.  0.
   -5000001    1    1    2    0    0 -0.18587643434E+03 -0.34924234034E+02  0.59178270093E+03  0.64280752647E+03  0.16500000000E+03 0.  0.
<mgrwt>
<rscale>  0 0.51327010E+03</rscale>
<asrwt>0</asrwt>
<pdfrwt beam="1">  1        2 0.22286750E+00 0.51327010E+03</pdfrwt>
<pdfrwt beam="2">  1       -2 0.60309970E-02 0.51327010E+03</pdfrwt>
<totfact> 0.21252016E+03</totfact>
</mgrwt>
</event>
<event>
 4    1  0.5399378E-005  0.4091676E+03  0.7818608E-02  0.1040651E+00
         -2   -1    0    0    0  501 -0.00000000000E+00  0.00000000000E+00  0.13025692235E+03  0.13025692238E+03  0.25500000000E-02 0. -1.
          2   -1    0    0  501    0  0.00000000000E+00 -0.00000000000E+00 -0.32132285675E+03  0.32132285676E+03  0.25500000000E-02 0.  1.
    5000001    1    1    2    0    0  0.43264342268E+02 -0.10380610860E+03 -0.46398445347E+02  0.20500079811E+03  0.16500000000E+03 0.  0.
   -5000001    1    1    2    0    0 -0.43264342268E+02  0.10380610860E+03 -0.14466748905E+03  0.24657898102E+03  0.16500000000E+03 0.  0.
<mgrwt>
<rscale>  0 0.40916758E+03</rscale>
<asrwt>0</asrwt>
<pdfrwt beam="1">  1        2 0.45903265E-01 0.40916758E+03</pdfrwt>
<pdfrwt beam="2">  1       -2 0.18608132E-01 0.40916758E+03</pdfrwt>
<totfact> 0.26364704E+03</totfact>
</mgrwt>
</event>
<event>
 4    1  0.5399378E-005  0.8096058E+03  0.7818608E-02  0.9546216E-01
          2   -1    0    0  501    0  0.00000000000E+00  0.00000000000E+00  0.51147045032E+03  0.51147045032E+03  0.25500000000E-02 0.  1.
         -2   -1    0    0    0  501 -0.00000000000E+00 -0.00000000000E+00 -0.32038097360E+03  0.32038097361E+03  0.25500000000E-02 0. -1.
    5000001    1    1    2    0    0 -0.28909582518E+03  0.20305487082E+03  0.20731197317E+03  0.44160041997E+03  0.16500000000E+03 0.  0.
   -5000001    1    1    2    0    0  0.28909582518E+03 -0.20305487082E+03 -0.16222496456E+02  0.39025100396E+03  0.16500000000E+03 0.  0.
<mgrwt>
<rscale>  0 0.80960583E+03</rscale>
<asrwt>0</asrwt>
<pdfrwt beam="1">  1        2 0.73067206E-01 0.80960583E+03</pdfrwt>
<pdfrwt beam="2">  1       -2 0.45768711E-01 0.80960583E+03</pdfrwt>
<totfact> 0.29771770E+02</totfact>
</mgrwt>
</event>
<event>
 4    1  0.5399378E-005  0.1060293E+04  0.7818608E-02  0.9244781E-01
          2   -1    0    0  501    0  0.00000000000E+00  0.00000000000E+00  0.10432697136E+04  0.10432697136E+04  0.25500000000E-02 0.  1.
         -2   -1    0    0    0  501 -0.00000000000E+00 -0.00000000000E+00 -0.26939863301E+03  0.26939863302E+03  0.25500000000E-02 0. -1.
    5000001    1    1    2    0    0  0.34645874781E+03  0.35820986380E+03  0.47860336545E+03  0.71037606370E+03  0.16500000000E+03 0.  0.
   -5000001    1    1    2    0    0 -0.34645874781E+03 -0.35820986380E+03  0.29526771512E+03  0.60229228291E+03  0.16500000000E+03 0.  0.
<mgrwt>
<rscale>  0 0.10602932E+04</rscale>
<asrwt>0</asrwt>
<pdfrwt beam="1">  1        2 0.14903853E+00 0.10602932E+04</pdfrwt>
<pdfrwt beam="2">  1       -2 0.38485519E-01 0.10602932E+04</pdfrwt>
<totfact> 0.16742224E+02</totfact>
</mgrwt>
</event>
<event>
 4    1  0.5399378E-005  0.4173443E+03  0.7818608E-02  0.1037934E+00
         -2   -1    0    0    0  501 -0.00000000000E+00  0.00000000000E+00  0.24825538838E+02  0.24825538969E+02  0.25500000000E-02 0. -1.
          2   -1    0    0  501    0  0.00000000000E+00 -0.00000000000E+00 -0.17540027921E+04  0.17540027921E+04  0.25500000000E-02 0.  1.
    5000001    1    1    2    0    0  0.41019925601E+02  0.70892695162E+02 -0.44674279265E+03  0.48323134346E+03  0.16500000000E+03 0.  0.
   -5000001    1    1    2    0    0 -0.41019925601E+02 -0.70892695162E+02 -0.12824344606E+04  0.12955969876E+04  0.16500000000E+03 0.  0.
<mgrwt>
<rscale>  0 0.41734429E+03</rscale>
<asrwt>0</asrwt>
<pdfrwt beam="1">  1        2 0.25057175E+00 0.41734429E+03</pdfrwt>
<pdfrwt beam="2">  1       -2 0.35465067E-02 0.41734429E+03</pdfrwt>
<totfact> 0.38405927E+03</totfact>
</mgrwt>
</event>
<event>
 4    1  0.5399378E-005  0.4461732E+03  0.7818608E-02  0.1028869E+00
         -2   -1    0    0    0  501 -0.00000000000E+00  0.00000000000E+00  0.29190747550E+02  0.29190747661E+02  0.25500000000E-02 0. -1.
          2   -1    0    0  501    0  0.00000000000E+00 -0.00000000000E+00 -0.17049113820E+04  0.17049113820E+04  0.25500000000E-02 0.  1.
    5000001    1    1    2    0    0 -0.36326988750E+02 -0.14355899049E+03 -0.74156924721E+03  0.77400179733E+03  0.16500000000E+03 0.  0.
   -5000001    1    1    2    0    0  0.36326988750E+02  0.14355899049E+03 -0.93415138720E+03  0.96010033229E+03  0.16500000000E+03 0.  0.
<mgrwt>
<rscale>  0 0.44617323E+03</rscale>
<asrwt>0</asrwt>
<pdfrwt beam="1">  1        2 0.24355871E+00 0.44617323E+03</pdfrwt>
<pdfrwt beam="2">  1       -2 0.41701079E-02 0.44617323E+03</pdfrwt>
<totfact> 0.31755196E+03</totfact>
</mgrwt>
</event>
<event>
 4    1  0.5399378E-005  0.7098341E+03  0.7818608E-02  0.9700561E-01
         -2   -1    0    0    0  501 -0.00000000000E+00  0.00000000000E+00  0.74213825454E+03  0.74213825454E+03  0.25500000000E-02 0. -1.
          2   -1    0    0  501    0  0.00000000000E+00 -0.00000000000E+00 -0.16973403389E+03  0.16973403391E+03  0.25500000000E-02 0.  1.
    5000001    1    1    2    0    0  0.71707057698E+02 -0.26268561968E+03  0.84734691617E+02  0.32947018814E+03  0.16500000000E+03 0.  0.
   -5000001    1    1    2    0    0 -0.71707057698E+02  0.26268561968E+03  0.48766952903E+03  0.58240210032E+03  0.16500000000E+03 0.  0.
<mgrwt>
<rscale>  0 0.70983412E+03</rscale>
<asrwt>0</asrwt>
<pdfrwt beam="1">  1        2 0.24247720E-01 0.70983412E+03</pdfrwt>
<pdfrwt beam="2">  1       -2 0.10601975E+00 0.70983412E+03</pdfrwt>
<totfact> 0.16467971E+02</totfact>
</mgrwt>
</event>
<event>
 4    1  0.5399378E-005  0.5356220E+03  0.7818608E-02  0.1004878E+00
          2   -1    0    0  501    0  0.00000000000E+00  0.00000000000E+00  0.51042014996E+03  0.51042014997E+03  0.25500000000E-02 0.  1.
         -2   -1    0    0    0  501 -0.00000000000E+00 -0.00000000000E+00 -0.14051705464E+03  0.14051705467E+03  0.25500000000E-02 0. -1.
    5000001    1    1    2    0    0  0.98302110395E+02 -0.13409634572E+03  0.34271781381E+03  0.41512122898E+03  0.16500000000E+03 0.  0.
   -5000001    1    1    2    0    0 -0.98302110395E+02  0.13409634572E+03  0.27185281510E+02  0.23581597566E+03  0.16500000000E+03 0.  0.
<mgrwt>
<rscale>  0 0.53562202E+03</rscale>
<asrwt>0</asrwt>
<pdfrwt beam="1">  1        2 0.72917164E-01 0.53562202E+03</pdfrwt>
<pdfrwt beam="2">  1       -2 0.20073865E-01 0.53562202E+03</pdfrwt>
<totfact> 0.13885592E+03</totfact>
</mgrwt>
</event>
<event>
 4    1  0.5399378E-005  0.4700195E+03  0.7818608E-02  0.1021915E+00
         -2   -1    0    0    0  501 -0.00000000000E+00  0.00000000000E+00  0.19992102691E+02  0.19992102853E+02  0.25500000000E-02 0. -1.
          2   -1    0    0  501    0  0.00000000000E+00 -0.00000000000E+00 -0.27625695047E+04  0.27625695047E+04  0.25500000000E-02 0.  1.
    5000001    1    1    2    0    0 -0.13199839440E+03 -0.92314588201E+02 -0.16399212375E+04  0.16560532070E+04  0.16500000000E+03 0.  0.
   -5000001    1    1    2    0    0  0.13199839440E+03  0.92314588201E+02 -0.11026561645E+04  0.11265084005E+04  0.16500000000E+03 0.  0.
<mgrwt>
<rscale>  0 0.47001946E+03</rscale>
<asrwt>0</asrwt>
<pdfrwt beam="1">  1        2 0.39465254E+00 0.47001946E+03</pdfrwt>
<pdfrwt beam="2">  1       -2 0.28560164E-02 0.47001946E+03</pdfrwt>
<totfact> 0.16510585E+03</totfact>
</mgrwt>
</event>
<event>
 4    1  0.5399378E-005  0.4235856E+03  0.7818608E-02  0.1035906E+00
          2   -1    0    0  501    0  0.00000000000E+00  0.00000000000E+00  0.11909415733E+04  0.11909415733E+04  0.25500000000E-02 0.  1.
         -2   -1    0    0    0  501 -0.00000000000E+00 -0.00000000000E+00 -0.37664469137E+02  0.37664469223E+02  0.25500000000E-02 0. -1.
    5000001    1    1    2    0    0  0.85154550191E+02 -0.88476928559E+02  0.72315548752E+03  0.75183663348E+03  0.16500000000E+03 0.  0.
   -5000001    1    1    2    0    0 -0.85154550191E+02  0.88476928559E+02  0.43012161668E+03  0.47676940908E+03  0.16500000000E+03 0.  0.
<mgrwt>
<rscale>  0 0.42358556E+03</rscale>
<asrwt>0</asrwt>
<pdfrwt beam="1">  1        2 0.17013448E+00 0.42358556E+03</pdfrwt>
<pdfrwt beam="2">  1       -2 0.53806396E-02 0.42358556E+03</pdfrwt>
<totfact> 0.39852003E+03</totfact>
</mgrwt>
</event>
<event>
 4    1  0.5399378E-005  0.5571523E+03  0.7818608E-02  0.9998519E-01
          2   -1    0    0  501    0  0.00000000000E+00  0.00000000000E+00  0.40709395217E+03  0.40709395217E+03  0.25500000000E-02 0.  1.
         -2   -1    0    0    0  501 -0.00000000000E+00 -0.00000000000E+00 -0.19063088305E+03  0.19063088307E+03  0.25500000000E-02 0. -1.
    5000001    1    1    2    0    0 -0.11982331166E+03  0.16929654445E+03  0.16189141702E+02  0.26552972393E+03  0.16500000000E+03 0.  0.
   -5000001    1    1    2    0    0  0.11982331166E+03 -0.16929654445E+03  0.20027392741E+03  0.33219511132E+03  0.16500000000E+03 0.  0.
<mgrwt>
<rscale>  0 0.55715233E+03</rscale>
<asrwt>0</asrwt>
<pdfrwt beam="1">  1        2 0.58156278E-01 0.55715233E+03</pdfrwt>
<pdfrwt beam="2">  1       -2 0.27232984E-01 0.55715233E+03</pdfrwt>
<totfact> 0.10411771E+03</totfact>
</mgrwt>
</event>
<event>
 4    1  0.5399378E-005  0.1179477E+04  0.7818608E-02  0.9131013E-01
         -2   -1    0    0    0  501 -0.00000000000E+00  0.00000000000E+00  0.99143308682E+03  0.99143308682E+03  0.25500000000E-02 0. -1.
          2   -1    0    0  501    0  0.00000000000E+00 -0.00000000000E+00 -0.35079660322E+03  0.35079660323E+03  0.25500000000E-02 0.  1.
    5000001    1    1    2    0    0 -0.48312030564E+03 -0.36863187674E+02 -0.13021236614E+02  0.51201433273E+03  0.16500000000E+03 0.  0.
   -5000001    1    1    2    0    0  0.48312030564E+03  0.36863187674E+02  0.65365772021E+03  0.83021535731E+03  0.16500000000E+03 0.  0.
<mgrwt>
<rscale>  0 0.11794768E+04</rscale>
<asrwt>0</asrwt>
<pdfrwt beam="1">  1        2 0.50113800E-01 0.11794768E+04</pdfrwt>
<pdfrwt beam="2">  1       -2 0.14163330E+00 0.11794768E+04</pdfrwt>
<totfact> 0.34493919E+01</totfact>
</mgrwt>
</event>
<event>
 4    1  0.5399378E-005  0.4229847E+03  0.7818608E-02  0.1036099E+00
         -2   -1    0    0    0  501 -0.00000000000E+00  0.00000000000E+00  0.75550236057E+02  0.75550236100E+02  0.25500000000E-02 0. -1.
          2   -1    0    0  501    0  0.00000000000E+00 -0.00000000000E+00 -0.59204336570E+03  0.59204336571E+03  0.25500000000E-02 0.  1.
    5000001    1    1    2    0    0 -0.11666888968E+03 -0.57932874556E+02 -0.29479241383E+03  0.36207100827E+03  0.16500000000E+03 0.  0.
   -5000001    1    1    2    0    0  0.11666888968E+03  0.57932874556E+02 -0.22170071581E+03  0.30552259354E+03  0.16500000000E+03 0.  0.
<mgrwt>
<rscale>  0 0.42298471E+03</rscale>
<asrwt>0</asrwt>
<pdfrwt beam="1">  1        2 0.84577620E-01 0.42298471E+03</pdfrwt>
<pdfrwt beam="2">  1       -2 0.10792891E-01 0.42298471E+03</pdfrwt>
<totfact> 0.33030550E+03</totfact>
</mgrwt>
</event>
<event>
 4    1  0.5399378E-005  0.4866449E+03  0.7818608E-02  0.1017325E+00
         -2   -1    0    0    0  501 -0.00000000000E+00  0.00000000000E+00  0.27411178111E+02  0.27411178230E+02  0.25500000000E-02 0. -1.
          2   -1    0    0  501    0  0.00000000000E+00 -0.00000000000E+00 -0.21599150189E+04  0.21599150189E+04  0.25500000000E-02 0.  1.
    5000001    1    1    2    0    0 -0.39241066880E+02  0.13009738368E+03 -0.54371204223E+03  0.58421997179E+03  0.16500000000E+03 0.  0.
   -5000001    1    1    2    0    0  0.39241066880E+02 -0.13009738368E+03 -0.15887917986E+04  0.16031062253E+04  0.16500000000E+03 0.  0.
<mgrwt>
<rscale>  0 0.48664490E+03</rscale>
<asrwt>0</asrwt>
<pdfrwt beam="1">  1        2 0.30855918E+00 0.48664490E+03</pdfrwt>
<pdfrwt beam="2">  1       -2 0.39158840E-02 0.48664490E+03</pdfrwt>
<totfact> 0.20696964E+03</totfact>
</mgrwt>
</event>
<event>
 4    1  0.5399378E-005  0.4599258E+03  0.7818608E-02  0.1024803E+00
          2   -1    0    0  501    0  0.00000000000E+00  0.00000000000E+00  0.17015673786E+03  0.17015673788E+03  0.25500000000E-02 0.  1.
         -2   -1    0    0    0  501 -0.00000000000E+00 -0.00000000000E+00 -0.31078960199E+03  0.31078960200E+03  0.25500000000E-02 0. -1.
    5000001    1    1    2    0    0 -0.11231934981E+03  0.67117754259E+02  0.26305244020E+02  0.21222015725E+03  0.16500000000E+03 0.  0.
   -5000001    1    1    2    0    0  0.11231934981E+03 -0.67117754259E+02 -0.16693810815E+03  0.26872618263E+03  0.16500000000E+03 0.  0.
<mgrwt>
<rscale>  0 0.45992584E+03</rscale>
<asrwt>0</asrwt>
<pdfrwt beam="1">  1        2 0.24308105E-01 0.45992584E+03</pdfrwt>
<pdfrwt beam="2">  1       -2 0.44398515E-01 0.45992584E+03</pdfrwt>
<totfact> 0.10890998E+03</totfact>
</mgrwt>
</event>
<event>
 4    1  0.5399378E-005  0.4369371E+03  0.7818608E-02  0.1031691E+00
          2   -1    0    0  501    0  0.00000000000E+00  0.00000000000E+00  0.55794472910E+03  0.55794472910E+03  0.25500000000E-02 0.  1.
         -2   -1    0    0    0  501 -0.00000000000E+00 -0.00000000000E+00 -0.85543430071E+02  0.85543430109E+02  0.25500000000E-02 0. -1.
    5000001    1    1    2    0    0 -0.83251628917E+02 -0.11446900353E+03  0.26811223894E+03  0.34517120267E+03  0.16500000000E+03 0.  0.
   -5000001    1    1    2    0    0  0.83251628917E+02  0.11446900353E+03  0.20428906009E+03  0.29831695654E+03  0.16500000000E+03 0.  0.
<mgrwt>
<rscale>  0 0.43693709E+03</rscale>
<asrwt>0</asrwt>
<pdfrwt beam="1">  1        2 0.79706393E-01 0.43693709E+03</pdfrwt>
<pdfrwt beam="2">  1       -2 0.12220490E-01 0.43693709E+03</pdfrwt>
<totfact> 0.28907131E+03</totfact>
</mgrwt>
</event>
<event>
 4    1  0.5399378E-005  0.5826339E+03  0.7818608E-02  0.9942105E-01
         -2   -1    0    0    0  501 -0.00000000000E+00  0.00000000000E+00  0.83182400331E+02  0.83182400370E+02  0.25500000000E-02 0. -1.
          2   -1    0    0  501    0  0.00000000000E+00 -0.00000000000E+00 -0.10202346540E+04  0.10202346540E+04  0.25500000000E-02 0.  1.
    5000001    1    1    2    0    0 -0.17909924030E+03 -0.15906142195E+03 -0.49926790523E+03  0.57781529490E+03  0.16500000000E+03 0.  0.
   -5000001    1    1    2    0    0  0.17909924030E+03  0.15906142195E+03 -0.43778434846E+03  0.52560175949E+03  0.16500000000E+03 0.  0.
<mgrwt>
<rscale>  0 0.58263391E+03</rscale>
<asrwt>0</asrwt>
<pdfrwt beam="1">  1        2 0.14574780E+00 0.58263391E+03</pdfrwt>
<pdfrwt beam="2">  1       -2 0.11883201E-01 0.58263391E+03</pdfrwt>
<totfact> 0.14182614E+03</totfact>
</mgrwt>
</event>
<event>
 4    1  0.5399378E-005  0.3916769E+03  0.7818608E-02  0.1046700E+00
         -2   -1    0    0    0  501 -0.00000000000E+00  0.00000000000E+00  0.85861429615E+02  0.85861429652E+02  0.25500000000E-02 0. -1.
          2   -1    0    0  501    0  0.00000000000E+00 -0.00000000000E+00 -0.44668127308E+03  0.44668127309E+03  0.25500000000E-02 0.  1.
    5000001    1    1    2    0    0 -0.26914865004E+02 -0.92753680056E+02 -0.23809550629E+03  0.30535573556E+03  0.16500000000E+03 0.  0.
   -5000001    1    1    2    0    0  0.26914865004E+02  0.92753680056E+02 -0.12272433717E+03  0.22718696718E+03  0.16500000000E+03 0.  0.
<mgrwt>
<rscale>  0 0.39167687E+03</rscale>
<asrwt>0</asrwt>
<pdfrwt beam="1">  1        2 0.63811609E-01 0.39167687E+03</pdfrwt>
<pdfrwt beam="2">  1       -2 0.12265919E-01 0.39167687E+03</pdfrwt>
<totfact> 0.36831825E+03</totfact>
</mgrwt>
</event>
<event>
 4    1  0.5399378E-005  0.6602373E+03  0.7818608E-02  0.9787757E-01
         -2   -1    0    0    0  501 -0.00000000000E+00  0.00000000000E+00  0.23617350621E+03  0.23617350623E+03  0.25500000000E-02 0. -1.
          2   -1    0    0  501    0  0.00000000000E+00 -0.00000000000E+00 -0.46143333512E+03  0.46143333512E+03  0.25500000000E-02 0.  1.
    5000001    1    1    2    0    0  0.17662050686E+03  0.22075857904E+03 -0.67502140460E+02  0.33423149557E+03  0.16500000000E+03 0.  0.
   -5000001    1    1    2    0    0 -0.17662050686E+03 -0.22075857904E+03 -0.15775768844E+03  0.36337534579E+03  0.16500000000E+03 0.  0.
<mgrwt>
<rscale>  0 0.66023732E+03</rscale>
<asrwt>0</asrwt>
<pdfrwt beam="1">  1        2 0.65919047E-01 0.66023732E+03</pdfrwt>
<pdfrwt beam="2">  1       -2 0.33739073E-01 0.66023732E+03</pdfrwt>
<totfact> 0.60786357E+02</totfact>
</mgrwt>
</event>
<event>
 4    1  0.5399378E-005  0.5779487E+03  0.7818608E-02  0.9952242E-01
          2   -1    0    0  501    0  0.00000000000E+00  0.00000000000E+00  0.14712607541E+04  0.14712607541E+04  0.25500000000E-02 0.  1.
         -2   -1    0    0    0  501 -0.00000000000E+00 -0.00000000000E+00 -0.56758248167E+02  0.56758248224E+02  0.25500000000E-02 0. -1.
    5000001    1    1    2    0    0  0.11964129526E+03  0.94110563820E+00  0.12488648582E+04  0.12653866441E+04  0.16500000000E+03 0.  0.
   -5000001    1    1    2    0    0 -0.11964129526E+03 -0.94110563820E+00  0.16563764778E+03  0.26263235820E+03  0.16500000000E+03 0.  0.
<mgrwt>
<rscale>  0 0.57794873E+03</rscale>
<asrwt>0</asrwt>
<pdfrwt beam="1">  1        2 0.21018011E+00 0.57794873E+03</pdfrwt>
<pdfrwt beam="2">  1       -2 0.81083209E-02 0.57794873E+03</pdfrwt>
<totfact> 0.14787518E+03</totfact>
</mgrwt>
</event>
<event>
 4    1  0.5399378E-005  0.3455932E+03  0.7818608E-02  0.1064438E+00
          2   -1    0    0  501    0  0.00000000000E+00  0.00000000000E+00  0.40547460804E+03  0.40547460805E+03  0.25500000000E-02 0.  1.
         -2   -1    0    0    0  501 -0.00000000000E+00 -0.00000000000E+00 -0.73638808090E+02  0.73638808134E+02  0.25500000000E-02 0. -1.
    5000001    1    1    2    0    0  0.43332627785E+02  0.26664316811E+02  0.17521414823E+03  0.24599532549E+03  0.16500000000E+03 0.  0.
   -5000001    1    1    2    0    0 -0.43332627785E+02 -0.26664316811E+02  0.15662165172E+03  0.23311809070E+03  0.16500000000E+03 0.  0.
<mgrwt>
<rscale>  0 0.34559321E+03</rscale>
<asrwt>0</asrwt>
<pdfrwt beam="1">  1        2 0.57924946E-01 0.34559321E+03</pdfrwt>
<pdfrwt beam="2">  1       -2 0.10519829E-01 0.34559321E+03</pdfrwt>
<totfact> 0.52373499E+03</totfact>
</mgrwt>
</event>
<event>
 4    1  0.5399378E-005  0.5227295E+03  0.7818608E-02  0.1008011E+00
         -2   -1    0    0    0  501 -0.00000000000E+00  0.00000000000E+00  0.11377481065E+03  0.11377481068E+03  0.25500000000E-02 0. -1.
          2   -1    0    0  501    0  0.00000000000E+00 -0.00000000000E+00 -0.60041007795E+03  0.60041007796E+03  0.25500000000E-02 0.  1.
    5000001    1    1    2    0    0  0.15038012181E+03  0.94908134302E+02 -0.11039788334E+03  0.26652284637E+03  0.16500000000E+03 0.  0.
   -5000001    1    1    2    0    0 -0.15038012181E+03 -0.94908134302E+02 -0.37623738396E+03  0.44766204227E+03  0.16500000000E+03 0.  0.
<mgrwt>
<rscale>  0 0.52272954E+03</rscale>
<asrwt>0</asrwt>
<pdfrwt beam="1">  1        2 0.85772866E-01 0.52272954E+03</pdfrwt>
<pdfrwt beam="2">  1       -2 0.16253545E-01 0.52272954E+03</pdfrwt>
<totfact> 0.16537197E+03</totfact>
</mgrwt>
</event>
<event>
 4    1  0.5399378E-005  0.4647114E+03  0.7818608E-02  0.1023424E+00
         -2   -1    0    0    0  501 -0.00000000000E+00  0.00000000000E+00  0.44408786677E+03  0.44408786678E+03  0.25500000000E-02 0. -1.
          2   -1    0    0  501    0  0.00000000000E+00 -0.00000000000E+00 -0.12157315136E+03  0.12157315138E+03  0.25500000000E-02 0.  1.
    5000001    1    1    2    0    0 -0.45438765702E+02 -0.13828070947E+03  0.25216686740E+03  0.33466306198E+03  0.16500000000E+03 0.  0.
   -5000001    1    1    2    0    0  0.45438765702E+02  0.13828070947E+03  0.70347848015E+02  0.23099795618E+03  0.16500000000E+03 0.  0.
<mgrwt>
<rscale>  0 0.46471136E+03</rscale>
<asrwt>0</asrwt>
<pdfrwt beam="1">  1        2 0.17367593E-01 0.46471136E+03</pdfrwt>
<pdfrwt beam="2">  1       -2 0.63441125E-01 0.46471136E+03</pdfrwt>
<totfact> 0.77623262E+02</totfact>
</mgrwt>
</event>
<event>
 4    1  0.5399378E-005  0.4343699E+03  0.7818608E-02  0.1032488E+00
          2   -1    0    0  501    0  0.00000000000E+00  0.00000000000E+00  0.25227452545E+04  0.25227452545E+04  0.25500000000E-02 0.  1.
         -2   -1    0    0    0  501 -0.00000000000E+00 -0.00000000000E+00 -0.18697606997E+02  0.18697607171E+02  0.25500000000E-02 0. -1.
    5000001    1    1    2    0    0  0.12559772035E+03 -0.42573078761E+02  0.96796741512E+03  0.99084467559E+03  0.16500000000E+03 0.  0.
   -5000001    1    1    2    0    0 -0.12559772035E+03  0.42573078761E+02  0.15360802324E+04  0.15505981861E+04  0.16500000000E+03 0.  0.
<mgrwt>
<rscale>  0 0.43436989E+03</rscale>
<asrwt>0</asrwt>
<pdfrwt beam="1">  1        2 0.36039226E+00 0.43436989E+03</pdfrwt>
<pdfrwt beam="2">  1       -2 0.26710861E-02 0.43436989E+03</pdfrwt>
<totfact> 0.24332309E+03</totfact>
</mgrwt>
</event>
<event>
 4    1  0.5399378E-005  0.5084301E+03  0.7818608E-02  0.1011602E+00
         -2   -1    0    0    0  501 -0.00000000000E+00  0.00000000000E+00  0.23441330014E+03  0.23441330016E+03  0.25500000000E-02 0. -1.
          2   -1    0    0  501    0  0.00000000000E+00 -0.00000000000E+00 -0.27568948694E+03  0.27568948695E+03  0.25500000000E-02 0.  1.
    5000001    1    1    2    0    0  0.15261023435E+03 -0.46366944985E+02  0.89085806798E+02  0.24617282179E+03  0.16500000000E+03 0.  0.
   -5000001    1    1    2    0    0 -0.15261023435E+03  0.46366944985E+02 -0.13036199359E+03  0.26392996531E+03  0.16500000000E+03 0.  0.
<mgrwt>
<rscale>  0 0.50843006E+03</rscale>
<asrwt>0</asrwt>
<pdfrwt beam="1">  1        2 0.39384212E-01 0.50843006E+03</pdfrwt>
<pdfrwt beam="2">  1       -2 0.33487614E-01 0.50843006E+03</pdfrwt>
<totfact> 0.10925762E+03</totfact>
</mgrwt>
</event>
<event>
 4    1  0.5399378E-005  0.4617789E+03  0.7818608E-02  0.1024267E+00
          2   -1    0    0  501    0  0.00000000000E+00  0.00000000000E+00  0.93411561496E+03  0.93411561496E+03  0.25500000000E-02 0. -1.
         -2   -1    0    0    0  501 -0.00000000000E+00 -0.00000000000E+00 -0.57069962126E+02  0.57069962183E+02  0.25500000000E-02 0.  1.
    5000001    1    1    2    0    0 -0.14265742935E+03 -0.75346230099E+02  0.42235359098E+03  0.48128552062E+03  0.16500000000E+03 0.  0.
   -5000001    1    1    2    0    0  0.14265742935E+03  0.75346230099E+02  0.45469206185E+03  0.50990005653E+03  0.16500000000E+03 0.  0.
<mgrwt>
<rscale>  0 0.46177892E+03</rscale>
<asrwt>0</asrwt>
<pdfrwt beam="1">  1        2 0.13344507E+00 0.46177892E+03</pdfrwt>
<pdfrwt beam="2">  1       -2 0.81528528E-02 0.46177892E+03</pdfrwt>
<totfact> 0.29442884E+03</totfact>
</mgrwt>
</event>
<event>
 4    1  0.5399378E-005  0.4643569E+03  0.7818608E-02  0.1023525E+00
         -2   -1    0    0    0  501 -0.00000000000E+00  0.00000000000E+00  0.14967599412E+03  0.14967599415E+03  0.25500000000E-02 0. -1.
          2   -1    0    0  501    0  0.00000000000E+00 -0.00000000000E+00 -0.36015690837E+03  0.36015690838E+03  0.25500000000E-02 0.  1.
    5000001    1    1    2    0    0  0.14816055337E+03 -0.51043445456E+02 -0.54629900270E+02  0.23402224019E+03  0.16500000000E+03 0.  0.
   -5000001    1    1    2    0    0 -0.14816055337E+03  0.51043445456E+02 -0.15585101397E+03  0.27581066233E+03  0.16500000000E+03 0.  0.
<mgrwt>
<rscale>  0 0.46435695E+03</rscale>
<asrwt>0</asrwt>
<pdfrwt beam="1">  1        2 0.51450987E-01 0.46435695E+03</pdfrwt>
<pdfrwt beam="2">  1       -2 0.21382285E-01 0.46435695E+03</pdfrwt>
<totfact> 0.18327663E+03</totfact>
</mgrwt>
</event>
<event>
 4    1  0.5399378E-005  0.3976387E+03  0.7818608E-02  0.1044600E+00
          2   -1    0    0  501    0  0.00000000000E+00  0.00000000000E+00  0.99400970648E+03  0.99400970649E+03  0.25500000000E-02 0.  1.
         -2   -1    0    0    0  501 -0.00000000000E+00 -0.00000000000E+00 -0.39767355965E+02  0.39767356047E+02  0.25500000000E-02 0. -1.
    5000001    1    1    2    0    0 -0.10949573772E+03  0.17548532105E+02  0.48393555860E+03  0.52317864295E+03  0.16500000000E+03 0.  0.
   -5000001    1    1    2    0    0  0.10949573772E+03 -0.17548532105E+02  0.47030679192E+03  0.51059841959E+03  0.16500000000E+03 0.  0.
<mgrwt>
<rscale>  0 0.39763872E+03</rscale>
<asrwt>0</asrwt>
<pdfrwt beam="1">  1        2 0.14200140E+00 0.39763872E+03</pdfrwt>
<pdfrwt beam="2">  1       -2 0.56810503E-02 0.39763872E+03</pdfrwt>
<totfact> 0.47553205E+03</totfact>
</mgrwt>
</event>
<event>
 4    1  0.5399378E-005  0.7556892E+03  0.7818608E-02  0.9626467E-01
         -2   -1    0    0    0  501 -0.00000000000E+00  0.00000000000E+00  0.51327416256E+02  0.51327416320E+02  0.25500000000E-02 0. -1.
          2   -1    0    0  501    0  0.00000000000E+00 -0.00000000000E+00 -0.27814869308E+04  0.27814869308E+04  0.25500000000E-02 0.  1.
    5000001    1    1    2    0    0  0.55560259189E+02 -0.21765815457E+03 -0.23213862062E+04  0.23380592235E+04  0.16500000000E+03 0.  0.
   -5000001    1    1    2    0    0 -0.55560259189E+02  0.21765815457E+03 -0.40877330835E+03  0.49475512354E+03  0.16500000000E+03 0.  0.
<mgrwt>
<rscale>  0 0.75568919E+03</rscale>
<asrwt>0</asrwt>
<pdfrwt beam="1">  1        2 0.39735518E+00 0.75568919E+03</pdfrwt>
<pdfrwt beam="2">  1       -2 0.73324898E-02 0.75568919E+03</pdfrwt>
<totfact> 0.36635093E+02</totfact>
</mgrwt>
</event>
<event>
 4    1  0.5399378E-005  0.6449781E+03  0.7818608E-02  0.9816248E-01
         -2   -1    0    0    0  501 -0.00000000000E+00  0.00000000000E+00  0.75854428494E+02  0.75854428537E+02  0.25500000000E-02 0. -1.
          2   -1    0    0  501    0  0.00000000000E+00 -0.00000000000E+00 -0.13710363903E+04  0.13710363903E+04  0.25500000000E-02 0.  1.
    5000001    1    1    2    0    0  0.20936775885E+03  0.16843581880E+03 -0.79922164834E+03  0.85917735461E+03  0.16500000000E+03 0.  0.
   -5000001    1    1    2    0    0 -0.20936775885E+03 -0.16843581880E+03 -0.49596031345E+03  0.58771346421E+03  0.16500000000E+03 0.  0.
<mgrwt>
<rscale>  0 0.64497808E+03</rscale>
<asrwt>0</asrwt>
<pdfrwt beam="1">  1        2 0.19586233E+00 0.64497808E+03</pdfrwt>
<pdfrwt beam="2">  1       -2 0.10836348E-01 0.64497808E+03</pdfrwt>
<totfact> 0.10440129E+03</totfact>
</mgrwt>
</event>
<event>
 4    1  0.5399378E-005  0.4190306E+03  0.7818608E-02  0.1037382E+00
          2   -1    0    0  501    0  0.00000000000E+00  0.00000000000E+00  0.69697191696E+03  0.69697191697E+03  0.25500000000E-02 0.  1.
         -2   -1    0    0    0  501 -0.00000000000E+00 -0.00000000000E+00 -0.62981951180E+02  0.62981951231E+02  0.25500000000E-02 0. -1.
    5000001    1    1    2    0    0  0.74819691833E+02  0.10043071788E+03  0.37398174752E+03  0.42751802635E+03  0.16500000000E+03 0.  0.
   -5000001    1    1    2    0    0 -0.74819691833E+02 -0.10043071788E+03  0.26000821827E+03  0.33243584185E+03  0.16500000000E+03 0.  0.
<mgrwt>
<rscale>  0 0.41903055E+03</rscale>
<asrwt>0</asrwt>
<pdfrwt beam="1">  1        2 0.99567416E-01 0.41903055E+03</pdfrwt>
<pdfrwt beam="2">  1       -2 0.89974217E-02 0.41903055E+03</pdfrwt>
<totfact> 0.36479061E+03</totfact>
</mgrwt>
</event>
<event>
 4    1  0.5399378E-005  0.3688539E+03  0.7818608E-02  0.1055132E+00
          2   -1    0    0  501    0  0.00000000000E+00  0.00000000000E+00  0.85898889961E+03  0.85898889962E+03  0.25500000000E-02 0.  1.
         -2   -1    0    0    0  501 -0.00000000000E+00 -0.00000000000E+00 -0.39596894231E+02  0.39596894313E+02  0.25500000000E-02 0. -1.
    5000001    1    1    2    0    0  0.72722974662E+02  0.28791998038E+02  0.47278646143E+03  0.50682309370E+03  0.16500000000E+03 0.  0.
   -5000001    1    1    2    0    0 -0.72722974662E+02 -0.28791998038E+02  0.34660554395E+03  0.39176270023E+03  0.16500000000E+03 0.  0.
<mgrwt>
<rscale>  0 0.36885386E+03</rscale>
<asrwt>0</asrwt>
<pdfrwt beam="1">  1        2 0.12271269E+00 0.36885386E+03</pdfrwt>
<pdfrwt beam="2">  1       -2 0.56566996E-02 0.36885386E+03</pdfrwt>
<totfact> 0.58057552E+03</totfact>
</mgrwt>
</event>
<event>
 4    1  0.5399378E-005  0.3777335E+03  0.7818608E-02  0.1051775E+00
          2   -1    0    0  501    0  0.00000000000E+00  0.00000000000E+00  0.36121756831E+04  0.36121756831E+04  0.25500000000E-02 0.  1.
         -2   -1    0    0    0  501 -0.00000000000E+00 -0.00000000000E+00 -0.98751124366E+01  0.98751127658E+01  0.25500000000E-02 0. -1.
    5000001    1    1    2    0    0  0.20327646314E+02 -0.88427143411E+02  0.19411183384E+04  0.19502302368E+04  0.16500000000E+03 0.  0.
   -5000001    1    1    2    0    0 -0.20327646314E+02  0.88427143411E+02  0.16611822323E+04  0.16718205591E+04  0.16500000000E+03 0.  0.
<mgrwt>
<rscale>  0 0.37773346E+03</rscale>
<asrwt>0</asrwt>
<pdfrwt beam="1">  1        2 0.51602433E+00 0.37773346E+03</pdfrwt>
<pdfrwt beam="2">  1       -2 0.14107325E-02 0.37773346E+03</pdfrwt>
<totfact> 0.16047008E+03</totfact>
</mgrwt>
</event>
<event>
 4    1  0.5399378E-005  0.5137222E+03  0.7818608E-02  0.1010258E+00
          2   -1    0    0  501    0  0.00000000000E+00  0.00000000000E+00  0.13801101752E+04  0.13801101752E+04  0.25500000000E-02 0.  1.
         -2   -1    0    0    0  501 -0.00000000000E+00 -0.00000000000E+00 -0.47806063961E+02  0.47806064029E+02  0.25500000000E-02 0. -1.
    5000001    1    1    2    0    0  0.18152597676E+03  0.75479672153E+02  0.63783689106E+03  0.68753891580E+03  0.16500000000E+03 0.  0.
   -5000001    1    1    2    0    0 -0.18152597676E+03 -0.75479672153E+02  0.69446722022E+03  0.74037732347E+03  0.16500000000E+03 0.  0.
<mgrwt>
<rscale>  0 0.51372224E+03</rscale>
<asrwt>0</asrwt>
<pdfrwt beam="1">  1        2 0.19715856E+00 0.51372224E+03</pdfrwt>
<pdfrwt beam="2">  1       -2 0.68294388E-02 0.51372224E+03</pdfrwt>
<totfact> 0.21707496E+03</totfact>
</mgrwt>
</event>
<event>
 4    1  0.5399378E-005  0.1566969E+04  0.7818608E-02  0.8841101E-01
         -2   -1    0    0    0  501 -0.00000000000E+00  0.00000000000E+00  0.15259842500E+03  0.15259842502E+03  0.25500000000E-02 0. -1.
          2   -1    0    0  501    0  0.00000000000E+00 -0.00000000000E+00 -0.40226377535E+04  0.40226377535E+04  0.25500000000E-02 0.  1.
    5000001    1    1    2    0    0  0.46283317047E+03 -0.11022512943E+03 -0.35343126059E+04  0.35700076637E+04  0.16500000000E+03 0.  0.
   -5000001    1    1    2    0    0 -0.46283317047E+03  0.11022512943E+03 -0.33572672258E+03  0.60522851478E+03  0.16500000000E+03 0.  0.
<mgrwt>
<rscale>  0 0.15669693E+04</rscale>
<asrwt>0</asrwt>
<pdfrwt beam="1">  1        2 0.57466247E+00 0.15669693E+04</pdfrwt>
<pdfrwt beam="2">  1       -2 0.21799778E-01 0.15669693E+04</pdfrwt>
<totfact> 0.98690237E+00</totfact>
</mgrwt>
</event>
<event>
 4    1  0.5399378E-005  0.4361717E+03  0.7818608E-02  0.1031928E+00
          2   -1    0    0  501    0  0.00000000000E+00  0.00000000000E+00  0.88389808949E+03  0.88389808949E+03  0.25500000000E-02 0.  1.
         -2   -1    0    0    0  501 -0.00000000000E+00 -0.00000000000E+00 -0.53808725515E+02  0.53808725575E+02  0.25500000000E-02 0. -1.
    5000001    1    1    2    0    0  0.11208483902E+02 -0.13033353817E+03  0.53711357781E+03  0.57691286755E+03  0.16500000000E+03 0.  0.
   -5000001    1    1    2    0    0 -0.11208483902E+02  0.13033353817E+03  0.29297578616E+03  0.36079394751E+03  0.16500000000E+03 0.  0.
<mgrwt>
<rscale>  0 0.43617166E+03</rscale>
<asrwt>0</asrwt>
<pdfrwt beam="1">  1        2 0.12627114E+00 0.43617166E+03</pdfrwt>
<pdfrwt beam="2">  1       -2 0.76869615E-02 0.43617166E+03</pdfrwt>
<totfact> 0.34762699E+03</totfact>
</mgrwt>
</event>
<event>
 4    1  0.5399378E-005  0.6914377E+03  0.7818608E-02  0.9731988E-01
         -2   -1    0    0    0  501 -0.00000000000E+00  0.00000000000E+00  0.76487721594E+02  0.76487721636E+02  0.25500000000E-02 0. -1.
          2   -1    0    0  501    0  0.00000000000E+00 -0.00000000000E+00 -0.15626234604E+04  0.15626234604E+04  0.25500000000E-02 0.  1.
    5000001    1    1    2    0    0 -0.22754622831E+03 -0.15884771211E+03 -0.10361647614E+04  0.10852982514E+04  0.16500000000E+03 0.  0.
   -5000001    1    1    2    0    0  0.22754622831E+03  0.15884771211E+03 -0.44997097739E+03  0.55381293065E+03  0.16500000000E+03 0.  0.
<mgrwt>
<rscale>  0 0.69143766E+03</rscale>
<asrwt>0</asrwt>
<pdfrwt beam="1">  1        2 0.22323190E+00 0.69143766E+03</pdfrwt>
<pdfrwt beam="2">  1       -2 0.10926818E-01 0.69143766E+03</pdfrwt>
<totfact> 0.81482238E+02</totfact>
</mgrwt>
</event>
<event>
 4    1  0.5399378E-005  0.4440524E+03  0.7818608E-02  0.1029511E+00
         -2   -1    0    0    0  501 -0.00000000000E+00  0.00000000000E+00  0.33703658084E+02  0.33703658181E+02  0.25500000000E-02 0. -1.
          2   -1    0    0  501    0  0.00000000000E+00 -0.00000000000E+00 -0.14626196725E+04  0.14626196725E+04  0.25500000000E-02 0.  1.
    5000001    1    1    2    0    0  0.29872096333E+02  0.13161929691E+03 -0.50524734599E+03  0.54837565782E+03  0.16500000000E+03 0.  0.
   -5000001    1    1    2    0    0 -0.29872096333E+02 -0.13161929691E+03 -0.92366866840E+03  0.94794767284E+03  0.16500000000E+03 0.  0.
<mgrwt>
<rscale>  0 0.44405240E+03</rscale>
<asrwt>0</asrwt>
<pdfrwt beam="1">  1        2 0.20894563E+00 0.44405240E+03</pdfrwt>
<pdfrwt beam="2">  1       -2 0.48148092E-02 0.44405240E+03</pdfrwt>
<totfact> 0.33855718E+03</totfact>
</mgrwt>
</event>
<event>
 4    1  0.5399378E-005  0.6628195E+03  0.7818608E-02  0.9783017E-01
          2   -1    0    0  501    0  0.00000000000E+00  0.00000000000E+00  0.78917373279E+03  0.78917373279E+03  0.25500000000E-02 0.  1.
         -2   -1    0    0    0  501 -0.00000000000E+00 -0.00000000000E+00 -0.13917394052E+03  0.13917394054E+03  0.25500000000E-02 0. -1.
    5000001    1    1    2    0    0 -0.25386008590E+03 -0.80624597844E+02  0.17374665804E+03  0.35827108475E+03  0.16500000000E+03 0.  0.
   -5000001    1    1    2    0    0  0.25386008590E+03  0.80624597844E+02  0.47625313423E+03  0.57007658858E+03  0.16500000000E+03 0.  0.
<mgrwt>
<rscale>  0 0.66281949E+03</rscale>
<asrwt>0</asrwt>
<pdfrwt beam="1">  1        2 0.11273910E+00 0.66281949E+03</pdfrwt>
<pdfrwt beam="2">  1       -2 0.19881992E-01 0.66281949E+03</pdfrwt>
<totfact> 0.83679615E+02</totfact>
</mgrwt>
</event>
<event>
 4    1  0.5399378E-005  0.6281334E+03  0.7818608E-02  0.9848698E-01
          2   -1    0    0  501    0  0.00000000000E+00  0.00000000000E+00  0.16922118276E+04  0.16922118276E+04  0.25500000000E-02 0.  1.
         -2   -1    0    0    0  501 -0.00000000000E+00 -0.00000000000E+00 -0.58289334552E+02  0.58289334608E+02  0.25500000000E-02 0. -1.
    5000001    1    1    2    0    0  0.23540141266E+03  0.12300329667E+03  0.89912621170E+03  0.95194358060E+03  0.16500000000E+03 0.  0.
   -5000001    1    1    2    0    0 -0.23540141266E+03 -0.12300329667E+03  0.73479628139E+03  0.79855758165E+03  0.16500000000E+03 0.  0.
<mgrwt>
<rscale>  0 0.62813343E+03</rscale>
<asrwt>0</asrwt>
<pdfrwt beam="1">  1        2 0.24174452E+00 0.62813343E+03</pdfrwt>
<pdfrwt beam="2">  1       -2 0.83270489E-02 0.62813343E+03</pdfrwt>
<totfact> 0.10880683E+03</totfact>
</mgrwt>
</event>
<event>
 4    1  0.5399378E-005  0.3482253E+03  0.7818608E-02  0.1063346E+00
          2   -1    0    0  501    0  0.00000000000E+00  0.00000000000E+00  0.58318292715E+03  0.58318292716E+03  0.25500000000E-02 0.  1.
         -2   -1    0    0    0  501 -0.00000000000E+00 -0.00000000000E+00 -0.51982328313E+02  0.51982328375E+02  0.25500000000E-02 0. -1.
    5000001    1    1    2    0    0 -0.10861354371E+02  0.42863288589E+02  0.20415059629E+03  0.26619109018E+03  0.16500000000E+03 0.  0.
   -5000001    1    1    2    0    0  0.10861354371E+02 -0.42863288589E+02  0.32705000255E+03  0.36897416535E+03  0.16500000000E+03 0.  0.
<mgrwt>
<rscale>  0 0.34822525E+03</rscale>
<asrwt>0</asrwt>
<pdfrwt beam="1">  1        2 0.83311845E-01 0.34822525E+03</pdfrwt>
<pdfrwt beam="2">  1       -2 0.74260471E-02 0.34822525E+03</pdfrwt>
<totfact> 0.60664889E+03</totfact>
</mgrwt>
</event>
<event>
 4    1  0.5399378E-005  0.7153006E+03  0.7818608E-02  0.9691418E-01
          2   -1    0    0  501    0  0.00000000000E+00  0.00000000000E+00  0.13021648023E+04  0.13021648023E+04  0.25500000000E-02 0.  1.
         -2   -1    0    0    0  501 -0.00000000000E+00 -0.00000000000E+00 -0.98231617325E+02  0.98231617358E+02  0.25500000000E-02 0. -1.
    5000001    1    1    2    0    0 -0.19475406328E+03 -0.23236841840E+03  0.78525146764E+03  0.85776983770E+03  0.16500000000E+03 0.  0.
   -5000001    1    1    2    0    0  0.19475406328E+03  0.23236841840E+03  0.41868171737E+03  0.54262658200E+03  0.16500000000E+03 0.  0.
<mgrwt>
<rscale>  0 0.71530065E+03</rscale>
<asrwt>0</asrwt>
<pdfrwt beam="1">  1        2 0.18602354E+00 0.71530065E+03</pdfrwt>
<pdfrwt beam="2">  1       -2 0.14033088E-01 0.71530065E+03</pdfrwt>
<totfact> 0.73958106E+02</totfact>
</mgrwt>
</event>
<event>
 4    1  0.5399378E-005  0.5112715E+03  0.7818608E-02  0.1010878E+00
          2   -1    0    0  501    0  0.00000000000E+00  0.00000000000E+00  0.80590062844E+02  0.80590062884E+02  0.25500000000E-02 0.  1.
         -2   -1    0    0    0  501 -0.00000000000E+00 -0.00000000000E+00 -0.81088957907E+03  0.81088957908E+03  0.25500000000E-02 0. -1.
    5000001    1    1    2    0    0  0.15129075718E+03  0.94360809182E+02 -0.22640296195E+03  0.33207853995E+03  0.16500000000E+03 0.  0.
   -5000001    1    1    2    0    0 -0.15129075718E+03 -0.94360809182E+02 -0.50389655428E+03  0.55940110201E+03  0.16500000000E+03 0.  0.
<mgrwt>
<rscale>  0 0.51127152E+03</rscale>
<asrwt>0</asrwt>
<pdfrwt beam="1">  1        2 0.11512867E-01 0.51127152E+03</pdfrwt>
<pdfrwt beam="2">  1       -2 0.11584136E+00 0.51127152E+03</pdfrwt>
<totfact> 0.32613544E+02</totfact>
</mgrwt>
</event>
<event>
 4    1  0.5399378E-005  0.4159817E+03  0.7818608E-02  0.1038382E+00
          2   -1    0    0  501    0  0.00000000000E+00  0.00000000000E+00  0.14742446036E+03  0.14742446038E+03  0.25500000000E-02 0.  1.
         -2   -1    0    0    0  501 -0.00000000000E+00 -0.00000000000E+00 -0.29343966704E+03  0.29343966705E+03  0.25500000000E-02 0. -1.
    5000001    1    1    2    0    0 -0.50401336582E+02 -0.11562105560E+03 -0.84935191113E+02  0.22438250805E+03  0.16500000000E+03 0.  0.
   -5000001    1    1    2    0    0  0.50401336582E+02  0.11562105560E+03 -0.61080015569E+02  0.21648161938E+03  0.16500000000E+03 0.  0.
<mgrwt>
<rscale>  0 0.41598166E+03</rscale>
<asrwt>0</asrwt>
<pdfrwt beam="1">  1        2 0.21060637E-01 0.41598166E+03</pdfrwt>
<pdfrwt beam="2">  1       -2 0.41919952E-01 0.41598166E+03</pdfrwt>
<totfact> 0.14352348E+03</totfact>
</mgrwt>
</event>
<event>
 4    1  0.5399378E-005  0.7927681E+03  0.7818608E-02  0.9570544E-01
          2   -1    0    0  501    0  0.00000000000E+00  0.00000000000E+00  0.19377063296E+04  0.19377063296E+04  0.25500000000E-02 0.  1.
         -2   -1    0    0    0  501 -0.00000000000E+00 -0.00000000000E+00 -0.81085718671E+02  0.81085718711E+02  0.25500000000E-02 0. -1.
    5000001    1    1    2    0    0  0.11725956005E+03  0.27008012854E+03  0.39901443157E+03  0.52261897866E+03  0.16500000000E+03 0.  0.
   -5000001    1    1    2    0    0 -0.11725956005E+03 -0.27008012854E+03  0.14576061794E+04  0.14961730697E+04  0.16500000000E+03 0.  0.
<mgrwt>
<rscale>  0 0.79276809E+03</rscale>
<asrwt>0</asrwt>
<pdfrwt beam="1">  1        2 0.27681516E+00 0.79276809E+03</pdfrwt>
<pdfrwt beam="2">  1       -2 0.11583675E-01 0.79276809E+03</pdfrwt>
<totfact> 0.47338649E+02</totfact>
</mgrwt>
</event>
<event>
 4    1  0.5399378E-005  0.9659504E+03  0.7818608E-02  0.9346699E-01
         -2   -1    0    0    0  501 -0.00000000000E+00  0.00000000000E+00  0.18283448877E+04  0.18283448877E+04  0.25500000000E-02 0. -1.
          2   -1    0    0  501    0  0.00000000000E+00 -0.00000000000E+00 -0.12758263948E+03  0.12758263951E+03  0.25500000000E-02 0.  1.
    5000001    1    1    2    0    0 -0.33679498654E+03  0.29508165758E+03  0.10010406860E+04  0.11089686662E+04  0.16500000000E+03 0.  0.
   -5000001    1    1    2    0    0  0.33679498654E+03 -0.29508165758E+03  0.69972156221E+03  0.84695886100E+03  0.16500000000E+03 0.  0.
<mgrwt>
<rscale>  0 0.96595045E+03</rscale>
<asrwt>0</asrwt>
<pdfrwt beam="1">  1        2 0.18226090E-01 0.96595045E+03</pdfrwt>
<pdfrwt beam="2">  1       -2 0.26119214E+00 0.96595045E+03</pdfrwt>
<totfact> 0.17616996E+01</totfact>
</mgrwt>
</event>
<event>
 4    1  0.5399378E-005  0.5830044E+03  0.7818608E-02  0.9941308E-01
         -2   -1    0    0    0  501 -0.00000000000E+00  0.00000000000E+00  0.19991332393E+03  0.19991332395E+03  0.25500000000E-02 0. -1.
          2   -1    0    0  501    0  0.00000000000E+00 -0.00000000000E+00 -0.42505190131E+03  0.42505190131E+03  0.25500000000E-02 0.  1.
    5000001    1    1    2    0    0 -0.15762956622E+03  0.15785096290E+03 -0.16781811986E+02  0.27797596272E+03  0.16500000000E+03 0.  0.
   -5000001    1    1    2    0    0  0.15762956622E+03 -0.15785096290E+03 -0.20835676539E+03  0.34698926254E+03  0.16500000000E+03 0.  0.
<mgrwt>
<rscale>  0 0.58300442E+03</rscale>
<asrwt>0</asrwt>
<pdfrwt beam="1">  1        2 0.60721700E-01 0.58300442E+03</pdfrwt>
<pdfrwt beam="2">  1       -2 0.28559046E-01 0.58300442E+03</pdfrwt>
<totfact> 0.90974711E+02</totfact>
</mgrwt>
</event>
<event>
 4    1  0.5399378E-005  0.4706426E+03  0.7818608E-02  0.1021739E+00
          2   -1    0    0  501    0  0.00000000000E+00  0.00000000000E+00  0.16915790240E+03  0.16915790242E+03  0.25500000000E-02 0.  1.
         -2   -1    0    0    0  501 -0.00000000000E+00 -0.00000000000E+00 -0.32736349333E+03  0.32736349334E+03  0.25500000000E-02 0. -1.
    5000001    1    1    2    0    0 -0.16520404970E+03  0.20754483421E+02 -0.57277196412E+02  0.24130645215E+03  0.16500000000E+03 0.  0.
   -5000001    1    1    2    0    0  0.16520404970E+03 -0.20754483421E+02 -0.10092839452E+03  0.25521494361E+03  0.16500000000E+03 0.  0.
<mgrwt>
<rscale>  0 0.47064263E+03</rscale>
<asrwt>0</asrwt>
<pdfrwt beam="1">  1        2 0.24165415E-01 0.47064263E+03</pdfrwt>
<pdfrwt beam="2">  1       -2 0.46766213E-01 0.47064263E+03</pdfrwt>
<totfact> 0.98934299E+02</totfact>
</mgrwt>
</event>
<event>
 4    1  0.5399378E-005  0.5529645E+03  0.7818608E-02  0.1000810E+00
          2   -1    0    0  501    0  0.00000000000E+00  0.00000000000E+00  0.30735127891E+03  0.30735127892E+03  0.25500000000E-02 0.  1.
         -2   -1    0    0    0  501 -0.00000000000E+00 -0.00000000000E+00 -0.24871356161E+03  0.24871356162E+03  0.25500000000E-02 0. -1.
    5000001    1    1    2    0    0 -0.18831026071E+03  0.76385893682E+02 -0.60185072522E+02  0.26859412130E+03  0.16500000000E+03 0.  0.
   -5000001    1    1    2    0    0  0.18831026071E+03 -0.76385893682E+02  0.11882278983E+03  0.28747071925E+03  0.16500000000E+03 0.  0.
<mgrwt>
<rscale>  0 0.55296449E+03</rscale>
<asrwt>0</asrwt>
<pdfrwt beam="1">  1        2 0.43907326E-01 0.55296449E+03</pdfrwt>
<pdfrwt beam="2">  1       -2 0.35530509E-01 0.55296449E+03</pdfrwt>
<totfact> 0.86684469E+02</totfact>
</mgrwt>
</event>
<event>
 4    1  0.5399378E-005  0.3485918E+03  0.7818608E-02  0.1063194E+00
          2   -1    0    0  501    0  0.00000000000E+00  0.00000000000E+00  0.24475036221E+04  0.24475036221E+04  0.25500000000E-02 0.  1.
         -2   -1    0    0    0  501 -0.00000000000E+00 -0.00000000000E+00 -0.12412266316E+02  0.12412266578E+02  0.25500000000E-02 0. -1.
    5000001    1    1    2    0    0 -0.79289180925E+01 -0.54871714079E+02  0.12807789301E+04  0.12925530707E+04  0.16500000000E+03 0.  0.
   -5000001    1    1    2    0    0  0.79289180925E+01  0.54871714079E+02  0.11543124257E+04  0.11673628180E+04  0.16500000000E+03 0.  0.
<mgrwt>
<rscale>  0 0.34859184E+03</rscale>
<asrwt>0</asrwt>
<pdfrwt beam="1">  1        2 0.34964340E+00 0.34859184E+03</pdfrwt>
<pdfrwt beam="2">  1       -2 0.17731808E-02 0.34859184E+03</pdfrwt>
<totfact> 0.49078164E+03</totfact>
</mgrwt>
</event>
<event>
 4    1  0.5399378E-005  0.4849461E+03  0.7818608E-02  0.1017785E+00
         -2   -1    0    0    0  501 -0.00000000000E+00  0.00000000000E+00  0.41062793248E+02  0.41062793327E+02  0.25500000000E-02 0. -1.
          2   -1    0    0  501    0  0.00000000000E+00 -0.00000000000E+00 -0.14317868842E+04  0.14317868842E+04  0.25500000000E-02 0.  1.
    5000001    1    1    2    0    0  0.10680288380E+03 -0.13966121622E+03 -0.61756986119E+03  0.66297031966E+03  0.16500000000E+03 0.  0.
   -5000001    1    1    2    0    0 -0.10680288380E+03  0.13966121622E+03 -0.77315422979E+03  0.80987935789E+03  0.16500000000E+03 0.  0.
<mgrwt>
<rscale>  0 0.48494605E+03</rscale>
<asrwt>0</asrwt>
<pdfrwt beam="1">  1        2 0.20454095E+00 0.48494605E+03</pdfrwt>
<pdfrwt beam="2">  1       -2 0.58661142E-02 0.48494605E+03</pdfrwt>
<totfact> 0.25875046E+03</totfact>
</mgrwt>
</event>
<event>
 4    1  0.5399378E-005  0.4908943E+03  0.7818608E-02  0.1016183E+00
          2   -1    0    0  501    0  0.00000000000E+00  0.00000000000E+00  0.34743017711E+04  0.34743017711E+04  0.25500000000E-02 0.  1.
         -2   -1    0    0    0  501 -0.00000000000E+00 -0.00000000000E+00 -0.17339973314E+02  0.17339973502E+02  0.25500000000E-02 0. -1.
    5000001    1    1    2    0    0 -0.11548314003E+03 -0.90805340516E+02  0.96779718771E+03  0.99269248110E+03  0.16500000000E+03 0.  0.
   -5000001    1    1    2    0    0  0.11548314003E+03  0.90805340516E+02  0.24891646101E+04  0.24989492635E+04  0.16500000000E+03 0.  0.
<mgrwt>
<rscale>  0 0.49089429E+03</rscale>
<asrwt>0</asrwt>
<pdfrwt beam="1">  1        2 0.49632881E+00 0.49089429E+03</pdfrwt>
<pdfrwt beam="2">  1       -2 0.24771391E-02 0.49089429E+03</pdfrwt>
<totfact> 0.82638846E+02</totfact>
</mgrwt>
</event>
<event>
 4    1  0.5399378E-005  0.3919761E+03  0.7818608E-02  0.1046594E+00
         -2   -1    0    0    0  501 -0.00000000000E+00  0.00000000000E+00  0.39396379303E+03  0.39396379304E+03  0.25500000000E-02 0. -1.
          2   -1    0    0  501    0  0.00000000000E+00 -0.00000000000E+00 -0.97499588633E+02  0.97499588666E+02  0.25500000000E-02 0.  1.
    5000001    1    1    2    0    0 -0.80120791919E+02 -0.38949577082E+02  0.76755085947E+02  0.20261479233E+03  0.16500000000E+03 0.  0.
   -5000001    1    1    2    0    0  0.80120791919E+02  0.38949577082E+02  0.21970911845E+03  0.28884858937E+03  0.16500000000E+03 0.  0.
<mgrwt>
<rscale>  0 0.39197606E+03</rscale>
<asrwt>0</asrwt>
<pdfrwt beam="1">  1        2 0.13928513E-01 0.39197606E+03</pdfrwt>
<pdfrwt beam="2">  1       -2 0.56280542E-01 0.39197606E+03</pdfrwt>
<totfact> 0.12963354E+03</totfact>
</mgrwt>
</event>
<event>
 4    1  0.5399378E-005  0.6387127E+03  0.7818608E-02  0.9828193E-01
         -2   -1    0    0    0  501 -0.00000000000E+00  0.00000000000E+00  0.19303142535E+03  0.19303142537E+03  0.25500000000E-02 0. -1.
          2   -1    0    0  501    0  0.00000000000E+00 -0.00000000000E+00 -0.52835161482E+03  0.52835161482E+03  0.25500000000E-02 0.  1.
    5000001    1    1    2    0    0 -0.55523328235E+02  0.26629967858E+03 -0.13641935175E+03  0.34616989806E+03  0.16500000000E+03 0.  0.
   -5000001    1    1    2    0    0  0.55523328235E+02 -0.26629967858E+03 -0.19890083771E+03  0.37521314213E+03  0.16500000000E+03 0.  0.
<mgrwt>
<rscale>  0 0.63871266E+03</rscale>
<asrwt>0</asrwt>
<pdfrwt beam="1">  1        2 0.75478802E-01 0.63871266E+03</pdfrwt>
<pdfrwt beam="2">  1       -2 0.27575918E-01 0.63871266E+03</pdfrwt>
<totfact> 0.75774046E+02</totfact>
</mgrwt>
</event>
<event>
 4    1  0.5399378E-005  0.3825116E+03  0.7818608E-02  0.1050009E+00
         -2   -1    0    0    0  501 -0.00000000000E+00  0.00000000000E+00  0.21086948877E+03  0.21086948878E+03  0.25500000000E-02 0. -1.
          2   -1    0    0  501    0  0.00000000000E+00 -0.00000000000E+00 -0.17346640452E+03  0.17346640454E+03  0.25500000000E-02 0.  1.
    5000001    1    1    2    0    0 -0.61555428362E+02  0.64669765566E+02 -0.18658084326E+02  0.18853215495E+03  0.16500000000E+03 0.  0.
   -5000001    1    1    2    0    0  0.61555428362E+02 -0.64669765566E+02  0.56061168570E+02  0.19580373837E+03  0.16500000000E+03 0.  0.
<mgrwt>
<rscale>  0 0.38251155E+03</rscale>
<asrwt>0</asrwt>
<pdfrwt beam="1">  1        2 0.24780915E-01 0.38251155E+03</pdfrwt>
<pdfrwt beam="2">  1       -2 0.30124212E-01 0.38251155E+03</pdfrwt>
<totfact> 0.22202304E+03</totfact>
</mgrwt>
</event>
<event>
 4    1  0.5399378E-005  0.8676436E+03  0.7818608E-02  0.9466958E-01
          2   -1    0    0  501    0  0.00000000000E+00  0.00000000000E+00  0.47429006735E+03  0.47429006736E+03  0.25500000000E-02 0.  1.
         -2   -1    0    0    0  501 -0.00000000000E+00 -0.00000000000E+00 -0.39680643221E+03  0.39680643222E+03  0.25500000000E-02 0. -1.
    5000001    1    1    2    0    0  0.36040889776E+03  0.12164829594E+03  0.16685633896E+03  0.44694397786E+03  0.16500000000E+03 0.  0.
   -5000001    1    1    2    0    0 -0.36040889776E+03 -0.12164829594E+03 -0.89372703822E+02  0.42415252172E+03  0.16500000000E+03 0.  0.
<mgrwt>
<rscale>  0 0.86764359E+03</rscale>
<asrwt>0</asrwt>
<pdfrwt beam="1">  1        2 0.67755724E-01 0.86764359E+03</pdfrwt>
<pdfrwt beam="2">  1       -2 0.56686633E-01 0.86764359E+03</pdfrwt>
<totfact> 0.20917080E+02</totfact>
</mgrwt>
</event>
<event>
 4    1  0.5399378E-005  0.4152597E+03  0.7818608E-02  0.1038620E+00
          2   -1    0    0  501    0  0.00000000000E+00  0.00000000000E+00  0.34747707810E+03  0.34747707810E+03  0.25500000000E-02 0.  1.
         -2   -1    0    0    0  501 -0.00000000000E+00 -0.00000000000E+00 -0.12406616256E+03  0.12406616259E+03  0.25500000000E-02 0. -1.
    5000001    1    1    2    0    0 -0.77695127948E+02  0.91950660432E+02  0.15409756355E+03  0.25585643622E+03  0.16500000000E+03 0.  0.
   -5000001    1    1    2    0    0  0.77695127948E+02 -0.91950660432E+02  0.69313351980E+02  0.21568680447E+03  0.16500000000E+03 0.  0.
<mgrwt>
<rscale>  0 0.41525967E+03</rscale>
<asrwt>0</asrwt>
<pdfrwt beam="1">  1        2 0.49639582E-01 0.41525967E+03</pdfrwt>
<pdfrwt beam="2">  1       -2 0.17723738E-01 0.41525967E+03</pdfrwt>
<totfact> 0.26308551E+03</totfact>
</mgrwt>
</event>
<event>
 4    1  0.5399378E-005  0.5651685E+03  0.7818608E-02  0.9980427E-01
          2   -1    0    0  501    0  0.00000000000E+00  0.00000000000E+00  0.59748229770E+03  0.59748229770E+03  0.25500000000E-02 0.  1.
         -2   -1    0    0    0  501 -0.00000000000E+00 -0.00000000000E+00 -0.13365057040E+03  0.13365057043E+03  0.25500000000E-02 0. -1.
    5000001    1    1    2    0    0  0.26632437914E+02 -0.16327014515E+03  0.26300348086E+02  0.23512365971E+03  0.16500000000E+03 0.  0.
   -5000001    1    1    2    0    0 -0.26632437914E+02  0.16327014515E+03  0.43753137921E+03  0.49600920842E+03  0.16500000000E+03 0.  0.
<mgrwt>
<rscale>  0 0.56516847E+03</rscale>
<asrwt>0</asrwt>
<pdfrwt beam="1">  1        2 0.85354615E-01 0.56516847E+03</pdfrwt>
<pdfrwt beam="2">  1       -2 0.19092938E-01 0.56516847E+03</pdfrwt>
<totfact> 0.12626670E+03</totfact>
</mgrwt>
</event>
<event>
 4    1  0.5399378E-005  0.7841128E+03  0.7818608E-02  0.9583302E-01
          2   -1    0    0  501    0  0.00000000000E+00  0.00000000000E+00  0.32396455426E+03  0.32396455427E+03  0.25500000000E-02 0.  1.
         -2   -1    0    0    0  501 -0.00000000000E+00 -0.00000000000E+00 -0.47446004281E+03  0.47446004281E+03  0.25500000000E-02 0. -1.
    5000001    1    1    2    0    0  0.34523673751E+03 -0.85239112740E+02 -0.69752481306E+02  0.39817649342E+03  0.16500000000E+03 0.  0.
   -5000001    1    1    2    0    0 -0.34523673751E+03  0.85239112740E+02 -0.80743007242E+02  0.40024810366E+03  0.16500000000E+03 0.  0.
<mgrwt>
<rscale>  0 0.78411284E+03</rscale>
<asrwt>0</asrwt>
<pdfrwt beam="1">  1        2 0.46280651E-01 0.78411284E+03</pdfrwt>
<pdfrwt beam="2">  1       -2 0.67780006E-01 0.78411284E+03</pdfrwt>
<totfact> 0.21997574E+02</totfact>
</mgrwt>
</event>
<event>
 4    1  0.5399378E-005  0.4986850E+03  0.7818608E-02  0.1014123E+00
         -2   -1    0    0    0  501 -0.00000000000E+00  0.00000000000E+00  0.10795802008E+03  0.10795802011E+03  0.25500000000E-02 0. -1.
          2   -1    0    0  501    0  0.00000000000E+00 -0.00000000000E+00 -0.57588767652E+03  0.57588767653E+03  0.25500000000E-02 0.  1.
    5000001    1    1    2    0    0  0.16375335853E+03 -0.90146932097E+02 -0.23087969473E+03  0.33981180856E+03  0.16500000000E+03 0.  0.
   -5000001    1    1    2    0    0 -0.16375335853E+03  0.90146932097E+02 -0.23704996171E+03  0.34403388807E+03  0.16500000000E+03 0.  0.
<mgrwt>
<rscale>  0 0.49868504E+03</rscale>
<asrwt>0</asrwt>
<pdfrwt beam="1">  1        2 0.82269667E-01 0.49868504E+03</pdfrwt>
<pdfrwt beam="2">  1       -2 0.15422575E-01 0.49868504E+03</pdfrwt>
<totfact> 0.18966104E+03</totfact>
</mgrwt>
</event>
<event>
 4    1  0.5399378E-005  0.5657555E+03  0.7818608E-02  0.9979115E-01
         -2   -1    0    0    0  501 -0.00000000000E+00  0.00000000000E+00  0.78932912251E+02  0.78932912292E+02  0.25500000000E-02 0. -1.
          2   -1    0    0  501    0  0.00000000000E+00 -0.00000000000E+00 -0.10137699160E+04  0.10137699160E+04  0.25500000000E-02 0.  1.
    5000001    1    1    2    0    0 -0.22697830146E+03 -0.20747755527E+02 -0.52356870009E+03  0.59438943665E+03  0.16500000000E+03 0.  0.
   -5000001    1    1    2    0    0  0.22697830146E+03  0.20747755527E+02 -0.41126830365E+03  0.49831339163E+03  0.16500000000E+03 0.  0.
<mgrwt>
<rscale>  0 0.56575547E+03</rscale>
<asrwt>0</asrwt>
<pdfrwt beam="1">  1        2 0.14482427E+00 0.56575547E+03</pdfrwt>
<pdfrwt beam="2">  1       -2 0.11276131E-01 0.56575547E+03</pdfrwt>
<totfact> 0.15599535E+03</totfact>
</mgrwt>
</event>
<event>
 4    1  0.5399378E-005  0.4123369E+03  0.7818608E-02  0.1039590E+00
         -2   -1    0    0    0  501 -0.00000000000E+00  0.00000000000E+00  0.11116239483E+02  0.11116239775E+02  0.25500000000E-02 0.  1.
          2   -1    0    0  501    0  0.00000000000E+00 -0.00000000000E+00 -0.38237229329E+04  0.38237229329E+04  0.25500000000E-02 0. -1.
    5000001    1    1    2    0    0 -0.61468572510E+01  0.12225226787E+03 -0.20665863671E+04  0.20767733659E+04  0.16500000000E+03 0.  0.
   -5000001    1    1    2    0    0  0.61468572510E+01 -0.12225226787E+03 -0.17460203263E+04  0.17580658067E+04  0.16500000000E+03 0.  0.
<mgrwt>
<rscale>  0 0.41233685E+03</rscale>
<asrwt>0</asrwt>
<pdfrwt beam="1">  1        2 0.54624529E+00 0.41233685E+03</pdfrwt>
<pdfrwt beam="2">  1       -2 0.15880367E-02 0.41233685E+03</pdfrwt>
<totfact> 0.99368967E+02</totfact>
</mgrwt>
</event>
<event>
 4    1  0.5399378E-005  0.1030880E+04  0.7818608E-02  0.9275310E-01
         -2   -1    0    0    0  501 -0.00000000000E+00  0.00000000000E+00  0.14056533249E+03  0.14056533251E+03  0.25500000000E-02 0. -1.
          2   -1    0    0  501    0  0.00000000000E+00 -0.00000000000E+00 -0.18900714359E+04  0.18900714359E+04  0.25500000000E-02 0.  1.
    5000001    1    1    2    0    0  0.26365480532E+03  0.34785753384E+03 -0.13060232878E+04  0.13868815914E+04  0.16500000000E+03 0.  0.
   -5000001    1    1    2    0    0 -0.26365480532E+03 -0.34785753384E+03 -0.44348281560E+03  0.64375517703E+03  0.16500000000E+03 0.  0.
<mgrwt>
<rscale>  0 0.10308802E+04</rscale>
<asrwt>0</asrwt>
<pdfrwt beam="1">  1        2 0.27001019E+00 0.10308802E+04</pdfrwt>
<pdfrwt beam="2">  1       -2 0.20080763E-01 0.10308802E+04</pdfrwt>
<totfact> 0.19344737E+02</totfact>
</mgrwt>
</event>
<event>
 4    1  0.5399378E-005  0.4852471E+03  0.7818608E-02  0.1017703E+00
         -2   -1    0    0    0  501 -0.00000000000E+00  0.00000000000E+00  0.43859193366E+02  0.43859193440E+02  0.25500000000E-02 0. -1.
          2   -1    0    0  501    0  0.00000000000E+00 -0.00000000000E+00 -0.13421630705E+04  0.13421630705E+04  0.25500000000E-02 0.  1.
    5000001    1    1    2    0    0 -0.74059309148E+01 -0.16398770972E+03 -0.45344958781E+03  0.50969436473E+03  0.16500000000E+03 0.  0.
   -5000001    1    1    2    0    0  0.74059309148E+01  0.16398770972E+03 -0.84485428935E+03  0.87632789924E+03  0.16500000000E+03 0.  0.
<mgrwt>
<rscale>  0 0.48524711E+03</rscale>
<asrwt>0</asrwt>
<pdfrwt beam="1">  1        2 0.19173756E+00 0.48524711E+03</pdfrwt>
<pdfrwt beam="2">  1       -2 0.62655999E-02 0.48524711E+03</pdfrwt>
<totfact> 0.26039134E+03</totfact>
</mgrwt>
</event>
<event>
 4    1  0.5399378E-005  0.4414527E+03  0.7818608E-02  0.1030302E+00
          2   -1    0    0  501    0  0.00000000000E+00  0.00000000000E+00  0.44143457404E+02  0.44143457478E+02  0.25500000000E-02 0.  1.
         -2   -1    0    0    0  501 -0.00000000000E+00 -0.00000000000E+00 -0.11036768260E+04  0.11036768260E+04  0.25500000000E-02 0. -1.
    5000001    1    1    2    0    0 -0.23229039318E+02  0.13459649301E+03 -0.66831330149E+03  0.70180016611E+03  0.16500000000E+03 0.  0.
   -5000001    1    1    2    0    0  0.23229039318E+02 -0.13459649301E+03 -0.39122006712E+03  0.44602011739E+03  0.16500000000E+03 0.  0.
<mgrwt>
<rscale>  0 0.44145265E+03</rscale>
<asrwt>0</asrwt>
<pdfrwt beam="1">  1        2 0.63062089E-02 0.44145265E+03</pdfrwt>
<pdfrwt beam="2">  1       -2 0.15766810E+00 0.44145265E+03</pdfrwt>
<totfact> 0.32301079E+02</totfact>
</mgrwt>
</event>
<event>
 4    1  0.5399378E-005  0.8406375E+03  0.7818608E-02  0.9502990E-01
         -2   -1    0    0    0  501 -0.00000000000E+00  0.00000000000E+00  0.92153398025E+02  0.92153398061E+02  0.25500000000E-02 0. -1.
          2   -1    0    0  501    0  0.00000000000E+00 -0.00000000000E+00 -0.19171061604E+04  0.19171061604E+04  0.25500000000E-02 0.  1.
    5000001    1    1    2    0    0  0.15486709467E+03  0.35231273839E+03 -0.99979957358E+03  0.10839429275E+04  0.16500000000E+03 0.  0.
   -5000001    1    1    2    0    0 -0.15486709467E+03 -0.35231273839E+03 -0.82515318878E+03  0.92531663100E+03  0.16500000000E+03 0.  0.
<mgrwt>
<rscale>  0 0.84063749E+03</rscale>
<asrwt>0</asrwt>
<pdfrwt beam="1">  1        2 0.27387228E+00 0.84063749E+03</pdfrwt>
<pdfrwt beam="2">  1       -2 0.13164772E-01 0.84063749E+03</pdfrwt>
<totfact> 0.39093966E+02</totfact>
</mgrwt>
</event>
<event>
 4    1  0.5399378E-005  0.6809949E+03  0.7818608E-02  0.9750297E-01
         -2   -1    0    0    0  501 -0.00000000000E+00  0.00000000000E+00  0.15470775739E+03  0.15470775741E+03  0.25500000000E-02 0. -1.
          2   -1    0    0  501    0  0.00000000000E+00 -0.00000000000E+00 -0.74940345024E+03  0.74940345024E+03  0.25500000000E-02 0.  1.
    5000001    1    1    2    0    0  0.29302269142E+03  0.37394387776E+02 -0.34795293895E+03  0.48534202955E+03  0.16500000000E+03 0.  0.
   -5000001    1    1    2    0    0 -0.29302269142E+03 -0.37394387776E+02 -0.24674275390E+03  0.41876917810E+03  0.16500000000E+03 0.  0.
<mgrwt>
<rscale>  0 0.68099494E+03</rscale>
<asrwt>0</asrwt>
<pdfrwt beam="1">  1        2 0.10705763E+00 0.68099494E+03</pdfrwt>
<pdfrwt beam="2">  1       -2 0.22101109E-01 0.68099494E+03</pdfrwt>
<totfact> 0.74152968E+02</totfact>
</mgrwt>
</event>
<event>
 4    1  0.5399378E-005  0.4984049E+03  0.7818608E-02  0.1014196E+00
         -2   -1    0    0    0  501 -0.00000000000E+00  0.00000000000E+00  0.97606638440E+02  0.97606638473E+02  0.25500000000E-02 0. -1.
          2   -1    0    0  501    0  0.00000000000E+00 -0.00000000000E+00 -0.63624616341E+03  0.63624616341E+03  0.25500000000E-02 0.  1.
    5000001    1    1    2    0    0  0.17043594756E+03 -0.67464226331E+02 -0.32193659811E+03  0.40554655375E+03  0.16500000000E+03 0.  0.
   -5000001    1    1    2    0    0 -0.17043594756E+03  0.67464226331E+02 -0.21670292685E+03  0.32830624813E+03  0.16500000000E+03 0.  0.
<mgrwt>
<rscale>  0 0.49840485E+03</rscale>
<asrwt>0</asrwt>
<pdfrwt beam="1">  1        2 0.90892307E-01 0.49840485E+03</pdfrwt>
<pdfrwt beam="2">  1       -2 0.13943806E-01 0.49840485E+03</pdfrwt>
<totfact> 0.19974883E+03</totfact>
</mgrwt>
</event>
<event>
 4    1  0.5399378E-005  0.7381773E+03  0.7818608E-02  0.9654083E-01
          2   -1    0    0  501    0  0.00000000000E+00  0.00000000000E+00  0.26187421258E+04  0.26187421258E+04  0.25500000000E-02 0. -1.
         -2   -1    0    0    0  501 -0.00000000000E+00 -0.00000000000E+00 -0.52019802234E+02  0.52019802296E+02  0.25500000000E-02 0.  1.
    5000001    1    1    2    0    0  0.22169981559E+03 -0.10694250033E+03  0.20794466063E+04  0.21004548781E+04  0.16500000000E+03 0.  0.
   -5000001    1    1    2    0    0 -0.22169981559E+03  0.10694250033E+03  0.48727571730E+03  0.57030705001E+03  0.16500000000E+03 0.  0.
<mgrwt>
<rscale>  0 0.73817734E+03</rscale>
<asrwt>0</asrwt>
<pdfrwt beam="1">  1        2 0.37410601E+00 0.73817734E+03</pdfrwt>
<pdfrwt beam="2">  1       -2 0.74314005E-02 0.73817734E+03</pdfrwt>
<totfact> 0.43754691E+02</totfact>
</mgrwt>
</event>
<event>
 4    1  0.5399378E-005  0.5011415E+03  0.7818608E-02  0.1013481E+00
          2   -1    0    0  501    0  0.00000000000E+00  0.00000000000E+00  0.16167213342E+04  0.16167213342E+04  0.25500000000E-02 0.  1.
         -2   -1    0    0    0  501 -0.00000000000E+00 -0.00000000000E+00 -0.38835198852E+02  0.38835198936E+02  0.25500000000E-02 0. -1.
    5000001    1    1    2    0    0 -0.88122581411E+02 -0.15531062297E+03  0.98917642772E+03  0.10186176830E+04  0.16500000000E+03 0.  0.
   -5000001    1    1    2    0    0  0.88122581411E+02  0.15531062297E+03  0.58870970762E+03  0.63693885013E+03  0.16500000000E+03 0.  0.
<mgrwt>
<rscale>  0 0.50114148E+03</rscale>
<asrwt>0</asrwt>
<pdfrwt beam="1">  1        2 0.23096017E+00 0.50114148E+03</pdfrwt>
<pdfrwt beam="2">  1       -2 0.55478861E-02 0.50114148E+03</pdfrwt>
<totfact> 0.22646726E+03</totfact>
</mgrwt>
</event>
<event>
 4    1  0.5399378E-005  0.4716902E+03  0.7818608E-02  0.1021444E+00
         -2   -1    0    0    0  501 -0.00000000000E+00  0.00000000000E+00  0.14907435500E+03  0.14907435502E+03  0.25500000000E-02 0. -1.
          2   -1    0    0  501    0  0.00000000000E+00 -0.00000000000E+00 -0.37312198535E+03  0.37312198536E+03  0.25500000000E-02 0.  1.
    5000001    1    1    2    0    0 -0.11639899829E+03 -0.11390088535E+03 -0.64076092468E+02  0.24052626491E+03  0.16500000000E+03 0.  0.
   -5000001    1    1    2    0    0  0.11639899829E+03  0.11390088535E+03 -0.15997153788E+03  0.28167007548E+03  0.16500000000E+03 0.  0.
<mgrwt>
<rscale>  0 0.47169023E+03</rscale>
<asrwt>0</asrwt>
<pdfrwt beam="1">  1        2 0.53303140E-01 0.47169023E+03</pdfrwt>
<pdfrwt beam="2">  1       -2 0.21296337E-01 0.47169023E+03</pdfrwt>
<totfact> 0.17755843E+03</totfact>
</mgrwt>
</event>
<event>
 4    1  0.5399378E-005  0.9066959E+03  0.7818608E-02  0.9417250E-01
          2   -1    0    0  501    0  0.00000000000E+00  0.00000000000E+00  0.12058123664E+04  0.12058123664E+04  0.25500000000E-02 0.  1.
         -2   -1    0    0    0  501 -0.00000000000E+00 -0.00000000000E+00 -0.17044471197E+03  0.17044471199E+03  0.25500000000E-02 0. -1.
    5000001    1    1    2    0    0 -0.36552434063E+03 -0.20644981393E+03  0.58673947706E+03  0.74007957897E+03  0.16500000000E+03 0.  0.
   -5000001    1    1    2    0    0  0.36552434063E+03  0.20644981393E+03  0.44862817740E+03  0.63617749946E+03  0.16500000000E+03 0.  0.
<mgrwt>
<rscale>  0 0.90669585E+03</rscale>
<asrwt>0</asrwt>
<pdfrwt beam="1">  1        2 0.17225892E+00 0.90669585E+03</pdfrwt>
<pdfrwt beam="2">  1       -2 0.24349244E-01 0.90669585E+03</pdfrwt>
<totfact> 0.31878731E+02</totfact>
</mgrwt>
</event>
<event>
 4    1  0.5399378E-005  0.5196444E+03  0.7818608E-02  0.1008775E+00
          2   -1    0    0  501    0  0.00000000000E+00  0.00000000000E+00  0.75408374623E+02  0.75408374666E+02  0.25500000000E-02 0.  1.
         -2   -1    0    0    0  501 -0.00000000000E+00 -0.00000000000E+00 -0.89522645111E+03  0.89522645111E+03  0.25500000000E-02 0. -1.
    5000001    1    1    2    0    0  0.13266145455E+03 -0.13059570945E+03 -0.26977710217E+03  0.36695910631E+03  0.16500000000E+03 0.  0.
   -5000001    1    1    2    0    0 -0.13266145455E+03  0.13059570945E+03 -0.55004097432E+03  0.60367571947E+03  0.16500000000E+03 0.  0.
<mgrwt>
<rscale>  0 0.51964438E+03</rscale>
<asrwt>0</asrwt>
<pdfrwt beam="1">  1        2 0.10772625E-01 0.51964438E+03</pdfrwt>
<pdfrwt beam="2">  1       -2 0.12788949E+00 0.51964438E+03</pdfrwt>
<totfact> 0.27754195E+02</totfact>
</mgrwt>
</event>
<event>
 4    1  0.5399378E-005  0.4687140E+03  0.7818608E-02  0.1022284E+00
          2   -1    0    0  501    0  0.00000000000E+00  0.00000000000E+00  0.17448909075E+03  0.17448909077E+03  0.25500000000E-02 0.  1.
         -2   -1    0    0    0  501 -0.00000000000E+00 -0.00000000000E+00 -0.31476581076E+03  0.31476581077E+03  0.25500000000E-02 0. -1.
    5000001    1    1    2    0    0 -0.85721228443E+02 -0.73217908157E+01  0.78570706735E+02  0.20199033042E+03  0.16500000000E+03 0.  0.
   -5000001    1    1    2    0    0  0.85721228443E+02  0.73217908157E+01 -0.21884742674E+03  0.28726457111E+03  0.16500000000E+03 0.  0.
<mgrwt>
<rscale>  0 0.46871399E+03</rscale>
<asrwt>0</asrwt>
<pdfrwt beam="1">  1        2 0.24927013E-01 0.46871399E+03</pdfrwt>
<pdfrwt beam="2">  1       -2 0.44966544E-01 0.46871399E+03</pdfrwt>
<totfact> 0.10322733E+03</totfact>
</mgrwt>
</event>
<event>
 4    1  0.5399378E-005  0.3881504E+03  0.7818608E-02  0.1047962E+00
          2   -1    0    0  501    0  0.00000000000E+00  0.00000000000E+00  0.50453809140E+03  0.50453809140E+03  0.25500000000E-02 0.  1.
         -2   -1    0    0    0  501 -0.00000000000E+00 -0.00000000000E+00 -0.74652798975E+02  0.74652799019E+02  0.25500000000E-02 0. -1.
    5000001    1    1    2    0    0  0.49659300319E+02  0.78319002551E+02  0.27895477795E+03  0.33710633398E+03  0.16500000000E+03 0.  0.
   -5000001    1    1    2    0    0 -0.49659300319E+02 -0.78319002551E+02  0.15093051447E+03  0.24208455644E+03  0.16500000000E+03 0.  0.
<mgrwt>
<rscale>  0 0.38815039E+03</rscale>
<asrwt>0</asrwt>
<pdfrwt beam="1">  1        2 0.72076867E-01 0.38815039E+03</pdfrwt>
<pdfrwt beam="2">  1       -2 0.10664686E-01 0.38815039E+03</pdfrwt>
<totfact> 0.40347067E+03</totfact>
</mgrwt>
</event>
<event>
 4    1  0.5399378E-005  0.4310983E+03  0.7818608E-02  0.1033514E+00
         -2   -1    0    0    0  501 -0.00000000000E+00  0.00000000000E+00  0.32995013949E+03  0.32995013950E+03  0.25500000000E-02 0. -1.
          2   -1    0    0  501    0  0.00000000000E+00 -0.00000000000E+00 -0.14081352906E+03  0.14081352908E+03  0.25500000000E-02 0.  1.
    5000001    1    1    2    0    0  0.57093696919E+02  0.10120914100E+03  0.17725489953E+03  0.26860245691E+03  0.16500000000E+03 0.  0.
   -5000001    1    1    2    0    0 -0.57093696919E+02 -0.10120914100E+03  0.11881710893E+02  0.20216121167E+03  0.16500000000E+03 0.  0.
<mgrwt>
<rscale>  0 0.43109833E+03</rscale>
<asrwt>0</asrwt>
<pdfrwt beam="1">  1        2 0.20116218E-01 0.43109833E+03</pdfrwt>
<pdfrwt beam="2">  1       -2 0.47135734E-01 0.43109833E+03</pdfrwt>
<totfact> 0.12020312E+03</totfact>
</mgrwt>
</event>
<event>
 4    1  0.5399378E-005  0.4871757E+03  0.7818608E-02  0.1017182E+00
          2   -1    0    0  501    0  0.00000000000E+00  0.00000000000E+00  0.24490175126E+03  0.24490175128E+03  0.25500000000E-02 0.  1.
         -2   -1    0    0    0  501 -0.00000000000E+00 -0.00000000000E+00 -0.24228104592E+03  0.24228104593E+03  0.25500000000E-02 0. -1.
    5000001    1    1    2    0    0 -0.15895487789E+03  0.50176510349E+02 -0.64460782559E+02  0.24323759554E+03  0.16500000000E+03 0.  0.
   -5000001    1    1    2    0    0  0.15895487789E+03 -0.50176510349E+02  0.67081487904E+02  0.24394520167E+03  0.16500000000E+03 0.  0.
<mgrwt>
<rscale>  0 0.48717575E+03</rscale>
<asrwt>0</asrwt>
<pdfrwt beam="1">  1        2 0.34985965E-01 0.48717575E+03</pdfrwt>
<pdfrwt beam="2">  1       -2 0.34611578E-01 0.48717575E+03</pdfrwt>
<totfact> 0.11701506E+03</totfact>
</mgrwt>
</event>
<event>
 4    1  0.5399378E-005  0.7419964E+03  0.7818608E-02  0.9647991E-01
         -2   -1    0    0    0  501 -0.00000000000E+00  0.00000000000E+00  0.26536356448E+03  0.26536356449E+03  0.25500000000E-02 0. -1.
          2   -1    0    0  501    0  0.00000000000E+00 -0.00000000000E+00 -0.51868334285E+03  0.51868334285E+03  0.25500000000E-02 0.  1.
    5000001    1    1    2    0    0  0.70385568902E+02  0.31491087367E+03 -0.21047520020E+03  0.41910356305E+03  0.16500000000E+03 0.  0.
   -5000001    1    1    2    0    0 -0.70385568902E+02 -0.31491087367E+03 -0.42844578170E+02  0.36494334429E+03  0.16500000000E+03 0.  0.
<mgrwt>
<rscale>  0 0.74199639E+03</rscale>
<asrwt>0</asrwt>
<pdfrwt beam="1">  1        2 0.74097621E-01 0.74199639E+03</pdfrwt>
<pdfrwt beam="2">  1       -2 0.37909081E-01 0.74199639E+03</pdfrwt>
<totfact> 0.42507765E+02</totfact>
</mgrwt>
</event>
<event>
 4    1  0.5399378E-005  0.4498204E+03  0.7818608E-02  0.1027776E+00
         -2   -1    0    0    0  501 -0.00000000000E+00  0.00000000000E+00  0.29254809550E+02  0.29254809661E+02  0.25500000000E-02 0. -1.
          2   -1    0    0  501    0  0.00000000000E+00 -0.00000000000E+00 -0.17291036704E+04  0.17291036704E+04  0.25500000000E-02 0.  1.
    5000001    1    1    2    0    0 -0.88233072294E+02  0.67558028766E+02 -0.43974815614E+03  0.48265163744E+03  0.16500000000E+03 0.  0.
   -5000001    1    1    2    0    0  0.88233072294E+02 -0.67558028766E+02 -0.12601007047E+04  0.12757068426E+04  0.16500000000E+03 0.  0.
<mgrwt>
<rscale>  0 0.44982040E+03</rscale>
<asrwt>0</asrwt>
<pdfrwt beam="1">  1        2 0.24701475E+00 0.44982040E+03</pdfrwt>
<pdfrwt beam="2">  1       -2 0.41792596E-02 0.44982040E+03</pdfrwt>
<totfact> 0.30773607E+03</totfact>
</mgrwt>
</event>
<event>
 4    1  0.5399378E-005  0.7525953E+03  0.7818608E-02  0.9631288E-01
         -2   -1    0    0    0  501 -0.00000000000E+00  0.00000000000E+00  0.19019826353E+03  0.19019826355E+03  0.25500000000E-02 0. -1.
          2   -1    0    0  501    0  0.00000000000E+00 -0.00000000000E+00 -0.74448581809E+03  0.74448581809E+03  0.25500000000E-02 0.  1.
    5000001    1    1    2    0    0 -0.31014776729E+03  0.10131080757E+03 -0.38766592040E+03  0.53288402408E+03  0.16500000000E+03 0.  0.
   -5000001    1    1    2    0    0  0.31014776729E+03 -0.10131080757E+03 -0.16662163416E+03  0.40180005756E+03  0.16500000000E+03 0.  0.
<mgrwt>
<rscale>  0 0.75259527E+03</rscale>
<asrwt>0</asrwt>
<pdfrwt beam="1">  1        2 0.10635511E+00 0.75259527E+03</pdfrwt>
<pdfrwt beam="2">  1       -2 0.27171181E-01 0.75259527E+03</pdfrwt>
<totfact> 0.51485673E+02</totfact>
</mgrwt>
</event>
<event>
 4    1  0.5399378E-005  0.6035474E+03  0.7818608E-02  0.9898073E-01
          2   -1    0    0  501    0  0.00000000000E+00  0.00000000000E+00  0.15449225933E+04  0.15449225933E+04  0.25500000000E-02 0.  1.
         -2   -1    0    0    0  501 -0.00000000000E+00 -0.00000000000E+00 -0.58946239615E+02  0.58946239670E+02  0.25500000000E-02 0. -1.
    5000001    1    1    2    0    0 -0.57337522278E+01 -0.23176729992E+03  0.47600947673E+03  0.55458000249E+03  0.16500000000E+03 0.  0.
   -5000001    1    1    2    0    0  0.57337522278E+01  0.23176729992E+03  0.10099668769E+04  0.10492888304E+04  0.16500000000E+03 0.  0.
<mgrwt>
<rscale>  0 0.60354744E+03</rscale>
<asrwt>0</asrwt>
<pdfrwt beam="1">  1        2 0.22070325E+00 0.60354744E+03</pdfrwt>
<pdfrwt beam="2">  1       -2 0.84208907E-02 0.60354744E+03</pdfrwt>
<totfact> 0.12733373E+03</totfact>
</mgrwt>
</event>
<event>
 4    1  0.5399378E-005  0.6766792E+03  0.7818608E-02  0.9757967E-01
          2   -1    0    0  501    0  0.00000000000E+00  0.00000000000E+00  0.17055610201E+03  0.17055610203E+03  0.25500000000E-02 0.  1.
         -2   -1    0    0    0  501 -0.00000000000E+00 -0.00000000000E+00 -0.67117907020E+03  0.67117907020E+03  0.25500000000E-02 0. -1.
    5000001    1    1    2    0    0  0.60720032320E+02  0.26956140221E+03 -0.38017115503E+03  0.49810177575E+03  0.16500000000E+03 0.  0.
   -5000001    1    1    2    0    0 -0.60720032320E+02 -0.26956140221E+03 -0.12045181316E+03  0.34363339649E+03  0.16500000000E+03 0.  0.
<mgrwt>
<rscale>  0 0.67667920E+03</rscale>
<asrwt>0</asrwt>
<pdfrwt beam="1">  1        2 0.24365158E-01 0.67667920E+03</pdfrwt>
<pdfrwt beam="2">  1       -2 0.95882723E-01 0.67667920E+03</pdfrwt>
<totfact> 0.20803230E+02</totfact>
</mgrwt>
</event>
<event>
 4    1  0.5399378E-005  0.5513369E+03  0.7818608E-02  0.1001185E+00
         -2   -1    0    0    0  501 -0.00000000000E+00  0.00000000000E+00  0.85712039473E+02  0.85712039511E+02  0.25500000000E-02 0. -1.
          2   -1    0    0  501    0  0.00000000000E+00 -0.00000000000E+00 -0.88660928626E+03  0.88660928627E+03  0.25500000000E-02 0.  1.
    5000001    1    1    2    0    0  0.14170735341E+02 -0.20207084400E+03 -0.55554913148E+03  0.61391634057E+03  0.16500000000E+03 0.  0.
   -5000001    1    1    2    0    0 -0.14170735341E+02  0.20207084400E+03 -0.24534811531E+03  0.35840498520E+03  0.16500000000E+03 0.  0.
<mgrwt>
<rscale>  0 0.55133688E+03</rscale>
<asrwt>0</asrwt>
<pdfrwt beam="1">  1        2 0.12665846E+00 0.55133688E+03</pdfrwt>
<pdfrwt beam="2">  1       -2 0.12244578E-01 0.55133688E+03</pdfrwt>
<totfact> 0.16367684E+03</totfact>
</mgrwt>
</event>
<event>
 4    1  0.5399378E-005  0.7282163E+03  0.7818608E-02  0.9670159E-01
          2   -1    0    0  501    0  0.00000000000E+00  0.00000000000E+00  0.19845977466E+04  0.19845977466E+04  0.25500000000E-02 0.  1.
         -2   -1    0    0    0  501 -0.00000000000E+00 -0.00000000000E+00 -0.66801822814E+02  0.66801822863E+02  0.25500000000E-02 0. -1.
    5000001    1    1    2    0    0  0.31124467900E+03  0.81273664280E+02  0.83704474198E+03  0.91178262694E+03  0.16500000000E+03 0.  0.
   -5000001    1    1    2    0    0 -0.31124467900E+03 -0.81273664280E+02  0.10807511818E+04  0.11396169425E+04  0.16500000000E+03 0.  0.
<mgrwt>
<rscale>  0 0.72821631E+03</rscale>
<asrwt>0</asrwt>
<pdfrwt beam="1">  1        2 0.28351395E+00 0.72821631E+03</pdfrwt>
<pdfrwt beam="2">  1       -2 0.95431181E-02 0.72821631E+03</pdfrwt>
<totfact> 0.61775370E+02</totfact>
</mgrwt>
</event>
<event>
 4    1  0.5399378E-005  0.3779323E+03  0.7818608E-02  0.1051701E+00
          2   -1    0    0  501    0  0.00000000000E+00  0.00000000000E+00  0.48241034159E+03  0.48241034159E+03  0.25500000000E-02 0.  1.
         -2   -1    0    0    0  501 -0.00000000000E+00 -0.00000000000E+00 -0.74020397846E+02  0.74020397890E+02  0.25500000000E-02 0. -1.
    5000001    1    1    2    0    0 -0.37604934687E+02 -0.84072437246E+02  0.20279852841E+03  0.27719045608E+03  0.16500000000E+03 0.  0.
   -5000001    1    1    2    0    0  0.37604934687E+02  0.84072437246E+02  0.20559141533E+03  0.27924028341E+03  0.16500000000E+03 0.  0.
<mgrwt>
<rscale>  0 0.37793230E+03</rscale>
<asrwt>0</asrwt>
<pdfrwt beam="1">  1        2 0.68915760E-01 0.37793230E+03</pdfrwt>
<pdfrwt beam="2">  1       -2 0.10574343E-01 0.37793230E+03</pdfrwt>
<totfact> 0.42983594E+03</totfact>
</mgrwt>
</event>
<event>
 4    1  0.5399378E-005  0.6296479E+03  0.7818608E-02  0.9845736E-01
         -2   -1    0    0    0  501 -0.00000000000E+00  0.00000000000E+00  0.11631544651E+03  0.11631544653E+03  0.25500000000E-02 0. -1.
          2   -1    0    0  501    0  0.00000000000E+00 -0.00000000000E+00 -0.85211492834E+03  0.85211492835E+03  0.25500000000E-02 0.  1.
    5000001    1    1    2    0    0 -0.80748112705E+02 -0.18935809424E+03 -0.10367543740E+03  0.28346135871E+03  0.16500000000E+03 0.  0.
   -5000001    1    1    2    0    0  0.80748112705E+02  0.18935809424E+03 -0.63212404444E+03  0.68496901617E+03  0.16500000000E+03 0.  0.
<mgrwt>
<rscale>  0 0.62964793E+03</rscale>
<asrwt>0</asrwt>
<pdfrwt beam="1">  1        2 0.12173070E+00 0.62964793E+03</pdfrwt>
<pdfrwt beam="2">  1       -2 0.16616493E-01 0.62964793E+03</pdfrwt>
<totfact> 0.10331169E+03</totfact>
</mgrwt>
</event>
<event>
 4    1  0.5399378E-005  0.4170126E+03  0.7818608E-02  0.1038043E+00
          2   -1    0    0  501    0  0.00000000000E+00  0.00000000000E+00  0.26410416963E+03  0.26410416965E+03  0.25500000000E-02 0.  1.
         -2   -1    0    0    0  501 -0.00000000000E+00 -0.00000000000E+00 -0.16461263185E+03  0.16461263187E+03  0.25500000000E-02 0. -1.
    5000001    1    1    2    0    0  0.28667779021E+02 -0.11766218458E+03  0.90657802714E+02  0.22385278293E+03  0.16500000000E+03 0.  0.
   -5000001    1    1    2    0    0 -0.28667779021E+02  0.11766218458E+03  0.88337350698E+01  0.20486401858E+03  0.16500000000E+03 0.  0.
<mgrwt>
<rscale>  0 0.41701263E+03</rscale>
<asrwt>0</asrwt>
<pdfrwt beam="1">  1        2 0.37729167E-01 0.41701263E+03</pdfrwt>
<pdfrwt beam="2">  1       -2 0.23516090E-01 0.41701263E+03</pdfrwt>
<totfact> 0.21752180E+03</totfact>
</mgrwt>
</event>
<event>
 4    1  0.5399378E-005  0.3624093E+03  0.7818608E-02  0.1057634E+00
         -2   -1    0    0    0  501 -0.00000000000E+00  0.00000000000E+00  0.26160824518E+02  0.26160824642E+02  0.25500000000E-02 0. -1.
          2   -1    0    0  501    0  0.00000000000E+00 -0.00000000000E+00 -0.12551259986E+04  0.12551259986E+04  0.25500000000E-02 0.  1.
    5000001    1    1    2    0    0 -0.19234827415E+02  0.72221493611E+02 -0.59708737955E+03  0.62395854153E+03  0.16500000000E+03 0.  0.
   -5000001    1    1    2    0    0  0.19234827415E+02 -0.72221493611E+02 -0.63187779455E+03  0.65732828173E+03  0.16500000000E+03 0.  0.
<mgrwt>
<rscale>  0 0.36240933E+03</rscale>
<asrwt>0</asrwt>
<pdfrwt beam="1">  1        2 0.17930368E+00 0.36240933E+03</pdfrwt>
<pdfrwt beam="2">  1       -2 0.37372614E-02 0.36240933E+03</pdfrwt>
<totfact> 0.64030656E+03</totfact>
</mgrwt>
</event>
<event>
 4    1  0.5399378E-005  0.4748926E+03  0.7818608E-02  0.1020548E+00
         -2   -1    0    0    0  501 -0.00000000000E+00  0.00000000000E+00  0.47025173853E+02  0.47025173922E+02  0.25500000000E-02 0. -1.
          2   -1    0    0  501    0  0.00000000000E+00 -0.00000000000E+00 -0.11989483521E+04  0.11989483521E+04  0.25500000000E-02 0.  1.
    5000001    1    1    2    0    0  0.13196150245E+03 -0.97737843132E+02 -0.45320095172E+03  0.50949251884E+03  0.16500000000E+03 0.  0.
   -5000001    1    1    2    0    0 -0.13196150245E+03  0.97737843132E+02 -0.69872222650E+03  0.73648100716E+03  0.16500000000E+03 0.  0.
<mgrwt>
<rscale>  0 0.47489264E+03</rscale>
<asrwt>0</asrwt>
<pdfrwt beam="1">  1        2 0.17127832E+00 0.47489264E+03</pdfrwt>
<pdfrwt beam="2">  1       -2 0.67178827E-02 0.47489264E+03</pdfrwt>
<totfact> 0.27937935E+03</totfact>
</mgrwt>
</event>
<event>
 4    1  0.5399378E-005  0.6612412E+03  0.7818608E-02  0.9785912E-01
         -2   -1    0    0    0  501 -0.00000000000E+00  0.00000000000E+00  0.38615889568E+02  0.38615889653E+02  0.25500000000E-02 0. -1.
          2   -1    0    0  501    0  0.00000000000E+00 -0.00000000000E+00 -0.28306995955E+04  0.28306995955E+04  0.25500000000E-02 0.  1.
    5000001    1    1    2    0    0 -0.21282194901E+03  0.41500507397E+02 -0.22086538611E+04  0.22253971224E+04  0.16500000000E+03 0.  0.
   -5000001    1    1    2    0    0  0.21282194901E+03 -0.41500507397E+02 -0.58342984485E+03  0.64391836281E+03  0.16500000000E+03 0.  0.
<mgrwt>
<rscale>  0 0.66124121E+03</rscale>
<asrwt>0</asrwt>
<pdfrwt beam="1">  1        2 0.40438553E+00 0.66124121E+03</pdfrwt>
<pdfrwt beam="2">  1       -2 0.55165574E-02 0.66124121E+03</pdfrwt>
<totfact> 0.54474415E+02</totfact>
</mgrwt>
</event>
<event>
 4    1  0.5399378E-005  0.9986017E+03  0.7818608E-02  0.9310080E-01
         -2   -1    0    0    0  501 -0.00000000000E+00  0.00000000000E+00  0.15830598155E+03  0.15830598157E+03  0.25500000000E-02 0. -1.
          2   -1    0    0  501    0  0.00000000000E+00 -0.00000000000E+00 -0.15748067992E+04  0.15748067992E+04  0.25500000000E-02 0.  1.
    5000001    1    1    2    0    0 -0.32736138388E+03  0.32972258601E+03 -0.84483943400E+03  0.97819278704E+03  0.16500000000E+03 0.  0.
   -5000001    1    1    2    0    0  0.32736138388E+03 -0.32972258601E+03 -0.57166138367E+03  0.75491999375E+03  0.16500000000E+03 0.  0.
<mgrwt>
<rscale>  0 0.99860169E+03</rscale>
<asrwt>0</asrwt>
<pdfrwt beam="1">  1        2 0.22497239E+00 0.99860169E+03</pdfrwt>
<pdfrwt beam="2">  1       -2 0.22615141E-01 0.99860169E+03</pdfrwt>
<totfact> 0.22849198E+02</totfact>
</mgrwt>
</event>
<event>
 4    1  0.5399378E-005  0.5636940E+03  0.7818608E-02  0.9983731E-01
          2   -1    0    0  501    0  0.00000000000E+00  0.00000000000E+00  0.27415390810E+03  0.27415390812E+03  0.25500000000E-02 0.  1.
         -2   -1    0    0    0  501 -0.00000000000E+00 -0.00000000000E+00 -0.28975594761E+03  0.28975594763E+03  0.25500000000E-02 0. -1.
    5000001    1    1    2    0    0 -0.13343200103E+03 -0.11803203740E+03 -0.15095391642E+03  0.28591562678E+03  0.16500000000E+03 0.  0.
   -5000001    1    1    2    0    0  0.13343200103E+03  0.11803203740E+03  0.13535187691E+03  0.27799422896E+03  0.16500000000E+03 0.  0.
<mgrwt>
<rscale>  0 0.56369398E+03</rscale>
<asrwt>0</asrwt>
<pdfrwt beam="1">  1        2 0.39164844E-01 0.56369398E+03</pdfrwt>
<pdfrwt beam="2">  1       -2 0.41393707E-01 0.56369398E+03</pdfrwt>
<totfact> 0.73284253E+02</totfact>
</mgrwt>
</event>
<event>
 4    1  0.5399378E-005  0.3948617E+03  0.7818608E-02  0.1045574E+00
          2   -1    0    0  501    0  0.00000000000E+00  0.00000000000E+00  0.13391187087E+04  0.13391187087E+04  0.25500000000E-02 0.  1.
         -2   -1    0    0    0  501 -0.00000000000E+00 -0.00000000000E+00 -0.29107909825E+02  0.29107909937E+02  0.25500000000E-02 0. -1.
    5000001    1    1    2    0    0  0.98567071491E+02 -0.45037148259E+02  0.64397447702E+03  0.67355173473E+03  0.16500000000E+03 0.  0.
   -5000001    1    1    2    0    0 -0.98567071491E+02  0.45037148259E+02  0.66603632189E+03  0.69467488394E+03  0.16500000000E+03 0.  0.
<mgrwt>
<rscale>  0 0.39486173E+03</rscale>
<asrwt>0</asrwt>
<pdfrwt beam="1">  1        2 0.19130268E+00 0.39486173E+03</pdfrwt>
<pdfrwt beam="2">  1       -2 0.41582727E-02 0.39486173E+03</pdfrwt>
<totfact> 0.49155959E+03</totfact>
</mgrwt>
</event>
<event>
 4    1  0.5399378E-005  0.4713492E+03  0.7818608E-02  0.1021540E+00
          2   -1    0    0  501    0  0.00000000000E+00  0.00000000000E+00  0.18511066194E+04  0.18511066194E+04  0.25500000000E-02 0.  1.
         -2   -1    0    0    0  501 -0.00000000000E+00 -0.00000000000E+00 -0.30005036930E+02  0.30005037038E+02  0.25500000000E-02 0. -1.
    5000001    1    1    2    0    0  0.53509086923E+02  0.13514432840E+03  0.12489626764E+04  0.12681719043E+04  0.16500000000E+03 0.  0.
   -5000001    1    1    2    0    0 -0.53509086923E+02 -0.13514432840E+03  0.57213890610E+03  0.61293975214E+03  0.16500000000E+03 0.  0.
<mgrwt>
<rscale>  0 0.47134922E+03</rscale>
<asrwt>0</asrwt>
<pdfrwt beam="1">  1        2 0.26444396E+00 0.47134922E+03</pdfrwt>
<pdfrwt beam="2">  1       -2 0.42864312E-02 0.47134922E+03</pdfrwt>
<totfact> 0.25707722E+03</totfact>
</mgrwt>
</event>
<event>
 4    1  0.5399378E-005  0.6088033E+03  0.7818608E-02  0.9887308E-01
         -2   -1    0    0    0  501 -0.00000000000E+00  0.00000000000E+00  0.17944989113E+03  0.17944989115E+03  0.25500000000E-02 0. -1.
          2   -1    0    0  501    0  0.00000000000E+00 -0.00000000000E+00 -0.51635795766E+03  0.51635795767E+03  0.25500000000E-02 0.  1.
    5000001    1    1    2    0    0 -0.12037266172E+03  0.21831212654E+03 -0.10294204803E+03  0.31618321831E+03  0.16500000000E+03 0.  0.
   -5000001    1    1    2    0    0  0.12037266172E+03 -0.21831212654E+03 -0.23396601850E+03  0.37962463052E+03  0.16500000000E+03 0.  0.
<mgrwt>
<rscale>  0 0.60880335E+03</rscale>
<asrwt>0</asrwt>
<pdfrwt beam="1">  1        2 0.73765422E-01 0.60880335E+03</pdfrwt>
<pdfrwt beam="2">  1       -2 0.25635699E-01 0.60880335E+03</pdfrwt>
<totfact> 0.88845698E+02</totfact>
</mgrwt>
</event>
<event>
 4    1  0.5399378E-005  0.3390780E+03  0.7818608E-02  0.1067189E+00
         -2   -1    0    0    0  501 -0.00000000000E+00  0.00000000000E+00  0.38569501559E+03  0.38569501559E+03  0.25500000000E-02 0. -1.
          2   -1    0    0  501    0  0.00000000000E+00 -0.00000000000E+00 -0.74523843923E+02  0.74523843966E+02  0.25500000000E-02 0.  1.
    5000001    1    1    2    0    0 -0.24968540911E+02 -0.20265509276E+02  0.12571475964E+03  0.20991264777E+03  0.16500000000E+03 0.  0.
   -5000001    1    1    2    0    0  0.24968540911E+02  0.20265509276E+02  0.18545641203E+03  0.25030621179E+03  0.16500000000E+03 0.  0.
<mgrwt>
<rscale>  0 0.33907802E+03</rscale>
<asrwt>0</asrwt>
<pdfrwt beam="1">  1        2 0.10646263E-01 0.33907802E+03</pdfrwt>
<pdfrwt beam="2">  1       -2 0.55099288E-01 0.33907802E+03</pdfrwt>
<totfact> 0.18779560E+03</totfact>
</mgrwt>
</event>
<event>
 4    1  0.5399378E-005  0.3867017E+03  0.7818608E-02  0.1048484E+00
          2   -1    0    0  501    0  0.00000000000E+00  0.00000000000E+00  0.15229917936E+04  0.15229917936E+04  0.25500000000E-02 0.  1.
         -2   -1    0    0    0  501 -0.00000000000E+00 -0.00000000000E+00 -0.24546782948E+02  0.24546783081E+02  0.25500000000E-02 0. -1.
    5000001    1    1    2    0    0  0.84141285715E+02 -0.17066260399E+02  0.53789621288E+03  0.56914703639E+03  0.16500000000E+03 0.  0.
   -5000001    1    1    2    0    0 -0.84141285715E+02  0.17066260399E+02  0.96054879775E+03  0.97839154027E+03  0.16500000000E+03 0.  0.
<mgrwt>
<rscale>  0 0.38670169E+03</rscale>
<asrwt>0</asrwt>
<pdfrwt beam="1">  1        2 0.21757021E+00 0.38670169E+03</pdfrwt>
<pdfrwt beam="2">  1       -2 0.35066840E-02 0.38670169E+03</pdfrwt>
<totfact> 0.51084657E+03</totfact>
</mgrwt>
</event>
<event>
 4    1  0.5399378E-005  0.9779512E+03  0.7818608E-02  0.9333064E-01
          2   -1    0    0  501    0  0.00000000000E+00  0.00000000000E+00  0.24908290159E+03  0.24908290160E+03  0.25500000000E-02 0.  1.
         -2   -1    0    0    0  501 -0.00000000000E+00 -0.00000000000E+00 -0.95990986959E+03  0.95990986959E+03  0.25500000000E-02 0. -1.
    5000001    1    1    2    0    0 -0.42086347766E+03 -0.18626412924E+03 -0.36430615019E+03  0.60972482625E+03  0.16500000000E+03 0.  0.
   -5000001    1    1    2    0    0  0.42086347766E+03  0.18626412924E+03 -0.34652081780E+03  0.59926794495E+03  0.16500000000E+03 0.  0.
<mgrwt>
<rscale>  0 0.97795120E+03</rscale>
<asrwt>0</asrwt>
<pdfrwt beam="1">  1        2 0.35583272E-01 0.97795120E+03</pdfrwt>
<pdfrwt beam="2">  1       -2 0.13712998E+00 0.97795120E+03</pdfrwt>
<totfact> 0.55610095E+01</totfact>
</mgrwt>
</event>
<event>
 4    1  0.5399378E-005  0.6472612E+03  0.7818608E-02  0.9811932E-01
          2   -1    0    0  501    0  0.00000000000E+00  0.00000000000E+00  0.18814122847E+04  0.18814122847E+04  0.25500000000E-02 0.  1.
         -2   -1    0    0    0  501 -0.00000000000E+00 -0.00000000000E+00 -0.55669219428E+02  0.55669219486E+02  0.25500000000E-02 0. -1.
    5000001    1    1    2    0    0 -0.24891594050E+03  0.24617879399E+02  0.12787518823E+04  0.13133912448E+04  0.16500000000E+03 0.  0.
   -5000001    1    1    2    0    0  0.24891594050E+03 -0.24617879399E+02  0.54699118305E+03  0.62369025947E+03  0.16500000000E+03 0.  0.
<mgrwt>
<rscale>  0 0.64726116E+03</rscale>
<asrwt>0</asrwt>
<pdfrwt beam="1">  1        2 0.26877315E+00 0.64726116E+03</pdfrwt>
<pdfrwt beam="2">  1       -2 0.79527467E-02 0.64726116E+03</pdfrwt>
<totfact> 0.93817255E+02</totfact>
</mgrwt>
</event>
<event>
 4    1  0.5399378E-005  0.5014511E+03  0.7818608E-02  0.1013401E+00
          2   -1    0    0  501    0  0.00000000000E+00  0.00000000000E+00  0.29234143206E+04  0.29234143206E+04  0.25500000000E-02 0.  1.
         -2   -1    0    0    0  501 -0.00000000000E+00 -0.00000000000E+00 -0.21503387799E+02  0.21503387950E+02  0.25500000000E-02 0. -1.
    5000001    1    1    2    0    0 -0.14478593180E+03  0.12028957956E+03  0.15351973842E+04  0.15554705260E+04  0.16500000000E+03 0.  0.
   -5000001    1    1    2    0    0  0.14478593180E+03 -0.12028957956E+03  0.13667135486E+04  0.13894471825E+04  0.16500000000E+03 0.  0.
<mgrwt>
<rscale>  0 0.50145114E+03</rscale>
<asrwt>0</asrwt>
<pdfrwt beam="1">  1        2 0.41763050E+00 0.50145114E+03</pdfrwt>
<pdfrwt beam="2">  1       -2 0.30719134E-02 0.50145114E+03</pdfrwt>
<totfact> 0.12125684E+03</totfact>
</mgrwt>
</event>
<event>
 4    1  0.5399378E-005  0.5156748E+03  0.7818608E-02  0.1009767E+00
          2   -1    0    0  501    0  0.00000000000E+00  0.00000000000E+00  0.11467302694E+04  0.11467302694E+04  0.25500000000E-02 0.  1.
         -2   -1    0    0    0  501 -0.00000000000E+00 -0.00000000000E+00 -0.57973639687E+02  0.57973639743E+02  0.25500000000E-02 0. -1.
    5000001    1    1    2    0    0 -0.11491880911E+03 -0.93182935669E+02  0.85223670264E+03  0.88058037084E+03  0.16500000000E+03 0.  0.
   -5000001    1    1    2    0    0  0.11491880911E+03  0.93182935669E+02  0.23651992711E+03  0.32412353834E+03  0.16500000000E+03 0.  0.
<mgrwt>
<rscale>  0 0.51567481E+03</rscale>
<asrwt>0</asrwt>
<pdfrwt beam="1">  1        2 0.16381860E+00 0.51567481E+03</pdfrwt>
<pdfrwt beam="2">  1       -2 0.82819490E-02 0.51567481E+03</pdfrwt>
<totfact> 0.21469282E+03</totfact>
</mgrwt>
</event>
<event>
 4    1  0.5399378E-005  0.4042409E+03  0.7818608E-02  0.1042321E+00
          2   -1    0    0  501    0  0.00000000000E+00  0.00000000000E+00  0.45014029387E+03  0.45014029387E+03  0.25500000000E-02 0.  1.
         -2   -1    0    0    0  501 -0.00000000000E+00 -0.00000000000E+00 -0.90755447383E+02  0.90755447419E+02  0.25500000000E-02 0. -1.
    5000001    1    1    2    0    0  0.93062105405E+02  0.57435078396E+02  0.23434561893E+03  0.30676083975E+03  0.16500000000E+03 0.  0.
   -5000001    1    1    2    0    0 -0.93062105405E+02 -0.57435078396E+02  0.12503922755E+03  0.23413490154E+03  0.16500000000E+03 0.  0.
<mgrwt>
<rscale>  0 0.40424094E+03</rscale>
<asrwt>0</asrwt>
<pdfrwt beam="1">  1        2 0.64305755E-01 0.40424094E+03</pdfrwt>
<pdfrwt beam="2">  1       -2 0.12965064E-01 0.40424094E+03</pdfrwt>
<totfact> 0.33369148E+03</totfact>
</mgrwt>
</event>
<event>
 4    1  0.5399378E-005  0.5391823E+03  0.7818608E-02  0.1004029E+00
          2   -1    0    0  501    0  0.00000000000E+00  0.00000000000E+00  0.70970631022E+03  0.70970631022E+03  0.25500000000E-02 0.  1.
         -2   -1    0    0    0  501 -0.00000000000E+00 -0.00000000000E+00 -0.10240768475E+03  0.10240768478E+03  0.25500000000E-02 0. -1.
    5000001    1    1    2    0    0  0.36577116984E+02 -0.20325968548E+03  0.22392054356E+03  0.34643584551E+03  0.16500000000E+03 0.  0.
   -5000001    1    1    2    0    0 -0.36577116984E+02  0.20325968548E+03  0.38337808190E+03  0.46567814949E+03  0.16500000000E+03 0.  0.
<mgrwt>
<rscale>  0 0.53918227E+03</rscale>
<asrwt>0</asrwt>
<pdfrwt beam="1">  1        2 0.10138662E+00 0.53918227E+03</pdfrwt>
<pdfrwt beam="2">  1       -2 0.14629669E-01 0.53918227E+03</pdfrwt>
<totfact> 0.16164156E+03</totfact>
</mgrwt>
</event>
<event>
 4    1  0.5399378E-005  0.5727355E+03  0.7818608E-02  0.9963644E-01
          2   -1    0    0  501    0  0.00000000000E+00  0.00000000000E+00  0.74042113814E+02  0.74042113858E+02  0.25500000000E-02 0.  1.
         -2   -1    0    0    0  501 -0.00000000000E+00 -0.00000000000E+00 -0.11075654897E+04  0.11075654897E+04  0.25500000000E-02 0. -1.
    5000001    1    1    2    0    0  0.20209207466E+03  0.67556783924E+02 -0.71653451127E+03  0.76554022202E+03  0.16500000000E+03 0.  0.
   -5000001    1    1    2    0    0 -0.20209207466E+03 -0.67556783924E+02 -0.31698886465E+03  0.41606738157E+03  0.16500000000E+03 0.  0.
<mgrwt>
<rscale>  0 0.57273551E+03</rscale>
<asrwt>0</asrwt>
<pdfrwt beam="1">  1        2 0.10577446E-01 0.57273551E+03</pdfrwt>
<pdfrwt beam="2">  1       -2 0.15822363E+00 0.57273551E+03</pdfrwt>
<totfact> 0.16360027E+02</totfact>
</mgrwt>
</event>
<event>
 4    1  0.5399378E-005  0.9595666E+03  0.7818608E-02  0.9354038E-01
          2   -1    0    0  501    0  0.00000000000E+00  0.00000000000E+00  0.29458860581E+04  0.29458860581E+04  0.25500000000E-02 0.  1.
         -2   -1    0    0    0  501 -0.00000000000E+00 -0.00000000000E+00 -0.78140155442E+02  0.78140155484E+02  0.25500000000E-02 0. -1.
    5000001    1    1    2    0    0  0.10547280597E+03  0.42994457836E+03  0.16973564523E+04  0.17618798992E+04  0.16500000000E+03 0.  0.
   -5000001    1    1    2    0    0 -0.10547280597E+03 -0.42994457836E+03  0.11703894504E+04  0.12621463144E+04  0.16500000000E+03 0.  0.
<mgrwt>
<rscale>  0 0.95956656E+03</rscale>
<asrwt>0</asrwt>
<pdfrwt beam="1">  1        2 0.42084083E+00 0.95956656E+03</pdfrwt>
<pdfrwt beam="2">  1       -2 0.11162880E-01 0.95956656E+03</pdfrwt>
<totfact> 0.14848404E+02</totfact>
</mgrwt>
</event>
<event>
 4    1  0.5399378E-005  0.4446839E+03  0.7818608E-02  0.1029319E+00
          2   -1    0    0  501    0  0.00000000000E+00  0.00000000000E+00  0.38046535187E+03  0.38046535188E+03  0.25500000000E-02 0.  1.
         -2   -1    0    0    0  501 -0.00000000000E+00 -0.00000000000E+00 -0.12993547266E+03  0.12993547269E+03  0.25500000000E-02 0. -1.
    5000001    1    1    2    0    0 -0.12026438681E+03 -0.25080661393E+02  0.22210401324E+03  0.30273380223E+03  0.16500000000E+03 0.  0.
   -5000001    1    1    2    0    0  0.12026438681E+03  0.25080661393E+02  0.28425865966E+02  0.20766702234E+03  0.16500000000E+03 0.  0.
<mgrwt>
<rscale>  0 0.44468391E+03</rscale>
<asrwt>0</asrwt>
<pdfrwt beam="1">  1        2 0.54352192E-01 0.44468391E+03</pdfrwt>
<pdfrwt beam="2">  1       -2 0.18562211E-01 0.44468391E+03</pdfrwt>
<totfact> 0.22031898E+03</totfact>
</mgrwt>
</event>
<event>
 4    1  0.5399378E-005  0.4956067E+03  0.7818608E-02  0.1014932E+00
          2   -1    0    0  501    0  0.00000000000E+00  0.00000000000E+00  0.41525482152E+03  0.41525482153E+03  0.25500000000E-02 0.  1.
         -2   -1    0    0    0  501 -0.00000000000E+00 -0.00000000000E+00 -0.14787668050E+03  0.14787668052E+03  0.25500000000E-02 0. -1.
    5000001    1    1    2    0    0  0.91117524756E+02 -0.14475087431E+03  0.53938750606E+02  0.24369983124E+03  0.16500000000E+03 0.  0.
   -5000001    1    1    2    0    0 -0.91117524756E+02  0.14475087431E+03  0.21343939042E+03  0.31943167081E+03  0.16500000000E+03 0.  0.
<mgrwt>
<rscale>  0 0.49560672E+03</rscale>
<asrwt>0</asrwt>
<pdfrwt beam="1">  1        2 0.59322117E-01 0.49560672E+03</pdfrwt>
<pdfrwt beam="2">  1       -2 0.21125240E-01 0.49560672E+03</pdfrwt>
<totfact> 0.16007407E+03</totfact>
</mgrwt>
</event>
<event>
 4    1  0.5399378E-005  0.6353943E+03  0.7818608E-02  0.9834578E-01
         -2   -1    0    0    0  501 -0.00000000000E+00  0.00000000000E+00  0.39313302313E+02  0.39313302396E+02  0.25500000000E-02 0. -1.
          2   -1    0    0  501    0  0.00000000000E+00 -0.00000000000E+00 -0.25673620701E+04  0.25673620701E+04  0.25500000000E-02 0.  1.
    5000001    1    1    2    0    0 -0.25979807920E+03 -0.78763027159E+02 -0.12525485737E+04  0.12922080273E+04  0.16500000000E+03 0.  0.
   -5000001    1    1    2    0    0  0.25979807920E+03  0.78763027159E+02 -0.12755001940E+04  0.13144673451E+04  0.16500000000E+03 0.  0.
<mgrwt>
<rscale>  0 0.63539431E+03</rscale>
<asrwt>0</asrwt>
<pdfrwt beam="1">  1        2 0.36676590E+00 0.63539431E+03</pdfrwt>
<pdfrwt beam="2">  1       -2 0.56161877E-02 0.63539431E+03</pdfrwt>
<totfact> 0.72974015E+02</totfact>
</mgrwt>
</event>
<event>
 4    1  0.5399378E-005  0.3817330E+03  0.7818608E-02  0.1050295E+00
         -2   -1    0    0    0  501 -0.00000000000E+00  0.00000000000E+00  0.18769587991E+02  0.18769588164E+02  0.25500000000E-02 0. -1.
          2   -1    0    0  501    0  0.00000000000E+00 -0.00000000000E+00 -0.19409067267E+04  0.19409067267E+04  0.25500000000E-02 0.  1.
    5000001    1    1    2    0    0  0.29318810394E+02  0.85327079260E+02 -0.79355821014E+03  0.81553659390E+03  0.16500000000E+03 0.  0.
   -5000001    1    1    2    0    0 -0.29318810394E+02 -0.85327079260E+02 -0.11285789286E+04  0.11441397210E+04  0.16500000000E+03 0.  0.
<mgrwt>
<rscale>  0 0.38173299E+03</rscale>
<asrwt>0</asrwt>
<pdfrwt beam="1">  1        2 0.27727226E+00 0.38173299E+03</pdfrwt>
<pdfrwt beam="2">  1       -2 0.26813710E-02 0.38173299E+03</pdfrwt>
<totfact> 0.47278462E+03</totfact>
</mgrwt>
</event>
<event>
 4    1  0.5399378E-005  0.5183728E+03  0.7818608E-02  0.1009092E+00
         -2   -1    0    0    0  501 -0.00000000000E+00  0.00000000000E+00  0.29169496975E+03  0.29169496976E+03  0.25500000000E-02 0. -1.
          2   -1    0    0  501    0  0.00000000000E+00 -0.00000000000E+00 -0.23030079840E+03  0.23030079841E+03  0.25500000000E-02 0.  1.
    5000001    1    1    2    0    0  0.19305488146E+03 -0.50212908358E+02  0.17917405063E+02  0.25949481078E+03  0.16500000000E+03 0.  0.
   -5000001    1    1    2    0    0 -0.19305488146E+03  0.50212908358E+02  0.43476766287E+02  0.26250095738E+03  0.16500000000E+03 0.  0.
<mgrwt>
<rscale>  0 0.51837278E+03</rscale>
<asrwt>0</asrwt>
<pdfrwt beam="1">  1        2 0.32900114E-01 0.51837278E+03</pdfrwt>
<pdfrwt beam="2">  1       -2 0.41670710E-01 0.51837278E+03</pdfrwt>
<totfact> 0.87776890E+02</totfact>
</mgrwt>
</event>
<event>
 4    1  0.5399378E-005  0.6168328E+03  0.7818608E-02  0.9871086E-01
          2   -1    0    0  501    0  0.00000000000E+00  0.00000000000E+00  0.22072588931E+04  0.22072588931E+04  0.25500000000E-02 0.  1.
         -2   -1    0    0    0  501 -0.00000000000E+00 -0.00000000000E+00 -0.43094474424E+02  0.43094474499E+02  0.25500000000E-02 0. -1.
    5000001    1    1    2    0    0  0.45406893639E+02  0.19149206685E+03  0.17051162606E+04  0.17243484160E+04  0.16500000000E+03 0.  0.
   -5000001    1    1    2    0    0 -0.45406893639E+02 -0.19149206685E+03  0.45904815809E+03  0.52600495159E+03  0.16500000000E+03 0.  0.
<mgrwt>
<rscale>  0 0.61683276E+03</rscale>
<asrwt>0</asrwt>
<pdfrwt beam="1">  1        2 0.31532287E+00 0.61683276E+03</pdfrwt>
<pdfrwt beam="2">  1       -2 0.61563502E-02 0.61683276E+03</pdfrwt>
<totfact> 0.96586374E+02</totfact>
</mgrwt>
</event>
<event>
 4    1  0.5399378E-005  0.9544203E+03  0.7818608E-02  0.9359999E-01
          2   -1    0    0  501    0  0.00000000000E+00  0.00000000000E+00  0.17868385329E+04  0.17868385329E+04  0.25500000000E-02 0.  1.
         -2   -1    0    0    0  501 -0.00000000000E+00 -0.00000000000E+00 -0.12744830578E+03  0.12744830580E+03  0.25500000000E-02 0. -1.
    5000001    1    1    2    0    0  0.20034483023E+03 -0.28398426949E+03  0.13959988344E+04  0.14480410429E+04  0.16500000000E+03 0.  0.
   -5000001    1    1    2    0    0 -0.20034483023E+03  0.28398426949E+03  0.26339139268E+03  0.46624579575E+03  0.16500000000E+03 0.  0.
<mgrwt>
<rscale>  0 0.95442033E+03</rscale>
<asrwt>0</asrwt>
<pdfrwt beam="1">  1        2 0.25526261E+00 0.95442033E+03</pdfrwt>
<pdfrwt beam="2">  1       -2 0.18206903E-01 0.95442033E+03</pdfrwt>
<totfact> 0.26053830E+02</totfact>
</mgrwt>
</event>
<event>
 4    1  0.5399378E-005  0.5193493E+03  0.7818608E-02  0.1008848E+00
         -2   -1    0    0    0  501 -0.00000000000E+00  0.00000000000E+00  0.94220283300E+02  0.94220283334E+02  0.25500000000E-02 0. -1.
          2   -1    0    0  501    0  0.00000000000E+00 -0.00000000000E+00 -0.71567304951E+03  0.71567304951E+03  0.25500000000E-02 0.  1.
    5000001    1    1    2    0    0  0.59502632333E+02  0.17902481568E+03 -0.20478241349E+03  0.32365303143E+03  0.16500000000E+03 0.  0.
   -5000001    1    1    2    0    0 -0.59502632333E+02 -0.17902481568E+03 -0.41667035272E+03  0.48624030141E+03  0.16500000000E+03 0.  0.
<mgrwt>
<rscale>  0 0.51934928E+03</rscale>
<asrwt>0</asrwt>
<pdfrwt beam="1">  1        2 0.10223900E+00 0.51934928E+03</pdfrwt>
<pdfrwt beam="2">  1       -2 0.13460041E-01 0.51934928E+03</pdfrwt>
<totfact> 0.18384524E+03</totfact>
</mgrwt>
</event>
<event>
 4    1  0.5399378E-005  0.5908395E+03  0.7818608E-02  0.9924596E-01
         -2   -1    0    0    0  501 -0.00000000000E+00  0.00000000000E+00  0.26274533431E+03  0.26274533432E+03  0.25500000000E-02 0. -1.
          2   -1    0    0  501    0  0.00000000000E+00 -0.00000000000E+00 -0.33215750079E+03  0.33215750080E+03  0.25500000000E-02 0.  1.
    5000001    1    1    2    0    0  0.19188310907E+03  0.15218526485E+03 -0.43030419369E+02  0.29842268576E+03  0.16500000000E+03 0.  0.
   -5000001    1    1    2    0    0 -0.19188310907E+03 -0.15218526485E+03 -0.26381747113E+02  0.29648014936E+03  0.16500000000E+03 0.  0.
<mgrwt>
<rscale>  0 0.59083952E+03</rscale>
<asrwt>0</asrwt>
<pdfrwt beam="1">  1        2 0.47451072E-01 0.59083952E+03</pdfrwt>
<pdfrwt beam="2">  1       -2 0.37535048E-01 0.59083952E+03</pdfrwt>
<totfact> 0.71643360E+02</totfact>
</mgrwt>
</event>
<event>
 4    1  0.5399378E-005  0.4144042E+03  0.7818608E-02  0.1038903E+00
          2   -1    0    0  501    0  0.00000000000E+00  0.00000000000E+00  0.18552920357E+04  0.18552920357E+04  0.25500000000E-02 0.  1.
         -2   -1    0    0    0  501 -0.00000000000E+00 -0.00000000000E+00 -0.23140672235E+02  0.23140672375E+02  0.25500000000E-02 0. -1.
    5000001    1    1    2    0    0  0.53318333451E+02 -0.41515857406E+02  0.13945287410E+04  0.14058811545E+04  0.16500000000E+03 0.  0.
   -5000001    1    1    2    0    0 -0.53318333451E+02  0.41515857406E+02  0.43762262249E+03  0.47255155361E+03  0.16500000000E+03 0.  0.
<mgrwt>
<rscale>  0 0.41440417E+03</rscale>
<asrwt>0</asrwt>
<pdfrwt beam="1">  1        2 0.26504170E+00 0.41440417E+03</pdfrwt>
<pdfrwt beam="2">  1       -2 0.33058105E-02 0.41440417E+03</pdfrwt>
<totfact> 0.38031983E+03</totfact>
</mgrwt>
</event>
<event>
 4    1  0.5399378E-005  0.3636837E+03  0.7818608E-02  0.1057135E+00
          2   -1    0    0  501    0  0.00000000000E+00  0.00000000000E+00  0.23071453671E+03  0.23071453672E+03  0.25500000000E-02 0.  1.
         -2   -1    0    0    0  501 -0.00000000000E+00 -0.00000000000E+00 -0.14332197049E+03  0.14332197051E+03  0.25500000000E-02 0. -1.
    5000001    1    1    2    0    0 -0.38021229561E+02 -0.55413550192E+02  0.81135663102E+02  0.19576585828E+03  0.16500000000E+03 0.  0.
   -5000001    1    1    2    0    0  0.38021229561E+02  0.55413550192E+02  0.62569031163E+01  0.17827064895E+03  0.16500000000E+03 0.  0.
<mgrwt>
<rscale>  0 0.36368372E+03</rscale>
<asrwt>0</asrwt>
<pdfrwt beam="1">  1        2 0.32959220E-01 0.36368372E+03</pdfrwt>
<pdfrwt beam="2">  1       -2 0.20474567E-01 0.36368372E+03</pdfrwt>
<totfact> 0.32060188E+03</totfact>
</mgrwt>
</event>
<event>
 4    1  0.5399378E-005  0.5148916E+03  0.7818608E-02  0.1009963E+00
         -2   -1    0    0    0  501 -0.00000000000E+00  0.00000000000E+00  0.67775248068E+02  0.67775248116E+02  0.25500000000E-02 0. -1.
          2   -1    0    0  501    0  0.00000000000E+00 -0.00000000000E+00 -0.97791375460E+03  0.97791375461E+03  0.25500000000E-02 0.  1.
    5000001    1    1    2    0    0 -0.17140815034E+03  0.58121731411E+01 -0.25568150724E+03  0.34930297523E+03  0.16500000000E+03 0.  0.
   -5000001    1    1    2    0    0  0.17140815034E+03 -0.58121731411E+01 -0.65445699930E+03  0.69638602750E+03  0.16500000000E+03 0.  0.
<mgrwt>
<rscale>  0 0.51489163E+03</rscale>
<asrwt>0</asrwt>
<pdfrwt beam="1">  1        2 0.13970196E+00 0.51489163E+03</pdfrwt>
<pdfrwt beam="2">  1       -2 0.96821789E-02 0.51489163E+03</pdfrwt>
<totfact> 0.21017250E+03</totfact>
</mgrwt>
</event>
<event>
 4    1  0.5399378E-005  0.4707772E+03  0.7818608E-02  0.1021701E+00
         -2   -1    0    0    0  501 -0.00000000000E+00  0.00000000000E+00  0.45242923963E+02  0.45242924035E+02  0.25500000000E-02 0. -1.
          2   -1    0    0  501    0  0.00000000000E+00 -0.00000000000E+00 -0.12246729416E+04  0.12246729416E+04  0.25500000000E-02 0.  1.
    5000001    1    1    2    0    0 -0.26834223693E+02 -0.16560849015E+03 -0.60602026045E+03  0.65010137952E+03  0.16500000000E+03 0.  0.
   -5000001    1    1    2    0    0  0.26834223693E+02  0.16560849015E+03 -0.57340975721E+03  0.61981448615E+03  0.16500000000E+03 0.  0.
<mgrwt>
<rscale>  0 0.47077717E+03</rscale>
<asrwt>0</asrwt>
<pdfrwt beam="1">  1        2 0.17495326E+00 0.47077717E+03</pdfrwt>
<pdfrwt beam="2">  1       -2 0.64632756E-02 0.47077717E+03</pdfrwt>
<totfact> 0.28723650E+03</totfact>
</mgrwt>
</event>
<event>
 4    1  0.5399378E-005  0.1008196E+04  0.7818608E-02  0.9299601E-01
          2   -1    0    0  501    0  0.00000000000E+00  0.00000000000E+00  0.17354912612E+03  0.17354912613E+03  0.25500000000E-02 0.  1.
         -2   -1    0    0    0  501 -0.00000000000E+00 -0.00000000000E+00 -0.14642241323E+04  0.14642241323E+04  0.25500000000E-02 0. -1.
    5000001    1    1    2    0    0  0.36004313372E+03  0.30916753753E+03 -0.57886964224E+03  0.76650550364E+03  0.16500000000E+03 0.  0.
   -5000001    1    1    2    0    0 -0.36004313372E+03 -0.30916753753E+03 -0.71180536392E+03  0.87126775478E+03  0.16500000000E+03 0.  0.
<mgrwt>
<rscale>  0 0.10081960E+04</rscale>
<asrwt>0</asrwt>
<pdfrwt beam="1">  1        2 0.24792733E-01 0.10081960E+04</pdfrwt>
<pdfrwt beam="2">  1       -2 0.20917487E+00 0.10081960E+04</pdfrwt>
<totfact> 0.25685572E+01</totfact>
</mgrwt>
</event>
<event>
 4    1  0.5399378E-005  0.6805215E+03  0.7818608E-02  0.9751135E-01
          2   -1    0    0  501    0  0.00000000000E+00  0.00000000000E+00  0.34410624088E+03  0.34410624089E+03  0.25500000000E-02 0.  1.
         -2   -1    0    0    0  501 -0.00000000000E+00 -0.00000000000E+00 -0.33645822837E+03  0.33645822838E+03  0.25500000000E-02 0. -1.
    5000001    1    1    2    0    0  0.20524416641E+03  0.35310318796E+00 -0.21165905000E+03  0.33786069019E+03  0.16500000000E+03 0.  0.
   -5000001    1    1    2    0    0 -0.20524416641E+03 -0.35310318796E+00  0.21930706252E+03  0.34270377908E+03  0.16500000000E+03 0.  0.
<mgrwt>
<rscale>  0 0.68052149E+03</rscale>
<asrwt>0</asrwt>
<pdfrwt beam="1">  1        2 0.49158034E-01 0.68052149E+03</pdfrwt>
<pdfrwt beam="2">  1       -2 0.48065461E-01 0.68052149E+03</pdfrwt>
<totfact> 0.42304617E+02</totfact>
</mgrwt>
</event>
<event>
 4    1  0.5399378E-005  0.6543793E+03  0.7818608E-02  0.9798596E-01
         -2   -1    0    0    0  501 -0.00000000000E+00  0.00000000000E+00  0.56205499902E+02  0.56205499960E+02  0.25500000000E-02 0. -1.
          2   -1    0    0  501    0  0.00000000000E+00 -0.00000000000E+00 -0.19046726604E+04  0.19046726604E+04  0.25500000000E-02 0.  1.
    5000001    1    1    2    0    0 -0.11425935098E+03  0.14929342440E+03 -0.15562446319E+04  0.15762189188E+04  0.16500000000E+03 0.  0.
   -5000001    1    1    2    0    0  0.11425935098E+03 -0.14929342440E+03 -0.29222252863E+03  0.38465924153E+03  0.16500000000E+03 0.  0.
<mgrwt>
<rscale>  0 0.65437934E+03</rscale>
<asrwt>0</asrwt>
<pdfrwt beam="1">  1        2 0.27209605E+00 0.65437934E+03</pdfrwt>
<pdfrwt beam="2">  1       -2 0.80293583E-02 0.65437934E+03</pdfrwt>
<totfact> 0.89894630E+02</totfact>
</mgrwt>
</event>
<event>
 4    1  0.5399378E-005  0.4492879E+03  0.7818608E-02  0.1027935E+00
         -2   -1    0    0    0  501 -0.00000000000E+00  0.00000000000E+00  0.11984775798E+03  0.11984775801E+03  0.25500000000E-02 0. -1.
          2   -1    0    0  501    0  0.00000000000E+00 -0.00000000000E+00 -0.42107514457E+03  0.42107514457E+03  0.25500000000E-02 0.  1.
    5000001    1    1    2    0    0  0.28181731501E+02  0.13819938400E+03 -0.80964736975E+02  0.23167556703E+03  0.16500000000E+03 0.  0.
   -5000001    1    1    2    0    0 -0.28181731501E+02 -0.13819938400E+03 -0.22026264961E+03  0.30924733554E+03  0.16500000000E+03 0.  0.
<mgrwt>
<rscale>  0 0.44928793E+03</rscale>
<asrwt>0</asrwt>
<pdfrwt beam="1">  1        2 0.60153591E-01 0.44928793E+03</pdfrwt>
<pdfrwt beam="2">  1       -2 0.17121108E-01 0.44928793E+03</pdfrwt>
<totfact> 0.22616557E+03</totfact>
</mgrwt>
</event>
<event>
 4    1  0.5399378E-005  0.5989762E+03  0.7818608E-02  0.9907532E-01
         -2   -1    0    0    0  501 -0.00000000000E+00  0.00000000000E+00  0.45328567585E+03  0.45328567586E+03  0.25500000000E-02 0. -1.
          2   -1    0    0  501    0  0.00000000000E+00 -0.00000000000E+00 -0.19787327363E+03  0.19787327365E+03  0.25500000000E-02 0.  1.
    5000001    1    1    2    0    0  0.18930265161E+03 -0.44962030890E+01 -0.49639048849E+02  0.25601707935E+03  0.16500000000E+03 0.  0.
   -5000001    1    1    2    0    0 -0.18930265161E+03  0.44962030890E+01  0.30505145107E+03  0.39514187015E+03  0.16500000000E+03 0.  0.
<mgrwt>
<rscale>  0 0.59897620E+03</rscale>
<asrwt>0</asrwt>
<pdfrwt beam="1">  1        2 0.28267610E-01 0.59897620E+03</pdfrwt>
<pdfrwt beam="2">  1       -2 0.64755097E-01 0.59897620E+03</pdfrwt>
<totfact> 0.42288783E+02</totfact>
</mgrwt>
</event>
<event>
 4    1  0.5399378E-005  0.3984341E+03  0.7818608E-02  0.1044323E+00
          2   -1    0    0  501    0  0.00000000000E+00  0.00000000000E+00  0.67700491255E+03  0.67700491255E+03  0.25500000000E-02 0.  1.
         -2   -1    0    0    0  501 -0.00000000000E+00 -0.00000000000E+00 -0.58622074688E+02  0.58622074744E+02  0.25500000000E-02 0. -1.
    5000001    1    1    2    0    0 -0.43449008937E+02  0.70653932037E+02  0.17124167705E+03  0.25185016666E+03  0.16500000000E+03 0.  0.
   -5000001    1    1    2    0    0  0.43449008937E+02 -0.70653932037E+02  0.44714116081E+03  0.48377682063E+03  0.16500000000E+03 0.  0.
<mgrwt>
<rscale>  0 0.39843410E+03</rscale>
<asrwt>0</asrwt>
<pdfrwt beam="1">  1        2 0.96714992E-01 0.39843410E+03</pdfrwt>
<pdfrwt beam="2">  1       -2 0.83745817E-02 0.39843410E+03</pdfrwt>
<totfact> 0.42299230E+03</totfact>
</mgrwt>
</event>
<event>
 4    1  0.5399378E-005  0.4658077E+03  0.7818608E-02  0.1023110E+00
          2   -1    0    0  501    0  0.00000000000E+00  0.00000000000E+00  0.71248643179E+03  0.71248643179E+03  0.25500000000E-02 0.  1.
         -2   -1    0    0    0  501 -0.00000000000E+00 -0.00000000000E+00 -0.76133662200E+02  0.76133662243E+02  0.25500000000E-02 0. -1.
    5000001    1    1    2    0    0 -0.16047956254E+03 -0.28902672228E+02  0.35328951718E+03  0.42264351102E+03  0.16500000000E+03 0.  0.
   -5000001    1    1    2    0    0  0.16047956254E+03  0.28902672228E+02  0.28306325241E+03  0.36597658302E+03  0.16500000000E+03 0.  0.
<mgrwt>
<rscale>  0 0.46580769E+03</rscale>
<asrwt>0</asrwt>
<pdfrwt beam="1">  1        2 0.10178376E+00 0.46580769E+03</pdfrwt>
<pdfrwt beam="2">  1       -2 0.10876239E-01 0.46580769E+03</pdfrwt>
<totfact> 0.26211374E+03</totfact>
</mgrwt>
</event>
<event>
 4    1  0.5399378E-005  0.7844471E+03  0.7818608E-02  0.9582806E-01
          2   -1    0    0  501    0  0.00000000000E+00  0.00000000000E+00  0.36730729740E+03  0.36730729741E+03  0.25500000000E-02 0.  1.
         -2   -1    0    0    0  501 -0.00000000000E+00 -0.00000000000E+00 -0.41883001846E+03  0.41883001847E+03  0.25500000000E-02 0. -1.
    5000001    1    1    2    0    0 -0.58836689350E+02 -0.27664620673E+03  0.19061921654E+03  0.37888727272E+03  0.16500000000E+03 0.  0.
   -5000001    1    1    2    0    0  0.58836689350E+02  0.27664620673E+03 -0.24214193760E+03  0.40725004316E+03  0.16500000000E+03 0.  0.
<mgrwt>
<rscale>  0 0.78444712E+03</rscale>
<asrwt>0</asrwt>
<pdfrwt beam="1">  1        2 0.52472472E-01 0.78444712E+03</pdfrwt>
<pdfrwt beam="2">  1       -2 0.59832859E-01 0.78444712E+03</pdfrwt>
<totfact> 0.24973980E+02</totfact>
</mgrwt>
</event>
<event>
 4    1  0.5399378E-005  0.7649413E+03  0.7818608E-02  0.9612197E-01
          2   -1    0    0  501    0  0.00000000000E+00  0.00000000000E+00  0.53591333321E+03  0.53591333321E+03  0.25500000000E-02 0.  1.
         -2   -1    0    0    0  501 -0.00000000000E+00 -0.00000000000E+00 -0.27296169594E+03  0.27296169595E+03  0.25500000000E-02 0. -1.
    5000001    1    1    2    0    0 -0.10683505762E+03 -0.27368581210E+03  0.32281341877E+03  0.46663814313E+03  0.16500000000E+03 0.  0.
   -5000001    1    1    2    0    0  0.10683505762E+03  0.27368581210E+03 -0.59861781500E+02  0.34223688604E+03  0.16500000000E+03 0.  0.
<mgrwt>
<rscale>  0 0.76494134E+03</rscale>
<asrwt>0</asrwt>
<pdfrwt beam="1">  1        2 0.76559046E-01 0.76494134E+03</pdfrwt>
<pdfrwt beam="2">  1       -2 0.38994529E-01 0.76494134E+03</pdfrwt>
<totfact> 0.38730238E+02</totfact>
</mgrwt>
</event>
<event>
 4    1  0.5399378E-005  0.4764893E+03  0.7818608E-02  0.1020104E+00
         -2   -1    0    0    0  501 -0.00000000000E+00  0.00000000000E+00  0.14408078835E+03  0.14408078838E+03  0.25500000000E-02 0. -1.
          2   -1    0    0  501    0  0.00000000000E+00 -0.00000000000E+00 -0.39394922934E+03  0.39394922935E+03  0.25500000000E-02 0.  1.
    5000001    1    1    2    0    0 -0.95291983305E+02  0.93025061529E+02 -0.22699410677E+01  0.21204805301E+03  0.16500000000E+03 0.  0.
   -5000001    1    1    2    0    0  0.95291983305E+02 -0.93025061529E+02 -0.24759849992E+03  0.32598196471E+03  0.16500000000E+03 0.  0.
<mgrwt>
<rscale>  0 0.47648931E+03</rscale>
<asrwt>0</asrwt>
<pdfrwt beam="1">  1        2 0.56278461E-01 0.47648931E+03</pdfrwt>
<pdfrwt beam="2">  1       -2 0.20582970E-01 0.47648931E+03</pdfrwt>
<totfact> 0.17749288E+03</totfact>
</mgrwt>
</event>
<event>
 4    1  0.5399378E-005  0.4413641E+03  0.7818608E-02  0.1030329E+00
          2   -1    0    0  501    0  0.00000000000E+00  0.00000000000E+00  0.89008302236E+02  0.89008302272E+02  0.25500000000E-02 0.  1.
         -2   -1    0    0    0  501 -0.00000000000E+00 -0.00000000000E+00 -0.54714642642E+03  0.54714642643E+03  0.25500000000E-02 0. -1.
    5000001    1    1    2    0    0 -0.73645760838E+02  0.86543630050E+02 -0.36243817855E+03  0.41412550182E+03  0.16500000000E+03 0.  0.
   -5000001    1    1    2    0    0  0.73645760838E+02 -0.86543630050E+02 -0.95699945637E+02  0.22202922688E+03  0.16500000000E+03 0.  0.
<mgrwt>
<rscale>  0 0.44136413E+03</rscale>
<asrwt>0</asrwt>
<pdfrwt beam="1">  1        2 0.12715472E-01 0.44136413E+03</pdfrwt>
<pdfrwt beam="2">  1       -2 0.78163774E-01 0.44136413E+03</pdfrwt>
<totfact> 0.71904062E+02</totfact>
</mgrwt>
</event>
<event>
 4    1  0.5399378E-005  0.5087461E+03  0.7818608E-02  0.1011521E+00
         -2   -1    0    0    0  501 -0.00000000000E+00  0.00000000000E+00  0.77622912334E+02  0.77622912376E+02  0.25500000000E-02 0.  1.
          2   -1    0    0  501    0  0.00000000000E+00 -0.00000000000E+00 -0.83358951110E+03  0.83358951110E+03  0.25500000000E-02 0. -1.
    5000001    1    1    2    0    0 -0.19238111658E+03  0.20336090626E+02 -0.39145763775E+03  0.46678488916E+03  0.16500000000E+03 0.  0.
   -5000001    1    1    2    0    0  0.19238111658E+03 -0.20336090626E+02 -0.36450896101E+03  0.44442753432E+03  0.16500000000E+03 0.  0.
<mgrwt>
<rscale>  0 0.50874609E+03</rscale>
<asrwt>0</asrwt>
<pdfrwt beam="1">  1        2 0.11908421E+00 0.50874609E+03</pdfrwt>
<pdfrwt beam="2">  1       -2 0.11088988E-01 0.50874609E+03</pdfrwt>
<totfact> 0.20872691E+03</totfact>
</mgrwt>
</event>
<event>
 4    1  0.5399378E-005  0.7923041E+03  0.7818608E-02  0.9571224E-01
         -2   -1    0    0    0  501 -0.00000000000E+00  0.00000000000E+00  0.80741399392E+02  0.80741399433E+02  0.25500000000E-02 0. -1.
          2   -1    0    0  501    0  0.00000000000E+00 -0.00000000000E+00 -0.19436926325E+04  0.19436926325E+04  0.25500000000E-02 0.  1.
    5000001    1    1    2    0    0  0.34097165296E+03 -0.84318505082E+02 -0.11349279430E+04  0.11994405839E+04  0.16500000000E+03 0.  0.
   -5000001    1    1    2    0    0 -0.34097165296E+03  0.84318505082E+02 -0.72802329015E+03  0.82499344811E+03  0.16500000000E+03 0.  0.
<mgrwt>
<rscale>  0 0.79230414E+03</rscale>
<asrwt>0</asrwt>
<pdfrwt beam="1">  1        2 0.27767035E+00 0.79230414E+03</pdfrwt>
<pdfrwt beam="2">  1       -2 0.11534487E-01 0.79230414E+03</pdfrwt>
<totfact> 0.47341366E+02</totfact>
</mgrwt>
</event>
<event>
 4    1  0.5399378E-005  0.5056336E+03  0.7818608E-02  0.1012319E+00
          2   -1    0    0  501    0  0.00000000000E+00  0.00000000000E+00  0.34382545876E+04  0.34382545876E+04  0.25500000000E-02 0.  1.
         -2   -1    0    0    0  501 -0.00000000000E+00 -0.00000000000E+00 -0.18589759866E+02  0.18589760041E+02  0.25500000000E-02 0. -1.
    5000001    1    1    2    0    0  0.17550303537E+03  0.75881276661E+02  0.16312721294E+04  0.16507068315E+04  0.16500000000E+03 0.  0.
   -5000001    1    1    2    0    0 -0.17550303537E+03 -0.75881276661E+02  0.17883926983E+04  0.18061375161E+04  0.16500000000E+03 0.  0.
<mgrwt>
<rscale>  0 0.50563357E+03</rscale>
<asrwt>0</asrwt>
<pdfrwt beam="1">  1        2 0.49117964E+00 0.50563357E+03</pdfrwt>
<pdfrwt beam="2">  1       -2 0.26556777E-02 0.50563357E+03</pdfrwt>
<totfact> 0.77986368E+02</totfact>
</mgrwt>
</event>
<event>
 4    1  0.5399378E-005  0.6084808E+03  0.7818608E-02  0.9887966E-01
         -2   -1    0    0    0  501 -0.00000000000E+00  0.00000000000E+00  0.13720154067E+03  0.13720154070E+03  0.25500000000E-02 0.  1.
          2   -1    0    0  501    0  0.00000000000E+00 -0.00000000000E+00 -0.67464415532E+03  0.67464415533E+03  0.25500000000E-02 0. -1.
    5000001    1    1    2    0    0  0.18445014010E+03 -0.27946131310E+00 -0.50482610261E+03  0.56222444465E+03  0.16500000000E+03 0.  0.
   -5000001    1    1    2    0    0 -0.18445014010E+03  0.27946131310E+00 -0.32616512035E+02  0.24962125137E+03  0.16500000000E+03 0.  0.
<mgrwt>
<rscale>  0 0.60848079E+03</rscale>
<asrwt>0</asrwt>
<pdfrwt beam="1">  1        2 0.96377735E-01 0.60848079E+03</pdfrwt>
<pdfrwt beam="2">  1       -2 0.19600220E-01 0.60848079E+03</pdfrwt>
<totfact> 0.10434734E+03</totfact>
</mgrwt>
</event>
<event>
 4    1  0.5399378E-005  0.8652778E+03  0.7818608E-02  0.9470058E-01
          2   -1    0    0  501    0  0.00000000000E+00  0.00000000000E+00  0.22138666535E+03  0.22138666537E+03  0.25500000000E-02 0.  1.
         -2   -1    0    0    0  501 -0.00000000000E+00 -0.00000000000E+00 -0.84547288431E+03  0.84547288432E+03  0.25500000000E-02 0. -1.
    5000001    1    1    2    0    0 -0.13865208465E+03  0.24195791717E+03  0.41419682305E+02  0.32666286036E+03  0.16500000000E+03 0.  0.
   -5000001    1    1    2    0    0  0.13865208465E+03 -0.24195791717E+03 -0.66550590127E+03  0.74019668932E+03  0.16500000000E+03 0.  0.
<mgrwt>
<rscale>  0 0.86527781E+03</rscale>
<asrwt>0</asrwt>
<pdfrwt beam="1">  1        2 0.31626667E-01 0.86527781E+03</pdfrwt>
<pdfrwt beam="2">  1       -2 0.12078184E+00 0.86527781E+03</pdfrwt>
<totfact> 0.88011638E+01</totfact>
</mgrwt>
</event>
<event>
 4    1  0.5399378E-005  0.4332597E+03  0.7818608E-02  0.1032835E+00
          2   -1    0    0  501    0  0.00000000000E+00  0.00000000000E+00  0.37487220224E+03  0.37487220225E+03  0.25500000000E-02 0.  1.
         -2   -1    0    0    0  501 -0.00000000000E+00 -0.00000000000E+00 -0.12518528668E+03  0.12518528670E+03  0.25500000000E-02 0. -1.
    5000001    1    1    2    0    0  0.14367120383E+02 -0.13526458094E+03  0.84852281891E+02  0.23006049367E+03  0.16500000000E+03 0.  0.
   -5000001    1    1    2    0    0 -0.14367120383E+02  0.13526458094E+03  0.16483463367E+03  0.26999699529E+03  0.16500000000E+03 0.  0.
<mgrwt>
<rscale>  0 0.43325966E+03</rscale>
<asrwt>0</asrwt>
<pdfrwt beam="1">  1        2 0.53553172E-01 0.43325966E+03</pdfrwt>
<pdfrwt beam="2">  1       -2 0.17883612E-01 0.43325966E+03</pdfrwt>
<totfact> 0.23857410E+03</totfact>
</mgrwt>
</event>
<event>
 4    1  0.5399378E-005  0.5498453E+03  0.7818608E-02  0.1001530E+00
         -2   -1    0    0    0  501 -0.00000000000E+00  0.00000000000E+00  0.74603237739E+02  0.74603237783E+02  0.25500000000E-02 0. -1.
          2   -1    0    0  501    0  0.00000000000E+00 -0.00000000000E+00 -0.10131258661E+04  0.10131258661E+04  0.25500000000E-02 0.  1.
    5000001    1    1    2    0    0 -0.64865066544E+02 -0.20916630041E+03 -0.50879910504E+03  0.57797884682E+03  0.16500000000E+03 0.  0.
   -5000001    1    1    2    0    0  0.64865066544E+02  0.20916630041E+03 -0.42972352332E+03  0.50975025707E+03  0.16500000000E+03 0.  0.
<mgrwt>
<rscale>  0 0.54984532E+03</rscale>
<asrwt>0</asrwt>
<pdfrwt beam="1">  1        2 0.14473226E+00 0.54984532E+03</pdfrwt>
<pdfrwt beam="2">  1       -2 0.10657606E-01 0.54984532E+03</pdfrwt>
<totfact> 0.17121731E+03</totfact>
</mgrwt>
</event>
<event>
 4    1  0.5399378E-005  0.3701737E+03  0.7818608E-02  0.1054627E+00
         -2   -1    0    0    0  501 -0.00000000000E+00  0.00000000000E+00  0.14199686380E+03  0.14199686382E+03  0.25500000000E-02 0. -1.
          2   -1    0    0  501    0  0.00000000000E+00 -0.00000000000E+00 -0.24125280597E+03  0.24125280598E+03  0.25500000000E-02 0.  1.
    5000001    1    1    2    0    0  0.69927325723E+02  0.45126304244E+02 -0.60283642889E+02  0.19438449480E+03  0.16500000000E+03 0.  0.
   -5000001    1    1    2    0    0 -0.69927325723E+02 -0.45126304244E+02 -0.38972299283E+02  0.18886517500E+03  0.16500000000E+03 0.  0.
<mgrwt>
<rscale>  0 0.37017370E+03</rscale>
<asrwt>0</asrwt>
<pdfrwt beam="1">  1        2 0.34464687E-01 0.37017370E+03</pdfrwt>
<pdfrwt beam="2">  1       -2 0.20285266E-01 0.37017370E+03</pdfrwt>
<totfact> 0.31029628E+03</totfact>
</mgrwt>
</event>
<event>
 4    1  0.5399378E-005  0.4605596E+03  0.7818608E-02  0.1024619E+00
          2   -1    0    0  501    0  0.00000000000E+00  0.00000000000E+00  0.24318858506E+04  0.24318858506E+04  0.25500000000E-02 0.  1.
         -2   -1    0    0    0  501 -0.00000000000E+00 -0.00000000000E+00 -0.21805625522E+02  0.21805625671E+02  0.25500000000E-02 0. -1.
    5000001    1    1    2    0    0  0.80367305114E+02  0.13906606228E+03  0.11925242117E+04  0.12145522916E+04  0.16500000000E+03 0.  0.
   -5000001    1    1    2    0    0 -0.80367305114E+02 -0.13906606228E+03  0.12175560134E+04  0.12391391847E+04  0.16500000000E+03 0.  0.
<mgrwt>
<rscale>  0 0.46055963E+03</rscale>
<asrwt>0</asrwt>
<pdfrwt beam="1">  1        2 0.34741222E+00 0.46055963E+03</pdfrwt>
<pdfrwt beam="2">  1       -2 0.31150898E-02 0.46055963E+03</pdfrwt>
<totfact> 0.21426002E+03</totfact>
</mgrwt>
</event>
<event>
 4    1  0.5399378E-005  0.5819715E+03  0.7818608E-02  0.9943532E-01
         -2   -1    0    0    0  501 -0.00000000000E+00  0.00000000000E+00  0.33621686342E+02  0.33621686438E+02  0.25500000000E-02 0. -1.
          2   -1    0    0  501    0  0.00000000000E+00 -0.00000000000E+00 -0.25183954727E+04  0.25183954727E+04  0.25500000000E-02 0.  1.
    5000001    1    1    2    0    0  0.56918349341E+02  0.17421219708E+03 -0.56505746647E+03  0.61652617829E+03  0.16500000000E+03 0.  0.
   -5000001    1    1    2    0    0 -0.56918349341E+02 -0.17421219708E+03 -0.19197163198E+04  0.19354909808E+04  0.16500000000E+03 0.  0.
<mgrwt>
<rscale>  0 0.58197149E+03</rscale>
<asrwt>0</asrwt>
<pdfrwt beam="1">  1        2 0.35977066E+00 0.58197149E+03</pdfrwt>
<pdfrwt beam="2">  1       -2 0.48030996E-02 0.58197149E+03</pdfrwt>
<totfact> 0.99028364E+02</totfact>
</mgrwt>
</event>
<event>
 4    1  0.5399378E-005  0.3588836E+03  0.7818608E-02  0.1059027E+00
         -2   -1    0    0    0  501 -0.00000000000E+00  0.00000000000E+00  0.21148142780E+02  0.21148142934E+02  0.25500000000E-02 0. -1.
          2   -1    0    0  501    0  0.00000000000E+00 -0.00000000000E+00 -0.15225618210E+04  0.15225618210E+04  0.25500000000E-02 0.  1.
    5000001    1    1    2    0    0 -0.69882727478E+02 -0.77201212342E+01 -0.77471749877E+03  0.79520777082E+03  0.16500000000E+03 0.  0.
   -5000001    1    1    2    0    0  0.69882727478E+02  0.77201212342E+01 -0.72669617942E+03  0.74850219309E+03  0.16500000000E+03 0.  0.
<mgrwt>
<rscale>  0 0.35888357E+03</rscale>
<asrwt>0</asrwt>
<pdfrwt beam="1">  1        2 0.21750876E+00 0.35888357E+03</pdfrwt>
<pdfrwt beam="2">  1       -2 0.30211642E-02 0.35888357E+03</pdfrwt>
<totfact> 0.63932394E+03</totfact>
</mgrwt>
</event>
<event>
 4    1  0.5399378E-005  0.4597494E+03  0.7818608E-02  0.1024854E+00
          2   -1    0    0  501    0  0.00000000000E+00  0.00000000000E+00  0.86814952446E+03  0.86814952446E+03  0.25500000000E-02 0.  1.
         -2   -1    0    0    0  501 -0.00000000000E+00 -0.00000000000E+00 -0.60867821585E+02  0.60867821638E+02  0.25500000000E-02 0. -1.
    5000001    1    1    2    0    0 -0.57827176118E+02  0.14062185737E+03  0.50465343925E+03  0.55228487469E+03  0.16500000000E+03 0.  0.
   -5000001    1    1    2    0    0  0.57827176118E+02 -0.14062185737E+03  0.30262826362E+03  0.37673247141E+03  0.16500000000E+03 0.  0.
<mgrwt>
<rscale>  0 0.45974937E+03</rscale>
<asrwt>0</asrwt>
<pdfrwt beam="1">  1        2 0.12402136E+00 0.45974937E+03</pdfrwt>
<pdfrwt beam="2">  1       -2 0.86954035E-02 0.45974937E+03</pdfrwt>
<totfact> 0.29284495E+03</totfact>
</mgrwt>
</event>
<event>
 4    1  0.5399378E-005  0.4258375E+03  0.7818608E-02  0.1035183E+00
         -2   -1    0    0    0  501 -0.00000000000E+00  0.00000000000E+00  0.28487310846E+02  0.28487310960E+02  0.25500000000E-02 0. -1.
          2   -1    0    0  501    0  0.00000000000E+00 -0.00000000000E+00 -0.15913891661E+04  0.15913891661E+04  0.25500000000E-02 0.  1.
    5000001    1    1    2    0    0 -0.77226674960E+02  0.63765678505E+02 -0.11233728213E+04  0.11398339865E+04  0.16500000000E+03 0.  0.
   -5000001    1    1    2    0    0  0.77226674960E+02 -0.63765678505E+02 -0.43952903392E+03  0.48004249056E+03  0.16500000000E+03 0.  0.
<mgrwt>
<rscale>  0 0.42583752E+03</rscale>
<asrwt>0</asrwt>
<pdfrwt beam="1">  1        2 0.22734125E+00 0.42583752E+03</pdfrwt>
<pdfrwt beam="2">  1       -2 0.40696169E-02 0.42583752E+03</pdfrwt>
<totfact> 0.37619453E+03</totfact>
</mgrwt>
</event>
<event>
 4    1  0.5399378E-005  0.6726863E+03  0.7818608E-02  0.9765117E-01
          2   -1    0    0  501    0  0.00000000000E+00  0.00000000000E+00  0.15693982160E+04  0.15693982160E+04  0.25500000000E-02 0. -1.
         -2   -1    0    0    0  501 -0.00000000000E+00 -0.00000000000E+00 -0.72082864856E+02  0.72082864901E+02  0.25500000000E-02 0.  1.
    5000001    1    1    2    0    0 -0.47073626390E+02 -0.24241666227E+03  0.36344823967E+03  0.46936274604E+03  0.16500000000E+03 0.  0.
   -5000001    1    1    2    0    0  0.47073626390E+02  0.24241666227E+03  0.11338671115E+04  0.11721183349E+04  0.16500000000E+03 0.  0.
<mgrwt>
<rscale>  0 0.67268631E+03</rscale>
<asrwt>0</asrwt>
<pdfrwt beam="1">  1        2 0.22419976E+00 0.67268631E+03</pdfrwt>
<pdfrwt beam="2">  1       -2 0.10297551E-01 0.67268631E+03</pdfrwt>
<totfact> 0.89122751E+02</totfact>
</mgrwt>
</event>
<event>
 4    1  0.5399378E-005  0.4072364E+03  0.7818608E-02  0.1041302E+00
          2   -1    0    0  501    0  0.00000000000E+00  0.00000000000E+00  0.11308557280E+04  0.11308557280E+04  0.25500000000E-02 0.  1.
         -2   -1    0    0    0  501 -0.00000000000E+00 -0.00000000000E+00 -0.36662834213E+02  0.36662834302E+02  0.25500000000E-02 0. -1.
    5000001    1    1    2    0    0  0.10000794468E+03  0.46018641060E+02  0.67897749196E+03  0.70735757500E+03  0.16500000000E+03 0.  0.
   -5000001    1    1    2    0    0 -0.10000794468E+03 -0.46018641060E+02  0.41521540186E+03  0.46016098733E+03  0.16500000000E+03 0.  0.
<mgrwt>
<rscale>  0 0.40723642E+03</rscale>
<asrwt>0</asrwt>
<pdfrwt beam="1">  1        2 0.16155078E+00 0.40723642E+03</pdfrwt>
<pdfrwt beam="2">  1       -2 0.52375491E-02 0.40723642E+03</pdfrwt>
<totfact> 0.44876942E+03</totfact>
</mgrwt>
</event>
<event>
 4    1  0.5399378E-005  0.4855306E+03  0.7818608E-02  0.1017626E+00
          2   -1    0    0  501    0  0.00000000000E+00  0.00000000000E+00  0.48403611818E+04  0.48403611818E+04  0.25500000000E-02 0.  1.
         -2   -1    0    0    0  501 -0.00000000000E+00 -0.00000000000E+00 -0.12175743303E+02  0.12175743570E+02  0.25500000000E-02 0. -1.
    5000001    1    1    2    0    0 -0.10561512256E+03  0.13031910024E+03  0.18167402302E+04  0.18319136678E+04  0.16500000000E+03 0.  0.
   -5000001    1    1    2    0    0  0.10561512256E+03 -0.13031910024E+03  0.30114452083E+04  0.30206232576E+04  0.16500000000E+03 0.  0.
<mgrwt>
<rscale>  0 0.48553062E+03</rscale>
<asrwt>0</asrwt>
<pdfrwt beam="1">  1        2 0.69148065E+00 0.48553062E+03</pdfrwt>
<pdfrwt beam="2">  1       -2 0.17393907E-02 0.48553062E+03</pdfrwt>
<totfact> 0.15300502E+02</totfact>
</mgrwt>
</event>
<event>
 4    1  0.5399378E-005  0.5046250E+03  0.7818608E-02  0.1012579E+00
         -2   -1    0    0    0  501 -0.00000000000E+00  0.00000000000E+00  0.44254980729E+02  0.44254980803E+02  0.25500000000E-02 0. -1.
          2   -1    0    0  501    0  0.00000000000E+00 -0.00000000000E+00 -0.14385182035E+04  0.14385182035E+04  0.25500000000E-02 0.  1.
    5000001    1    1    2    0    0  0.18828572747E+03 -0.18342414919E+02 -0.62229630882E+03  0.67101837182E+03  0.16500000000E+03 0.  0.
   -5000001    1    1    2    0    0 -0.18828572747E+03  0.18342414919E+02 -0.77196691395E+03  0.81175481249E+03  0.16500000000E+03 0.  0.
<mgrwt>
<rscale>  0 0.50462499E+03</rscale>
<asrwt>0</asrwt>
<pdfrwt beam="1">  1        2 0.20550257E+00 0.50462499E+03</pdfrwt>
<pdfrwt beam="2">  1       -2 0.63221410E-02 0.50462499E+03</pdfrwt>
<totfact> 0.22829042E+03</totfact>
</mgrwt>
</event>
<event>
 4    1  0.5399378E-005  0.5182494E+03  0.7818608E-02  0.1009122E+00
         -2   -1    0    0    0  501 -0.00000000000E+00  0.00000000000E+00  0.19476956884E+03  0.19476956886E+03  0.25500000000E-02 0. -1.
          2   -1    0    0  501    0  0.00000000000E+00 -0.00000000000E+00 -0.34474389169E+03  0.34474389170E+03  0.25500000000E-02 0.  1.
    5000001    1    1    2    0    0  0.10827460801E+02  0.19055029912E+03 -0.13452055039E+02  0.25265115908E+03  0.16500000000E+03 0.  0.
   -5000001    1    1    2    0    0 -0.10827460801E+02 -0.19055029912E+03 -0.13652226782E+03  0.28686230148E+03  0.16500000000E+03 0.  0.
<mgrwt>
<rscale>  0 0.51824943E+03</rscale>
<asrwt>0</asrwt>
<pdfrwt beam="1">  1        2 0.49249127E-01 0.51824943E+03</pdfrwt>
<pdfrwt beam="2">  1       -2 0.27824224E-01 0.51824943E+03</pdfrwt>
<totfact> 0.12032914E+03</totfact>
</mgrwt>
</event>
<event>
 4    1  0.5399378E-005  0.7760240E+03  0.7818608E-02  0.9595385E-01
         -2   -1    0    0    0  501 -0.00000000000E+00  0.00000000000E+00  0.67536949380E+02  0.67536949428E+02  0.25500000000E-02 0. -1.
          2   -1    0    0  501    0  0.00000000000E+00 -0.00000000000E+00 -0.22291991019E+04  0.22291991019E+04  0.25500000000E-02 0.  1.
    5000001    1    1    2    0    0 -0.35059077314E+03 -0.18562155817E+02 -0.10560933419E+04  0.11250851482E+04  0.16500000000E+03 0.  0.
   -5000001    1    1    2    0    0  0.35059077314E+03  0.18562155817E+02 -0.11055688106E+04  0.11716509032E+04  0.16500000000E+03 0.  0.
<mgrwt>
<rscale>  0 0.77602399E+03</rscale>
<asrwt>0</asrwt>
<pdfrwt beam="1">  1        2 0.31845697E+00 0.77602399E+03</pdfrwt>
<pdfrwt beam="2">  1       -2 0.96481370E-02 0.77602399E+03</pdfrwt>
<totfact> 0.45482093E+02</totfact>
</mgrwt>
</event>
<event>
 4    1  0.5399378E-005  0.4113409E+03  0.7818608E-02  0.1039922E+00
         -2   -1    0    0    0  501 -0.00000000000E+00  0.00000000000E+00  0.23121160188E+02  0.23121160329E+02  0.25500000000E-02 0. -1.
          2   -1    0    0  501    0  0.00000000000E+00 -0.00000000000E+00 -0.18295076547E+04  0.18295076547E+04  0.25500000000E-02 0.  1.
    5000001    1    1    2    0    0  0.19653660359E+02 -0.80347118578E+02 -0.13118667351E+04  0.13247872496E+04  0.16500000000E+03 0.  0.
   -5000001    1    1    2    0    0 -0.19653660359E+02  0.80347118578E+02 -0.49451975937E+03  0.52784156547E+03  0.16500000000E+03 0.  0.
<mgrwt>
<rscale>  0 0.41134093E+03</rscale>
<asrwt>0</asrwt>
<pdfrwt beam="1">  1        2 0.26135814E+00 0.41134093E+03</pdfrwt>
<pdfrwt beam="2">  1       -2 0.33030241E-02 0.41134093E+03</pdfrwt>
<totfact> 0.39222533E+03</totfact>
</mgrwt>
</event>
<event>
 4    1  0.5399378E-005  0.7044903E+03  0.7818608E-02  0.9709584E-01
         -2   -1    0    0    0  501 -0.00000000000E+00  0.00000000000E+00  0.44635055614E+03  0.44635055615E+03  0.25500000000E-02 0. -1.
          2   -1    0    0  501    0  0.00000000000E+00 -0.00000000000E+00 -0.27798024181E+03  0.27798024182E+03  0.25500000000E-02 0.  1.
    5000001    1    1    2    0    0 -0.24952794191E+03 -0.18463827113E+03  0.10708690884E+03  0.36748889916E+03  0.16500000000E+03 0.  0.
   -5000001    1    1    2    0    0  0.24952794191E+03  0.18463827113E+03  0.61283405489E+02  0.35684189881E+03  0.16500000000E+03 0.  0.
<mgrwt>
<rscale>  0 0.70449027E+03</rscale>
<asrwt>0</asrwt>
<pdfrwt beam="1">  1        2 0.39711463E-01 0.70449027E+03</pdfrwt>
<pdfrwt beam="2">  1       -2 0.63764365E-01 0.70449027E+03</pdfrwt>
<totfact> 0.29805816E+02</totfact>
</mgrwt>
</event>
<event>
 4    1  0.5399378E-005  0.7013709E+03  0.7818608E-02  0.9714891E-01
         -2   -1    0    0    0  501 -0.00000000000E+00  0.00000000000E+00  0.53280788164E+02  0.53280788225E+02  0.25500000000E-02 0. -1.
          2   -1    0    0  501    0  0.00000000000E+00 -0.00000000000E+00 -0.23081541168E+04  0.23081541168E+04  0.25500000000E-02 0.  1.
    5000001    1    1    2    0    0 -0.16647084551E+03 -0.20192977451E+03 -0.16834019705E+04  0.17115943943E+04  0.16500000000E+03 0.  0.
   -5000001    1    1    2    0    0  0.16647084551E+03  0.20192977451E+03 -0.57147135812E+03  0.64984051073E+03  0.16500000000E+03 0.  0.
<mgrwt>
<rscale>  0 0.70137086E+03</rscale>
<asrwt>0</asrwt>
<pdfrwt beam="1">  1        2 0.32973624E+00 0.70137086E+03</pdfrwt>
<pdfrwt beam="2">  1       -2 0.76115426E-02 0.70137086E+03</pdfrwt>
<totfact> 0.61038308E+02</totfact>
</mgrwt>
</event>
<event>
 4    1  0.5399378E-005  0.3980018E+03  0.7818608E-02  0.1044474E+00
          2   -1    0    0  501    0  0.00000000000E+00  0.00000000000E+00  0.38634553398E+03  0.38634553399E+03  0.25500000000E-02 0.  1.
         -2   -1    0    0    0  501 -0.00000000000E+00 -0.00000000000E+00 -0.10250245612E+03  0.10250245615E+03  0.25500000000E-02 0. -1.
    5000001    1    1    2    0    0 -0.10026164226E+03 -0.41020348859E+02  0.17302576862E+03  0.26248425198E+03  0.16500000000E+03 0.  0.
   -5000001    1    1    2    0    0  0.10026164226E+03  0.41020348859E+02  0.11081730924E+03  0.22636373817E+03  0.16500000000E+03 0.  0.
<mgrwt>
<rscale>  0 0.39800184E+03</rscale>
<asrwt>0</asrwt>
<pdfrwt beam="1">  1        2 0.55192218E-01 0.39800184E+03</pdfrwt>
<pdfrwt beam="2">  1       -2 0.14643208E-01 0.39800184E+03</pdfrwt>
<totfact> 0.32274916E+03</totfact>
</mgrwt>
</event>
<event>
 4    1  0.5399378E-005  0.3600430E+03  0.7818608E-02  0.1058567E+00
          2   -1    0    0  501    0  0.00000000000E+00  0.00000000000E+00  0.90404518158E+03  0.90404518159E+03  0.25500000000E-02 0.  1.
         -2   -1    0    0    0  501 -0.00000000000E+00 -0.00000000000E+00 -0.35847472198E+02  0.35847472288E+02  0.25500000000E-02 0. -1.
    5000001    1    1    2    0    0  0.70449777239E+02 -0.14728453101E+02  0.42986041596E+03  0.46603119601E+03  0.16500000000E+03 0.  0.
   -5000001    1    1    2    0    0 -0.70449777239E+02  0.14728453101E+02  0.43833729342E+03  0.47386145786E+03  0.16500000000E+03 0.  0.
<mgrwt>
<rscale>  0 0.36004297E+03</rscale>
<asrwt>0</asrwt>
<pdfrwt beam="1">  1        2 0.12914930E+00 0.36004297E+03</pdfrwt>
<pdfrwt beam="2">  1       -2 0.51210680E-02 0.36004297E+03</pdfrwt>
<totfact> 0.63268512E+03</totfact>
</mgrwt>
</event>
<event>
 4    1  0.5399378E-005  0.5883622E+03  0.7818608E-02  0.9929849E-01
          2   -1    0    0  501    0  0.00000000000E+00  0.00000000000E+00  0.96036618327E+03  0.96036618327E+03  0.25500000000E-02 0.  1.
         -2   -1    0    0    0  501 -0.00000000000E+00 -0.00000000000E+00 -0.90114083708E+02  0.90114083744E+02  0.25500000000E-02 0. -1.
    5000001    1    1    2    0    0  0.23964662042E+03 -0.41591247140E+02  0.41274154505E+03  0.50669608004E+03  0.16500000000E+03 0.  0.
   -5000001    1    1    2    0    0 -0.23964662042E+03  0.41591247140E+02  0.45751055451E+03  0.54378418698E+03  0.16500000000E+03 0.  0.
<mgrwt>
<rscale>  0 0.58836220E+03</rscale>
<asrwt>0</asrwt>
<pdfrwt beam="1">  1        2 0.13719517E+00 0.58836220E+03</pdfrwt>
<pdfrwt beam="2">  1       -2 0.12873441E-01 0.58836220E+03</pdfrwt>
<totfact> 0.13520889E+03</totfact>
</mgrwt>
</event>
<event>
 4    1  0.5399378E-005  0.4299139E+03  0.7818608E-02  0.1033887E+00
         -2   -1    0    0    0  501 -0.00000000000E+00  0.00000000000E+00  0.16474791681E+02  0.16474791878E+02  0.25500000000E-02 0. -1.
          2   -1    0    0  501    0  0.00000000000E+00 -0.00000000000E+00 -0.28046786723E+04  0.28046786723E+04  0.25500000000E-02 0.  1.
    5000001    1    1    2    0    0  0.16058105266E+02 -0.10222428487E+03 -0.19909976930E+04  0.20005010574E+04  0.16500000000E+03 0.  0.
   -5000001    1    1    2    0    0 -0.16058105266E+02  0.10222428487E+03 -0.79720618765E+03  0.82065240680E+03  0.16500000000E+03 0.  0.
<mgrwt>
<rscale>  0 0.42991393E+03</rscale>
<asrwt>0</asrwt>
<pdfrwt beam="1">  1        2 0.40066808E+00 0.42991393E+03</pdfrwt>
<pdfrwt beam="2">  1       -2 0.23535435E-02 0.42991393E+03</pdfrwt>
<totfact> 0.21052868E+03</totfact>
</mgrwt>
</event>
<event>
 4    1  0.5399378E-005  0.6324986E+03  0.7818608E-02  0.9840185E-01
          2   -1    0    0  501    0  0.00000000000E+00  0.00000000000E+00  0.76312139281E+03  0.76312139281E+03  0.25500000000E-02 0.  1.
         -2   -1    0    0    0  501 -0.00000000000E+00 -0.00000000000E+00 -0.13105860976E+03  0.13105860978E+03  0.25500000000E-02 0. -1.
    5000001    1    1    2    0    0 -0.21473333385E+03  0.42973187587E+02  0.53880672301E+03  0.60456164638E+03  0.16500000000E+03 0.  0.
   -5000001    1    1    2    0    0  0.21473333385E+03 -0.42973187587E+02  0.93256060047E+02  0.28961835621E+03  0.16500000000E+03 0.  0.
<mgrwt>
<rscale>  0 0.63249863E+03</rscale>
<asrwt>0</asrwt>
<pdfrwt beam="1">  1        2 0.10901734E+00 0.63249863E+03</pdfrwt>
<pdfrwt beam="2">  1       -2 0.18722659E-01 0.63249863E+03</pdfrwt>
<totfact> 0.96983501E+02</totfact>
</mgrwt>
</event>
<event>
 4    1  0.5399378E-005  0.4362202E+03  0.7818608E-02  0.1031913E+00
         -2   -1    0    0    0  501 -0.00000000000E+00  0.00000000000E+00  0.28939092548E+03  0.28939092549E+03  0.25500000000E-02 0. -1.
          2   -1    0    0  501    0  0.00000000000E+00 -0.00000000000E+00 -0.16438668143E+03  0.16438668145E+03  0.25500000000E-02 0.  1.
    5000001    1    1    2    0    0 -0.11316801518E+03  0.37129049275E+02 -0.19152107916E+02  0.20439513007E+03  0.16500000000E+03 0.  0.
   -5000001    1    1    2    0    0  0.11316801518E+03 -0.37129049275E+02  0.14415635196E+03  0.24938247687E+03  0.16500000000E+03 0.  0.
<mgrwt>
<rscale>  0 0.43622019E+03</rscale>
<asrwt>0</asrwt>
<pdfrwt beam="1">  1        2 0.23483812E-01 0.43622019E+03</pdfrwt>
<pdfrwt beam="2">  1       -2 0.41341560E-01 0.43622019E+03</pdfrwt>
<totfact> 0.13019010E+03</totfact>
</mgrwt>
</event>
<event>
 4    1  0.5399378E-005  0.4519074E+03  0.7818608E-02  0.1027155E+00
         -2   -1    0    0    0  501 -0.00000000000E+00  0.00000000000E+00  0.78415734855E+02  0.78415734897E+02  0.25500000000E-02 0. -1.
          2   -1    0    0  501    0  0.00000000000E+00 -0.00000000000E+00 -0.65108203961E+03  0.65108203961E+03  0.25500000000E-02 0.  1.
    5000001    1    1    2    0    0 -0.14362125658E+03  0.41095385530E+02 -0.22351815570E+03  0.31543820628E+03  0.16500000000E+03 0.  0.
   -5000001    1    1    2    0    0  0.14362125658E+03 -0.41095385530E+02 -0.34914814905E+03  0.41405956823E+03  0.16500000000E+03 0.  0.
<mgrwt>
<rscale>  0 0.45190741E+03</rscale>
<asrwt>0</asrwt>
<pdfrwt beam="1">  1        2 0.93011717E-01 0.45190741E+03</pdfrwt>
<pdfrwt beam="2">  1       -2 0.11202248E-01 0.45190741E+03</pdfrwt>
<totfact> 0.27837239E+03</totfact>
</mgrwt>
</event>
<event>
 4    1  0.5399378E-005  0.6909859E+03  0.7818608E-02  0.9732773E-01
         -2   -1    0    0    0  501 -0.00000000000E+00  0.00000000000E+00  0.11620999407E+03  0.11620999409E+03  0.25500000000E-02 0. -1.
          2   -1    0    0  501    0  0.00000000000E+00 -0.00000000000E+00 -0.10271525613E+04  0.10271525613E+04  0.25500000000E-02 0.  1.
    5000001    1    1    2    0    0 -0.58805966216E+02 -0.26430538611E+03 -0.68250024219E+03  0.75256033604E+03  0.16500000000E+03 0.  0.
   -5000001    1    1    2    0    0  0.58805966216E+02  0.26430538611E+03 -0.22844232506E+03  0.39080221937E+03  0.16500000000E+03 0.  0.
<mgrwt>
<rscale>  0 0.69098594E+03</rscale>
<asrwt>0</asrwt>
<pdfrwt beam="1">  1        2 0.14673607E+00 0.69098594E+03</pdfrwt>
<pdfrwt beam="2">  1       -2 0.16601428E-01 0.69098594E+03</pdfrwt>
<totfact> 0.80025863E+02</totfact>
</mgrwt>
</event>
<event>
 4    1  0.5399378E-005  0.6246964E+03  0.7818608E-02  0.9855453E-01
          2   -1    0    0  501    0  0.00000000000E+00  0.00000000000E+00  0.45254947917E+04  0.45254947917E+04  0.25500000000E-02 0.  1.
         -2   -1    0    0    0  501 -0.00000000000E+00 -0.00000000000E+00 -0.21558169429E+02  0.21558169579E+02  0.25500000000E-02 0. -1.
    5000001    1    1    2    0    0 -0.67194005902E+02 -0.22379488952E+03  0.31650817386E+04  0.31779815290E+04  0.16500000000E+03 0.  0.
   -5000001    1    1    2    0    0  0.67194005902E+02  0.22379488952E+03  0.13388548837E+04  0.13690714322E+04  0.16500000000E+03 0.  0.
<mgrwt>
<rscale>  0 0.62469635E+03</rscale>
<asrwt>0</asrwt>
<pdfrwt beam="1">  1        2 0.64650028E+00 0.62469635E+03</pdfrwt>
<pdfrwt beam="2">  1       -2 0.30797336E-02 0.62469635E+03</pdfrwt>
<totfact> 0.11461732E+02</totfact>
</mgrwt>
</event>
<event>
 4    1  0.5399378E-005  0.5085642E+03  0.7818608E-02  0.1011567E+00
         -2   -1    0    0    0  501 -0.00000000000E+00  0.00000000000E+00  0.13448761717E+03  0.13448761720E+03  0.25500000000E-02 0. -1.
          2   -1    0    0  501    0  0.00000000000E+00 -0.00000000000E+00 -0.48078322935E+03  0.48078322935E+03  0.25500000000E-02 0.  1.
    5000001    1    1    2    0    0  0.13832071941E+03 -0.10986301704E+03 -0.77641879804E+02  0.25388140032E+03  0.16500000000E+03 0.  0.
   -5000001    1    1    2    0    0 -0.13832071941E+03  0.10986301704E+03 -0.26865373237E+03  0.36138944623E+03  0.16500000000E+03 0.  0.
<mgrwt>
<rscale>  0 0.50856422E+03</rscale>
<asrwt>0</asrwt>
<pdfrwt beam="1">  1        2 0.68683317E-01 0.50856422E+03</pdfrwt>
<pdfrwt beam="2">  1       -2 0.19212517E-01 0.50856422E+03</pdfrwt>
<totfact> 0.16030113E+03</totfact>
</mgrwt>
</event>
<event>
 4    1  0.5399378E-005  0.9634208E+03  0.7818608E-02  0.9349600E-01
         -2   -1    0    0    0  501 -0.00000000000E+00  0.00000000000E+00  0.21605599247E+03  0.21605599249E+03  0.25500000000E-02 0. -1.
          2   -1    0    0  501    0  0.00000000000E+00 -0.00000000000E+00 -0.10740034693E+04  0.10740034693E+04  0.25500000000E-02 0.  1.
    5000001    1    1    2    0    0  0.38892129792E+03 -0.14044460615E+03 -0.67528231356E+03  0.80883599474E+03  0.16500000000E+03 0.  0.
   -5000001    1    1    2    0    0 -0.38892129792E+03  0.14044460615E+03 -0.18266516327E+03  0.48122346705E+03  0.16500000000E+03 0.  0.
<mgrwt>
<rscale>  0 0.96342075E+03</rscale>
<asrwt>0</asrwt>
<pdfrwt beam="1">  1        2 0.15342906E+00 0.96342075E+03</pdfrwt>
<pdfrwt beam="2">  1       -2 0.30865142E-01 0.96342075E+03</pdfrwt>
<totfact> 0.24547518E+02</totfact>
</mgrwt>
</event>
<event>
 4    1  0.5399378E-005  0.5964843E+03  0.7818608E-02  0.9912727E-01
          2   -1    0    0  501    0  0.00000000000E+00  0.00000000000E+00  0.11497386600E+03  0.11497386603E+03  0.25500000000E-02 0.  1.
         -2   -1    0    0    0  501 -0.00000000000E+00 -0.00000000000E+00 -0.77363987523E+03  0.77363987524E+03  0.25500000000E-02 0. -1.
    5000001    1    1    2    0    0  0.23426278331E+03  0.93002944133E+01 -0.20686649053E+03  0.35353117547E+03  0.16500000000E+03 0.  0.
   -5000001    1    1    2    0    0 -0.23426278331E+03 -0.93002944133E+01 -0.45179951870E+03  0.53508256580E+03  0.16500000000E+03 0.  0.
<mgrwt>
<rscale>  0 0.59648426E+03</rscale>
<asrwt>0</asrwt>
<pdfrwt beam="1">  1        2 0.16424838E-01 0.59648426E+03</pdfrwt>
<pdfrwt beam="2">  1       -2 0.11051998E+00 0.59648426E+03</pdfrwt>
<totfact> 0.23626189E+02</totfact>
</mgrwt>
</event>
<event>
 4    1  0.5399378E-005  0.9506352E+03  0.7818608E-02  0.9364408E-01
          2   -1    0    0  501    0  0.00000000000E+00  0.00000000000E+00  0.15383383597E+03  0.15383383599E+03  0.25500000000E-02 0.  1.
         -2   -1    0    0    0  501 -0.00000000000E+00 -0.00000000000E+00 -0.14686418019E+04  0.14686418019E+04  0.25500000000E-02 0. -1.
    5000001    1    1    2    0    0  0.41062616351E+03 -0.15729472049E+03 -0.78219751113E+03  0.91236693368E+03  0.16500000000E+03 0.  0.
   -5000001    1    1    2    0    0 -0.41062616351E+03  0.15729472049E+03 -0.53261045484E+03  0.71010870425E+03  0.16500000000E+03 0.  0.
<mgrwt>
<rscale>  0 0.95063516E+03</rscale>
<asrwt>0</asrwt>
<pdfrwt beam="1">  1        2 0.21976263E-01 0.95063516E+03</pdfrwt>
<pdfrwt beam="2">  1       -2 0.20980596E+00 0.95063516E+03</pdfrwt>
<totfact> 0.29384348E+01</totfact>
</mgrwt>
</event>
<event>
 4    1  0.5399378E-005  0.6572476E+03  0.7818608E-02  0.9793274E-01
          2   -1    0    0  501    0  0.00000000000E+00  0.00000000000E+00  0.94879333611E+03  0.94879333611E+03  0.25500000000E-02 0.  1.
         -2   -1    0    0    0  501 -0.00000000000E+00 -0.00000000000E+00 -0.11382203368E+03  0.11382203371E+03  0.25500000000E-02 0. -1.
    5000001    1    1    2    0    0 -0.24294173049E+03 -0.43483108856E+02  0.64531268994E+03  0.71032734213E+03  0.16500000000E+03 0.  0.
   -5000001    1    1    2    0    0  0.24294173049E+03  0.43483108856E+02  0.18965861248E+03  0.35228802769E+03  0.16500000000E+03 0.  0.
<mgrwt>
<rscale>  0 0.65724755E+03</rscale>
<asrwt>0</asrwt>
<pdfrwt beam="1">  1        2 0.13554190E+00 0.65724755E+03</pdfrwt>
<pdfrwt beam="2">  1       -2 0.16260292E-01 0.65724755E+03</pdfrwt>
<totfact> 0.92745469E+02</totfact>
</mgrwt>
</event>
<event>
 4    1  0.5399378E-005  0.3972837E+03  0.7818608E-02  0.1044724E+00
         -2   -1    0    0    0  501 -0.00000000000E+00  0.00000000000E+00  0.55509389256E+02  0.55509389315E+02  0.25500000000E-02 0. -1.
          2   -1    0    0  501    0  0.00000000000E+00 -0.00000000000E+00 -0.71084532743E+03  0.71084532743E+03  0.25500000000E-02 0.  1.
    5000001    1    1    2    0    0 -0.18510156975E+01  0.10840115363E+03 -0.28543446931E+03  0.34706205877E+03  0.16500000000E+03 0.  0.
   -5000001    1    1    2    0    0  0.18510156975E+01 -0.10840115363E+03 -0.36990146886E+03  0.41929265798E+03  0.16500000000E+03 0.  0.
<mgrwt>
<rscale>  0 0.39728373E+03</rscale>
<asrwt>0</asrwt>
<pdfrwt beam="1">  1        2 0.10154933E+00 0.39728373E+03</pdfrwt>
<pdfrwt beam="2">  1       -2 0.79299132E-02 0.39728373E+03</pdfrwt>
<totfact> 0.43479240E+03</totfact>
</mgrwt>
</event>
<event>
 4    1  0.5399378E-005  0.4302867E+03  0.7818608E-02  0.1033769E+00
          2   -1    0    0  501    0  0.00000000000E+00  0.00000000000E+00  0.23149949069E+04  0.23149949069E+04  0.25500000000E-02 0.  1.
         -2   -1    0    0    0  501 -0.00000000000E+00 -0.00000000000E+00 -0.19994286067E+02  0.19994286230E+02  0.25500000000E-02 0. -1.
    5000001    1    1    2    0    0  0.12032736760E+03  0.46936409910E+02  0.88276460185E+03  0.90729270042E+03  0.16500000000E+03 0.  0.
   -5000001    1    1    2    0    0 -0.12032736760E+03 -0.46936409910E+02  0.14122360190E+04  0.14276964927E+04  0.16500000000E+03 0.  0.
<mgrwt>
<rscale>  0 0.43028674E+03</rscale>
<asrwt>0</asrwt>
<pdfrwt beam="1">  1        2 0.33071328E+00 0.43028674E+03</pdfrwt>
<pdfrwt beam="2">  1       -2 0.28563290E-02 0.43028674E+03</pdfrwt>
<totfact> 0.28005891E+03</totfact>
</mgrwt>
</event>
<event>
 4    1  0.5399378E-005  0.4237348E+03  0.7818608E-02  0.1035858E+00
         -2   -1    0    0    0  501 -0.00000000000E+00  0.00000000000E+00  0.54357091861E+02  0.54357091921E+02  0.25500000000E-02 0. -1.
          2   -1    0    0  501    0  0.00000000000E+00 -0.00000000000E+00 -0.82579476398E+03  0.82579476399E+03  0.25500000000E-02 0.  1.
    5000001    1    1    2    0    0 -0.11932439488E+03 -0.10519487594E+02 -0.26614707522E+03  0.33527337574E+03  0.16500000000E+03 0.  0.
   -5000001    1    1    2    0    0  0.11932439488E+03  0.10519487594E+02 -0.50529059690E+03  0.54487848017E+03  0.16500000000E+03 0.  0.
<mgrwt>
<rscale>  0 0.42373483E+03</rscale>
<asrwt>0</asrwt>
<pdfrwt beam="1">  1        2 0.11797067E+00 0.42373483E+03</pdfrwt>
<pdfrwt beam="2">  1       -2 0.77652993E-02 0.42373483E+03</pdfrwt>
<totfact> 0.37345209E+03</totfact>
</mgrwt>
</event>
<event>
 4    1  0.5399378E-005  0.5350853E+03  0.7818608E-02  0.1005006E+00
         -2   -1    0    0    0  501 -0.00000000000E+00  0.00000000000E+00  0.31507195020E+03  0.31507195021E+03  0.25500000000E-02 0. -1.
          2   -1    0    0  501    0  0.00000000000E+00 -0.00000000000E+00 -0.22718328278E+03  0.22718328280E+03  0.25500000000E-02 0.  1.
    5000001    1    1    2    0    0 -0.18592060261E+03 -0.87641997076E+02  0.90455837880E+02  0.27866619589E+03  0.16500000000E+03 0.  0.
   -5000001    1    1    2    0    0  0.18592060261E+03  0.87641997076E+02 -0.25671704569E+01  0.26358903712E+03  0.16500000000E+03 0.  0.
<mgrwt>
<rscale>  0 0.53508534E+03</rscale>
<asrwt>0</asrwt>
<pdfrwt beam="1">  1        2 0.32454755E-01 0.53508534E+03</pdfrwt>
<pdfrwt beam="2">  1       -2 0.45010278E-01 0.53508534E+03</pdfrwt>
<totfact> 0.76582859E+02</totfact>
</mgrwt>
</event>
<event>
 4    1  0.5399378E-005  0.5714392E+03  0.7818608E-02  0.9966499E-01
          2   -1    0    0  501    0  0.00000000000E+00  0.00000000000E+00  0.45523112993E+03  0.45523112994E+03  0.25500000000E-02 0.  1.
         -2   -1    0    0    0  501 -0.00000000000E+00 -0.00000000000E+00 -0.17932799769E+03  0.17932799770E+03  0.25500000000E-02 0. -1.
    5000001    1    1    2    0    0 -0.99847891237E+02 -0.15174981755E+03 -0.24544042374E+02  0.24662728666E+03  0.16500000000E+03 0.  0.
   -5000001    1    1    2    0    0  0.99847891237E+02  0.15174981755E+03  0.30044717462E+03  0.38793184098E+03  0.16500000000E+03 0.  0.
<mgrwt>
<rscale>  0 0.57143919E+03</rscale>
<asrwt>0</asrwt>
<pdfrwt beam="1">  1        2 0.65033019E-01 0.57143919E+03</pdfrwt>
<pdfrwt beam="2">  1       -2 0.25618285E-01 0.57143919E+03</pdfrwt>
<totfact> 0.10264189E+03</totfact>
</mgrwt>
</event>
<event>
 4    1  0.5399378E-005  0.4897975E+03  0.7818608E-02  0.1016477E+00
         -2   -1    0    0    0  501 -0.00000000000E+00  0.00000000000E+00  0.17573750654E+03  0.17573750656E+03  0.25500000000E-02 0. -1.
          2   -1    0    0  501    0  0.00000000000E+00 -0.00000000000E+00 -0.34127824333E+03  0.34127824334E+03  0.25500000000E-02 0.  1.
    5000001    1    1    2    0    0  0.10012894850E+03 -0.12684900608E+03  0.32046073261E+01  0.23097996922E+03  0.16500000000E+03 0.  0.
   -5000001    1    1    2    0    0 -0.10012894850E+03  0.12684900608E+03 -0.16874534412E+03  0.28603578069E+03  0.16500000000E+03 0.  0.
<mgrwt>
<rscale>  0 0.48979746E+03</rscale>
<asrwt>0</asrwt>
<pdfrwt beam="1">  1        2 0.48754035E-01 0.48979746E+03</pdfrwt>
<pdfrwt beam="2">  1       -2 0.25105358E-01 0.48979746E+03</pdfrwt>
<totfact> 0.14645365E+03</totfact>
</mgrwt>
</event>
<event>
 4    1  0.5399378E-005  0.5681274E+03  0.7818608E-02  0.9973831E-01
          2   -1    0    0  501    0  0.00000000000E+00  0.00000000000E+00  0.53553198058E+03  0.53553198059E+03  0.25500000000E-02 0. -1.
         -2   -1    0    0    0  501 -0.00000000000E+00 -0.00000000000E+00 -0.15067668311E+03  0.15067668313E+03  0.25500000000E-02 0.  1.
    5000001    1    1    2    0    0 -0.14918124578E+03 -0.17655979507E+03  0.19994905016E+03  0.34732265689E+03  0.16500000000E+03 0.  0.
   -5000001    1    1    2    0    0  0.14918124578E+03  0.17655979507E+03  0.18490624731E+03  0.33888600683E+03  0.16500000000E+03 0.  0.
<mgrwt>
<rscale>  0 0.56812739E+03</rscale>
<asrwt>0</asrwt>
<pdfrwt beam="1">  1        2 0.76504569E-01 0.56812739E+03</pdfrwt>
<pdfrwt beam="2">  1       -2 0.21525240E-01 0.56812739E+03</pdfrwt>
<totfact> 0.11633065E+03</totfact>
</mgrwt>
</event>
<event>
 4    1  0.5399378E-005  0.4096499E+03  0.7818608E-02  0.1040489E+00
         -2   -1    0    0    0  501 -0.00000000000E+00  0.00000000000E+00  0.11827557884E+02  0.11827558159E+02  0.25500000000E-02 0. -1.
          2   -1    0    0  501    0  0.00000000000E+00 -0.00000000000E+00 -0.35470773818E+04  0.35470773818E+04  0.25500000000E-02 0.  1.
    5000001    1    1    2    0    0  0.86946931978E+02 -0.25579707555E+02 -0.10664390265E+04  0.10829271848E+04  0.16500000000E+03 0.  0.
   -5000001    1    1    2    0    0 -0.86946931978E+02  0.25579707555E+02 -0.24688107974E+04  0.24759777552E+04  0.16500000000E+03 0.  0.
<mgrwt>
<rscale>  0 0.40964992E+03</rscale>
<asrwt>0</asrwt>
<pdfrwt beam="1">  1        2 0.50672466E+00 0.40964992E+03</pdfrwt>
<pdfrwt beam="2">  1       -2 0.16896534E-02 0.40964992E+03</pdfrwt>
<totfact> 0.13384358E+03</totfact>
</mgrwt>
</event>
<event>
 4    1  0.5399378E-005  0.3764921E+03  0.7818608E-02  0.1052238E+00
         -2   -1    0    0    0  501 -0.00000000000E+00  0.00000000000E+00  0.52100170225E+02  0.52100170288E+02  0.25500000000E-02 0. -1.
          2   -1    0    0  501    0  0.00000000000E+00 -0.00000000000E+00 -0.68016231285E+03  0.68016231285E+03  0.25500000000E-02 0.  1.
    5000001    1    1    2    0    0 -0.37194502872E+02 -0.81940806858E+02 -0.29327865169E+03  0.34833187395E+03  0.16500000000E+03 0.  0.
   -5000001    1    1    2    0    0  0.37194502872E+02  0.81940806858E+02 -0.33478349093E+03  0.38393060919E+03  0.16500000000E+03 0.  0.
<mgrwt>
<rscale>  0 0.37649208E+03</rscale>
<asrwt>0</asrwt>
<pdfrwt beam="1">  1        2 0.97166040E-01 0.37649208E+03</pdfrwt>
<pdfrwt beam="2">  1       -2 0.74428818E-02 0.37649208E+03</pdfrwt>
<totfact> 0.50599132E+03</totfact>
</mgrwt>
</event>
<event>
 4    1  0.5399378E-005  0.6506164E+03  0.7818608E-02  0.9805623E-01
         -2   -1    0    0    0  501 -0.00000000000E+00  0.00000000000E+00  0.24464047592E+02  0.24464047725E+02  0.25500000000E-02 0. -1.
          2   -1    0    0  501    0  0.00000000000E+00 -0.00000000000E+00 -0.43257527445E+04  0.43257527445E+04  0.25500000000E-02 0.  1.
    5000001    1    1    2    0    0 -0.25775243943E+03  0.10207879071E+03 -0.18714144932E+04  0.18990191165E+04  0.16500000000E+03 0.  0.
   -5000001    1    1    2    0    0  0.25775243943E+03 -0.10207879071E+03 -0.24298742037E+04  0.24511976757E+04  0.16500000000E+03 0.  0.
<mgrwt>
<rscale>  0 0.65061639E+03</rscale>
<asrwt>0</asrwt>
<pdfrwt beam="1">  1        2 0.61796419E+00 0.65061639E+03</pdfrwt>
<pdfrwt beam="2">  1       -2 0.34948667E-02 0.65061639E+03</pdfrwt>
<totfact> 0.13328916E+02</totfact>
</mgrwt>
</event>
<event>
 4    1  0.5399378E-005  0.7816450E+03  0.7818608E-02  0.9586972E-01
          2   -1    0    0  501    0  0.00000000000E+00  0.00000000000E+00  0.76136770089E+03  0.76136770089E+03  0.25500000000E-02 0.  1.
         -2   -1    0    0    0  501 -0.00000000000E+00 -0.00000000000E+00 -0.20061560864E+03  0.20061560866E+03  0.25500000000E-02 0. -1.
    5000001    1    1    2    0    0 -0.30075356712E+03 -0.33408384865E+02  0.50713670871E+03  0.61317327864E+03  0.16500000000E+03 0.  0.
   -5000001    1    1    2    0    0  0.30075356712E+03  0.33408384865E+02  0.53615383529E+02  0.34881003091E+03  0.16500000000E+03 0.  0.
<mgrwt>
<rscale>  0 0.78164505E+03</rscale>
<asrwt>0</asrwt>
<pdfrwt beam="1">  1        2 0.10876681E+00 0.78164505E+03</pdfrwt>
<pdfrwt beam="2">  1       -2 0.28659373E-01 0.78164505E+03</pdfrwt>
<totfact> 0.45342372E+02</totfact>
</mgrwt>
</event>
<event>
 4    1  0.5399378E-005  0.4418307E+03  0.7818608E-02  0.1030187E+00
          2   -1    0    0  501    0  0.00000000000E+00  0.00000000000E+00  0.19607515469E+04  0.19607515469E+04  0.25500000000E-02 0.  1.
         -2   -1    0    0    0  501 -0.00000000000E+00 -0.00000000000E+00 -0.24890242793E+02  0.24890242924E+02  0.25500000000E-02 0. -1.
    5000001    1    1    2    0    0  0.90102060733E+02  0.88555058484E+01  0.14878093413E+04  0.14996661086E+04  0.16500000000E+03 0.  0.
   -5000001    1    1    2    0    0 -0.90102060733E+02 -0.88555058484E+01  0.44805196281E+03  0.48597568120E+03  0.16500000000E+03 0.  0.
<mgrwt>
<rscale>  0 0.44183066E+03</rscale>
<asrwt>0</asrwt>
<pdfrwt beam="1">  1        2 0.28010733E+00 0.44183066E+03</pdfrwt>
<pdfrwt beam="2">  1       -2 0.35557494E-02 0.44183066E+03</pdfrwt>
<totfact> 0.30170340E+03</totfact>
</mgrwt>
</event>
<event>
 4    1  0.5399378E-005  0.5289040E+03  0.7818608E-02  0.1006498E+00
          2   -1    0    0  501    0  0.00000000000E+00  0.00000000000E+00  0.28567151098E+04  0.28567151098E+04  0.25500000000E-02 0.  1.
         -2   -1    0    0    0  501 -0.00000000000E+00 -0.00000000000E+00 -0.24480868882E+02  0.24480869015E+02  0.25500000000E-02 0. -1.
    5000001    1    1    2    0    0  0.16905525364E+03  0.18069920959E+02  0.20561365628E+04  0.20697412315E+04  0.16500000000E+03 0.  0.
   -5000001    1    1    2    0    0 -0.16905525364E+03 -0.18069920959E+02  0.77609767813E+03  0.81145474724E+03  0.16500000000E+03 0.  0.
<mgrwt>
<rscale>  0 0.52890403E+03</rscale>
<asrwt>0</asrwt>
<pdfrwt beam="1">  1        2 0.40810214E+00 0.52890403E+03</pdfrwt>
<pdfrwt beam="2">  1       -2 0.34972671E-02 0.52890403E+03</pdfrwt>
<totfact> 0.10781301E+03</totfact>
</mgrwt>
</event>
<event>
 4    1  0.5399378E-005  0.6735772E+03  0.7818608E-02  0.9763517E-01
          2   -1    0    0  501    0  0.00000000000E+00  0.00000000000E+00  0.60126194488E+03  0.60126194488E+03  0.25500000000E-02 0.  1.
         -2   -1    0    0    0  501 -0.00000000000E+00 -0.00000000000E+00 -0.18864751881E+03  0.18864751882E+03  0.25500000000E-02 0. -1.
    5000001    1    1    2    0    0 -0.23184277094E+03 -0.11299648065E+03  0.41783756073E+02  0.30901481736E+03  0.16500000000E+03 0.  0.
   -5000001    1    1    2    0    0  0.23184277094E+03  0.11299648065E+03  0.37083067000E+03  0.48089464635E+03  0.16500000000E+03 0.  0.
<mgrwt>
<rscale>  0 0.67357724E+03</rscale>
<asrwt>0</asrwt>
<pdfrwt beam="1">  1        2 0.85894563E-01 0.67357724E+03</pdfrwt>
<pdfrwt beam="2">  1       -2 0.26949646E-01 0.67357724E+03</pdfrwt>
<totfact> 0.67916409E+02</totfact>
</mgrwt>
</event>
<event>
 4    1  0.5399378E-005  0.5786932E+03  0.7818608E-02  0.9950624E-01
         -2   -1    0    0    0  501 -0.00000000000E+00  0.00000000000E+00  0.20295703982E+03  0.20295703984E+03  0.25500000000E-02 0. -1.
          2   -1    0    0  501    0  0.00000000000E+00 -0.00000000000E+00 -0.41250819700E+03  0.41250819700E+03  0.25500000000E-02 0.  1.
    5000001    1    1    2    0    0 -0.26152516572E+02  0.23052473216E+03 -0.15973964008E+03  0.32644656358E+03  0.16500000000E+03 0.  0.
   -5000001    1    1    2    0    0  0.26152516572E+02 -0.23052473216E+03 -0.49811517093E+02  0.28901867326E+03  0.16500000000E+03 0.  0.
<mgrwt>
<rscale>  0 0.57869316E+03</rscale>
<asrwt>0</asrwt>
<pdfrwt beam="1">  1        2 0.58929742E-01 0.57869316E+03</pdfrwt>
<pdfrwt beam="2">  1       -2 0.28993863E-01 0.57869316E+03</pdfrwt>
<totfact> 0.91493885E+02</totfact>
</mgrwt>
</event>
<event>
 4    1  0.5399378E-005  0.5693457E+03  0.7818608E-02  0.9971127E-01
         -2   -1    0    0    0  501 -0.00000000000E+00  0.00000000000E+00  0.57210231587E+03  0.57210231588E+03  0.25500000000E-02 0. -1.
          2   -1    0    0  501    0  0.00000000000E+00 -0.00000000000E+00 -0.14165060402E+03  0.14165060404E+03  0.25500000000E-02 0.  1.
    5000001    1    1    2    0    0  0.50308345333E+02 -0.22525055493E+03  0.24448952958E+03  0.37452486190E+03  0.16500000000E+03 0.  0.
   -5000001    1    1    2    0    0 -0.50308345333E+02  0.22525055493E+03  0.18596218228E+03  0.33922805802E+03  0.16500000000E+03 0.  0.
<mgrwt>
<rscale>  0 0.56934572E+03</rscale>
<asrwt>0</asrwt>
<pdfrwt beam="1">  1        2 0.20235800E-01 0.56934572E+03</pdfrwt>
<pdfrwt beam="2">  1       -2 0.81728905E-01 0.56934572E+03</pdfrwt>
<totfact> 0.37290607E+02</totfact>
</mgrwt>
</event>
<event>
 4    1  0.5399378E-005  0.6602496E+03  0.7818608E-02  0.9787734E-01
          2   -1    0    0  501    0  0.00000000000E+00  0.00000000000E+00  0.49480155369E+03  0.49480155369E+03  0.25500000000E-02 0.  1.
         -2   -1    0    0    0  501 -0.00000000000E+00 -0.00000000000E+00 -0.22025473800E+03  0.22025473802E+03  0.25500000000E-02 0. -1.
    5000001    1    1    2    0    0  0.25062017171E+03  0.12941328441E+03  0.18806084982E+03  0.37702805185E+03  0.16500000000E+03 0.  0.
   -5000001    1    1    2    0    0 -0.25062017171E+03 -0.12941328441E+03  0.86485965863E+02  0.33802823986E+03  0.16500000000E+03 0.  0.
<mgrwt>
<rscale>  0 0.66024961E+03</rscale>
<asrwt>0</asrwt>
<pdfrwt beam="1">  1        2 0.70685938E-01 0.66024961E+03</pdfrwt>
<pdfrwt beam="2">  1       -2 0.31464962E-01 0.66024961E+03</pdfrwt>
<totfact> 0.64011746E+02</totfact>
</mgrwt>
</event>
<event>
 4    1  0.5399378E-005  0.4243239E+03  0.7818608E-02  0.1035668E+00
         -2   -1    0    0    0  501 -0.00000000000E+00  0.00000000000E+00  0.64153131273E+02  0.64153131323E+02  0.25500000000E-02 0. -1.
          2   -1    0    0  501    0  0.00000000000E+00 -0.00000000000E+00 -0.70164440090E+03  0.70164440090E+03  0.25500000000E-02 0.  1.
    5000001    1    1    2    0    0  0.10734439215E+03  0.54121688895E+02 -0.21451134166E+03  0.29612850493E+03  0.16500000000E+03 0.  0.
   -5000001    1    1    2    0    0 -0.10734439215E+03 -0.54121688895E+02 -0.42297992797E+03  0.46966902729E+03  0.16500000000E+03 0.  0.
<mgrwt>
<rscale>  0 0.42432386E+03</rscale>
<asrwt>0</asrwt>
<pdfrwt beam="1">  1        2 0.10023491E+00 0.42432386E+03</pdfrwt>
<pdfrwt beam="2">  1       -2 0.91647334E-02 0.42432386E+03</pdfrwt>
<totfact> 0.35143414E+03</totfact>
</mgrwt>
</event>
<event>
 4    1  0.5399378E-005  0.3774347E+03  0.7818608E-02  0.1051886E+00
          2   -1    0    0  501    0  0.00000000000E+00  0.00000000000E+00  0.13305038630E+04  0.13305038630E+04  0.25500000000E-02 0.  1.
         -2   -1    0    0    0  501 -0.00000000000E+00 -0.00000000000E+00 -0.26767480082E+02  0.26767480204E+02  0.25500000000E-02 0. -1.
    5000001    1    1    2    0    0  0.57017068534E+02  0.41794220057E+02  0.86129047000E+03  0.87979769075E+03  0.16500000000E+03 0.  0.
   -5000001    1    1    2    0    0 -0.57017068534E+02 -0.41794220057E+02  0.44244591294E+03  0.47747365248E+03  0.16500000000E+03 0.  0.
<mgrwt>
<rscale>  0 0.37743469E+03</rscale>
<asrwt>0</asrwt>
<pdfrwt beam="1">  1        2 0.19007200E+00 0.37743469E+03</pdfrwt>
<pdfrwt beam="2">  1       -2 0.38239253E-02 0.37743469E+03</pdfrwt>
<totfact> 0.56395317E+03</totfact>
</mgrwt>
</event>
<event>
 4    1  0.5399378E-005  0.4056342E+03  0.7818608E-02  0.1041846E+00
         -2   -1    0    0    0  501 -0.00000000000E+00  0.00000000000E+00  0.59071653923E+02  0.59071653978E+02  0.25500000000E-02 0. -1.
          2   -1    0    0  501    0  0.00000000000E+00 -0.00000000000E+00 -0.69635385083E+03  0.69635385083E+03  0.25500000000E-02 0.  1.
    5000001    1    1    2    0    0 -0.11170535052E+03 -0.13638076718E+02 -0.25291130073E+03  0.32226263902E+03  0.16500000000E+03 0.  0.
   -5000001    1    1    2    0    0  0.11170535052E+03  0.13638076718E+02 -0.38437089618E+03  0.43316286579E+03  0.16500000000E+03 0.  0.
<mgrwt>
<rscale>  0 0.40563419E+03</rscale>
<asrwt>0</asrwt>
<pdfrwt beam="1">  1        2 0.99479117E-01 0.40563419E+03</pdfrwt>
<pdfrwt beam="2">  1       -2 0.84388081E-02 0.40563419E+03</pdfrwt>
<totfact> 0.40414513E+03</totfact>
</mgrwt>
</event>
<event>
 4    1  0.5399378E-005  0.6161729E+03  0.7818608E-02  0.9872409E-01
          2   -1    0    0  501    0  0.00000000000E+00  0.00000000000E+00  0.90983256997E+03  0.90983256997E+03  0.25500000000E-02 0.  1.
         -2   -1    0    0    0  501 -0.00000000000E+00 -0.00000000000E+00 -0.10432386030E+03  0.10432386033E+03  0.25500000000E-02 0. -1.
    5000001    1    1    2    0    0 -0.22050001710E+03 -0.52612233702E+02  0.61291369189E+03  0.67400036972E+03  0.16500000000E+03 0.  0.
   -5000001    1    1    2    0    0  0.22050001710E+03  0.52612233702E+02  0.19259501778E+03  0.34015606058E+03  0.16500000000E+03 0.  0.
<mgrwt>
<rscale>  0 0.61617285E+03</rscale>
<asrwt>0</asrwt>
<pdfrwt beam="1">  1        2 0.12997608E+00 0.61617285E+03</pdfrwt>
<pdfrwt beam="2">  1       -2 0.14903409E-01 0.61617285E+03</pdfrwt>
<totfact> 0.11389640E+03</totfact>
</mgrwt>
</event>
<event>
 4    1  0.5399378E-005  0.5212830E+03  0.7818608E-02  0.1008368E+00
          2   -1    0    0  501    0  0.00000000000E+00  0.00000000000E+00  0.85480122793E+03  0.85480122794E+03  0.25500000000E-02 0.  1.
         -2   -1    0    0    0  501 -0.00000000000E+00 -0.00000000000E+00 -0.79473429996E+02  0.79473430037E+02  0.25500000000E-02 0. -1.
    5000001    1    1    2    0    0  0.14412013971E+03  0.11252579951E+03  0.23478174882E+03  0.34026480836E+03  0.16500000000E+03 0.  0.
   -5000001    1    1    2    0    0 -0.14412013971E+03 -0.11252579951E+03  0.54054604911E+03  0.59400984962E+03  0.16500000000E+03 0.  0.
<mgrwt>
<rscale>  0 0.52128298E+03</rscale>
<asrwt>0</asrwt>
<pdfrwt beam="1">  1        2 0.12211446E+00 0.52128298E+03</pdfrwt>
<pdfrwt beam="2">  1       -2 0.11353347E-01 0.52128298E+03</pdfrwt>
<totfact> 0.19441706E+03</totfact>
</mgrwt>
</event>
<event>
 4    1  0.5399378E-005  0.4689238E+03  0.7818608E-02  0.1022224E+00
          2   -1    0    0  501    0  0.00000000000E+00  0.00000000000E+00  0.19825648823E+04  0.19825648823E+04  0.25500000000E-02 0.  1.
         -2   -1    0    0    0  501 -0.00000000000E+00 -0.00000000000E+00 -0.27727912982E+02  0.27727913099E+02  0.25500000000E-02 0. -1.
    5000001    1    1    2    0    0  0.16086440631E+03  0.42758228129E+02  0.10051232696E+04  0.10320869200E+04  0.16500000000E+03 0.  0.
   -5000001    1    1    2    0    0 -0.16086440631E+03 -0.42758228129E+02  0.94971369971E+03  0.97820587542E+03  0.16500000000E+03 0.  0.
<mgrwt>
<rscale>  0 0.46892382E+03</rscale>
<asrwt>0</asrwt>
<pdfrwt beam="1">  1        2 0.28322349E+00 0.46892382E+03</pdfrwt>
<pdfrwt beam="2">  1       -2 0.39611314E-02 0.46892382E+03</pdfrwt>
<totfact> 0.24945481E+03</totfact>
</mgrwt>
</event>
<event>
 4    1  0.5399378E-005  0.3733940E+03  0.7818608E-02  0.1053403E+00
         -2   -1    0    0    0  501 -0.00000000000E+00  0.00000000000E+00  0.73710150078E+02  0.73710150122E+02  0.25500000000E-02 0. -1.
          2   -1    0    0  501    0  0.00000000000E+00 -0.00000000000E+00 -0.47287616710E+03  0.47287616710E+03  0.25500000000E-02 0.  1.
    5000001    1    1    2    0    0  0.42841652749E+02 -0.61288690582E+02 -0.26568380053E+03  0.32156584499E+03  0.16500000000E+03 0.  0.
   -5000001    1    1    2    0    0 -0.42841652749E+02  0.61288690582E+02 -0.13348221649E+03  0.22502047223E+03  0.16500000000E+03 0.  0.
<mgrwt>
<rscale>  0 0.37339402E+03</rscale>
<asrwt>0</asrwt>
<pdfrwt beam="1">  1        2 0.67553737E-01 0.37339402E+03</pdfrwt>
<pdfrwt beam="2">  1       -2 0.10530022E-01 0.37339402E+03</pdfrwt>
<totfact> 0.44235236E+03</totfact>
</mgrwt>
</event>
<event>
 4    1  0.5399378E-005  0.4221316E+03  0.7818608E-02  0.1036375E+00
         -2   -1    0    0    0  501 -0.00000000000E+00  0.00000000000E+00  0.34341436904E+03  0.34341436905E+03  0.25500000000E-02 0. -1.
          2   -1    0    0  501    0  0.00000000000E+00 -0.00000000000E+00 -0.12972310727E+03  0.12972310729E+03  0.25500000000E-02 0.  1.
    5000001    1    1    2    0    0  0.10385329448E+03 -0.10295350976E+02  0.16953463026E+02  0.19596918364E+03  0.16500000000E+03 0.  0.
   -5000001    1    1    2    0    0 -0.10385329448E+03  0.10295350976E+02  0.19673779874E+03  0.27716829271E+03  0.16500000000E+03 0.  0.
<mgrwt>
<rscale>  0 0.42213163E+03</rscale>
<asrwt>0</asrwt>
<pdfrwt beam="1">  1        2 0.18531873E-01 0.42213163E+03</pdfrwt>
<pdfrwt beam="2">  1       -2 0.49059194E-01 0.42213163E+03</pdfrwt>
<totfact> 0.12208529E+03</totfact>
</mgrwt>
</event>
<event>
 4    1  0.5399378E-005  0.4079917E+03  0.7818608E-02  0.1041047E+00
         -2   -1    0    0    0  501 -0.00000000000E+00  0.00000000000E+00  0.44706480233E+02  0.44706480306E+02  0.25500000000E-02 0. -1.
          2   -1    0    0  501    0  0.00000000000E+00 -0.00000000000E+00 -0.93083398739E+03  0.93083398739E+03  0.25500000000E-02 0.  1.
    5000001    1    1    2    0    0 -0.78579644412E+02 -0.76941439674E+02 -0.32852718150E+03  0.38373148768E+03  0.16500000000E+03 0.  0.
   -5000001    1    1    2    0    0  0.78579644412E+02  0.76941439674E+02 -0.55760032566E+03  0.59180898002E+03  0.16500000000E+03 0.  0.
<mgrwt>
<rscale>  0 0.40799172E+03</rscale>
<asrwt>0</asrwt>
<pdfrwt beam="1">  1        2 0.13297627E+00 0.40799172E+03</pdfrwt>
<pdfrwt beam="2">  1       -2 0.63866406E-02 0.40799172E+03</pdfrwt>
<totfact> 0.43367677E+03</totfact>
</mgrwt>
</event>
<event>
 4    1  0.5399378E-005  0.4418835E+03  0.7818608E-02  0.1030170E+00
          2   -1    0    0  501    0  0.00000000000E+00  0.00000000000E+00  0.51799159515E+03  0.51799159516E+03  0.25500000000E-02 0.  1.
         -2   -1    0    0    0  501 -0.00000000000E+00 -0.00000000000E+00 -0.94239480073E+02  0.94239480108E+02  0.25500000000E-02 0. -1.
    5000001    1    1    2    0    0  0.13944826498E+03 -0.45788728551E+02  0.20229378638E+03  0.29948322537E+03  0.16500000000E+03 0.  0.
   -5000001    1    1    2    0    0 -0.13944826498E+03  0.45788728551E+02  0.22145832869E+03  0.31274784990E+03  0.16500000000E+03 0.  0.
<mgrwt>
<rscale>  0 0.44188351E+03</rscale>
<asrwt>0</asrwt>
<pdfrwt beam="1">  1        2 0.73998798E-01 0.44188351E+03</pdfrwt>
<pdfrwt beam="2">  1       -2 0.13462783E-01 0.44188351E+03</pdfrwt>
<totfact> 0.26832786E+03</totfact>
</mgrwt>
</event>
<event>
 4    1  0.5399378E-005  0.7015633E+03  0.7818608E-02  0.9714563E-01
         -2   -1    0    0    0  501 -0.00000000000E+00  0.00000000000E+00  0.99354243623E+02  0.99354243656E+02  0.25500000000E-02 0. -1.
          2   -1    0    0  501    0  0.00000000000E+00 -0.00000000000E+00 -0.12384750372E+04  0.12384750373E+04  0.25500000000E-02 0.  1.
    5000001    1    1    2    0    0  0.14935004305E+03  0.26672394848E+03 -0.47661558755E+03  0.58977497263E+03  0.16500000000E+03 0.  0.
   -5000001    1    1    2    0    0 -0.14935004305E+03 -0.26672394848E+03 -0.66250520607E+03  0.74805430827E+03  0.16500000000E+03 0.  0.
<mgrwt>
<rscale>  0 0.70156326E+03</rscale>
<asrwt>0</asrwt>
<pdfrwt beam="1">  1        2 0.17692500E+00 0.70156326E+03</pdfrwt>
<pdfrwt beam="2">  1       -2 0.14193464E-01 0.70156326E+03</pdfrwt>
<totfact> 0.78717599E+02</totfact>
</mgrwt>
</event>
<event>
 4    1  0.5399378E-005  0.8559172E+03  0.7818608E-02  0.9482429E-01
          2   -1    0    0  501    0  0.00000000000E+00  0.00000000000E+00  0.12401456931E+04  0.12401456931E+04  0.25500000000E-02 0.  1.
         -2   -1    0    0    0  501 -0.00000000000E+00 -0.00000000000E+00 -0.14768309517E+03  0.14768309519E+03  0.25500000000E-02 0. -1.
    5000001    1    1    2    0    0 -0.32322358952E+03 -0.21910279596E+03  0.64138761898E+03  0.76881896556E+03  0.16500000000E+03 0.  0.
   -5000001    1    1    2    0    0  0.32322358952E+03  0.21910279596E+03  0.45107497900E+03  0.61900982278E+03  0.16500000000E+03 0.  0.
<mgrwt>
<rscale>  0 0.85591718E+03</rscale>
<asrwt>0</asrwt>
<pdfrwt beam="1">  1        2 0.17716366E+00 0.85591718E+03</pdfrwt>
<pdfrwt beam="2">  1       -2 0.21097586E-01 0.85591718E+03</pdfrwt>
<totfact> 0.39463329E+02</totfact>
</mgrwt>
</event>
<event>
 4    1  0.5399378E-005  0.4863745E+03  0.7818608E-02  0.1017398E+00
          2   -1    0    0  501    0  0.00000000000E+00  0.00000000000E+00  0.22551381943E+03  0.22551381944E+03  0.25500000000E-02 0.  1.
         -2   -1    0    0    0  501 -0.00000000000E+00 -0.00000000000E+00 -0.26224579363E+03  0.26224579364E+03  0.25500000000E-02 0. -1.
    5000001    1    1    2    0    0  0.94117093891E+00 -0.15575556696E+03 -0.10610437863E+03  0.25048716854E+03  0.16500000000E+03 0.  0.
   -5000001    1    1    2    0    0 -0.94117093891E+00  0.15575556696E+03  0.69372404423E+02  0.23727244454E+03  0.16500000000E+03 0.  0.
<mgrwt>
<rscale>  0 0.48637455E+03</rscale>
<asrwt>0</asrwt>
<pdfrwt beam="1">  1        2 0.32216260E-01 0.48637455E+03</pdfrwt>
<pdfrwt beam="2">  1       -2 0.37463685E-01 0.48637455E+03</pdfrwt>
<totfact> 0.11033732E+03</totfact>
</mgrwt>
</event>
<event>
 4    1  0.5399378E-005  0.6762102E+03  0.7818608E-02  0.9758804E-01
          2   -1    0    0  501    0  0.00000000000E+00  0.00000000000E+00  0.38385196796E+03  0.38385196797E+03  0.25500000000E-02 0. -1.
         -2   -1    0    0    0  501 -0.00000000000E+00 -0.00000000000E+00 -0.29781027146E+03  0.29781027148E+03  0.25500000000E-02 0.  1.
    5000001    1    1    2    0    0  0.26134369759E+03  0.60517529522E+02  0.16700500915E+03  0.35648081678E+03  0.16500000000E+03 0.  0.
   -5000001    1    1    2    0    0 -0.26134369759E+03 -0.60517529522E+02 -0.80963312659E+02  0.32518142266E+03  0.16500000000E+03 0.  0.
<mgrwt>
<rscale>  0 0.67621020E+03</rscale>
<asrwt>0</asrwt>
<pdfrwt beam="1">  1        2 0.54835995E-01 0.67621020E+03</pdfrwt>
<pdfrwt beam="2">  1       -2 0.42544325E-01 0.67621020E+03</pdfrwt>
<totfact> 0.47774744E+02</totfact>
</mgrwt>
</event>
<event>
 4    1  0.5399378E-005  0.4821020E+03  0.7818608E-02  0.1018559E+00
          2   -1    0    0  501    0  0.00000000000E+00  0.00000000000E+00  0.34025438767E+03  0.34025438768E+03  0.25500000000E-02 0.  1.
         -2   -1    0    0    0  501 -0.00000000000E+00 -0.00000000000E+00 -0.17077098557E+03  0.17077098558E+03  0.25500000000E-02 0. -1.
    5000001    1    1    2    0    0 -0.15280293880E+03  0.75702650932E+02  0.12972529038E+03  0.27043165574E+03  0.16500000000E+03 0.  0.
   -5000001    1    1    2    0    0  0.15280293880E+03 -0.75702650932E+02  0.39758111724E+02  0.24059371752E+03  0.16500000000E+03 0.  0.
<mgrwt>
<rscale>  0 0.48210197E+03</rscale>
<asrwt>0</asrwt>
<pdfrwt beam="1">  1        2 0.48607770E-01 0.48210197E+03</pdfrwt>
<pdfrwt beam="2">  1       -2 0.24395855E-01 0.48210197E+03</pdfrwt>
<totfact> 0.15463796E+03</totfact>
</mgrwt>
</event>
<event>
 4    1  0.5399378E-005  0.7212164E+03  0.7818608E-02  0.9681622E-01
          2   -1    0    0  501    0  0.00000000000E+00  0.00000000000E+00  0.15958747252E+04  0.15958747252E+04  0.25500000000E-02 0.  1.
         -2   -1    0    0    0  501 -0.00000000000E+00 -0.00000000000E+00 -0.81484017738E+02  0.81484017778E+02  0.25500000000E-02 0. -1.
    5000001    1    1    2    0    0 -0.14531998877E+03  0.26185788631E+03  0.10236502945E+04  0.10792462078E+04  0.16500000000E+03 0.  0.
   -5000001    1    1    2    0    0  0.14531998877E+03 -0.26185788631E+03  0.49074041300E+03  0.59811253516E+03  0.16500000000E+03 0.  0.
<mgrwt>
<rscale>  0 0.72121643E+03</rscale>
<asrwt>0</asrwt>
<pdfrwt beam="1">  1        2 0.22798209E+00 0.72121643E+03</pdfrwt>
<pdfrwt beam="2">  1       -2 0.11640574E-01 0.72121643E+03</pdfrwt>
<totfact> 0.70480766E+02</totfact>
</mgrwt>
</event>
<event>
 4    1  0.5399378E-005  0.3754524E+03  0.7818608E-02  0.1052627E+00
          2   -1    0    0  501    0  0.00000000000E+00  0.00000000000E+00  0.30747772790E+03  0.30747772791E+03  0.25500000000E-02 0.  1.
         -2   -1    0    0    0  501 -0.00000000000E+00 -0.00000000000E+00 -0.11461356898E+03  0.11461356900E+03  0.25500000000E-02 0. -1.
    5000001    1    1    2    0    0  0.45057226280E+02 -0.35636088962E+02  0.19228030771E+02  0.17576917148E+03  0.16500000000E+03 0.  0.
   -5000001    1    1    2    0    0 -0.45057226280E+02  0.35636088962E+02  0.17363612815E+03  0.24632212543E+03  0.16500000000E+03 0.  0.
<mgrwt>
<rscale>  0 0.37545237E+03</rscale>
<asrwt>0</asrwt>
<pdfrwt beam="1">  1        2 0.43925390E-01 0.37545237E+03</pdfrwt>
<pdfrwt beam="2">  1       -2 0.16373367E-01 0.37545237E+03</pdfrwt>
<totfact> 0.34305298E+03</totfact>
</mgrwt>
</event>
<event>
 4    1  0.5399378E-005  0.4022578E+03  0.7818608E-02  0.1043001E+00
          2   -1    0    0  501    0  0.00000000000E+00  0.00000000000E+00  0.10107509364E+04  0.10107509364E+04  0.25500000000E-02 0.  1.
         -2   -1    0    0    0  501 -0.00000000000E+00 -0.00000000000E+00 -0.40022552150E+02  0.40022552231E+02  0.25500000000E-02 0. -1.
    5000001    1    1    2    0    0  0.60101055869E+02  0.98012359175E+02  0.49331857234E+03  0.53273518120E+03  0.16500000000E+03 0.  0.
   -5000001    1    1    2    0    0 -0.60101055869E+02 -0.98012359175E+02  0.47740981192E+03  0.51803830745E+03  0.16500000000E+03 0.  0.
<mgrwt>
<rscale>  0 0.40225779E+03</rscale>
<asrwt>0</asrwt>
<pdfrwt beam="1">  1        2 0.14439298E+00 0.40225779E+03</pdfrwt>
<pdfrwt beam="2">  1       -2 0.57175080E-02 0.40225779E+03</pdfrwt>
<totfact> 0.46017490E+03</totfact>
</mgrwt>
</event>
<event>
 4    1  0.5399378E-005  0.5473739E+03  0.7818608E-02  0.1002104E+00
         -2   -1    0    0    0  501 -0.00000000000E+00  0.00000000000E+00  0.40820620575E+02  0.40820620654E+02  0.25500000000E-02 0. -1.
          2   -1    0    0  501    0  0.00000000000E+00 -0.00000000000E+00 -0.18349684788E+04  0.18349684788E+04  0.25500000000E-02 0.  1.
    5000001    1    1    2    0    0 -0.95075375703E+01 -0.19001132188E+03 -0.12643246789E+04  0.12891611961E+04  0.16500000000E+03 0.  0.
   -5000001    1    1    2    0    0  0.95075375703E+01  0.19001132188E+03 -0.52982317934E+03  0.58662790343E+03  0.16500000000E+03 0.  0.
<mgrwt>
<rscale>  0 0.54737392E+03</rscale>
<asrwt>0</asrwt>
<pdfrwt beam="1">  1        2 0.26213830E+00 0.54737392E+03</pdfrwt>
<pdfrwt beam="2">  1       -2 0.58315184E-02 0.54737392E+03</pdfrwt>
<totfact> 0.16230226E+03</totfact>
</mgrwt>
</event>
<event>
 4    1  0.5399378E-005  0.8936625E+03  0.7818608E-02  0.9433538E-01
          2   -1    0    0  501    0  0.00000000000E+00  0.00000000000E+00  0.26759493450E+04  0.26759493450E+04  0.25500000000E-02 0.  1.
         -2   -1    0    0    0  501 -0.00000000000E+00 -0.00000000000E+00 -0.74612092143E+02  0.74612092186E+02  0.25500000000E-02 0. -1.
    5000001    1    1    2    0    0 -0.13496658413E+02  0.41148472872E+03  0.11340280705E+04  0.12176807901E+04  0.16500000000E+03 0.  0.
   -5000001    1    1    2    0    0  0.13496658413E+02 -0.41148472872E+03  0.14673091823E+04  0.15328806471E+04  0.16500000000E+03 0.  0.
<mgrwt>
<rscale>  0 0.89366253E+03</rscale>
<asrwt>0</asrwt>
<pdfrwt beam="1">  1        2 0.38227844E+00 0.89366253E+03</pdfrwt>
<pdfrwt beam="2">  1       -2 0.10658871E-01 0.89366253E+03</pdfrwt>
<totfact> 0.22500870E+02</totfact>
</mgrwt>
</event>
<event>
 4    1  0.5399378E-005  0.5491859E+03  0.7818608E-02  0.1001683E+00
          2   -1    0    0  501    0  0.00000000000E+00  0.00000000000E+00  0.15011829216E+03  0.15011829218E+03  0.25500000000E-02 0.  1.
         -2   -1    0    0    0  501 -0.00000000000E+00 -0.00000000000E+00 -0.50227918857E+03  0.50227918857E+03  0.25500000000E-02 0. -1.
    5000001    1    1    2    0    0 -0.12921634619E+03 -0.16866791670E+03 -0.24147696112E+03  0.36149945090E+03  0.16500000000E+03 0.  0.
   -5000001    1    1    2    0    0  0.12921634619E+03  0.16866791670E+03 -0.11068393528E+03  0.29089802986E+03  0.16500000000E+03 0.  0.
<mgrwt>
<rscale>  0 0.54918592E+03</rscale>
<asrwt>0</asrwt>
<pdfrwt beam="1">  1        2 0.21445471E-01 0.54918592E+03</pdfrwt>
<pdfrwt beam="2">  1       -2 0.71754169E-01 0.54918592E+03</pdfrwt>
<totfact> 0.46512568E+02</totfact>
</mgrwt>
</event>
<event>
 4    1  0.5399378E-005  0.3965331E+03  0.7818608E-02  0.1044987E+00
          2   -1    0    0  501    0  0.00000000000E+00  0.00000000000E+00  0.22853997722E+03  0.22853997723E+03  0.25500000000E-02 0.  1.
         -2   -1    0    0    0  501 -0.00000000000E+00 -0.00000000000E+00 -0.17200331723E+03  0.17200331725E+03  0.25500000000E-02 0. -1.
    5000001    1    1    2    0    0 -0.30214815940E+02  0.87497770250E+02 -0.31625829850E+02  0.19181759047E+03  0.16500000000E+03 0.  0.
   -5000001    1    1    2    0    0  0.30214815940E+02 -0.87497770250E+02  0.88162489835E+02  0.20872570401E+03  0.16500000000E+03 0.  0.
<mgrwt>
<rscale>  0 0.39653315E+03</rscale>
<asrwt>0</asrwt>
<pdfrwt beam="1">  1        2 0.32648568E-01 0.39653315E+03</pdfrwt>
<pdfrwt beam="2">  1       -2 0.24571902E-01 0.39653315E+03</pdfrwt>
<totfact> 0.23578114E+03</totfact>
</mgrwt>
</event>
<event>
 4    1  0.5399378E-005  0.5635355E+03  0.7818608E-02  0.9984086E-01
          2   -1    0    0  501    0  0.00000000000E+00  0.00000000000E+00  0.11608320795E+04  0.11608320795E+04  0.25500000000E-02 0.  1.
         -2   -1    0    0    0  501 -0.00000000000E+00 -0.00000000000E+00 -0.68393245004E+02  0.68393245052E+02  0.25500000000E-02 0. -1.
    5000001    1    1    2    0    0  0.17910031956E+03  0.72716735141E+02  0.28082529580E+03  0.37875123076E+03  0.16500000000E+03 0.  0.
   -5000001    1    1    2    0    0 -0.17910031956E+03 -0.72716735141E+02  0.81161353871E+03  0.85047409382E+03  0.16500000000E+03 0.  0.
<mgrwt>
<rscale>  0 0.56353553E+03</rscale>
<asrwt>0</asrwt>
<pdfrwt beam="1">  1        2 0.16583313E+00 0.56353553E+03</pdfrwt>
<pdfrwt beam="2">  1       -2 0.97704650E-02 0.56353553E+03</pdfrwt>
<totfact> 0.16157635E+03</totfact>
</mgrwt>
</event>
<event>
 4    1  0.5399378E-005  0.5869882E+03  0.7818608E-02  0.9932775E-01
         -2   -1    0    0    0  501 -0.00000000000E+00  0.00000000000E+00  0.56264724115E+02  0.56264724173E+02  0.25500000000E-02 0. -1.
          2   -1    0    0  501    0  0.00000000000E+00 -0.00000000000E+00 -0.15309554162E+04  0.15309554162E+04  0.25500000000E-02 0.  1.
    5000001    1    1    2    0    0 -0.12290956867E+03  0.62449813140E+02 -0.12775179763E+04  0.12954859787E+04  0.16500000000E+03 0.  0.
   -5000001    1    1    2    0    0  0.12290956867E+03 -0.62449813140E+02 -0.19717271574E+03  0.29173416163E+03  0.16500000000E+03 0.  0.
<mgrwt>
<rscale>  0 0.58698819E+03</rscale>
<asrwt>0</asrwt>
<pdfrwt beam="1">  1        2 0.21870789E+00 0.58698819E+03</pdfrwt>
<pdfrwt beam="2">  1       -2 0.80378187E-02 0.58698819E+03</pdfrwt>
<totfact> 0.13954958E+03</totfact>
</mgrwt>
</event>
<event>
 4    1  0.5399378E-005  0.6840728E+03  0.7818608E-02  0.9744864E-01
         -2   -1    0    0    0  501 -0.00000000000E+00  0.00000000000E+00  0.89936793067E+02  0.89936793103E+02  0.25500000000E-02 0. -1.
          2   -1    0    0  501    0  0.00000000000E+00 -0.00000000000E+00 -0.13007900278E+04  0.13007900278E+04  0.25500000000E-02 0.  1.
    5000001    1    1    2    0    0 -0.11352889949E+03 -0.22520476142E+03 -0.93423348084E+03  0.98164310842E+03  0.16500000000E+03 0.  0.
   -5000001    1    1    2    0    0  0.11352889949E+03  0.22520476142E+03 -0.27661975392E+03  0.40908371251E+03  0.16500000000E+03 0.  0.
<mgrwt>
<rscale>  0 0.68407276E+03</rscale>
<asrwt>0</asrwt>
<pdfrwt beam="1">  1        2 0.18582714E+00 0.68407276E+03</pdfrwt>
<pdfrwt beam="2">  1       -2 0.12848114E-01 0.68407276E+03</pdfrwt>
<totfact> 0.85949265E+02</totfact>
</mgrwt>
</event>
<event>
 4    1  0.5399378E-005  0.4235952E+03  0.7818608E-02  0.1035903E+00
          2   -1    0    0  501    0  0.00000000000E+00  0.00000000000E+00  0.10704183756E+04  0.10704183756E+04  0.25500000000E-02 0.  1.
         -2   -1    0    0    0  501 -0.00000000000E+00 -0.00000000000E+00 -0.41907192789E+02  0.41907192867E+02  0.25500000000E-02 0. -1.
    5000001    1    1    2    0    0 -0.75359401169E+02 -0.10738300057E+03  0.46024328974E+03  0.50622034126E+03  0.16500000000E+03 0.  0.
   -5000001    1    1    2    0    0  0.75359401169E+02  0.10738300057E+03  0.56826789308E+03  0.60610522722E+03  0.16500000000E+03 0.  0.
<mgrwt>
<rscale>  0 0.42359523E+03</rscale>
<asrwt>0</asrwt>
<pdfrwt beam="1">  1        2 0.15291690E+00 0.42359523E+03</pdfrwt>
<pdfrwt beam="2">  1       -2 0.59867423E-02 0.42359523E+03</pdfrwt>
<totfact> 0.39542011E+03</totfact>
</mgrwt>
</event>
<event>
 4    1  0.5399378E-005  0.4742452E+03  0.7818608E-02  0.1020729E+00
         -2   -1    0    0    0  501 -0.00000000000E+00  0.00000000000E+00  0.46232899947E+03  0.46232899948E+03  0.25500000000E-02 0. -1.
          2   -1    0    0  501    0  0.00000000000E+00 -0.00000000000E+00 -0.12161713153E+03  0.12161713156E+03  0.25500000000E-02 0.  1.
    5000001    1    1    2    0    0 -0.22245640447E+02 -0.15125506570E+03  0.77972996118E+02  0.23807089604E+03  0.16500000000E+03 0.  0.
   -5000001    1    1    2    0    0  0.22245640447E+02  0.15125506570E+03  0.26273887182E+03  0.34587523500E+03  0.16500000000E+03 0.  0.
<mgrwt>
<rscale>  0 0.47424520E+03</rscale>
<asrwt>0</asrwt>
<pdfrwt beam="1">  1        2 0.17373875E-01 0.47424520E+03</pdfrwt>
<pdfrwt beam="2">  1       -2 0.66047002E-01 0.47424520E+03</pdfrwt>
<totfact> 0.71224492E+02</totfact>
</mgrwt>
</event>
<event>
 4    1  0.5399378E-005  0.3510005E+03  0.7818608E-02  0.1062205E+00
          2   -1    0    0  501    0  0.00000000000E+00  0.00000000000E+00  0.54081242459E+03  0.54081242460E+03  0.25500000000E-02 0. -1.
         -2   -1    0    0    0  501 -0.00000000000E+00 -0.00000000000E+00 -0.56951975797E+02  0.56951975854E+02  0.25500000000E-02 0.  1.
    5000001    1    1    2    0    0 -0.42776228878E+02 -0.15649762549E+02  0.30790182334E+03  0.35228291704E+03  0.16500000000E+03 0.  0.
   -5000001    1    1    2    0    0  0.42776228878E+02  0.15649762549E+02  0.17595862546E+03  0.24548148341E+03  0.16500000000E+03 0.  0.
<mgrwt>
<rscale>  0 0.35100049E+03</rscale>
<asrwt>0</asrwt>
<pdfrwt beam="1">  1        2 0.77258917E-01 0.35100049E+03</pdfrwt>
<pdfrwt beam="2">  1       -2 0.81359966E-02 0.35100049E+03</pdfrwt>
<totfact> 0.57290429E+03</totfact>
</mgrwt>
</event>
<event>
 4    1  0.5399378E-005  0.9735953E+03  0.7818608E-02  0.9337989E-01
         -2   -1    0    0    0  501 -0.00000000000E+00  0.00000000000E+00  0.16077032385E+03  0.16077032387E+03  0.25500000000E-02 0. -1.
          2   -1    0    0  501    0  0.00000000000E+00 -0.00000000000E+00 -0.14739781459E+04  0.14739781459E+04  0.25500000000E-02 0.  1.
    5000001    1    1    2    0    0 -0.38986514935E+03 -0.17361596584E+03 -0.37760495396E+03  0.59325191911E+03  0.16500000000E+03 0.  0.
   -5000001    1    1    2    0    0  0.38986514935E+03  0.17361596584E+03 -0.93560286810E+03  0.10414965507E+04  0.16500000000E+03 0.  0.
<mgrwt>
<rscale>  0 0.97359528E+03</rscale>
<asrwt>0</asrwt>
<pdfrwt beam="1">  1        2 0.21056830E+00 0.97359528E+03</pdfrwt>
<pdfrwt beam="2">  1       -2 0.22967190E-01 0.97359528E+03</pdfrwt>
<totfact> 0.25160989E+02</totfact>
</mgrwt>
</event>
<event>
 4    1  0.5399378E-005  0.1011422E+04  0.7818608E-02  0.9296106E-01
         -2   -1    0    0    0  501 -0.00000000000E+00  0.00000000000E+00  0.34891409258E+03  0.34891409259E+03  0.25500000000E-02 0. -1.
          2   -1    0    0  501    0  0.00000000000E+00 -0.00000000000E+00 -0.73296948198E+03  0.73296948198E+03  0.25500000000E-02 0.  1.
    5000001    1    1    2    0    0 -0.38216049480E+03 -0.28643808938E+03 -0.21407836404E+03  0.54876950424E+03  0.16500000000E+03 0.  0.
   -5000001    1    1    2    0    0  0.38216049480E+03  0.28643808938E+03 -0.16997702536E+03  0.53311407033E+03  0.16500000000E+03 0.  0.
<mgrwt>
<rscale>  0 0.10114215E+04</rscale>
<asrwt>0</asrwt>
<pdfrwt beam="1">  1        2 0.10470993E+00 0.10114215E+04</pdfrwt>
<pdfrwt beam="2">  1       -2 0.49844871E-01 0.10114215E+04</pdfrwt>
<totfact> 0.16144455E+02</totfact>
</mgrwt>
</event>
<event>
 4    1  0.5399378E-005  0.8201197E+03  0.7818608E-02  0.9531343E-01
         -2   -1    0    0    0  501 -0.00000000000E+00  0.00000000000E+00  0.40219385482E+03  0.40219385483E+03  0.25500000000E-02 0. -1.
          2   -1    0    0  501    0  0.00000000000E+00 -0.00000000000E+00 -0.41807964097E+03  0.41807964098E+03  0.25500000000E-02 0.  1.
    5000001    1    1    2    0    0  0.19910932160E+03  0.31685690713E+03  0.21748377132E+02  0.40956173339E+03  0.16500000000E+03 0.  0.
   -5000001    1    1    2    0    0 -0.19910932160E+03 -0.31685690713E+03 -0.37634163288E+02  0.41071176242E+03  0.16500000000E+03 0.  0.
<mgrwt>
<rscale>  0 0.82011966E+03</rscale>
<asrwt>0</asrwt>
<pdfrwt beam="1">  1        2 0.59725663E-01 0.82011966E+03</pdfrwt>
<pdfrwt beam="2">  1       -2 0.57456265E-01 0.82011966E+03</pdfrwt>
<totfact> 0.23496870E+02</totfact>
</mgrwt>
</event>
<event>
 4    1  0.5399378E-005  0.4654141E+03  0.7818608E-02  0.1023223E+00
          2   -1    0    0  501    0  0.00000000000E+00  0.00000000000E+00  0.80748470046E+02  0.80748470086E+02  0.25500000000E-02 0.  1.
         -2   -1    0    0    0  501 -0.00000000000E+00 -0.00000000000E+00 -0.67063280580E+03  0.67063280580E+03  0.25500000000E-02 0. -1.
    5000001    1    1    2    0    0 -0.13057139171E+03 -0.93042638675E+02 -0.35137246956E+03  0.41999218244E+03  0.16500000000E+03 0.  0.
   -5000001    1    1    2    0    0  0.13057139171E+03  0.93042638675E+02 -0.23851186619E+03  0.33138909345E+03  0.16500000000E+03 0.  0.
<mgrwt>
<rscale>  0 0.46541411E+03</rscale>
<asrwt>0</asrwt>
<pdfrwt beam="1">  1        2 0.11535496E-01 0.46541411E+03</pdfrwt>
<pdfrwt beam="2">  1       -2 0.95804683E-01 0.46541411E+03</pdfrwt>
<totfact> 0.51130385E+02</totfact>
</mgrwt>
</event>
<event>
 4    1  0.5399378E-005  0.4832449E+03  0.7818608E-02  0.1018247E+00
          2   -1    0    0  501    0  0.00000000000E+00  0.00000000000E+00  0.38244073110E+03  0.38244073111E+03  0.25500000000E-02 0.  1.
         -2   -1    0    0    0  501 -0.00000000000E+00 -0.00000000000E+00 -0.15265475737E+03  0.15265475739E+03  0.25500000000E-02 0. -1.
    5000001    1    1    2    0    0 -0.27367118719E+02 -0.15705095676E+03  0.30983302141E+02  0.23151442118E+03  0.16500000000E+03 0.  0.
   -5000001    1    1    2    0    0  0.27367118719E+02  0.15705095676E+03  0.19880267159E+03  0.30358106732E+03  0.16500000000E+03 0.  0.
<mgrwt>
<rscale>  0 0.48324485E+03</rscale>
<asrwt>0</asrwt>
<pdfrwt beam="1">  1        2 0.54634389E-01 0.48324485E+03</pdfrwt>
<pdfrwt beam="2">  1       -2 0.21807823E-01 0.48324485E+03</pdfrwt>
<totfact> 0.16579819E+03</totfact>
</mgrwt>
</event>
<event>
 4    1  0.5399378E-005  0.7224606E+03  0.7818608E-02  0.9679574E-01
         -2   -1    0    0    0  501 -0.00000000000E+00  0.00000000000E+00  0.64813305039E+03  0.64813305040E+03  0.25500000000E-02 0. -1.
          2   -1    0    0  501    0  0.00000000000E+00 -0.00000000000E+00 -0.20132798024E+03  0.20132798026E+03  0.25500000000E-02 0.  1.
    5000001    1    1    2    0    0 -0.12602831630E+03 -0.29157606054E+03  0.16625167203E+03  0.39466993050E+03  0.16500000000E+03 0.  0.
   -5000001    1    1    2    0    0  0.12602831630E+03  0.29157606054E+03  0.28055339812E+03  0.45479110016E+03  0.16500000000E+03 0.  0.
<mgrwt>
<rscale>  0 0.72246057E+03</rscale>
<asrwt>0</asrwt>
<pdfrwt beam="1">  1        2 0.28761140E-01 0.72246057E+03</pdfrwt>
<pdfrwt beam="2">  1       -2 0.92590437E-01 0.72246057E+03</pdfrwt>
<totfact> 0.18647267E+02</totfact>
</mgrwt>
</event>
<event>
 4    1  0.5399378E-005  0.4091364E+03  0.7818608E-02  0.1040661E+00
         -2   -1    0    0    0  501 -0.00000000000E+00  0.00000000000E+00  0.13380548031E+03  0.13380548034E+03  0.25500000000E-02 0. -1.
          2   -1    0    0  501    0  0.00000000000E+00 -0.00000000000E+00 -0.31275355590E+03  0.31275355591E+03  0.25500000000E-02 0.  1.
    5000001    1    1    2    0    0 -0.10574050598E+03 -0.56974127138E+02 -0.10475590833E+03  0.22940336985E+03  0.16500000000E+03 0.  0.
   -5000001    1    1    2    0    0  0.10574050598E+03  0.56974127138E+02 -0.74192167255E+02  0.21715566640E+03  0.16500000000E+03 0.  0.
<mgrwt>
<rscale>  0 0.40913636E+03</rscale>
<asrwt>0</asrwt>
<pdfrwt beam="1">  1        2 0.44679079E-01 0.40913636E+03</pdfrwt>
<pdfrwt beam="2">  1       -2 0.19115069E-01 0.40913636E+03</pdfrwt>
<totfact> 0.25930868E+03</totfact>
</mgrwt>
</event>
<event>
 4    1  0.5399378E-005  0.4574627E+03  0.7818608E-02  0.1025520E+00
         -2   -1    0    0    0  501 -0.00000000000E+00  0.00000000000E+00  0.40896303510E+02  0.40896303590E+02  0.25500000000E-02 0. -1.
          2   -1    0    0  501    0  0.00000000000E+00 -0.00000000000E+00 -0.12792848057E+04  0.12792848057E+04  0.25500000000E-02 0.  1.
    5000001    1    1    2    0    0 -0.11173710688E+03 -0.10309628930E+03 -0.49081344782E+03  0.53966366052E+03  0.16500000000E+03 0.  0.
   -5000001    1    1    2    0    0  0.11173710688E+03  0.10309628930E+03 -0.74757505433E+03  0.78051744874E+03  0.16500000000E+03 0.  0.
<mgrwt>
<rscale>  0 0.45746265E+03</rscale>
<asrwt>0</asrwt>
<pdfrwt beam="1">  1        2 0.18275495E+00 0.45746265E+03</pdfrwt>
<pdfrwt beam="2">  1       -2 0.58423299E-02 0.45746265E+03</pdfrwt>
<totfact> 0.31390668E+03</totfact>
</mgrwt>
</event>
<event>
 4    1  0.5399378E-005  0.6008430E+03  0.7818608E-02  0.9903659E-01
          2   -1    0    0  501    0  0.00000000000E+00  0.00000000000E+00  0.86802333032E+03  0.86802333032E+03  0.25500000000E-02 0.  1.
         -2   -1    0    0    0  501 -0.00000000000E+00 -0.00000000000E+00 -0.10397541945E+03  0.10397541948E+03  0.25500000000E-02 0. -1.
    5000001    1    1    2    0    0  0.21683333165E+03  0.31316551826E+02  0.18369147774E+03  0.33009843854E+03  0.16500000000E+03 0.  0.
   -5000001    1    1    2    0    0 -0.21683333165E+03 -0.31316551826E+02  0.58035643313E+03  0.64190031127E+03  0.16500000000E+03 0.  0.
<mgrwt>
<rscale>  0 0.60084304E+03</rscale>
<asrwt>0</asrwt>
<pdfrwt beam="1">  1        2 0.12400333E+00 0.60084304E+03</pdfrwt>
<pdfrwt beam="2">  1       -2 0.14853632E-01 0.60084304E+03</pdfrwt>
<totfact> 0.12198044E+03</totfact>
</mgrwt>
</event>
<event>
 4    1  0.5399378E-005  0.4964309E+03  0.7818608E-02  0.1014715E+00
         -2   -1    0    0    0  501 -0.00000000000E+00  0.00000000000E+00  0.19811644308E+03  0.19811644310E+03  0.25500000000E-02 0. -1.
          2   -1    0    0  501    0  0.00000000000E+00 -0.00000000000E+00 -0.31098326816E+03  0.31098326817E+03  0.25500000000E-02 0.  1.
    5000001    1    1    2    0    0  0.59363791712E+02 -0.16900128550E+03 -0.10561994470E+03  0.26545445369E+03  0.16500000000E+03 0.  0.
   -5000001    1    1    2    0    0 -0.59363791712E+02  0.16900128550E+03 -0.72468803785E+01  0.24364525758E+03  0.16500000000E+03 0.  0.
<mgrwt>
<rscale>  0 0.49643086E+03</rscale>
<asrwt>0</asrwt>
<pdfrwt beam="1">  1        2 0.44426181E-01 0.49643086E+03</pdfrwt>
<pdfrwt beam="2">  1       -2 0.28302349E-01 0.49643086E+03</pdfrwt>
<totfact> 0.13062584E+03</totfact>
</mgrwt>
</event>
<event>
 4    1  0.5399378E-005  0.6532256E+03  0.7818608E-02  0.9800745E-01
          2   -1    0    0  501    0  0.00000000000E+00  0.00000000000E+00  0.37775852028E+04  0.37775852028E+04  0.25500000000E-02 0.  1.
         -2   -1    0    0    0  501 -0.00000000000E+00 -0.00000000000E+00 -0.28239187325E+02  0.28239187440E+02  0.25500000000E-02 0. -1.
    5000001    1    1    2    0    0 -0.24731135033E+03 -0.37929046187E+02  0.26309449590E+04  0.26479610824E+04  0.16500000000E+03 0.  0.
   -5000001    1    1    2    0    0  0.24731135033E+03  0.37929046187E+02  0.11184010564E+04  0.11578633078E+04  0.16500000000E+03 0.  0.
<mgrwt>
<rscale>  0 0.65322565E+03</rscale>
<asrwt>0</asrwt>
<pdfrwt beam="1">  1        2 0.53965511E+00 0.65322565E+03</pdfrwt>
<pdfrwt beam="2">  1       -2 0.40341690E-02 0.65322565E+03</pdfrwt>
<totfact> 0.25201177E+02</totfact>
</mgrwt>
</event>
<event>
 4    1  0.5399378E-005  0.8963144E+03  0.7818608E-02  0.9430200E-01
          2   -1    0    0  501    0  0.00000000000E+00  0.00000000000E+00  0.95101645582E+03  0.95101645583E+03  0.25500000000E-02 0.  1.
         -2   -1    0    0    0  501 -0.00000000000E+00 -0.00000000000E+00 -0.21118967400E+03  0.21118967402E+03  0.25500000000E-02 0. -1.
    5000001    1    1    2    0    0 -0.40060659063E+03  0.43905755463E+02  0.23264902831E+03  0.49372454485E+03  0.16500000000E+03 0.  0.
   -5000001    1    1    2    0    0  0.40060659063E+03 -0.43905755463E+02  0.50717775351E+03  0.66848158499E+03  0.16500000000E+03 0.  0.
<mgrwt>
<rscale>  0 0.89631435E+03</rscale>
<asrwt>0</asrwt>
<pdfrwt beam="1">  1        2 0.13585950E+00 0.89631435E+03</pdfrwt>
<pdfrwt beam="2">  1       -2 0.30169953E-01 0.89631435E+03</pdfrwt>
<totfact> 0.30577030E+02</totfact>
</mgrwt>
</event>
<event>
 4    1  0.5399378E-005  0.6979591E+03  0.7818608E-02  0.9720729E-01
         -2   -1    0    0    0  501 -0.00000000000E+00  0.00000000000E+00  0.35860116563E+03  0.35860116564E+03  0.25500000000E-02 0. -1.
          2   -1    0    0  501    0  0.00000000000E+00 -0.00000000000E+00 -0.33961606426E+03  0.33961606427E+03  0.25500000000E-02 0.  1.
    5000001    1    1    2    0    0 -0.22045040005E+03  0.20849653161E+03 -0.40451199044E+02  0.34775060328E+03  0.16500000000E+03 0.  0.
   -5000001    1    1    2    0    0  0.22045040005E+03 -0.20849653161E+03  0.59436300416E+02  0.35046662663E+03  0.16500000000E+03 0.  0.
<mgrwt>
<rscale>  0 0.69795907E+03</rscale>
<asrwt>0</asrwt>
<pdfrwt beam="1">  1        2 0.48516581E-01 0.69795907E+03</pdfrwt>
<pdfrwt beam="2">  1       -2 0.51228738E-01 0.69795907E+03</pdfrwt>
<totfact> 0.37704674E+02</totfact>
</mgrwt>
</event>
<event>
 4    1  0.5399378E-005  0.5550664E+03  0.7818608E-02  0.1000328E+00
          2   -1    0    0  501    0  0.00000000000E+00  0.00000000000E+00  0.69734575909E+03  0.69734575910E+03  0.25500000000E-02 0.  1.
         -2   -1    0    0    0  501 -0.00000000000E+00 -0.00000000000E+00 -0.11045406920E+03  0.11045406923E+03  0.25500000000E-02 0. -1.
    5000001    1    1    2    0    0 -0.16490485322E+03 -0.14850445533E+03  0.25923827990E+03  0.37904705464E+03  0.16500000000E+03 0.  0.
   -5000001    1    1    2    0    0  0.16490485322E+03  0.14850445533E+03  0.32765340999E+03  0.42875277368E+03  0.16500000000E+03 0.  0.
<mgrwt>
<rscale>  0 0.55506640E+03</rscale>
<asrwt>0</asrwt>
<pdfrwt beam="1">  1        2 0.99620826E-01 0.55506640E+03</pdfrwt>
<pdfrwt beam="2">  1       -2 0.15779152E-01 0.55506640E+03</pdfrwt>
<totfact> 0.14540355E+03</totfact>
</mgrwt>
</event>
<event>
 4    1  0.5399378E-005  0.4172243E+03  0.7818608E-02  0.1037973E+00
          2   -1    0    0  501    0  0.00000000000E+00  0.00000000000E+00  0.70836143327E+03  0.70836143328E+03  0.25500000000E-02 0.  1.
         -2   -1    0    0    0  501 -0.00000000000E+00 -0.00000000000E+00 -0.61436201579E+02  0.61436201632E+02  0.25500000000E-02 0. -1.
    5000001    1    1    2    0    0 -0.11080461183E+03  0.42800949982E+02  0.23722867220E+03  0.31242923396E+03  0.16500000000E+03 0.  0.
   -5000001    1    1    2    0    0  0.11080461183E+03 -0.42800949982E+02  0.40969655950E+03  0.45736840095E+03  0.16500000000E+03 0.  0.
<mgrwt>
<rscale>  0 0.41722433E+03</rscale>
<asrwt>0</asrwt>
<pdfrwt beam="1">  1        2 0.10119448E+00 0.41722433E+03</pdfrwt>
<pdfrwt beam="2">  1       -2 0.87766009E-02 0.41722433E+03</pdfrwt>
<totfact> 0.37212581E+03</totfact>
</mgrwt>
</event>
<event>
 4    1  0.5399378E-005  0.6363486E+03  0.7818608E-02  0.9832738E-01
          2   -1    0    0  501    0  0.00000000000E+00  0.00000000000E+00  0.57653158375E+03  0.57653158376E+03  0.25500000000E-02 0.  1.
         -2   -1    0    0    0  501 -0.00000000000E+00 -0.00000000000E+00 -0.17559294491E+03  0.17559294493E+03  0.25500000000E-02 0. -1.
    5000001    1    1    2    0    0  0.11870962763E+03 -0.16316343036E+03  0.41613849723E+03  0.49103006993E+03  0.16500000000E+03 0.  0.
   -5000001    1    1    2    0    0 -0.11870962763E+03  0.16316343036E+03 -0.15199858388E+02  0.26109445876E+03  0.16500000000E+03 0.  0.
<mgrwt>
<rscale>  0 0.63634858E+03</rscale>
<asrwt>0</asrwt>
<pdfrwt beam="1">  1        2 0.82361656E-01 0.63634858E+03</pdfrwt>
<pdfrwt beam="2">  1       -2 0.25084706E-01 0.63634858E+03</pdfrwt>
<totfact> 0.81297294E+02</totfact>
</mgrwt>
</event>
<event>
 4    1  0.5399378E-005  0.4186469E+03  0.7818608E-02  0.1037508E+00
         -2   -1    0    0    0  501 -0.00000000000E+00  0.00000000000E+00  0.14200009297E+04  0.14200009297E+04  0.25500000000E-02 0. -1.
          2   -1    0    0  501    0  0.00000000000E+00 -0.00000000000E+00 -0.30856526966E+02  0.30856527071E+02  0.25500000000E-02 0.  1.
    5000001    1    1    2    0    0  0.79142769880E+02  0.90216460817E+02  0.53243937671E+03  0.57019231641E+03  0.16500000000E+03 0.  0.
   -5000001    1    1    2    0    0 -0.79142769880E+02 -0.90216460817E+02  0.85670502599E+03  0.88066514032E+03  0.16500000000E+03 0.  0.
<mgrwt>
<rscale>  0 0.41864685E+03</rscale>
<asrwt>0</asrwt>
<pdfrwt beam="1">  1        2 0.44080741E-02 0.41864685E+03</pdfrwt>
<pdfrwt beam="2">  1       -2 0.20285733E+00 0.41864685E+03</pdfrwt>
<totfact> 0.25716148E+02</totfact>
</mgrwt>
</event>
<event>
 4    1  0.5399378E-005  0.6844379E+03  0.7818608E-02  0.9744222E-01
          2   -1    0    0  501    0  0.00000000000E+00  0.00000000000E+00  0.92520313662E+02  0.92520313697E+02  0.25500000000E-02 0.  1.
         -2   -1    0    0    0  501 -0.00000000000E+00 -0.00000000000E+00 -0.12658171885E+04  0.12658171885E+04  0.25500000000E-02 0. -1.
    5000001    1    1    2    0    0  0.77070031550E+02 -0.28740217156E+03 -0.65954054221E+03  0.74213106982E+03  0.16500000000E+03 0.  0.
   -5000001    1    1    2    0    0 -0.77070031550E+02  0.28740217156E+03 -0.51375633260E+03  0.61620643235E+03  0.16500000000E+03 0.  0.
<mgrwt>
<rscale>  0 0.68443788E+03</rscale>
<asrwt>0</asrwt>
<pdfrwt beam="1">  1        2 0.13217188E-01 0.68443788E+03</pdfrwt>
<pdfrwt beam="2">  1       -2 0.18083102E+00 0.68443788E+03</pdfrwt>
<totfact> 0.85313547E+01</totfact>
</mgrwt>
</event>
<event>
 4    1  0.5399378E-005  0.7447759E+03  0.7818608E-02  0.9643582E-01
         -2   -1    0    0    0  501 -0.00000000000E+00  0.00000000000E+00  0.23089068203E+03  0.23089068204E+03  0.25500000000E-02 0. -1.
          2   -1    0    0  501    0  0.00000000000E+00 -0.00000000000E+00 -0.60059924250E+03  0.60059924251E+03  0.25500000000E-02 0.  1.
    5000001    1    1    2    0    0 -0.31841386811E+03  0.55499890754E+02 -0.91579668110E+02  0.37427191304E+03  0.16500000000E+03 0.  0.
   -5000001    1    1    2    0    0  0.31841386811E+03 -0.55499890754E+02 -0.27812889237E+03  0.45721801151E+03  0.16500000000E+03 0.  0.
<mgrwt>
<rscale>  0 0.74477586E+03</rscale>
<asrwt>0</asrwt>
<pdfrwt beam="1">  1        2 0.85799891E-01 0.74477586E+03</pdfrwt>
<pdfrwt beam="2">  1       -2 0.32984383E-01 0.74477586E+03</pdfrwt>
<totfact> 0.46695148E+02</totfact>
</mgrwt>
</event>
<event>
 4    1  0.5399378E-005  0.5133816E+03  0.7818608E-02  0.1010344E+00
         -2   -1    0    0    0  501 -0.00000000000E+00  0.00000000000E+00  0.12565091565E+02  0.12565091824E+02  0.25500000000E-02 0. -1.
          2   -1    0    0  501    0  0.00000000000E+00 -0.00000000000E+00 -0.52439070495E+04  0.52439070495E+04  0.25500000000E-02 0.  1.
    5000001    1    1    2    0    0  0.71002816130E+02  0.17061793450E+03 -0.33035322115E+04  0.33128087708E+04  0.16500000000E+03 0.  0.
   -5000001    1    1    2    0    0 -0.71002816130E+02 -0.17061793450E+03 -0.19278097464E+04  0.19436633705E+04  0.16500000000E+03 0.  0.
<mgrwt>
<rscale>  0 0.51338162E+03</rscale>
<asrwt>0</asrwt>
<pdfrwt beam="1">  1        2 0.74912817E+00 0.51338162E+03</pdfrwt>
<pdfrwt beam="2">  1       -2 0.17950165E-02 0.51338162E+03</pdfrwt>
<totfact> 0.59643815E+01</totfact>
</mgrwt>
</event>
<event>
 4    1  0.5399378E-005  0.5315418E+03  0.7818608E-02  0.1005859E+00
          2   -1    0    0  501    0  0.00000000000E+00  0.00000000000E+00  0.19423193491E+03  0.19423193493E+03  0.25500000000E-02 0.  1.
         -2   -1    0    0    0  501 -0.00000000000E+00 -0.00000000000E+00 -0.36365887725E+03  0.36365887726E+03  0.25500000000E-02 0. -1.
    5000001    1    1    2    0    0 -0.17458855669E+03  0.11368042660E+03 -0.82422648468E+02  0.27824970170E+03  0.16500000000E+03 0.  0.
   -5000001    1    1    2    0    0  0.17458855669E+03 -0.11368042660E+03 -0.87004293869E+02  0.27964111048E+03  0.16500000000E+03 0.  0.
<mgrwt>
<rscale>  0 0.53154179E+03</rscale>
<asrwt>0</asrwt>
<pdfrwt beam="1">  1        2 0.27747419E-01 0.53154179E+03</pdfrwt>
<pdfrwt beam="2">  1       -2 0.51951268E-01 0.53154179E+03</pdfrwt>
<totfact> 0.68437982E+02</totfact>
</mgrwt>
</event>
<event>
 4    1  0.5399378E-005  0.8793045E+03  0.7818608E-02  0.9451828E-01
         -2   -1    0    0    0  501 -0.00000000000E+00  0.00000000000E+00  0.98127844997E+02  0.98127845031E+02  0.25500000000E-02 0. -1.
          2   -1    0    0  501    0  0.00000000000E+00 -0.00000000000E+00 -0.19698188539E+04  0.19698188539E+04  0.25500000000E-02 0.  1.
    5000001    1    1    2    0    0  0.36743953260E+03  0.17374099986E+03 -0.10052667520E+04  0.10968062672E+04  0.16500000000E+03 0.  0.
   -5000001    1    1    2    0    0 -0.36743953260E+03 -0.17374099986E+03 -0.86642425697E+03  0.97114043177E+03  0.16500000000E+03 0.  0.
<mgrwt>
<rscale>  0 0.87930445E+03</rscale>
<asrwt>0</asrwt>
<pdfrwt beam="1">  1        2 0.28140267E+00 0.87930445E+03</pdfrwt>
<pdfrwt beam="2">  1       -2 0.14018265E-01 0.87930445E+03</pdfrwt>
<totfact> 0.32996146E+02</totfact>
</mgrwt>
</event>
<event>
 4    1  0.5399378E-005  0.4522276E+03  0.7818608E-02  0.1027060E+00
         -2   -1    0    0    0  501 -0.00000000000E+00  0.00000000000E+00  0.23414866158E+02  0.23414866297E+02  0.25500000000E-02 0. -1.
          2   -1    0    0  501    0  0.00000000000E+00 -0.00000000000E+00 -0.21835464235E+04  0.21835464235E+04  0.25500000000E-02 0.  1.
    5000001    1    1    2    0    0  0.12051852423E+03  0.35211328011E+02 -0.15203100450E+04  0.15343833241E+04  0.16500000000E+03 0.  0.
   -5000001    1    1    2    0    0 -0.12051852423E+03 -0.35211328011E+02 -0.63982151225E+03  0.67257796563E+03  0.16500000000E+03 0.  0.
<mgrwt>
<rscale>  0 0.45222759E+03</rscale>
<asrwt>0</asrwt>
<pdfrwt beam="1">  1        2 0.31193507E+00 0.45222759E+03</pdfrwt>
<pdfrwt beam="2">  1       -2 0.33449823E-02 0.45222759E+03</pdfrwt>
<totfact> 0.25638877E+03</totfact>
</mgrwt>
</event>
<event>
 4    1  0.5399378E-005  0.3576597E+03  0.7818608E-02  0.1059514E+00
          2   -1    0    0  501    0  0.00000000000E+00  0.00000000000E+00  0.16902566155E+04  0.16902566155E+04  0.25500000000E-02 0. -1.
         -2   -1    0    0    0  501 -0.00000000000E+00 -0.00000000000E+00 -0.18920269900E+02  0.18920270071E+02  0.25500000000E-02 0.  1.
    5000001    1    1    2    0    0  0.43062496927E+02  0.39083406662E+02  0.65858099400E+03  0.68142190820E+03  0.16500000000E+03 0.  0.
   -5000001    1    1    2    0    0 -0.43062496927E+02 -0.39083406662E+02  0.10127553516E+04  0.10277549773E+04  0.16500000000E+03 0.  0.
<mgrwt>
<rscale>  0 0.35765968E+03</rscale>
<asrwt>0</asrwt>
<pdfrwt beam="1">  1        2 0.24146522E+00 0.35765968E+03</pdfrwt>
<pdfrwt beam="2">  1       -2 0.27028958E-02 0.35765968E+03</pdfrwt>
<totfact> 0.62183328E+03</totfact>
</mgrwt>
</event>
<event>
 4    1  0.5399378E-005  0.4558019E+03  0.7818608E-02  0.1026006E+00
          2   -1    0    0  501    0  0.00000000000E+00  0.00000000000E+00  0.54612138077E+03  0.54612138078E+03  0.25500000000E-02 0.  1.
         -2   -1    0    0    0  501 -0.00000000000E+00 -0.00000000000E+00 -0.95104942664E+02  0.95104942698E+02  0.25500000000E-02 0. -1.
    5000001    1    1    2    0    0 -0.14323389554E+03 -0.14736568443E+02  0.31426804231E+03  0.38304375429E+03  0.16500000000E+03 0.  0.
   -5000001    1    1    2    0    0  0.14323389554E+03  0.14736568443E+02  0.13674839580E+03  0.25818256919E+03  0.16500000000E+03 0.  0.
<mgrwt>
<rscale>  0 0.45580190E+03</rscale>
<asrwt>0</asrwt>
<pdfrwt beam="1">  1        2 0.78017340E-01 0.45580190E+03</pdfrwt>
<pdfrwt beam="2">  1       -2 0.13586420E-01 0.45580190E+03</pdfrwt>
<totfact> 0.24894406E+03</totfact>
</mgrwt>
</event>
<event>
 4    1  0.5399378E-005  0.7479876E+03  0.7818608E-02  0.9638513E-01
          2   -1    0    0  501    0  0.00000000000E+00  0.00000000000E+00  0.26313770293E+03  0.26313770294E+03  0.25500000000E-02 0.  1.
         -2   -1    0    0    0  501 -0.00000000000E+00 -0.00000000000E+00 -0.53155203040E+03  0.53155203041E+03  0.25500000000E-02 0. -1.
    5000001    1    1    2    0    0  0.32941329818E+03  0.45158739727E+02 -0.85590397367E+02  0.38092407237E+03  0.16500000000E+03 0.  0.
   -5000001    1    1    2    0    0 -0.32941329818E+03 -0.45158739727E+02 -0.18282393010E+03  0.41376566098E+03  0.16500000000E+03 0.  0.
<mgrwt>
<rscale>  0 0.74798765E+03</rscale>
<asrwt>0</asrwt>
<pdfrwt beam="1">  1        2 0.37591101E-01 0.74798765E+03</pdfrwt>
<pdfrwt beam="2">  1       -2 0.75936004E-01 0.74798765E+03</pdfrwt>
<totfact> 0.21630553E+02</totfact>
</mgrwt>
</event>
<event>
 4    1  0.5399378E-005  0.1009556E+04  0.7818608E-02  0.9298125E-01
          2   -1    0    0  501    0  0.00000000000E+00  0.00000000000E+00  0.24030249284E+04  0.24030249284E+04  0.25500000000E-02 0.  1.
         -2   -1    0    0    0  501 -0.00000000000E+00 -0.00000000000E+00 -0.10603341934E+03  0.10603341937E+03  0.25500000000E-02 0. -1.
    5000001    1    1    2    0    0  0.84300013389E+02  0.20247715441E+03  0.95615087623E+02  0.29063849590E+03  0.16500000000E+03 0.  0.
   -5000001    1    1    2    0    0 -0.84300013389E+02 -0.20247715441E+03  0.22013764214E+04  0.22184198518E+04  0.16500000000E+03 0.  0.
<mgrwt>
<rscale>  0 0.10095562E+04</rscale>
<asrwt>0</asrwt>
<pdfrwt beam="1">  1        2 0.34328926E+00 0.10095562E+04</pdfrwt>
<pdfrwt beam="2">  1       -2 0.15147632E-01 0.10095562E+04</pdfrwt>
<totfact> 0.17215537E+02</totfact>
</mgrwt>
</event>
<event>
 4    1  0.5399378E-005  0.7445468E+03  0.7818608E-02  0.9643945E-01
          2   -1    0    0  501    0  0.00000000000E+00  0.00000000000E+00  0.12666958134E+04  0.12666958134E+04  0.25500000000E-02 0.  1.
         -2   -1    0    0    0  501 -0.00000000000E+00 -0.00000000000E+00 -0.10940865188E+03  0.10940865191E+03  0.25500000000E-02 0. -1.
    5000001    1    1    2    0    0 -0.19956095345E+03 -0.23655547553E+03  0.34795028748E+03  0.49404197160E+03  0.16500000000E+03 0.  0.
   -5000001    1    1    2    0    0  0.19956095345E+03  0.23655547553E+03  0.80933687400E+03  0.88206249368E+03  0.16500000000E+03 0.  0.
<mgrwt>
<rscale>  0 0.74454679E+03</rscale>
<asrwt>0</asrwt>
<pdfrwt beam="1">  1        2 0.18095654E+00 0.74454679E+03</pdfrwt>
<pdfrwt beam="2">  1       -2 0.15629808E-01 0.74454679E+03</pdfrwt>
<totfact> 0.64414267E+02</totfact>
</mgrwt>
</event>
<event>
 4    1  0.5399378E-005  0.5372636E+03  0.7818608E-02  0.1004486E+00
          2   -1    0    0  501    0  0.00000000000E+00  0.00000000000E+00  0.25323033810E+04  0.25323033810E+04  0.25500000000E-02 0.  1.
         -2   -1    0    0    0  501 -0.00000000000E+00 -0.00000000000E+00 -0.28496995708E+02  0.28496995822E+02  0.25500000000E-02 0. -1.
    5000001    1    1    2    0    0 -0.16866276282E+03  0.53340753351E+02  0.69512035781E+03  0.73600929028E+03  0.16500000000E+03 0.  0.
   -5000001    1    1    2    0    0  0.16866276282E+03 -0.53340753351E+02  0.18086860275E+04  0.18247910866E+04  0.16500000000E+03 0.  0.
<mgrwt>
<rscale>  0 0.53726358E+03</rscale>
<asrwt>0</asrwt>
<pdfrwt beam="1">  1        2 0.36175748E+00 0.53726358E+03</pdfrwt>
<pdfrwt beam="2">  1       -2 0.40710010E-02 0.53726358E+03</pdfrwt>
<totfact> 0.12608798E+03</totfact>
</mgrwt>
</event>
<event>
 4    1  0.5399378E-005  0.1411052E+04  0.7818608E-02  0.8945857E-01
         -2   -1    0    0    0  501 -0.00000000000E+00  0.00000000000E+00  0.83584138632E+03  0.83584138632E+03  0.25500000000E-02 0. -1.
          2   -1    0    0  501    0  0.00000000000E+00 -0.00000000000E+00 -0.59552785469E+03  0.59552785470E+03  0.25500000000E-02 0.  1.
    5000001    1    1    2    0    0  0.16924026264E+03  0.65054941690E+03  0.25881812782E+03  0.73896456858E+03  0.16500000000E+03 0.  0.
   -5000001    1    1    2    0    0 -0.16924026264E+03 -0.65054941690E+03 -0.18504596196E+02  0.69240467244E+03  0.16500000000E+03 0.  0.
<mgrwt>
<rscale>  0 0.14110518E+04</rscale>
<asrwt>0</asrwt>
<pdfrwt beam="1">  1        2 0.85075408E-01 0.14110518E+04</pdfrwt>
<pdfrwt beam="2">  1       -2 0.11940591E+00 0.14110518E+04</pdfrwt>
<totfact> 0.28667583E+01</totfact>
</mgrwt>
</event>
<event>
 4    1  0.5399378E-005  0.5110593E+03  0.7818608E-02  0.1010932E+00
          2   -1    0    0  501    0  0.00000000000E+00  0.00000000000E+00  0.99098986498E+03  0.99098986498E+03  0.25500000000E-02 0.  1.
         -2   -1    0    0    0  501 -0.00000000000E+00 -0.00000000000E+00 -0.65889062499E+02  0.65889062549E+02  0.25500000000E-02 0. -1.
    5000001    1    1    2    0    0  0.18808634845E+03  0.46971580268E+02  0.41688565177E+03  0.48846847439E+03  0.16500000000E+03 0.  0.
   -5000001    1    1    2    0    0 -0.18808634845E+03 -0.46971580268E+02  0.50821515071E+03  0.56841045314E+03  0.16500000000E+03 0.  0.
<mgrwt>
<rscale>  0 0.51105927E+03</rscale>
<asrwt>0</asrwt>
<pdfrwt beam="1">  1        2 0.14156999E+00 0.51105927E+03</pdfrwt>
<pdfrwt beam="2">  1       -2 0.94127227E-02 0.51105927E+03</pdfrwt>
<totfact> 0.21593512E+03</totfact>
</mgrwt>
</event>
<event>
 4    1  0.5399378E-005  0.1178754E+04  0.7818608E-02  0.9131659E-01
         -2   -1    0    0    0  501 -0.00000000000E+00  0.00000000000E+00  0.24841702788E+03  0.24841702790E+03  0.25500000000E-02 0. -1.
          2   -1    0    0  501    0  0.00000000000E+00 -0.00000000000E+00 -0.13983144730E+04  0.13983144730E+04  0.25500000000E-02 0.  1.
    5000001    1    1    2    0    0  0.51978868823E+03  0.19517495735E+03 -0.72713044510E+03  0.92963284612E+03  0.16500000000E+03 0.  0.
   -5000001    1    1    2    0    0 -0.51978868823E+03 -0.19517495735E+03 -0.42276700003E+03  0.71709865479E+03  0.16500000000E+03 0.  0.
<mgrwt>
<rscale>  0 0.11787538E+04</rscale>
<asrwt>0</asrwt>
<pdfrwt beam="1">  1        2 0.19975921E+00 0.11787538E+04</pdfrwt>
<pdfrwt beam="2">  1       -2 0.35488148E-01 0.11787538E+04</pdfrwt>
<totfact> 0.12208266E+02</totfact>
</mgrwt>
</event>
<event>
 4    1  0.5399378E-005  0.4525539E+03  0.7818608E-02  0.1026963E+00
          2   -1    0    0  501    0  0.00000000000E+00  0.00000000000E+00  0.15602813713E+04  0.15602813713E+04  0.25500000000E-02 0.  1.
         -2   -1    0    0    0  501 -0.00000000000E+00 -0.00000000000E+00 -0.32815398969E+02  0.32815399068E+02  0.25500000000E-02 0. -1.
    5000001    1    1    2    0    0 -0.68686746890E+01 -0.11662683323E+03  0.40599555283E+03  0.45354865873E+03  0.16500000000E+03 0.  0.
   -5000001    1    1    2    0    0  0.68686746890E+01  0.11662683323E+03  0.11214704195E+04  0.11395481116E+04  0.16500000000E+03 0.  0.
<mgrwt>
<rscale>  0 0.45255389E+03</rscale>
<asrwt>0</asrwt>
<pdfrwt beam="1">  1        2 0.22289742E+00 0.45255389E+03</pdfrwt>
<pdfrwt beam="2">  1       -2 0.46879124E-02 0.45255389E+03</pdfrwt>
<totfact> 0.31417313E+03</totfact>
</mgrwt>
</event>
<event>
 4    1  0.5399378E-005  0.5463430E+03  0.7818608E-02  0.1002344E+00
         -2   -1    0    0    0  501 -0.00000000000E+00  0.00000000000E+00  0.12333635373E+03  0.12333635376E+03  0.25500000000E-02 0. -1.
          2   -1    0    0  501    0  0.00000000000E+00 -0.00000000000E+00 -0.60503374120E+03  0.60503374121E+03  0.25500000000E-02 0.  1.
    5000001    1    1    2    0    0  0.15811519986E+03 -0.11148001716E+02 -0.43981326059E+03  0.49576748437E+03  0.16500000000E+03 0.  0.
   -5000001    1    1    2    0    0 -0.15811519986E+03  0.11148001716E+02 -0.41884126883E+02  0.23260261059E+03  0.16500000000E+03 0.  0.
<mgrwt>
<rscale>  0 0.54634295E+03</rscale>
<asrwt>0</asrwt>
<pdfrwt beam="1">  1        2 0.86433390E-01 0.54634295E+03</pdfrwt>
<pdfrwt beam="2">  1       -2 0.17619479E-01 0.54634295E+03</pdfrwt>
<totfact> 0.14285814E+03</totfact>
</mgrwt>
</event>
<event>
 4    1  0.5399378E-005  0.4986045E+03  0.7818608E-02  0.1014144E+00
         -2   -1    0    0    0  501 -0.00000000000E+00  0.00000000000E+00  0.31783825238E+02  0.31783825341E+02  0.25500000000E-02 0. -1.
          2   -1    0    0  501    0  0.00000000000E+00 -0.00000000000E+00 -0.19554480963E+04  0.19554480963E+04  0.25500000000E-02 0.  1.
    5000001    1    1    2    0    0 -0.17479273178E+02  0.12641485026E+03 -0.41768076644E+03  0.46687092650E+03  0.16500000000E+03 0.  0.
   -5000001    1    1    2    0    0  0.17479273178E+02 -0.12641485026E+03 -0.15059835046E+04  0.15203609951E+04  0.16500000000E+03 0.  0.
<mgrwt>
<rscale>  0 0.49860454E+03</rscale>
<asrwt>0</asrwt>
<pdfrwt beam="1">  1        2 0.27934965E+00 0.49860454E+03</pdfrwt>
<pdfrwt beam="2">  1       -2 0.45405477E-02 0.49860454E+03</pdfrwt>
<totfact> 0.20853611E+03</totfact>
</mgrwt>
</event>
<event>
 4    1  0.5399378E-005  0.3751686E+03  0.7818608E-02  0.1052734E+00
          2   -1    0    0  501    0  0.00000000000E+00  0.00000000000E+00  0.26210609771E+03  0.26210609772E+03  0.25500000000E-02 0.  1.
         -2   -1    0    0    0  501 -0.00000000000E+00 -0.00000000000E+00 -0.13425049757E+03  0.13425049759E+03  0.25500000000E-02 0. -1.
    5000001    1    1    2    0    0  0.63570227603E+02 -0.61674042001E+02  0.52450914905E+02  0.19447611619E+03  0.16500000000E+03 0.  0.
   -5000001    1    1    2    0    0 -0.63570227603E+02  0.61674042001E+02  0.75404685233E+02  0.20188047912E+03  0.16500000000E+03 0.  0.
<mgrwt>
<rscale>  0 0.37516862E+03</rscale>
<asrwt>0</asrwt>
<pdfrwt beam="1">  1        2 0.37443728E-01 0.37516862E+03</pdfrwt>
<pdfrwt beam="2">  1       -2 0.19178643E-01 0.37516862E+03</pdfrwt>
<totfact> 0.31214452E+03</totfact>
</mgrwt>
</event>
<event>
 4    1  0.5399378E-005  0.8515273E+03  0.7818608E-02  0.9488289E-01
          2   -1    0    0  501    0  0.00000000000E+00  0.00000000000E+00  0.30040989844E+03  0.30040989845E+03  0.25500000000E-02 0.  1.
         -2   -1    0    0    0  501 -0.00000000000E+00 -0.00000000000E+00 -0.60342453727E+03  0.60342453728E+03  0.25500000000E-02 0. -1.
    5000001    1    1    2    0    0 -0.24189787754E+02 -0.26306400782E+03  0.15660273691E+03  0.34862190874E+03  0.16500000000E+03 0.  0.
   -5000001    1    1    2    0    0  0.24189787754E+02  0.26306400782E+03 -0.45961737575E+03  0.55521252699E+03  0.16500000000E+03 0.  0.
<mgrwt>
<rscale>  0 0.85152734E+03</rscale>
<asrwt>0</asrwt>
<pdfrwt beam="1">  1        2 0.42915700E-01 0.85152734E+03</pdfrwt>
<pdfrwt beam="2">  1       -2 0.86203505E-01 0.85152734E+03</pdfrwt>
<totfact> 0.13972930E+02</totfact>
</mgrwt>
</event>
<event>
 4    1  0.5399378E-005  0.6375203E+03  0.7818608E-02  0.9830482E-01
          2   -1    0    0  501    0  0.00000000000E+00  0.00000000000E+00  0.54071375355E+03  0.54071375356E+03  0.25500000000E-02 0.  1.
         -2   -1    0    0    0  501 -0.00000000000E+00 -0.00000000000E+00 -0.18791465429E+03  0.18791465431E+03  0.25500000000E-02 0. -1.
    5000001    1    1    2    0    0 -0.46038901423E+02 -0.24025520026E+03  0.38581004553E+02  0.29758298945E+03  0.16500000000E+03 0.  0.
   -5000001    1    1    2    0    0  0.46038901423E+02  0.24025520026E+03  0.31421809471E+03  0.43104541842E+03  0.16500000000E+03 0.  0.
<mgrwt>
<rscale>  0 0.63752032E+03</rscale>
<asrwt>0</asrwt>
<pdfrwt beam="1">  1        2 0.77244823E-01 0.63752032E+03</pdfrwt>
<pdfrwt beam="2">  1       -2 0.26844950E-01 0.63752032E+03</pdfrwt>
<totfact> 0.77481307E+02</totfact>
</mgrwt>
</event>
<event>
 4    1  0.5399378E-005  0.6305396E+03  0.7818608E-02  0.9843996E-01
          2   -1    0    0  501    0  0.00000000000E+00  0.00000000000E+00  0.20541563765E+04  0.20541563765E+04  0.25500000000E-02 0.  1.
         -2   -1    0    0    0  501 -0.00000000000E+00 -0.00000000000E+00 -0.48387289278E+02  0.48387289345E+02  0.25500000000E-02 0. -1.
    5000001    1    1    2    0    0 -0.26757532273E+03 -0.39833304051E+01  0.92414206961E+03  0.97615366878E+03  0.16500000000E+03 0.  0.
   -5000001    1    1    2    0    0  0.26757532273E+03  0.39833304051E+01  0.10816270176E+04  0.11263899970E+04  0.16500000000E+03 0.  0.
<mgrwt>
<rscale>  0 0.63053964E+03</rscale>
<asrwt>0</asrwt>
<pdfrwt beam="1">  1        2 0.29345088E+00 0.63053964E+03</pdfrwt>
<pdfrwt beam="2">  1       -2 0.69124707E-02 0.63053964E+03</pdfrwt>
<totfact> 0.96029843E+02</totfact>
</mgrwt>
</event>
<event>
 4    1  0.5399378E-005  0.5030852E+03  0.7818608E-02  0.1012977E+00
         -2   -1    0    0    0  501 -0.00000000000E+00  0.00000000000E+00  0.87610569541E+02  0.87610569578E+02  0.25500000000E-02 0.  1.
          2   -1    0    0  501    0  0.00000000000E+00 -0.00000000000E+00 -0.72221502285E+03  0.72221502285E+03  0.25500000000E-02 0. -1.
    5000001    1    1    2    0    0 -0.14524774871E+03 -0.37214634179E+01 -0.12056119929E+03  0.25074042468E+03  0.16500000000E+03 0.  0.
   -5000001    1    1    2    0    0  0.14524774871E+03  0.37214634179E+01 -0.51404325402E+03  0.55908516775E+03  0.16500000000E+03 0.  0.
<mgrwt>
<rscale>  0 0.50308516E+03</rscale>
<asrwt>0</asrwt>
<pdfrwt beam="1">  1        2 0.10317357E+00 0.50308516E+03</pdfrwt>
<pdfrwt beam="2">  1       -2 0.12515796E-01 0.50308516E+03</pdfrwt>
<totfact> 0.20502317E+03</totfact>
</mgrwt>
</event>
<event>
 4    1  0.5399378E-005  0.4112823E+03  0.7818608E-02  0.1039942E+00
          2   -1    0    0  501    0  0.00000000000E+00  0.00000000000E+00  0.13454184750E+03  0.13454184752E+03  0.25500000000E-02 0.  1.
         -2   -1    0    0    0  501 -0.00000000000E+00 -0.00000000000E+00 -0.31431322922E+03  0.31431322923E+03  0.25500000000E-02 0. -1.
    5000001    1    1    2    0    0 -0.10319090242E+03 -0.18942690828E+02 -0.15939134968E+03  0.25226531714E+03  0.16500000000E+03 0.  0.
   -5000001    1    1    2    0    0  0.10319090242E+03  0.18942690828E+02 -0.20380032045E+02  0.19658975961E+03  0.16500000000E+03 0.  0.
<mgrwt>
<rscale>  0 0.41128230E+03</rscale>
<asrwt>0</asrwt>
<pdfrwt beam="1">  1        2 0.19220264E-01 0.41128230E+03</pdfrwt>
<pdfrwt beam="2">  1       -2 0.44901890E-01 0.41128230E+03</pdfrwt>
<totfact> 0.13947320E+03</totfact>
</mgrwt>
</event>
<event>
 4    1  0.5399378E-005  0.4824384E+03  0.7818608E-02  0.1018467E+00
         -2   -1    0    0    0  501 -0.00000000000E+00  0.00000000000E+00  0.21078794095E+02  0.21078794249E+02  0.25500000000E-02 0. -1.
          2   -1    0    0  501    0  0.00000000000E+00 -0.00000000000E+00 -0.27604378048E+04  0.27604378048E+04  0.25500000000E-02 0.  1.
    5000001    1    1    2    0    0  0.14139366044E+03  0.83173382286E+02 -0.17366740367E+04  0.17521905400E+04  0.16500000000E+03 0.  0.
   -5000001    1    1    2    0    0 -0.14139366044E+03 -0.83173382286E+02 -0.10026849740E+04  0.10293260590E+04  0.16500000000E+03 0.  0.
<mgrwt>
<rscale>  0 0.48243839E+03</rscale>
<asrwt>0</asrwt>
<pdfrwt beam="1">  1        2 0.39434803E+00 0.48243839E+03</pdfrwt>
<pdfrwt beam="2">  1       -2 0.30112581E-02 0.48243839E+03</pdfrwt>
<totfact> 0.15266020E+03</totfact>
</mgrwt>
</event>
<event>
 4    1  0.5399378E-005  0.8241946E+03  0.7818608E-02  0.9525642E-01
          2   -1    0    0  501    0  0.00000000000E+00  0.00000000000E+00  0.55813442239E+03  0.55813442239E+03  0.25500000000E-02 0.  1.
         -2   -1    0    0    0  501 -0.00000000000E+00 -0.00000000000E+00 -0.30427113177E+03  0.30427113178E+03  0.25500000000E-02 0. -1.
    5000001    1    1    2    0    0  0.40567910391E+02 -0.37177231511E+03  0.18169128248E+03  0.44732217894E+03  0.16500000000E+03 0.  0.
   -5000001    1    1    2    0    0 -0.40567910391E+02  0.37177231511E+03  0.72172008137E+02  0.41508337524E+03  0.16500000000E+03 0.  0.
<mgrwt>
<rscale>  0 0.82419462E+03</rscale>
<asrwt>0</asrwt>
<pdfrwt beam="1">  1        2 0.79733489E-01 0.82419462E+03</pdfrwt>
<pdfrwt beam="2">  1       -2 0.43467305E-01 0.82419462E+03</pdfrwt>
<totfact> 0.29798033E+02</totfact>
</mgrwt>
</event>
<event>
 4    1  0.5399378E-005  0.3885752E+03  0.7818608E-02  0.1047809E+00
          2   -1    0    0  501    0  0.00000000000E+00  0.00000000000E+00  0.10304909386E+04  0.10304909386E+04  0.25500000000E-02 0.  1.
         -2   -1    0    0    0  501 -0.00000000000E+00 -0.00000000000E+00 -0.36630760244E+02  0.36630760333E+02  0.25500000000E-02 0. -1.
    5000001    1    1    2    0    0  0.15243928979E+02  0.90161412087E+02  0.36926055337E+03  0.41465625990E+03  0.16500000000E+03 0.  0.
   -5000001    1    1    2    0    0 -0.15243928979E+02 -0.90161412087E+02  0.62459962494E+03  0.65246543899E+03  0.16500000000E+03 0.  0.
<mgrwt>
<rscale>  0 0.38857517E+03</rscale>
<asrwt>0</asrwt>
<pdfrwt beam="1">  1        2 0.14721300E+00 0.38857517E+03</pdfrwt>
<pdfrwt beam="2">  1       -2 0.52329655E-02 0.38857517E+03</pdfrwt>
<totfact> 0.51322875E+03</totfact>
</mgrwt>
</event>
<event>
 4    1  0.5399378E-005  0.5092782E+03  0.7818608E-02  0.1011385E+00
          2   -1    0    0  501    0  0.00000000000E+00  0.00000000000E+00  0.10250114666E+04  0.10250114666E+04  0.25500000000E-02 0.  1.
         -2   -1    0    0    0  501 -0.00000000000E+00 -0.00000000000E+00 -0.63258879341E+02  0.63258879393E+02  0.25500000000E-02 0. -1.
    5000001    1    1    2    0    0  0.15906971049E+03  0.16906596648E+02  0.71522449608E+03  0.75123903360E+03  0.16500000000E+03 0.  0.
   -5000001    1    1    2    0    0 -0.15906971049E+03 -0.16906596648E+02  0.24652809121E+03  0.33703131244E+03  0.16500000000E+03 0.  0.
<mgrwt>
<rscale>  0 0.50927822E+03</rscale>
<asrwt>0</asrwt>
<pdfrwt beam="1">  1        2 0.14643020E+00 0.50927822E+03</pdfrwt>
<pdfrwt beam="2">  1       -2 0.90369834E-02 0.50927822E+03</pdfrwt>
<totfact> 0.21988447E+03</totfact>
</mgrwt>
</event>
<event>
 4    1  0.5399378E-005  0.6921420E+03  0.7818608E-02  0.9730766E-01
          2   -1    0    0  501    0  0.00000000000E+00  0.00000000000E+00  0.37238976565E+03  0.37238976566E+03  0.25500000000E-02 0.  1.
         -2   -1    0    0    0  501 -0.00000000000E+00 -0.00000000000E+00 -0.32161229133E+03  0.32161229134E+03  0.25500000000E-02 0. -1.
    5000001    1    1    2    0    0 -0.15867636827E+03  0.22577687395E+03 -0.10296598316E+03  0.33760980487E+03  0.16500000000E+03 0.  0.
   -5000001    1    1    2    0    0  0.15867636827E+03 -0.22577687395E+03  0.15374345748E+03  0.35639225213E+03  0.16500000000E+03 0.  0.
<mgrwt>
<rscale>  0 0.69214197E+03</rscale>
<asrwt>0</asrwt>
<pdfrwt beam="1">  1        2 0.53198538E-01 0.69214197E+03</pdfrwt>
<pdfrwt beam="2">  1       -2 0.45944613E-01 0.69214197E+03</pdfrwt>
<totfact> 0.42411987E+02</totfact>
</mgrwt>
</event>
<event>
 4    1  0.5399378E-005  0.1484090E+04  0.7818608E-02  0.8895103E-01
         -2   -1    0    0    0  501 -0.00000000000E+00  0.00000000000E+00  0.23658428738E+03  0.23658428739E+03  0.25500000000E-02 0. -1.
          2   -1    0    0  501    0  0.00000000000E+00 -0.00000000000E+00 -0.23274178632E+04  0.23274178632E+04  0.25500000000E-02 0.  1.
    5000001    1    1    2    0    0  0.13739146865E+03  0.70078975059E+03 -0.84525557572E+03  0.11187782079E+04  0.16500000000E+03 0.  0.
   -5000001    1    1    2    0    0 -0.13739146865E+03 -0.70078975059E+03 -0.12455780001E+04  0.14452239427E+04  0.16500000000E+03 0.  0.
<mgrwt>
<rscale>  0 0.14840896E+04</rscale>
<asrwt>0</asrwt>
<pdfrwt beam="1">  1        2 0.33248825E+00 0.14840896E+04</pdfrwt>
<pdfrwt beam="2">  1       -2 0.33797757E-01 0.14840896E+04</pdfrwt>
<totfact> 0.43115753E+01</totfact>
</mgrwt>
</event>
<event>
 4    1  0.5399378E-005  0.4399844E+03  0.7818608E-02  0.1030752E+00
          2   -1    0    0  501    0  0.00000000000E+00  0.00000000000E+00  0.67327984214E+03  0.67327984215E+03  0.25500000000E-02 0.  1.
         -2   -1    0    0    0  501 -0.00000000000E+00 -0.00000000000E+00 -0.71881813094E+02  0.71881813139E+02  0.25500000000E-02 0. -1.
    5000001    1    1    2    0    0  0.13430160701E+03  0.57752541096E+01  0.20638307047E+03  0.29646120654E+03  0.16500000000E+03 0.  0.
   -5000001    1    1    2    0    0 -0.13430160701E+03 -0.57752541096E+01  0.39501495858E+03  0.44870044875E+03  0.16500000000E+03 0.  0.
<mgrwt>
<rscale>  0 0.43998444E+03</rscale>
<asrwt>0</asrwt>
<pdfrwt beam="1">  1        2 0.96182829E-01 0.43998444E+03</pdfrwt>
<pdfrwt beam="2">  1       -2 0.10268831E-01 0.43998444E+03</pdfrwt>
<totfact> 0.30783625E+03</totfact>
</mgrwt>
</event>
<event>
 4    1  0.5399378E-005  0.8320420E+03  0.7818608E-02  0.9514762E-01
         -2   -1    0    0    0  501 -0.00000000000E+00  0.00000000000E+00  0.14735604945E+03  0.14735604947E+03  0.25500000000E-02 0. -1.
          2   -1    0    0  501    0  0.00000000000E+00 -0.00000000000E+00 -0.11745256223E+04  0.11745256223E+04  0.25500000000E-02 0.  1.
    5000001    1    1    2    0    0  0.17136012961E+03 -0.24366934690E+03 -0.13391923511E+03  0.36592131145E+03  0.16500000000E+03 0.  0.
   -5000001    1    1    2    0    0 -0.17136012961E+03  0.24366934690E+03 -0.89325033778E+03  0.95596036037E+03  0.16500000000E+03 0.  0.
<mgrwt>
<rscale>  0 0.83204196E+03</rscale>
<asrwt>0</asrwt>
<pdfrwt beam="1">  1        2 0.16778937E+00 0.83204196E+03</pdfrwt>
<pdfrwt beam="2">  1       -2 0.21050865E-01 0.83204196E+03</pdfrwt>
<totfact> 0.43200216E+02</totfact>
</mgrwt>
</event>
<event>
 4    1  0.5399378E-005  0.5487582E+03  0.7818608E-02  0.1001782E+00
          2   -1    0    0  501    0  0.00000000000E+00  0.00000000000E+00  0.78613025919E+03  0.78613025919E+03  0.25500000000E-02 0.  1.
         -2   -1    0    0    0  501 -0.00000000000E+00 -0.00000000000E+00 -0.95765162112E+02  0.95765162146E+02  0.25500000000E-02 0. -1.
    5000001    1    1    2    0    0  0.51272299453E+02 -0.19897449958E+03  0.22237857406E+03  0.34481434190E+03  0.16500000000E+03 0.  0.
   -5000001    1    1    2    0    0 -0.51272299453E+02  0.19897449958E+03  0.46798652301E+03  0.53708107944E+03  0.16500000000E+03 0.  0.
<mgrwt>
<rscale>  0 0.54875820E+03</rscale>
<asrwt>0</asrwt>
<pdfrwt beam="1">  1        2 0.11230432E+00 0.54875820E+03</pdfrwt>
<pdfrwt beam="2">  1       -2 0.13680737E-01 0.54875820E+03</pdfrwt>
<totfact> 0.15918246E+03</totfact>
</mgrwt>
</event>
<event>
 4    1  0.5399378E-005  0.4942112E+03  0.7818608E-02  0.1015301E+00
         -2   -1    0    0    0  501 -0.00000000000E+00  0.00000000000E+00  0.31756382215E+02  0.31756382317E+02  0.25500000000E-02 0. -1.
          2   -1    0    0  501    0  0.00000000000E+00 -0.00000000000E+00 -0.19228000833E+04  0.19228000833E+04  0.25500000000E-02 0.  1.
    5000001    1    1    2    0    0 -0.14587267055E+03 -0.10693401598E+03 -0.10780231255E+04  0.11054739159E+04  0.16500000000E+03 0.  0.
   -5000001    1    1    2    0    0  0.14587267055E+03  0.10693401598E+03 -0.81302057563E+03  0.84908254969E+03  0.16500000000E+03 0.  0.
<mgrwt>
<rscale>  0 0.49421119E+03</rscale>
<asrwt>0</asrwt>
<pdfrwt beam="1">  1        2 0.27468565E+00 0.49421119E+03</pdfrwt>
<pdfrwt beam="2">  1       -2 0.45366273E-02 0.49421119E+03</pdfrwt>
<totfact> 0.21683302E+03</totfact>
</mgrwt>
</event>
<event>
 4    1  0.5399378E-005  0.5680204E+03  0.7818608E-02  0.9974069E-01
         -2   -1    0    0    0  501 -0.00000000000E+00  0.00000000000E+00  0.39997244143E+02  0.39997244224E+02  0.25500000000E-02 0. -1.
          2   -1    0    0  501    0  0.00000000000E+00 -0.00000000000E+00 -0.20166839299E+04  0.20166839299E+04  0.25500000000E-02 0.  1.
    5000001    1    1    2    0    0 -0.20736423953E+03  0.44774663052E+02 -0.65585920461E+03  0.70878839900E+03  0.16500000000E+03 0.  0.
   -5000001    1    1    2    0    0  0.20736423953E+03 -0.44774663052E+02 -0.13208274812E+04  0.13478927752E+04  0.16500000000E+03 0.  0.
<mgrwt>
<rscale>  0 0.56802042E+03</rscale>
<asrwt>0</asrwt>
<pdfrwt beam="1">  1        2 0.28809764E+00 0.56802042E+03</pdfrwt>
<pdfrwt beam="2">  1       -2 0.57138933E-02 0.56802042E+03</pdfrwt>
<totfact> 0.13569960E+03</totfact>
</mgrwt>
</event>
<event>
 4    1  0.5399378E-005  0.5469912E+03  0.7818608E-02  0.1002193E+00
         -2   -1    0    0    0  501 -0.00000000000E+00  0.00000000000E+00  0.61379061878E+03  0.61379061879E+03  0.25500000000E-02 0. -1.
          2   -1    0    0  501    0  0.00000000000E+00 -0.00000000000E+00 -0.12186541166E+03  0.12186541169E+03  0.25500000000E-02 0.  1.
    5000001    1    1    2    0    0 -0.12164402537E+03  0.16832020236E+03  0.15628713360E+03  0.30786300128E+03  0.16500000000E+03 0.  0.
   -5000001    1    1    2    0    0  0.12164402537E+03 -0.16832020236E+03  0.33563807352E+03  0.42779302920E+03  0.16500000000E+03 0.  0.
<mgrwt>
<rscale>  0 0.54699121E+03</rscale>
<asrwt>0</asrwt>
<pdfrwt beam="1">  1        2 0.17409345E-01 0.54699121E+03</pdfrwt>
<pdfrwt beam="2">  1       -2 0.87684374E-01 0.54699121E+03</pdfrwt>
<totfact> 0.37985121E+02</totfact>
</mgrwt>
</event>
<event>
 4    1  0.5399378E-005  0.3649262E+03  0.7818608E-02  0.1056650E+00
          2   -1    0    0  501    0  0.00000000000E+00  0.00000000000E+00  0.18315033648E+04  0.18315033648E+04  0.25500000000E-02 0.  1.
         -2   -1    0    0    0  501 -0.00000000000E+00 -0.00000000000E+00 -0.18177847451E+02  0.18177847629E+02  0.25500000000E-02 0. -1.
    5000001    1    1    2    0    0  0.12895650643E+02  0.18564337522E+02  0.52882409900E+03  0.55442840846E+03  0.16500000000E+03 0.  0.
   -5000001    1    1    2    0    0 -0.12895650643E+02 -0.18564337522E+02  0.12845014184E+04  0.12952528040E+04  0.16500000000E+03 0.  0.
<mgrwt>
<rscale>  0 0.36492623E+03</rscale>
<asrwt>0</asrwt>
<pdfrwt beam="1">  1        2 0.26164342E+00 0.36492623E+03</pdfrwt>
<pdfrwt beam="2">  1       -2 0.25968345E-02 0.36492623E+03</pdfrwt>
<totfact> 0.56176027E+03</totfact>
</mgrwt>
</event>
<event>
 4    1  0.5399378E-005  0.4942756E+03  0.7818608E-02  0.1015284E+00
         -2   -1    0    0    0  501 -0.00000000000E+00  0.00000000000E+00  0.57671671145E+03  0.57671671146E+03  0.25500000000E-02 0. -1.
          2   -1    0    0  501    0  0.00000000000E+00 -0.00000000000E+00 -0.10590483506E+03  0.10590483509E+03  0.25500000000E-02 0.  1.
    5000001    1    1    2    0    0  0.54605009698E+02  0.14702559354E+03  0.36825919414E+03  0.43294118112E+03  0.16500000000E+03 0.  0.
   -5000001    1    1    2    0    0 -0.54605009698E+02 -0.14702559354E+03  0.10255268225E+03  0.24968036542E+03  0.16500000000E+03 0.  0.
<mgrwt>
<rscale>  0 0.49427558E+03</rscale>
<asrwt>0</asrwt>
<pdfrwt beam="1">  1        2 0.15129263E-01 0.49427558E+03</pdfrwt>
<pdfrwt beam="2">  1       -2 0.82388099E-01 0.49427558E+03</pdfrwt>
<totfact> 0.51764752E+02</totfact>
</mgrwt>
</event>
<event>
 4    1  0.5399378E-005  0.5087393E+03  0.7818608E-02  0.1011523E+00
          2   -1    0    0  501    0  0.00000000000E+00  0.00000000000E+00  0.38510961300E+03  0.38510961301E+03  0.25500000000E-02 0.  1.
         -2   -1    0    0    0  501 -0.00000000000E+00 -0.00000000000E+00 -0.16801429342E+03  0.16801429344E+03  0.25500000000E-02 0. -1.
    5000001    1    1    2    0    0  0.20906658115E+02 -0.19133849335E+03  0.85965092320E+02  0.26769853285E+03  0.16500000000E+03 0.  0.
   -5000001    1    1    2    0    0 -0.20906658115E+02  0.19133849335E+03  0.13113022726E+03  0.28542537360E+03  0.16500000000E+03 0.  0.
<mgrwt>
<rscale>  0 0.50873930E+03</rscale>
<asrwt>0</asrwt>
<pdfrwt beam="1">  1        2 0.55015659E-01 0.50873930E+03</pdfrwt>
<pdfrwt beam="2">  1       -2 0.24002042E-01 0.50873930E+03</pdfrwt>
<totfact> 0.13893349E+03</totfact>
</mgrwt>
</event>
<event>
 4    1  0.5399378E-005  0.4632595E+03  0.7818608E-02  0.1023840E+00
          2   -1    0    0  501    0  0.00000000000E+00  0.00000000000E+00  0.19758859902E+04  0.19758859902E+04  0.25500000000E-02 0.  1.
         -2   -1    0    0    0  501 -0.00000000000E+00 -0.00000000000E+00 -0.27153559991E+02  0.27153560111E+02  0.25500000000E-02 0. -1.
    5000001    1    1    2    0    0 -0.15912344191E+03  0.31859697821E+02  0.10158450963E+04  0.10418740662E+04  0.16500000000E+03 0.  0.
   -5000001    1    1    2    0    0  0.15912344191E+03 -0.31859697821E+02  0.93288733388E+03  0.96116548410E+03  0.16500000000E+03 0.  0.
<mgrwt>
<rscale>  0 0.46325949E+03</rscale>
<asrwt>0</asrwt>
<pdfrwt beam="1">  1        2 0.28226944E+00 0.46325949E+03</pdfrwt>
<pdfrwt beam="2">  1       -2 0.38790798E-02 0.46325949E+03</pdfrwt>
<totfact> 0.25957879E+03</totfact>
</mgrwt>
</event>
<event>
 4    1  0.5399378E-005  0.4803444E+03  0.7818608E-02  0.1019041E+00
          2   -1    0    0  501    0  0.00000000000E+00  0.00000000000E+00  0.18760472178E+04  0.18760472178E+04  0.25500000000E-02 0. -1.
         -2   -1    0    0    0  501 -0.00000000000E+00 -0.00000000000E+00 -0.30746928700E+02  0.30746928806E+02  0.25500000000E-02 0.  1.
    5000001    1    1    2    0    0 -0.43378560838E+02  0.15558571425E+03  0.66026099782E+03  0.69946994165E+03  0.16500000000E+03 0.  0.
   -5000001    1    1    2    0    0  0.43378560838E+02 -0.15558571425E+03  0.11850392912E+04  0.12073242049E+04  0.16500000000E+03 0.  0.
<mgrwt>
<rscale>  0 0.48034442E+03</rscale>
<asrwt>0</asrwt>
<pdfrwt beam="1">  1        2 0.26800676E+00 0.48034442E+03</pdfrwt>
<pdfrwt beam="2">  1       -2 0.43924182E-02 0.48034442E+03</pdfrwt>
<totfact> 0.24056123E+03</totfact>
</mgrwt>
</event>
<event>
 4    1  0.5399378E-005  0.4207024E+03  0.7818608E-02  0.1036838E+00
         -2   -1    0    0    0  501 -0.00000000000E+00  0.00000000000E+00  0.22505057767E+02  0.22505057912E+02  0.25500000000E-02 0. -1.
          2   -1    0    0  501    0  0.00000000000E+00 -0.00000000000E+00 -0.19661196293E+04  0.19661196293E+04  0.25500000000E-02 0.  1.
    5000001    1    1    2    0    0  0.73603887107E+02  0.32534713904E+02 -0.14572454908E+04  0.14687632418E+04  0.16500000000E+03 0.  0.
   -5000001    1    1    2    0    0 -0.73603887107E+02 -0.32534713904E+02 -0.48636908074E+03  0.51986144549E+03  0.16500000000E+03 0.  0.
<mgrwt>
<rscale>  0 0.42070244E+03</rscale>
<asrwt>0</asrwt>
<pdfrwt beam="1">  1        2 0.28087412E+00 0.42070244E+03</pdfrwt>
<pdfrwt beam="2">  1       -2 0.32150095E-02 0.42070244E+03</pdfrwt>
<totfact> 0.34944997E+03</totfact>
</mgrwt>
</event>
<event>
 4    1  0.5399378E-005  0.4379444E+03  0.7818608E-02  0.1031379E+00
         -2   -1    0    0    0  501 -0.00000000000E+00  0.00000000000E+00  0.18728832084E+02  0.18728832257E+02  0.25500000000E-02 0. -1.
          2   -1    0    0  501    0  0.00000000000E+00 -0.00000000000E+00 -0.25601610738E+04  0.25601610738E+04  0.25500000000E-02 0.  1.
    5000001    1    1    2    0    0 -0.11284669424E+03 -0.73034751338E+02 -0.15741589002E+04  0.15884803098E+04  0.16500000000E+03 0.  0.
   -5000001    1    1    2    0    0  0.11284669424E+03  0.73034751338E+02 -0.96727334152E+03  0.99040959634E+03  0.16500000000E+03 0.  0.
<mgrwt>
<rscale>  0 0.43794441E+03</rscale>
<asrwt>0</asrwt>
<pdfrwt beam="1">  1        2 0.36573707E+00 0.43794441E+03</pdfrwt>
<pdfrwt beam="2">  1       -2 0.26755491E-02 0.43794441E+03</pdfrwt>
<totfact> 0.23224286E+03</totfact>
</mgrwt>
</event>
<event>
 4    1  0.5399378E-005  0.6858892E+03  0.7818608E-02  0.9741673E-01
         -2   -1    0    0    0  501 -0.00000000000E+00  0.00000000000E+00  0.75152085816E+02  0.75152085859E+02  0.25500000000E-02 0. -1.
          2   -1    0    0  501    0  0.00000000000E+00 -0.00000000000E+00 -0.15649729988E+04  0.15649729988E+04  0.25500000000E-02 0.  1.
    5000001    1    1    2    0    0 -0.18747220431E+03 -0.75806840296E+02 -0.12768925694E+04  0.13032928060E+04  0.16500000000E+03 0.  0.
   -5000001    1    1    2    0    0  0.18747220431E+03  0.75806840296E+02 -0.21292834354E+03  0.33683227860E+03  0.16500000000E+03 0.  0.
<mgrwt>
<rscale>  0 0.68588916E+03</rscale>
<asrwt>0</asrwt>
<pdfrwt beam="1">  1        2 0.22356755E+00 0.68588916E+03</pdfrwt>
<pdfrwt beam="2">  1       -2 0.10736013E-01 0.68588916E+03</pdfrwt>
<totfact> 0.83651324E+02</totfact>
</mgrwt>
</event>
<event>
 4    1  0.5399378E-005  0.5126293E+03  0.7818608E-02  0.1010534E+00
          2   -1    0    0  501    0  0.00000000000E+00  0.00000000000E+00  0.13050465217E+04  0.13050465217E+04  0.25500000000E-02 0.  1.
         -2   -1    0    0    0  501 -0.00000000000E+00 -0.00000000000E+00 -0.50340894592E+02  0.50340894656E+02  0.25500000000E-02 0. -1.
    5000001    1    1    2    0    0 -0.37479715917E+02 -0.14341045003E+03  0.28771650417E+03  0.36328648895E+03  0.16500000000E+03 0.  0.
   -5000001    1    1    2    0    0  0.37479715917E+02  0.14341045003E+03  0.96698912298E+03  0.99210092745E+03  0.16500000000E+03 0.  0.
<mgrwt>
<rscale>  0 0.51262934E+03</rscale>
<asrwt>0</asrwt>
<pdfrwt beam="1">  1        2 0.18643520E+00 0.51262934E+03</pdfrwt>
<pdfrwt beam="2">  1       -2 0.71915569E-02 0.51262934E+03</pdfrwt>
<totfact> 0.21950162E+03</totfact>
</mgrwt>
</event>
<event>
 4    1  0.5399378E-005  0.4480423E+03  0.7818608E-02  0.1028307E+00
         -2   -1    0    0    0  501 -0.00000000000E+00  0.00000000000E+00  0.56005355315E+02  0.56005355374E+02  0.25500000000E-02 0.  1.
          2   -1    0    0  501    0  0.00000000000E+00 -0.00000000000E+00 -0.89608344986E+03  0.89608344987E+03  0.25500000000E-02 0. -1.
    5000001    1    1    2    0    0 -0.99870997855E+02 -0.11201799105E+03 -0.37555469420E+03  0.43679351514E+03  0.16500000000E+03 0.  0.
   -5000001    1    1    2    0    0  0.99870997855E+02  0.11201799105E+03 -0.46452340035E+03  0.51529529010E+03  0.16500000000E+03 0.  0.
<mgrwt>
<rscale>  0 0.44804228E+03</rscale>
<asrwt>0</asrwt>
<pdfrwt beam="1">  1        2 0.12801191E+00 0.44804228E+03</pdfrwt>
<pdfrwt beam="2">  1       -2 0.80007656E-02 0.44804228E+03</pdfrwt>
<totfact> 0.32057048E+03</totfact>
</mgrwt>
</event>
<event>
 4    1  0.5399378E-005  0.9931505E+03  0.7818608E-02  0.9316089E-01
         -2   -1    0    0    0  501 -0.00000000000E+00  0.00000000000E+00  0.11218318371E+04  0.11218318371E+04  0.25500000000E-02 0. -1.
          2   -1    0    0  501    0  0.00000000000E+00 -0.00000000000E+00 -0.21980744452E+03  0.21980744453E+03  0.25500000000E-02 0.  1.
    5000001    1    1    2    0    0 -0.25547127767E+03  0.25574321419E+03  0.48700662079E+02  0.40033351072E+03  0.16500000000E+03 0.  0.
   -5000001    1    1    2    0    0  0.25547127767E+03 -0.25574321419E+03  0.85332373051E+03  0.94130577092E+03  0.16500000000E+03 0.  0.
<mgrwt>
<rscale>  0 0.99315052E+03</rscale>
<asrwt>0</asrwt>
<pdfrwt beam="1">  1        2 0.31401063E-01 0.99315052E+03</pdfrwt>
<pdfrwt beam="2">  1       -2 0.16026169E+00 0.99315052E+03</pdfrwt>
<totfact> 0.42339509E+01</totfact>
</mgrwt>
</event>
<event>
 4    1  0.5399378E-005  0.4248412E+03  0.7818608E-02  0.1035502E+00
         -2   -1    0    0    0  501 -0.00000000000E+00  0.00000000000E+00  0.14619796063E+03  0.14619796065E+03  0.25500000000E-02 0. -1.
          2   -1    0    0  501    0  0.00000000000E+00 -0.00000000000E+00 -0.30863986810E+03  0.30863986811E+03  0.25500000000E-02 0.  1.
    5000001    1    1    2    0    0 -0.12652117628E+03  0.36877306797E+02 -0.10586759837E+03  0.23622127802E+03  0.16500000000E+03 0.  0.
   -5000001    1    1    2    0    0  0.12652117628E+03 -0.36877306797E+02 -0.56574309101E+02  0.21861655073E+03  0.16500000000E+03 0.  0.
<mgrwt>
<rscale>  0 0.42484124E+03</rscale>
<asrwt>0</asrwt>
<pdfrwt beam="1">  1        2 0.44091410E-01 0.42484124E+03</pdfrwt>
<pdfrwt beam="2">  1       -2 0.20885423E-01 0.42484124E+03</pdfrwt>
<totfact> 0.22586855E+03</totfact>
</mgrwt>
</event>
<event>
 4    1  0.5399378E-005  0.5401757E+03  0.7818608E-02  0.1003794E+00
          2   -1    0    0  501    0  0.00000000000E+00  0.00000000000E+00  0.10932108359E+04  0.10932108359E+04  0.25500000000E-02 0.  1.
         -2   -1    0    0    0  501 -0.00000000000E+00 -0.00000000000E+00 -0.66727694827E+02  0.66727694875E+02  0.25500000000E-02 0. -1.
    5000001    1    1    2    0    0  0.28568934338E+02 -0.21154815549E+03  0.48662560880E+03  0.55641557242E+03  0.16500000000E+03 0.  0.
   -5000001    1    1    2    0    0 -0.28568934338E+02  0.21154815549E+03  0.53985753224E+03  0.60352295831E+03  0.16500000000E+03 0.  0.
<mgrwt>
<rscale>  0 0.54017567E+03</rscale>
<asrwt>0</asrwt>
<pdfrwt beam="1">  1        2 0.15617297E+00 0.54017567E+03</pdfrwt>
<pdfrwt beam="2">  1       -2 0.95325283E-02 0.54017567E+03</pdfrwt>
<totfact> 0.18391619E+03</totfact>
</mgrwt>
</event>
<event>
 4    1  0.5399378E-005  0.4301198E+03  0.7818608E-02  0.1033822E+00
          2   -1    0    0  501    0  0.00000000000E+00  0.00000000000E+00  0.15718504289E+03  0.15718504291E+03  0.25500000000E-02 0. -1.
         -2   -1    0    0    0  501 -0.00000000000E+00 -0.00000000000E+00 -0.29424400577E+03  0.29424400578E+03  0.25500000000E-02 0.  1.
    5000001    1    1    2    0    0 -0.13661413259E+03  0.17600903320E+02 -0.60921661573E+02  0.22340470422E+03  0.16500000000E+03 0.  0.
   -5000001    1    1    2    0    0  0.13661413259E+03 -0.17600903320E+02 -0.76137301302E+02  0.22802434447E+03  0.16500000000E+03 0.  0.
<mgrwt>
<rscale>  0 0.43011978E+03</rscale>
<asrwt>0</asrwt>
<pdfrwt beam="1">  1        2 0.22455006E-01 0.43011978E+03</pdfrwt>
<pdfrwt beam="2">  1       -2 0.42034858E-01 0.43011978E+03</pdfrwt>
<totfact> 0.13265881E+03</totfact>
</mgrwt>
</event>
<event>
 4    1  0.5399378E-005  0.4055450E+03  0.7818608E-02  0.1041876E+00
         -2   -1    0    0    0  501 -0.00000000000E+00  0.00000000000E+00  0.17316900903E+04  0.17316900903E+04  0.25500000000E-02 0. -1.
          2   -1    0    0  501    0  0.00000000000E+00 -0.00000000000E+00 -0.23743673820E+02  0.23743673957E+02  0.25500000000E-02 0.  1.
    5000001    1    1    2    0    0  0.24390079492E+02 -0.11496513353E+03  0.81529912944E+03  0.84008900027E+03  0.16500000000E+03 0.  0.
   -5000001    1    1    2    0    0 -0.24390079492E+02  0.11496513353E+03  0.89264728707E+03  0.91534476402E+03  0.16500000000E+03 0.  0.
<mgrwt>
<rscale>  0 0.40554499E+03</rscale>
<asrwt>0</asrwt>
<pdfrwt beam="1">  1        2 0.33919521E-02 0.40554499E+03</pdfrwt>
<pdfrwt beam="2">  1       -2 0.24738439E+00 0.40554499E+03</pdfrwt>
<totfact> 0.19607897E+02</totfact>
</mgrwt>
</event>
<event>
 4    1  0.5399378E-005  0.3876426E+03  0.7818608E-02  0.1048145E+00
          2   -1    0    0  501    0  0.00000000000E+00  0.00000000000E+00  0.88326508564E+03  0.88326508564E+03  0.25500000000E-02 0.  1.
         -2   -1    0    0    0  501 -0.00000000000E+00 -0.00000000000E+00 -0.42531626340E+02  0.42531626417E+02  0.25500000000E-02 0. -1.
    5000001    1    1    2    0    0 -0.60587630272E+02 -0.51103029692E+02  0.57253032367E+03  0.60108098631E+03  0.16500000000E+03 0.  0.
   -5000001    1    1    2    0    0  0.60587630272E+02  0.51103029692E+02  0.26820313563E+03  0.32471572575E+03  0.16500000000E+03 0.  0.
<mgrwt>
<rscale>  0 0.38764262E+03</rscale>
<asrwt>0</asrwt>
<pdfrwt beam="1">  1        2 0.12618072E+00 0.38764262E+03</pdfrwt>
<pdfrwt beam="2">  1       -2 0.60759469E-02 0.38764262E+03</pdfrwt>
<totfact> 0.50184242E+03</totfact>
</mgrwt>
</event>
<event>
 4    1  0.5399378E-005  0.6193637E+03  0.7818608E-02  0.9866027E-01
         -2   -1    0    0    0  501 -0.00000000000E+00  0.00000000000E+00  0.51745830092E+02  0.51745830155E+02  0.25500000000E-02 0. -1.
          2   -1    0    0  501    0  0.00000000000E+00 -0.00000000000E+00 -0.18533443708E+04  0.18533443708E+04  0.25500000000E-02 0.  1.
    5000001    1    1    2    0    0 -0.19474537598E+03  0.17508842753E+03 -0.87064242995E+03  0.92402649299E+03  0.16500000000E+03 0.  0.
   -5000001    1    1    2    0    0  0.19474537598E+03 -0.17508842753E+03 -0.93095611073E+03  0.98106370794E+03  0.16500000000E+03 0.  0.
<mgrwt>
<rscale>  0 0.61936368E+03</rscale>
<asrwt>0</asrwt>
<pdfrwt beam="1">  1        2 0.26476344E+00 0.61936368E+03</pdfrwt>
<pdfrwt beam="2">  1       -2 0.73922626E-02 0.61936368E+03</pdfrwt>
<totfact> 0.10903749E+03</totfact>
</mgrwt>
</event>
<event>
 4    1  0.5399378E-005  0.1370106E+04  0.7818608E-02  0.8975746E-01
         -2   -1    0    0    0  501 -0.00000000000E+00  0.00000000000E+00  0.17490517051E+03  0.17490517053E+03  0.25500000000E-02 0. -1.
          2   -1    0    0  501    0  0.00000000000E+00 -0.00000000000E+00 -0.26831547220E+04  0.26831547220E+04  0.25500000000E-02 0.  1.
    5000001    1    1    2    0    0 -0.58411063916E+03 -0.22394775509E+03 -0.78426299879E+03  0.10166765892E+04  0.16500000000E+03 0.  0.
   -5000001    1    1    2    0    0  0.58411063916E+03  0.22394775509E+03 -0.17239865527E+04  0.18413833033E+04  0.16500000000E+03 0.  0.
<mgrwt>
<rscale>  0 0.13701060E+04</rscale>
<asrwt>0</asrwt>
<pdfrwt beam="1">  1        2 0.38330779E+00 0.13701060E+04</pdfrwt>
<pdfrwt beam="2">  1       -2 0.24986455E-01 0.13701060E+04</pdfrwt>
<totfact> 0.49549236E+01</totfact>
</mgrwt>
</event>
<event>
 4    1  0.5399378E-005  0.6799891E+03  0.7818608E-02  0.9752079E-01
         -2   -1    0    0    0  501 -0.00000000000E+00  0.00000000000E+00  0.50870571349E+02  0.50870571413E+02  0.25500000000E-02 0. -1.
          2   -1    0    0  501    0  0.00000000000E+00 -0.00000000000E+00 -0.22723607664E+04  0.22723607664E+04  0.25500000000E-02 0.  1.
    5000001    1    1    2    0    0 -0.28972487603E+03  0.11900312414E+02 -0.13345023442E+04  0.13755739267E+04  0.16500000000E+03 0.  0.
   -5000001    1    1    2    0    0  0.28972487603E+03 -0.11900312414E+02 -0.88698785090E+03  0.94765741113E+03  0.16500000000E+03 0.  0.
<mgrwt>
<rscale>  0 0.67998909E+03</rscale>
<asrwt>0</asrwt>
<pdfrwt beam="1">  1        2 0.32462290E+00 0.67998909E+03</pdfrwt>
<pdfrwt beam="2">  1       -2 0.72672259E-02 0.67998909E+03</pdfrwt>
<totfact> 0.68616853E+02</totfact>
</mgrwt>
</event>
<event>
 4    1  0.5399378E-005  0.5958784E+03  0.7818608E-02  0.9913994E-01
         -2   -1    0    0    0  501 -0.00000000000E+00  0.00000000000E+00  0.86692539141E+03  0.86692539142E+03  0.25500000000E-02 0.  1.
          2   -1    0    0  501    0  0.00000000000E+00 -0.00000000000E+00 -0.10239376796E+03  0.10239376800E+03  0.25500000000E-02 0. -1.
    5000001    1    1    2    0    0 -0.22374727087E+03 -0.19786049288E+02  0.21097101305E+03  0.34955414075E+03  0.16500000000E+03 0.  0.
   -5000001    1    1    2    0    0  0.22374727087E+03  0.19786049288E+02  0.55356061040E+03  0.61976501866E+03  0.16500000000E+03 0.  0.
<mgrwt>
<rscale>  0 0.59587837E+03</rscale>
<asrwt>0</asrwt>
<pdfrwt beam="1">  1        2 0.14627681E-01 0.59587837E+03</pdfrwt>
<pdfrwt beam="2">  1       -2 0.12384649E+00 0.59587837E+03</pdfrwt>
<totfact> 0.20566459E+02</totfact>
</mgrwt>
</event>
<event>
 4    1  0.5399378E-005  0.5115944E+03  0.7818608E-02  0.1010796E+00
          2   -1    0    0  501    0  0.00000000000E+00  0.00000000000E+00  0.18363308004E+04  0.18363308004E+04  0.25500000000E-02 0.  1.
         -2   -1    0    0    0  501 -0.00000000000E+00 -0.00000000000E+00 -0.35632041937E+02  0.35632042028E+02  0.25500000000E-02 0. -1.
    5000001    1    1    2    0    0 -0.58032012424E+02  0.13892786803E+03  0.44423197214E+03  0.49722802823E+03  0.16500000000E+03 0.  0.
   -5000001    1    1    2    0    0  0.58032012424E+02 -0.13892786803E+03  0.13564667863E+04  0.13747348142E+04  0.16500000000E+03 0.  0.
<mgrwt>
<rscale>  0 0.51159443E+03</rscale>
<asrwt>0</asrwt>
<pdfrwt beam="1">  1        2 0.26233295E+00 0.51159443E+03</pdfrwt>
<pdfrwt beam="2">  1       -2 0.50902922E-02 0.51159443E+03</pdfrwt>
<totfact> 0.20043228E+03</totfact>
</mgrwt>
</event>
<event>
 4    1  0.5399378E-005  0.5391190E+03  0.7818608E-02  0.1004044E+00
         -2   -1    0    0    0  501 -0.00000000000E+00  0.00000000000E+00  0.56615387275E+03  0.56615387275E+03  0.25500000000E-02 0. -1.
          2   -1    0    0  501    0  0.00000000000E+00 -0.00000000000E+00 -0.12834377771E+03  0.12834377774E+03  0.25500000000E-02 0.  1.
    5000001    1    1    2    0    0 -0.52716201105E+02  0.14677918701E+03  0.40609108123E+03  0.46525057104E+03  0.16500000000E+03 0.  0.
   -5000001    1    1    2    0    0  0.52716201105E+02 -0.14677918701E+03  0.31719013802E+02  0.22924707945E+03  0.16500000000E+03 0.  0.
<mgrwt>
<rscale>  0 0.53911901E+03</rscale>
<asrwt>0</asrwt>
<pdfrwt beam="1">  1        2 0.18334826E-01 0.53911901E+03</pdfrwt>
<pdfrwt beam="2">  1       -2 0.80879123E-01 0.53911901E+03</pdfrwt>
<totfact> 0.42883538E+02</totfact>
</mgrwt>
</event>
<event>
 4    1  0.5399378E-005  0.5732313E+03  0.7818608E-02  0.9962554E-01
          2   -1    0    0  501    0  0.00000000000E+00  0.00000000000E+00  0.22582056567E+03  0.22582056569E+03  0.25500000000E-02 0. -1.
         -2   -1    0    0    0  501 -0.00000000000E+00 -0.00000000000E+00 -0.36377787900E+03  0.36377787901E+03  0.25500000000E-02 0.  1.
    5000001    1    1    2    0    0 -0.37945911312E+02 -0.23100748029E+03 -0.80207241218E+02  0.29742654501E+03  0.16500000000E+03 0.  0.
   -5000001    1    1    2    0    0  0.37945911312E+02  0.23100748029E+03 -0.57750072104E+02  0.29217189968E+03  0.16500000000E+03 0.  0.
<mgrwt>
<rscale>  0 0.57323128E+03</rscale>
<asrwt>0</asrwt>
<pdfrwt beam="1">  1        2 0.32260081E-01 0.57323128E+03</pdfrwt>
<pdfrwt beam="2">  1       -2 0.51968268E-01 0.57323128E+03</pdfrwt>
<totfact> 0.57731153E+02</totfact>
</mgrwt>
</event>
<event>
 4    1  0.5399378E-005  0.5352037E+03  0.7818608E-02  0.1004978E+00
          2   -1    0    0  501    0  0.00000000000E+00  0.00000000000E+00  0.30661439418E+04  0.30661439418E+04  0.25500000000E-02 0.  1.
         -2   -1    0    0    0  501 -0.00000000000E+00 -0.00000000000E+00 -0.23355316269E+02  0.23355316408E+02  0.25500000000E-02 0. -1.
    5000001    1    1    2    0    0 -0.15081325487E+03  0.13823696503E+03  0.12309438301E+04  0.12586905136E+04  0.16500000000E+03 0.  0.
   -5000001    1    1    2    0    0  0.15081325487E+03 -0.13823696503E+03  0.18118447955E+04  0.18308087446E+04  0.16500000000E+03 0.  0.
<mgrwt>
<rscale>  0 0.53520374E+03</rscale>
<asrwt>0</asrwt>
<pdfrwt beam="1">  1        2 0.43802011E+00 0.53520374E+03</pdfrwt>
<pdfrwt beam="2">  1       -2 0.33364773E-02 0.53520374E+03</pdfrwt>
<totfact> 0.89257549E+02</totfact>
</mgrwt>
</event>
<event>
 4    1  0.5399378E-005  0.4200732E+03  0.7818608E-02  0.1037042E+00
          2   -1    0    0  501    0  0.00000000000E+00  0.00000000000E+00  0.28556856037E+04  0.28556856037E+04  0.25500000000E-02 0.  1.
         -2   -1    0    0    0  501 -0.00000000000E+00 -0.00000000000E+00 -0.15448259403E+02  0.15448259613E+02  0.25500000000E-02 0. -1.
    5000001    1    1    2    0    0 -0.50575625232E+01  0.11470077252E+03  0.18363446124E+04  0.18473138287E+04  0.16500000000E+03 0.  0.
   -5000001    1    1    2    0    0  0.50575625232E+01 -0.11470077252E+03  0.10038927319E+04  0.10238200347E+04  0.16500000000E+03 0.  0.
<mgrwt>
<rscale>  0 0.42007319E+03</rscale>
<asrwt>0</asrwt>
<pdfrwt beam="1">  1        2 0.40795554E+00 0.42007319E+03</pdfrwt>
<pdfrwt beam="2">  1       -2 0.22068918E-02 0.42007319E+03</pdfrwt>
<totfact> 0.21806441E+03</totfact>
</mgrwt>
</event>
<event>
 4    1  0.5399378E-005  0.4253978E+03  0.7818608E-02  0.1035324E+00
         -2   -1    0    0    0  501 -0.00000000000E+00  0.00000000000E+00  0.60462120579E+02  0.60462120633E+02  0.25500000000E-02 0. -1.
          2   -1    0    0  501    0  0.00000000000E+00 -0.00000000000E+00 -0.74825057257E+03  0.74825057258E+03  0.25500000000E-02 0.  1.
    5000001    1    1    2    0    0  0.11232863696E+03 -0.65899664630E+02 -0.28213629266E+03  0.35183288094E+03  0.16500000000E+03 0.  0.
   -5000001    1    1    2    0    0 -0.11232863696E+03  0.65899664630E+02 -0.40565215934E+03  0.45687981226E+03  0.16500000000E+03 0.  0.
<mgrwt>
<rscale>  0 0.42539777E+03</rscale>
<asrwt>0</asrwt>
<pdfrwt beam="1">  1        2 0.10689293E+00 0.42539777E+03</pdfrwt>
<pdfrwt beam="2">  1       -2 0.86374463E-02 0.42539777E+03</pdfrwt>
<totfact> 0.35706890E+03</totfact>
</mgrwt>
</event>
<event>
 4    1  0.5399378E-005  0.9187913E+03  0.7818608E-02  0.9402392E-01
         -2   -1    0    0    0  501 -0.00000000000E+00  0.00000000000E+00  0.44722323848E+03  0.44722323849E+03  0.25500000000E-02 0. -1.
          2   -1    0    0  501    0  0.00000000000E+00 -0.00000000000E+00 -0.47189937271E+03  0.47189937272E+03  0.25500000000E-02 0.  1.
    5000001    1    1    2    0    0  0.13525003989E+03 -0.33492175598E+03 -0.24340665992E+03  0.46576491711E+03  0.16500000000E+03 0.  0.
   -5000001    1    1    2    0    0 -0.13525003989E+03  0.33492175598E+03  0.21873052570E+03  0.45335769409E+03  0.16500000000E+03 0.  0.
<mgrwt>
<rscale>  0 0.91879131E+03</rscale>
<asrwt>0</asrwt>
<pdfrwt beam="1">  1        2 0.67414196E-01 0.91879131E+03</pdfrwt>
<pdfrwt beam="2">  1       -2 0.63889034E-01 0.91879131E+03</pdfrwt>
<totfact> 0.16300760E+02</totfact>
</mgrwt>
</event>
<event>
 4    1  0.5399378E-005  0.6398727E+03  0.7818608E-02  0.9825970E-01
          2   -1    0    0  501    0  0.00000000000E+00  0.00000000000E+00  0.21545243114E+04  0.21545243114E+04  0.25500000000E-02 0.  1.
         -2   -1    0    0    0  501 -0.00000000000E+00 -0.00000000000E+00 -0.47508990074E+02  0.47508990142E+02  0.25500000000E-02 0. -1.
    5000001    1    1    2    0    0 -0.25639167858E+03  0.65112445370E+02  0.13006623679E+04  0.13375066051E+04  0.16500000000E+03 0.  0.
   -5000001    1    1    2    0    0  0.25639167858E+03 -0.65112445370E+02  0.80635295344E+03  0.86452669647E+03  0.16500000000E+03 0.  0.
<mgrwt>
<rscale>  0 0.63987272E+03</rscale>
<asrwt>0</asrwt>
<pdfrwt beam="1">  1        2 0.30778919E+00 0.63987272E+03</pdfrwt>
<pdfrwt beam="2">  1       -2 0.67869985E-02 0.63987272E+03</pdfrwt>
<totfact> 0.87941954E+02</totfact>
</mgrwt>
</event>
<event>
 4    1  0.5399378E-005  0.4394295E+03  0.7818608E-02  0.1030922E+00
         -2   -1    0    0    0  501 -0.00000000000E+00  0.00000000000E+00  0.10893357243E+03  0.10893357246E+03  0.25500000000E-02 0. -1.
          2   -1    0    0  501    0  0.00000000000E+00 -0.00000000000E+00 -0.44315594887E+03  0.44315594887E+03  0.25500000000E-02 0.  1.
    5000001    1    1    2    0    0  0.11308437515E+02 -0.14403804743E+03 -0.18371824391E+03  0.28609829257E+03  0.16500000000E+03 0.  0.
   -5000001    1    1    2    0    0 -0.11308437515E+02  0.14403804743E+03 -0.15050413253E+03  0.26599122876E+03  0.16500000000E+03 0.  0.
<mgrwt>
<rscale>  0 0.43942945E+03</rscale>
<asrwt>0</asrwt>
<pdfrwt beam="1">  1        2 0.63307992E-01 0.43942945E+03</pdfrwt>
<pdfrwt beam="2">  1       -2 0.15561939E-01 0.43942945E+03</pdfrwt>
<totfact> 0.25103076E+03</totfact>
</mgrwt>
</event>
<event>
 4    1  0.5399378E-005  0.1198022E+04  0.7818608E-02  0.9114589E-01
          2   -1    0    0  501    0  0.00000000000E+00  0.00000000000E+00  0.10064870373E+04  0.10064870373E+04  0.25500000000E-02 0.  1.
         -2   -1    0    0    0  501 -0.00000000000E+00 -0.00000000000E+00 -0.35650179381E+03  0.35650179382E+03  0.25500000000E-02 0. -1.
    5000001    1    1    2    0    0 -0.56744431433E+03  0.10975613947E+01  0.21354933654E+03  0.62834908582E+03  0.16500000000E+03 0.  0.
   -5000001    1    1    2    0    0  0.56744431433E+03 -0.10975613947E+01  0.43643590697E+03  0.73463974532E+03  0.16500000000E+03 0.  0.
<mgrwt>
<rscale>  0 0.11980224E+04</rscale>
<asrwt>0</asrwt>
<pdfrwt beam="1">  1        2 0.14378386E+00 0.11980224E+04</pdfrwt>
<pdfrwt beam="2">  1       -2 0.50928827E-01 0.11980224E+04</pdfrwt>
<totfact> 0.10009104E+02</totfact>
</mgrwt>
</event>
<event>
 4    1  0.5399378E-005  0.4469787E+03  0.7818608E-02  0.1028627E+00
         -2   -1    0    0    0  501 -0.00000000000E+00  0.00000000000E+00  0.94609890149E+02  0.94609890183E+02  0.25500000000E-02 0. -1.
          2   -1    0    0  501    0  0.00000000000E+00 -0.00000000000E+00 -0.52793093651E+03  0.52793093652E+03  0.25500000000E-02 0.  1.
    5000001    1    1    2    0    0 -0.14966715619E+03  0.17517730065E+00 -0.24166072484E+03  0.32867186411E+03  0.16500000000E+03 0.  0.
   -5000001    1    1    2    0    0  0.14966715619E+03 -0.17517730065E+00 -0.19166032152E+03  0.29386896259E+03  0.16500000000E+03 0.  0.
<mgrwt>
<rscale>  0 0.44697869E+03</rscale>
<asrwt>0</asrwt>
<pdfrwt beam="1">  1        2 0.75418704E-01 0.44697869E+03</pdfrwt>
<pdfrwt beam="2">  1       -2 0.13515699E-01 0.44697869E+03</pdfrwt>
<totfact> 0.26093946E+03</totfact>
</mgrwt>
</event>
<event>
 4    1  0.5399378E-005  0.3478813E+03  0.7818608E-02  0.1063488E+00
          2   -1    0    0  501    0  0.00000000000E+00  0.00000000000E+00  0.78785299418E+03  0.78785299419E+03  0.25500000000E-02 0.  1.
         -2   -1    0    0    0  501 -0.00000000000E+00 -0.00000000000E+00 -0.38402277238E+02  0.38402277322E+02  0.25500000000E-02 0. -1.
    5000001    1    1    2    0    0 -0.44423702463E+01 -0.42233870326E+02  0.45791904042E+03  0.48858804942E+03  0.16500000000E+03 0.  0.
   -5000001    1    1    2    0    0  0.44423702463E+01  0.42233870326E+02  0.29153167652E+03  0.33766722209E+03  0.16500000000E+03 0.  0.
<mgrwt>
<rscale>  0 0.34788130E+03</rscale>
<asrwt>0</asrwt>
<pdfrwt beam="1">  1        2 0.11255042E+00 0.34788130E+03</pdfrwt>
<pdfrwt beam="2">  1       -2 0.54860401E-02 0.34788130E+03</pdfrwt>
<totfact> 0.67808190E+03</totfact>
</mgrwt>
</event>
<event>
 4    1  0.5399378E-005  0.1091912E+04  0.7818608E-02  0.9213111E-01
          2   -1    0    0  501    0  0.00000000000E+00  0.00000000000E+00  0.69352063663E+03  0.69352063663E+03  0.25500000000E-02 0.  1.
         -2   -1    0    0    0  501 -0.00000000000E+00 -0.00000000000E+00 -0.42978992803E+03  0.42978992804E+03  0.25500000000E-02 0. -1.
    5000001    1    1    2    0    0  0.35300695338E+03  0.36173204357E+03  0.42864212276E+01  0.53170231699E+03  0.16500000000E+03 0.  0.
   -5000001    1    1    2    0    0 -0.35300695338E+03 -0.36173204357E+03  0.25944428737E+03  0.59160824769E+03  0.16500000000E+03 0.  0.
<mgrwt>
<rscale>  0 0.10919124E+04</rscale>
<asrwt>0</asrwt>
<pdfrwt beam="1">  1        2 0.99074377E-01 0.10919124E+04</pdfrwt>
<pdfrwt beam="2">  1       -2 0.61398561E-01 0.10919124E+04</pdfrwt>
<totfact> 0.11162049E+02</totfact>
</mgrwt>
</event>
<event>
 4    1  0.5399378E-005  0.4363865E+03  0.7818608E-02  0.1031861E+00
          2   -1    0    0  501    0  0.00000000000E+00  0.00000000000E+00  0.29897268393E+03  0.29897268394E+03  0.25500000000E-02 0.  1.
         -2   -1    0    0    0  501 -0.00000000000E+00 -0.00000000000E+00 -0.15923962202E+03  0.15923962204E+03  0.25500000000E-02 0. -1.
    5000001    1    1    2    0    0  0.21367029390E+02 -0.13988793295E+03  0.49996170218E+02  0.22304663362E+03  0.16500000000E+03 0.  0.
   -5000001    1    1    2    0    0 -0.21367029390E+02  0.13988793295E+03  0.89736891689E+02  0.23516567237E+03  0.16500000000E+03 0.  0.
<mgrwt>
<rscale>  0 0.43638651E+03</rscale>
<asrwt>0</asrwt>
<pdfrwt beam="1">  1        2 0.42710383E-01 0.43638651E+03</pdfrwt>
<pdfrwt beam="2">  1       -2 0.22748518E-01 0.43638651E+03</pdfrwt>
<totfact> 0.20146098E+03</totfact>
</mgrwt>
</event>
<event>
 4    1  0.5399378E-005  0.4574325E+03  0.7818608E-02  0.1025529E+00
          2   -1    0    0  501    0  0.00000000000E+00  0.00000000000E+00  0.94903255862E+03  0.94903255862E+03  0.25500000000E-02 0.  1.
         -2   -1    0    0    0  501 -0.00000000000E+00 -0.00000000000E+00 -0.55120462113E+02  0.55120462172E+02  0.25500000000E-02 0. -1.
    5000001    1    1    2    0    0  0.20472202608E+02  0.61846708025E+02  0.76387081888E+03  0.78419879769E+03  0.16500000000E+03 0.  0.
   -5000001    1    1    2    0    0 -0.20472202608E+02 -0.61846708025E+02  0.13004127763E+03  0.21995422310E+03  0.16500000000E+03 0.  0.
<mgrwt>
<rscale>  0 0.45743246E+03</rscale>
<asrwt>0</asrwt>
<pdfrwt beam="1">  1        2 0.13557607E+00 0.45743246E+03</pdfrwt>
<pdfrwt beam="2">  1       -2 0.78743520E-02 0.45743246E+03</pdfrwt>
<totfact> 0.30449257E+03</totfact>
</mgrwt>
</event>
<event>
 4    1  0.5399378E-005  0.1037376E+04  0.7818608E-02  0.9268475E-01
         -2   -1    0    0    0  501 -0.00000000000E+00  0.00000000000E+00  0.15968612128E+03  0.15968612130E+03  0.25500000000E-02 0. -1.
          2   -1    0    0  501    0  0.00000000000E+00 -0.00000000000E+00 -0.16847886951E+04  0.16847886951E+04  0.25500000000E-02 0.  1.
    5000001    1    1    2    0    0 -0.45383398222E+03 -0.12950538111E+03 -0.10081204131E+04  0.11252860500E+04  0.16500000000E+03 0.  0.
   -5000001    1    1    2    0    0  0.45383398222E+03  0.12950538111E+03 -0.51698216079E+03  0.71918876641E+03  0.16500000000E+03 0.  0.
<mgrwt>
<rscale>  0 0.10373763E+04</rscale>
<asrwt>0</asrwt>
<pdfrwt beam="1">  1        2 0.24068409E+00 0.10373763E+04</pdfrwt>
<pdfrwt beam="2">  1       -2 0.22812304E-01 0.10373763E+04</pdfrwt>
<totfact> 0.19670606E+02</totfact>
</mgrwt>
</event>
<event>
 4    1  0.5399378E-005  0.8404300E+03  0.7818608E-02  0.9503272E-01
          2   -1    0    0  501    0  0.00000000000E+00  0.00000000000E+00  0.20805687084E+04  0.20805687084E+04  0.25500000000E-02 0.  1.
         -2   -1    0    0    0  501 -0.00000000000E+00 -0.00000000000E+00 -0.84871331651E+02  0.84871331689E+02  0.25500000000E-02 0. -1.
    5000001    1    1    2    0    0 -0.12226139435E+03 -0.12776211361E+03  0.11244502298E+03  0.26672062053E+03  0.16500000000E+03 0.  0.
   -5000001    1    1    2    0    0  0.12226139435E+03  0.12776211361E+03  0.18832523538E+04  0.18987194196E+04  0.16500000000E+03 0.  0.
<mgrwt>
<rscale>  0 0.84042998E+03</rscale>
<asrwt>0</asrwt>
<pdfrwt beam="1">  1        2 0.29722412E+00 0.84042998E+03</pdfrwt>
<pdfrwt beam="2">  1       -2 0.12124475E-01 0.84042998E+03</pdfrwt>
<totfact> 0.37035074E+02</totfact>
</mgrwt>
</event>
<event>
 4    1  0.5399378E-005  0.5268345E+03  0.7818608E-02  0.1007003E+00
          2   -1    0    0  501    0  0.00000000000E+00  0.00000000000E+00  0.68695949046E+03  0.68695949046E+03  0.25500000000E-02 0.  1.
         -2   -1    0    0    0  501 -0.00000000000E+00 -0.00000000000E+00 -0.10100835332E+03  0.10100835335E+03  0.25500000000E-02 0. -1.
    5000001    1    1    2    0    0  0.13460887110E+03 -0.10751101196E+03  0.46009884061E+03  0.51826065739E+03  0.16500000000E+03 0.  0.
   -5000001    1    1    2    0    0 -0.13460887110E+03  0.10751101196E+03  0.12585229653E+03  0.26970718643E+03  0.16500000000E+03 0.  0.
<mgrwt>
<rscale>  0 0.52683450E+03</rscale>
<asrwt>0</asrwt>
<pdfrwt beam="1">  1        2 0.98137068E-01 0.52683450E+03</pdfrwt>
<pdfrwt beam="2">  1       -2 0.14429765E-01 0.52683450E+03</pdfrwt>
<totfact> 0.17210576E+03</totfact>
</mgrwt>
</event>
<event>
 4    1  0.5399378E-005  0.5244683E+03  0.7818608E-02  0.1007583E+00
         -2   -1    0    0    0  501 -0.00000000000E+00  0.00000000000E+00  0.10414568582E+03  0.10414568585E+03  0.25500000000E-02 0. -1.
          2   -1    0    0  501    0  0.00000000000E+00 -0.00000000000E+00 -0.66029389960E+03  0.66029389960E+03  0.25500000000E-02 0.  1.
    5000001    1    1    2    0    0  0.16108417440E+03  0.84499622440E+01 -0.45966798184E+03  0.51433371135E+03  0.16500000000E+03 0.  0.
   -5000001    1    1    2    0    0 -0.16108417440E+03 -0.84499622440E+01 -0.96480231941E+02  0.25010587410E+03  0.16500000000E+03 0.  0.
<mgrwt>
<rscale>  0 0.52446834E+03</rscale>
<asrwt>0</asrwt>
<pdfrwt beam="1">  1        2 0.94327698E-01 0.52446834E+03</pdfrwt>
<pdfrwt beam="2">  1       -2 0.14877955E-01 0.52446834E+03</pdfrwt>
<totfact> 0.17150282E+03</totfact>
</mgrwt>
</event>
<event>
 4    1  0.5399378E-005  0.6202921E+03  0.7818608E-02  0.9864178E-01
         -2   -1    0    0    0  501 -0.00000000000E+00  0.00000000000E+00  0.81639884557E+02  0.81639884597E+02  0.25500000000E-02 0. -1.
          2   -1    0    0  501    0  0.00000000000E+00 -0.00000000000E+00 -0.11782301020E+04  0.11782301021E+04  0.25500000000E-02 0.  1.
    5000001    1    1    2    0    0  0.11923302906E+03 -0.21088973879E+03 -0.75417378375E+03  0.80913169091E+03  0.16500000000E+03 0.  0.
   -5000001    1    1    2    0    0 -0.11923302906E+03  0.21088973879E+03 -0.34241643374E+03  0.45073829574E+03  0.16500000000E+03 0.  0.
<mgrwt>
<rscale>  0 0.62029209E+03</rscale>
<asrwt>0</asrwt>
<pdfrwt beam="1">  1        2 0.16831858E+00 0.62029209E+03</pdfrwt>
<pdfrwt beam="2">  1       -2 0.11662841E-01 0.62029209E+03</pdfrwt>
<totfact> 0.11821421E+03</totfact>
</mgrwt>
</event>
<event>
 4    1  0.5399378E-005  0.6047985E+03  0.7818608E-02  0.9895500E-01
          2   -1    0    0  501    0  0.00000000000E+00  0.00000000000E+00  0.12705323734E+04  0.12705323734E+04  0.25500000000E-02 0.  1.
         -2   -1    0    0    0  501 -0.00000000000E+00 -0.00000000000E+00 -0.71974012488E+02  0.71974012533E+02  0.25500000000E-02 0. -1.
    5000001    1    1    2    0    0 -0.18296495002E+03 -0.17527976250E+03  0.58907194697E+03  0.66214041320E+03  0.16500000000E+03 0.  0.
   -5000001    1    1    2    0    0  0.18296495002E+03  0.17527976250E+03  0.60948641392E+03  0.68036597272E+03  0.16500000000E+03 0.  0.
<mgrwt>
<rscale>  0 0.60479852E+03</rscale>
<asrwt>0</asrwt>
<pdfrwt beam="1">  1        2 0.18150462E+00 0.60479852E+03</pdfrwt>
<pdfrwt beam="2">  1       -2 0.10282002E-01 0.60479852E+03</pdfrwt>
<totfact> 0.12909360E+03</totfact>
</mgrwt>
</event>
<event>
 4    1  0.5399378E-005  0.1165529E+04  0.7818608E-02  0.9143576E-01
         -2   -1    0    0    0  501 -0.00000000000E+00  0.00000000000E+00  0.43276849090E+03  0.43276849091E+03  0.25500000000E-02 0. -1.
          2   -1    0    0  501    0  0.00000000000E+00 -0.00000000000E+00 -0.78474835420E+03  0.78474835421E+03  0.25500000000E-02 0.  1.
    5000001    1    1    2    0    0  0.50531042349E+03  0.65000340890E+02  0.64100338107E+02  0.53934916496E+03  0.16500000000E+03 0.  0.
   -5000001    1    1    2    0    0 -0.50531042349E+03 -0.65000340890E+02 -0.41608020140E+03  0.67816768015E+03  0.16500000000E+03 0.  0.
<mgrwt>
<rscale>  0 0.11655288E+04</rscale>
<asrwt>0</asrwt>
<pdfrwt beam="1">  1        2 0.11210691E+00 0.11655288E+04</pdfrwt>
<pdfrwt beam="2">  1       -2 0.61824070E-01 0.11655288E+04</pdfrwt>
<totfact> 0.93726784E+01</totfact>
</mgrwt>
</event>
<event>
 4    1  0.5399378E-005  0.6426199E+03  0.7818608E-02  0.9820727E-01
          2   -1    0    0  501    0  0.00000000000E+00  0.00000000000E+00  0.15569264378E+03  0.15569264380E+03  0.25500000000E-02 0.  1.
         -2   -1    0    0    0  501 -0.00000000000E+00 -0.00000000000E+00 -0.66310182297E+03  0.66310182298E+03  0.25500000000E-02 0. -1.
    5000001    1    1    2    0    0 -0.23685610110E+03  0.14014190642E+03 -0.27481512875E+03  0.42247949247E+03  0.16500000000E+03 0.  0.
   -5000001    1    1    2    0    0  0.23685610110E+03 -0.14014190642E+03 -0.23259405044E+03  0.39631497431E+03  0.16500000000E+03 0.  0.
<mgrwt>
<rscale>  0 0.64261987E+03</rscale>
<asrwt>0</asrwt>
<pdfrwt beam="1">  1        2 0.22241807E-01 0.64261987E+03</pdfrwt>
<pdfrwt beam="2">  1       -2 0.94728830E-01 0.64261987E+03</pdfrwt>
<totfact> 0.23798247E+02</totfact>
</mgrwt>
</event>
<event>
 4    1  0.5399378E-005  0.4816893E+03  0.7818608E-02  0.1018672E+00
          2   -1    0    0  501    0  0.00000000000E+00  0.00000000000E+00  0.99277241226E+02  0.99277241259E+02  0.25500000000E-02 0.  1.
         -2   -1    0    0    0  501 -0.00000000000E+00 -0.00000000000E+00 -0.58428448706E+03  0.58428448706E+03  0.25500000000E-02 0. -1.
    5000001    1    1    2    0    0 -0.12902173938E+03 -0.69453571864E+02 -0.37943497951E+03  0.43893770805E+03  0.16500000000E+03 0.  0.
   -5000001    1    1    2    0    0  0.12902173938E+03  0.69453571864E+02 -0.10557226633E+03  0.24462402027E+03  0.16500000000E+03 0.  0.
<mgrwt>
<rscale>  0 0.48168933E+03</rscale>
<asrwt>0</asrwt>
<pdfrwt beam="1">  1        2 0.14182463E-01 0.48168933E+03</pdfrwt>
<pdfrwt beam="2">  1       -2 0.83469210E-01 0.48168933E+03</pdfrwt>
<totfact> 0.54357869E+02</totfact>
</mgrwt>
</event>
<event>
 4    1  0.5399378E-005  0.4413672E+03  0.7818608E-02  0.1030328E+00
         -2   -1    0    0    0  501 -0.00000000000E+00  0.00000000000E+00  0.18653993100E+02  0.18653993274E+02  0.25500000000E-02 0. -1.
          2   -1    0    0  501    0  0.00000000000E+00 -0.00000000000E+00 -0.26107680016E+04  0.26107680016E+04  0.25500000000E-02 0.  1.
    5000001    1    1    2    0    0  0.65578978876E+02 -0.92454459738E+02 -0.18494208222E+04  0.18602233219E+04  0.16500000000E+03 0.  0.
   -5000001    1    1    2    0    0 -0.65578978876E+02  0.92454459738E+02 -0.74269318629E+03  0.76919867301E+03  0.16500000000E+03 0.  0.
<mgrwt>
<rscale>  0 0.44136719E+03</rscale>
<asrwt>0</asrwt>
<pdfrwt beam="1">  1        2 0.37296662E+00 0.44136719E+03</pdfrwt>
<pdfrwt beam="2">  1       -2 0.26648578E-02 0.44136719E+03</pdfrwt>
<totfact> 0.22007247E+03</totfact>
</mgrwt>
</event>
<event>
 4    1  0.5399378E-005  0.3542908E+03  0.7818608E-02  0.1060868E+00
         -2   -1    0    0    0  501 -0.00000000000E+00  0.00000000000E+00  0.52492936047E+03  0.52492936047E+03  0.25500000000E-02 0. -1.
          2   -1    0    0  501    0  0.00000000000E+00 -0.00000000000E+00 -0.59780394778E+02  0.59780394832E+02  0.25500000000E-02 0.  1.
    5000001    1    1    2    0    0  0.19024901971E+02  0.60759841265E+02  0.21592464288E+03  0.27910957814E+03  0.16500000000E+03 0.  0.
   -5000001    1    1    2    0    0 -0.19024901971E+02 -0.60759841265E+02  0.24922432281E+03  0.30560017717E+03  0.16500000000E+03 0.  0.
<mgrwt>
<rscale>  0 0.35429075E+03</rscale>
<asrwt>0</asrwt>
<pdfrwt beam="1">  1        2 0.85400559E-02 0.35429075E+03</pdfrwt>
<pdfrwt beam="2">  1       -2 0.74989913E-01 0.35429075E+03</pdfrwt>
<totfact> 0.12929618E+03</totfact>
</mgrwt>
</event>
<event>
 4    1  0.5399378E-005  0.8406163E+03  0.7818608E-02  0.9503019E-01
         -2   -1    0    0    0  501 -0.00000000000E+00  0.00000000000E+00  0.30865805379E+03  0.30865805380E+03  0.25500000000E-02 0. -1.
          2   -1    0    0  501    0  0.00000000000E+00 -0.00000000000E+00 -0.57234516312E+03  0.57234516312E+03  0.25500000000E-02 0.  1.
    5000001    1    1    2    0    0  0.24306725824E+03 -0.26629353669E+03 -0.27796967814E+03  0.48423762935E+03  0.16500000000E+03 0.  0.
   -5000001    1    1    2    0    0 -0.24306725824E+03  0.26629353669E+03  0.14282568808E+02  0.39676558757E+03  0.16500000000E+03 0.  0.
<mgrwt>
<rscale>  0 0.84061631E+03</rscale>
<asrwt>0</asrwt>
<pdfrwt beam="1">  1        2 0.81763594E-01 0.84061631E+03</pdfrwt>
<pdfrwt beam="2">  1       -2 0.44094008E-01 0.84061631E+03</pdfrwt>
<totfact> 0.28105024E+02</totfact>
</mgrwt>
</event>
<event>
 4    1  0.5399378E-005  0.6843848E+03  0.7818608E-02  0.9744315E-01
          2   -1    0    0  501    0  0.00000000000E+00  0.00000000000E+00  0.12999918494E+03  0.12999918496E+03  0.25500000000E-02 0.  1.
         -2   -1    0    0    0  501 -0.00000000000E+00 -0.00000000000E+00 -0.90074143911E+03  0.90074143911E+03  0.25500000000E-02 0. -1.
    5000001    1    1    2    0    0  0.17779530019E+03  0.18602283238E+03 -0.61700944123E+03  0.68857919915E+03  0.16500000000E+03 0.  0.
   -5000001    1    1    2    0    0 -0.17779530019E+03 -0.18602283238E+03 -0.15373281294E+03  0.34216142493E+03  0.16500000000E+03 0.  0.
<mgrwt>
<rscale>  0 0.68438484E+03</rscale>
<asrwt>0</asrwt>
<pdfrwt beam="1">  1        2 0.18571313E-01 0.68438484E+03</pdfrwt>
<pdfrwt beam="2">  1       -2 0.12867734E+00 0.68438484E+03</pdfrwt>
<totfact> 0.13989742E+02</totfact>
</mgrwt>
</event>
<event>
 4    1  0.5399378E-005  0.3557444E+03  0.7818608E-02  0.1060282E+00
          2   -1    0    0  501    0  0.00000000000E+00  0.00000000000E+00  0.12572098734E+03  0.12572098736E+03  0.25500000000E-02 0.  1.
         -2   -1    0    0    0  501 -0.00000000000E+00 -0.00000000000E+00 -0.25165663115E+03  0.25165663116E+03  0.25500000000E-02 0. -1.
    5000001    1    1    2    0    0 -0.33427040678E+02 -0.55345779723E+02 -0.79160323157E+02  0.19409244999E+03  0.16500000000E+03 0.  0.
   -5000001    1    1    2    0    0  0.33427040678E+02  0.55345779723E+02 -0.46775320656E+02  0.18328516853E+03  0.16500000000E+03 0.  0.
<mgrwt>
<rscale>  0 0.35574440E+03</rscale>
<asrwt>0</asrwt>
<pdfrwt beam="1">  1        2 0.17960141E-01 0.35574440E+03</pdfrwt>
<pdfrwt beam="2">  1       -2 0.35950947E-01 0.35574440E+03</pdfrwt>
<totfact> 0.23112968E+03</totfact>
</mgrwt>
</event>
<event>
 4    1  0.5399378E-005  0.8836516E+03  0.7818608E-02  0.9446252E-01
         -2   -1    0    0    0  501 -0.00000000000E+00  0.00000000000E+00  0.12799052904E+03  0.12799052906E+03  0.25500000000E-02 0. -1.
          2   -1    0    0  501    0  0.00000000000E+00 -0.00000000000E+00 -0.15251912005E+04  0.15251912005E+04  0.25500000000E-02 0.  1.
    5000001    1    1    2    0    0  0.39127805189E+03 -0.35977563740E+02 -0.91671421064E+03  0.10109316708E+04  0.16500000000E+03 0.  0.
   -5000001    1    1    2    0    0 -0.39127805189E+03  0.35977563740E+02 -0.48048646082E+03  0.64225005879E+03  0.16500000000E+03 0.  0.
<mgrwt>
<rscale>  0 0.88365158E+03</rscale>
<asrwt>0</asrwt>
<pdfrwt beam="1">  1        2 0.21788445E+00 0.88365158E+03</pdfrwt>
<pdfrwt beam="2">  1       -2 0.18284362E-01 0.88365158E+03</pdfrwt>
<totfact> 0.35492164E+02</totfact>
</mgrwt>
</event>
<event>
 4    1  0.5399378E-005  0.5643957E+03  0.7818608E-02  0.9982157E-01
         -2   -1    0    0    0  501 -0.00000000000E+00  0.00000000000E+00  0.16294610553E+03  0.16294610555E+03  0.25500000000E-02 0. -1.
          2   -1    0    0  501    0  0.00000000000E+00 -0.00000000000E+00 -0.48872378684E+03  0.48872378685E+03  0.25500000000E-02 0.  1.
    5000001    1    1    2    0    0 -0.17735652304E+03  0.12132192954E+03 -0.71707260841E+02  0.28025216879E+03  0.16500000000E+03 0.  0.
   -5000001    1    1    2    0    0  0.17735652304E+03 -0.12132192954E+03 -0.25407042047E+03  0.37141772361E+03  0.16500000000E+03 0.  0.
<mgrwt>
<rscale>  0 0.56439574E+03</rscale>
<asrwt>0</asrwt>
<pdfrwt beam="1">  1        2 0.69817683E-01 0.56439574E+03</pdfrwt>
<pdfrwt beam="2">  1       -2 0.23278015E-01 0.56439574E+03</pdfrwt>
<totfact> 0.11245030E+03</totfact>
</mgrwt>
</event>
<event>
 4    1  0.5399378E-005  0.5557498E+03  0.7818608E-02  0.1000172E+00
          2   -1    0    0  501    0  0.00000000000E+00  0.00000000000E+00  0.10977090172E+03  0.10977090175E+03  0.25500000000E-02 0.  1.
         -2   -1    0    0    0  501 -0.00000000000E+00 -0.00000000000E+00 -0.70341467762E+03  0.70341467763E+03  0.25500000000E-02 0. -1.
    5000001    1    1    2    0    0 -0.21474939129E+03 -0.58466368464E+02 -0.32799388860E+03  0.42934905177E+03  0.16500000000E+03 0.  0.
   -5000001    1    1    2    0    0  0.21474939129E+03  0.58466368464E+02 -0.26564988730E+03  0.38383652760E+03  0.16500000000E+03 0.  0.
<mgrwt>
<rscale>  0 0.55574981E+03</rscale>
<asrwt>0</asrwt>
<pdfrwt beam="1">  1        2 0.15681558E-01 0.55574981E+03</pdfrwt>
<pdfrwt beam="2">  1       -2 0.10048781E+00 0.55574981E+03</pdfrwt>
<totfact> 0.31381237E+02</totfact>
</mgrwt>
</event>
<event>
 4    1  0.5399378E-005  0.4041586E+03  0.7818608E-02  0.1042349E+00
          2   -1    0    0  501    0  0.00000000000E+00  0.00000000000E+00  0.25516397885E+03  0.25516397886E+03  0.25500000000E-02 0.  1.
         -2   -1    0    0    0  501 -0.00000000000E+00 -0.00000000000E+00 -0.16003841965E+03  0.16003841967E+03  0.25500000000E-02 0. -1.
    5000001    1    1    2    0    0 -0.84120130953E+02 -0.51169704580E+02 -0.16729286368E+02  0.19287147047E+03  0.16500000000E+03 0.  0.
   -5000001    1    1    2    0    0  0.84120130953E+02  0.51169704580E+02  0.11185484557E+03  0.22233092807E+03  0.16500000000E+03 0.  0.
<mgrwt>
<rscale>  0 0.40415858E+03</rscale>
<asrwt>0</asrwt>
<pdfrwt beam="1">  1        2 0.36451997E-01 0.40415858E+03</pdfrwt>
<pdfrwt beam="2">  1       -2 0.22862631E-01 0.40415858E+03</pdfrwt>
<totfact> 0.23729205E+03</totfact>
</mgrwt>
</event>
<event>
 4    1  0.5399378E-005  0.5452850E+03  0.7818608E-02  0.1002591E+00
          2   -1    0    0  501    0  0.00000000000E+00  0.00000000000E+00  0.10213356766E+04  0.10213356766E+04  0.25500000000E-02 0.  1.
         -2   -1    0    0    0  501 -0.00000000000E+00 -0.00000000000E+00 -0.72781094809E+02  0.72781094853E+02  0.25500000000E-02 0. -1.
    5000001    1    1    2    0    0  0.13945590525E+03 -0.15041933775E+03  0.33190025007E+03  0.42362330280E+03  0.16500000000E+03 0.  0.
   -5000001    1    1    2    0    0 -0.13945590525E+03  0.15041933775E+03  0.61665433172E+03  0.67049346866E+03  0.16500000000E+03 0.  0.
<mgrwt>
<rscale>  0 0.54528499E+03</rscale>
<asrwt>0</asrwt>
<pdfrwt beam="1">  1        2 0.14590508E+00 0.54528499E+03</pdfrwt>
<pdfrwt beam="2">  1       -2 0.10397301E-01 0.54528499E+03</pdfrwt>
<totfact> 0.17622748E+03</totfact>
</mgrwt>
</event>
<event>
 4    1  0.5399378E-005  0.4952937E+03  0.7818608E-02  0.1015015E+00
         -2   -1    0    0    0  501 -0.00000000000E+00  0.00000000000E+00  0.31344943781E+02  0.31344943885E+02  0.25500000000E-02 0. -1.
          2   -1    0    0  501    0  0.00000000000E+00 -0.00000000000E+00 -0.19565825064E+04  0.19565825064E+04  0.25500000000E-02 0.  1.
    5000001    1    1    2    0    0  0.73998173801E+02  0.16548760683E+03 -0.82116504712E+03  0.85697077684E+03  0.16500000000E+03 0.  0.
   -5000001    1    1    2    0    0 -0.73998173801E+02 -0.16548760683E+03 -0.11040725155E+04  0.11309566734E+04  0.16500000000E+03 0.  0.
<mgrwt>
<rscale>  0 0.49529373E+03</rscale>
<asrwt>0</asrwt>
<pdfrwt beam="1">  1        2 0.27951171E+00 0.49529373E+03</pdfrwt>
<pdfrwt beam="2">  1       -2 0.44778504E-02 0.49529373E+03</pdfrwt>
<totfact> 0.21279164E+03</totfact>
</mgrwt>
</event>
<event>
 4    1  0.5399378E-005  0.6835490E+03  0.7818608E-02  0.9745787E-01
         -2   -1    0    0    0  501 -0.00000000000E+00  0.00000000000E+00  0.44294455478E+03  0.44294455479E+03  0.25500000000E-02 0. -1.
          2   -1    0    0  501    0  0.00000000000E+00 -0.00000000000E+00 -0.26371200628E+03  0.26371200629E+03  0.25500000000E-02 0.  1.
    5000001    1    1    2    0    0  0.19485262220E+03 -0.10327288152E+02 -0.14501563202E+03  0.29381751274E+03  0.16500000000E+03 0.  0.
   -5000001    1    1    2    0    0 -0.19485262220E+03  0.10327288152E+02  0.32424818053E+03  0.41283904834E+03  0.16500000000E+03 0.  0.
<mgrwt>
<rscale>  0 0.68354897E+03</rscale>
<asrwt>0</asrwt>
<pdfrwt beam="1">  1        2 0.37673144E-01 0.68354897E+03</pdfrwt>
<pdfrwt beam="2">  1       -2 0.63277794E-01 0.68354897E+03</pdfrwt>
<totfact> 0.32142751E+02</totfact>
</mgrwt>
</event>
<event>
 4    1  0.5399378E-005  0.1046148E+04  0.7818608E-02  0.9259330E-01
         -2   -1    0    0    0  501 -0.00000000000E+00  0.00000000000E+00  0.15484341282E+03  0.15484341284E+03  0.25500000000E-02 0. -1.
          2   -1    0    0  501    0  0.00000000000E+00 -0.00000000000E+00 -0.17669870285E+04  0.17669870285E+04  0.25500000000E-02 0.  1.
    5000001    1    1    2    0    0 -0.10942728615E+03  0.45609255141E+03 -0.50766180608E+03  0.71059148303E+03  0.16500000000E+03 0.  0.
   -5000001    1    1    2    0    0  0.10942728615E+03 -0.45609255141E+03 -0.11044818096E+04  0.12112389583E+04  0.16500000000E+03 0.  0.
<mgrwt>
<rscale>  0 0.10461478E+04</rscale>
<asrwt>0</asrwt>
<pdfrwt beam="1">  1        2 0.25242671E+00 0.10461478E+04</pdfrwt>
<pdfrwt beam="2">  1       -2 0.22120489E-01 0.10461478E+04</pdfrwt>
<totfact> 0.18835512E+02</totfact>
</mgrwt>
</event>
<event>
 4    1  0.5399378E-005  0.4609553E+03  0.7818608E-02  0.1024505E+00
          2   -1    0    0  501    0  0.00000000000E+00  0.00000000000E+00  0.32584769386E+03  0.32584769387E+03  0.25500000000E-02 0.  1.
         -2   -1    0    0    0  501 -0.00000000000E+00 -0.00000000000E+00 -0.16302078010E+03  0.16302078012E+03  0.25500000000E-02 0. -1.
    5000001    1    1    2    0    0 -0.82101924617E+01  0.13663736519E+03  0.17114022978E+03  0.27431943984E+03  0.16500000000E+03 0.  0.
   -5000001    1    1    2    0    0  0.82101924617E+01 -0.13663736519E+03 -0.83133160152E+01  0.21454903414E+03  0.16500000000E+03 0.  0.
<mgrwt>
<rscale>  0 0.46095529E+03</rscale>
<asrwt>0</asrwt>
<pdfrwt beam="1">  1        2 0.46549670E-01 0.46095529E+03</pdfrwt>
<pdfrwt beam="2">  1       -2 0.23288683E-01 0.46095529E+03</pdfrwt>
<totfact> 0.17601715E+03</totfact>
</mgrwt>
</event>
<event>
 4    1  0.5399378E-005  0.5804969E+03  0.7818608E-02  0.9946716E-01
          2   -1    0    0  501    0  0.00000000000E+00  0.00000000000E+00  0.26158442830E+03  0.26158442831E+03  0.25500000000E-02 0.  1.
         -2   -1    0    0    0  501 -0.00000000000E+00 -0.00000000000E+00 -0.32205337786E+03  0.32205337787E+03  0.25500000000E-02 0. -1.
    5000001    1    1    2    0    0  0.10909899762E+03  0.21035426441E+03 -0.59849598777E+02  0.29488723660E+03  0.16500000000E+03 0.  0.
   -5000001    1    1    2    0    0 -0.10909899762E+03 -0.21035426441E+03 -0.61935078320E+00  0.28875056958E+03  0.16500000000E+03 0.  0.
<mgrwt>
<rscale>  0 0.58049685E+03</rscale>
<asrwt>0</asrwt>
<pdfrwt beam="1">  1        2 0.37369204E-01 0.58049685E+03</pdfrwt>
<pdfrwt beam="2">  1       -2 0.46007626E-01 0.58049685E+03</pdfrwt>
<totfact> 0.62663843E+02</totfact>
</mgrwt>
</event>
<event>
 4    1  0.5399378E-005  0.7448592E+03  0.7818608E-02  0.9643450E-01
         -2   -1    0    0    0  501 -0.00000000000E+00  0.00000000000E+00  0.64314469227E+02  0.64314469277E+02  0.25500000000E-02 0. -1.
          2   -1    0    0  501    0  0.00000000000E+00 -0.00000000000E+00 -0.21566502137E+04  0.21566502137E+04  0.25500000000E-02 0.  1.
    5000001    1    1    2    0    0 -0.13312975916E+03  0.27268540749E+03 -0.14614520349E+04  0.15017149911E+04  0.16500000000E+03 0.  0.
   -5000001    1    1    2    0    0  0.13312975916E+03 -0.27268540749E+03 -0.63088370955E+03  0.71924969184E+03  0.16500000000E+03 0.  0.
<mgrwt>
<rscale>  0 0.74485922E+03</rscale>
<asrwt>0</asrwt>
<pdfrwt beam="1">  1        2 0.30809284E+00 0.74485922E+03</pdfrwt>
<pdfrwt beam="2">  1       -2 0.91877826E-02 0.74485922E+03</pdfrwt>
<totfact> 0.53704440E+02</totfact>
</mgrwt>
</event>
<event>
 4    1  0.5399378E-005  0.5026998E+03  0.7818608E-02  0.1013077E+00
         -2   -1    0    0    0  501 -0.00000000000E+00  0.00000000000E+00  0.33109129384E+02  0.33109129483E+02  0.25500000000E-02 0. -1.
          2   -1    0    0  501    0  0.00000000000E+00 -0.00000000000E+00 -0.19081377924E+04  0.19081377924E+04  0.25500000000E-02 0.  1.
    5000001    1    1    2    0    0  0.17473260716E+03 -0.71826736121E+02 -0.87510164804E+03  0.91033974890E+03  0.16500000000E+03 0.  0.
   -5000001    1    1    2    0    0 -0.17473260716E+03  0.71826736121E+02 -0.99992701497E+03  0.10309071730E+04  0.16500000000E+03 0.  0.
<mgrwt>
<rscale>  0 0.50269984E+03</rscale>
<asrwt>0</asrwt>
<pdfrwt beam="1">  1        2 0.27259104E+00 0.50269984E+03</pdfrwt>
<pdfrwt beam="2">  1       -2 0.47298768E-02 0.50269984E+03</pdfrwt>
<totfact> 0.20673935E+03</totfact>
</mgrwt>
</event>
<event>
 4    1  0.5399378E-005  0.4162655E+03  0.7818608E-02  0.1038289E+00
          2   -1    0    0  501    0  0.00000000000E+00  0.00000000000E+00  0.20976527279E+04  0.20976527279E+04  0.25500000000E-02 0.  1.
         -2   -1    0    0    0  501 -0.00000000000E+00 -0.00000000000E+00 -0.20651291953E+02  0.20651292110E+02  0.25500000000E-02 0. -1.
    5000001    1    1    2    0    0 -0.52115923261E+02  0.11552867721E+03  0.10100331174E+04  0.10312394692E+04  0.16500000000E+03 0.  0.
   -5000001    1    1    2    0    0  0.52115923261E+02 -0.11552867721E+03  0.10669683185E+04  0.10870645507E+04  0.16500000000E+03 0.  0.
<mgrwt>
<rscale>  0 0.41626549E+03</rscale>
<asrwt>0</asrwt>
<pdfrwt beam="1">  1        2 0.29966446E+00 0.41626549E+03</pdfrwt>
<pdfrwt beam="2">  1       -2 0.29501867E-02 0.41626549E+03</pdfrwt>
<totfact> 0.34240340E+03</totfact>
</mgrwt>
</event>
<event>
 4    1  0.5399378E-005  0.4719826E+03  0.7818608E-02  0.1021362E+00
         -2   -1    0    0    0  501 -0.00000000000E+00  0.00000000000E+00  0.28174820860E+03  0.28174820861E+03  0.25500000000E-02 0. -1.
          2   -1    0    0  501    0  0.00000000000E+00 -0.00000000000E+00 -0.19766550314E+03  0.19766550315E+03  0.25500000000E-02 0.  1.
    5000001    1    1    2    0    0  0.62575028798E+02  0.15011976740E+03 -0.35577947116E+01  0.23170937982E+03  0.16500000000E+03 0.  0.
   -5000001    1    1    2    0    0 -0.62575028798E+02 -0.15011976740E+03  0.87640500172E+02  0.24770433194E+03  0.16500000000E+03 0.  0.
<mgrwt>
<rscale>  0 0.47198263E+03</rscale>
<asrwt>0</asrwt>
<pdfrwt beam="1">  1        2 0.28237929E-01 0.47198263E+03</pdfrwt>
<pdfrwt beam="2">  1       -2 0.40249744E-01 0.47198263E+03</pdfrwt>
<totfact> 0.11135482E+03</totfact>
</mgrwt>
</event>
<event>
 4    1  0.5399378E-005  0.3831408E+03  0.7818608E-02  0.1049779E+00
          2   -1    0    0  501    0  0.00000000000E+00  0.00000000000E+00  0.13996471438E+03  0.13996471441E+03  0.25500000000E-02 0.  1.
         -2   -1    0    0    0  501 -0.00000000000E+00 -0.00000000000E+00 -0.26220332344E+03  0.26220332345E+03  0.25500000000E-02 0. -1.
    5000001    1    1    2    0    0 -0.77951116824E+02 -0.47601868479E+02 -0.25804811467E+02  0.19035021091E+03  0.16500000000E+03 0.  0.
   -5000001    1    1    2    0    0  0.77951116824E+02  0.47601868479E+02 -0.96433797585E+02  0.21181782695E+03  0.16500000000E+03 0.  0.
<mgrwt>
<rscale>  0 0.38314077E+03</rscale>
<asrwt>0</asrwt>
<pdfrwt beam="1">  1        2 0.19994959E-01 0.38314077E+03</pdfrwt>
<pdfrwt beam="2">  1       -2 0.37457618E-01 0.38314077E+03</pdfrwt>
<totfact> 0.18899913E+03</totfact>
</mgrwt>
</event>
<event>
 4    1  0.5399378E-005  0.4066594E+03  0.7818608E-02  0.1041498E+00
          2   -1    0    0  501    0  0.00000000000E+00  0.00000000000E+00  0.27453044499E+04  0.27453044499E+04  0.25500000000E-02 0.  1.
         -2   -1    0    0    0  501 -0.00000000000E+00 -0.00000000000E+00 -0.15059516926E+02  0.15059517141E+02  0.25500000000E-02 0. -1.
    5000001    1    1    2    0    0 -0.11678266674E+03  0.13353702604E+02  0.14829754821E+04  0.14967490749E+04  0.16500000000E+03 0.  0.
   -5000001    1    1    2    0    0  0.11678266674E+03 -0.13353702604E+02  0.12472694508E+04  0.12636148921E+04  0.16500000000E+03 0.  0.
<mgrwt>
<rscale>  0 0.40665936E+03</rscale>
<asrwt>0</asrwt>
<pdfrwt beam="1">  1        2 0.39218665E+00 0.40665936E+03</pdfrwt>
<pdfrwt beam="2">  1       -2 0.21513580E-02 0.40665936E+03</pdfrwt>
<totfact> 0.25896878E+03</totfact>
</mgrwt>
</event>
<event>
 4    1  0.5399378E-005  0.7095024E+03  0.7818608E-02  0.9701118E-01
          2   -1    0    0  501    0  0.00000000000E+00  0.00000000000E+00  0.13298819671E+04  0.13298819671E+04  0.25500000000E-02 0.  1.
         -2   -1    0    0    0  501 -0.00000000000E+00 -0.00000000000E+00 -0.94631259737E+02  0.94631259771E+02  0.25500000000E-02 0. -1.
    5000001    1    1    2    0    0  0.14647334355E+03  0.13576625745E+02  0.60549063483E+02  0.22919414091E+03  0.16500000000E+03 0.  0.
   -5000001    1    1    2    0    0 -0.14647334355E+03 -0.13576625745E+02  0.11747016438E+04  0.11953190859E+04  0.16500000000E+03 0.  0.
<mgrwt>
<rscale>  0 0.70950238E+03</rscale>
<asrwt>0</asrwt>
<pdfrwt beam="1">  1        2 0.18998312E+00 0.70950238E+03</pdfrwt>
<pdfrwt beam="2">  1       -2 0.13518753E-01 0.70950238E+03</pdfrwt>
<totfact> 0.76056918E+02</totfact>
</mgrwt>
</event>
<event>
 4    1  0.5399378E-005  0.6174865E+03  0.7818608E-02  0.9869777E-01
          2   -1    0    0  501    0  0.00000000000E+00  0.00000000000E+00  0.11501351911E+04  0.11501351911E+04  0.25500000000E-02 0.  1.
         -2   -1    0    0    0  501 -0.00000000000E+00 -0.00000000000E+00 -0.82879296768E+02  0.82879296808E+02  0.25500000000E-02 0. -1.
    5000001    1    1    2    0    0 -0.10644138128E+03  0.16386380011E+03  0.18825006095E+03  0.31755975514E+03  0.16500000000E+03 0.  0.
   -5000001    1    1    2    0    0  0.10644138128E+03 -0.16386380011E+03  0.87900583339E+03  0.91545473278E+03  0.16500000000E+03 0.  0.
<mgrwt>
<rscale>  0 0.61748650E+03</rscale>
<asrwt>0</asrwt>
<pdfrwt beam="1">  1        2 0.16430503E+00 0.61748650E+03</pdfrwt>
<pdfrwt beam="2">  1       -2 0.11839900E-01 0.61748650E+03</pdfrwt>
<totfact> 0.11964832E+03</totfact>
</mgrwt>
</event>
<event>
 4    1  0.5399378E-005  0.3854830E+03  0.7818608E-02  0.1048926E+00
         -2   -1    0    0    0  501 -0.00000000000E+00  0.00000000000E+00  0.19847300163E+02  0.19847300327E+02  0.25500000000E-02 0. -1.
          2   -1    0    0  501    0  0.00000000000E+00 -0.00000000000E+00 -0.18717552018E+04  0.18717552018E+04  0.25500000000E-02 0.  1.
    5000001    1    1    2    0    0  0.73996661497E+02  0.27831738540E+02 -0.62851036248E+03  0.65459940981E+03  0.16500000000E+03 0.  0.
   -5000001    1    1    2    0    0 -0.73996661497E+02 -0.27831738540E+02 -0.12233975392E+04  0.12370030923E+04  0.16500000000E+03 0.  0.
<mgrwt>
<rscale>  0 0.38548301E+03</rscale>
<asrwt>0</asrwt>
<pdfrwt beam="1">  1        2 0.26739349E+00 0.38548301E+03</pdfrwt>
<pdfrwt beam="2">  1       -2 0.28353298E-02 0.38548301E+03</pdfrwt>
<totfact> 0.47044448E+03</totfact>
</mgrwt>
</event>
<event>
 4    1  0.5399378E-005  0.4709073E+03  0.7818608E-02  0.1021664E+00
          2   -1    0    0  501    0  0.00000000000E+00  0.00000000000E+00  0.29199934141E+04  0.29199934141E+04  0.25500000000E-02 0.  1.
         -2   -1    0    0    0  501 -0.00000000000E+00 -0.00000000000E+00 -0.18985805049E+02  0.18985805220E+02  0.25500000000E-02 0. -1.
    5000001    1    1    2    0    0 -0.10869984271E+03  0.73594201480E+02  0.21045300000E+04  0.21150657870E+04  0.16500000000E+03 0.  0.
   -5000001    1    1    2    0    0  0.10869984271E+03 -0.73594201480E+02  0.79647760906E+03  0.82391343236E+03  0.16500000000E+03 0.  0.
<mgrwt>
<rscale>  0 0.47090732E+03</rscale>
<asrwt>0</asrwt>
<pdfrwt beam="1">  1        2 0.41714191E+00 0.47090732E+03</pdfrwt>
<pdfrwt beam="2">  1       -2 0.27122579E-02 0.47090732E+03</pdfrwt>
<totfact> 0.14736545E+03</totfact>
</mgrwt>
</event>
<event>
 4    1  0.5399378E-005  0.6200219E+03  0.7818608E-02  0.9864716E-01
         -2   -1    0    0    0  501 -0.00000000000E+00  0.00000000000E+00  0.19650138411E+03  0.19650138413E+03  0.25500000000E-02 0. -1.
          2   -1    0    0  501    0  0.00000000000E+00 -0.00000000000E+00 -0.48908956582E+03  0.48908956583E+03  0.25500000000E-02 0.  1.
    5000001    1    1    2    0    0  0.24582533855E+03  0.90802474565E+02 -0.16218734838E+03  0.34957820646E+03  0.16500000000E+03 0.  0.
   -5000001    1    1    2    0    0 -0.24582533855E+03 -0.90802474565E+02 -0.13040083333E+03  0.33601274350E+03  0.16500000000E+03 0.  0.
<mgrwt>
<rscale>  0 0.62002186E+03</rscale>
<asrwt>0</asrwt>
<pdfrwt beam="1">  1        2 0.69869938E-01 0.62002186E+03</pdfrwt>
<pdfrwt beam="2">  1       -2 0.28071626E-01 0.62002186E+03</pdfrwt>
<totfact> 0.80139326E+02</totfact>
</mgrwt>
</event>
<event>
 4    1  0.5399378E-005  0.3806928E+03  0.7818608E-02  0.1050678E+00
          2   -1    0    0  501    0  0.00000000000E+00  0.00000000000E+00  0.62083152281E+03  0.62083152282E+03  0.25500000000E-02 0.  1.
         -2   -1    0    0    0  501 -0.00000000000E+00 -0.00000000000E+00 -0.58360039691E+02  0.58360039746E+02  0.25500000000E-02 0. -1.
    5000001    1    1    2    0    0 -0.70964877144E+02  0.41232839051E+02  0.36624909028E+03  0.40999945968E+03  0.16500000000E+03 0.  0.
   -5000001    1    1    2    0    0  0.70964877144E+02 -0.41232839051E+02  0.19622239284E+03  0.26919210289E+03  0.16500000000E+03 0.  0.
<mgrwt>
<rscale>  0 0.38069280E+03</rscale>
<asrwt>0</asrwt>
<pdfrwt beam="1">  1        2 0.88690223E-01 0.38069280E+03</pdfrwt>
<pdfrwt beam="2">  1       -2 0.83371480E-02 0.38069280E+03</pdfrwt>
<totfact> 0.47141321E+03</totfact>
</mgrwt>
</event>
<event>
 4    1  0.5399378E-005  0.4445893E+03  0.7818608E-02  0.1029348E+00
         -2   -1    0    0    0  501 -0.00000000000E+00  0.00000000000E+00  0.18004077873E+02  0.18004078053E+02  0.25500000000E-02 0.  1.
          2   -1    0    0  501    0  0.00000000000E+00 -0.00000000000E+00 -0.27446513709E+04  0.27446513709E+04  0.25500000000E-02 0. -1.
    5000001    1    1    2    0    0  0.13460322011E+03 -0.61196950117E+02 -0.12509862222E+04  0.12704544942E+04  0.16500000000E+03 0.  0.
   -5000001    1    1    2    0    0 -0.13460322011E+03  0.61196950117E+02 -0.14756610708E+04  0.14922009548E+04  0.16500000000E+03 0.  0.
<mgrwt>
<rscale>  0 0.44458933E+03</rscale>
<asrwt>0</asrwt>
<pdfrwt beam="1">  1        2 0.39209279E+00 0.44458933E+03</pdfrwt>
<pdfrwt beam="2">  1       -2 0.25720129E-02 0.44458933E+03</pdfrwt>
<totfact> 0.19788439E+03</totfact>
</mgrwt>
</event>
<event>
 4    1  0.5399378E-005  0.1291694E+04  0.7818608E-02  0.9036178E-01
         -2   -1    0    0    0  501 -0.00000000000E+00  0.00000000000E+00  0.59757251344E+03  0.59757251344E+03  0.25500000000E-02 0. -1.
          2   -1    0    0  501    0  0.00000000000E+00 -0.00000000000E+00 -0.69802076995E+03  0.69802076996E+03  0.25500000000E-02 0.  1.
    5000001    1    1    2    0    0  0.40569460511E+03  0.17808725819E+03  0.39109270730E+03  0.61358103772E+03  0.16500000000E+03 0.  0.
   -5000001    1    1    2    0    0 -0.40569460511E+03 -0.17808725819E+03 -0.49154096381E+03  0.68201224568E+03  0.16500000000E+03 0.  0.
<mgrwt>
<rscale>  0 0.12916935E+04</rscale>
<asrwt>0</asrwt>
<pdfrwt beam="1">  1        2 0.99717252E-01 0.12916935E+04</pdfrwt>
<pdfrwt beam="2">  1       -2 0.85367502E-01 0.12916935E+04</pdfrwt>
<totfact> 0.52935526E+01</totfact>
</mgrwt>
</event>
<event>
 4    1  0.5399378E-005  0.4499739E+03  0.7818608E-02  0.1027730E+00
         -2   -1    0    0    0  501 -0.00000000000E+00  0.00000000000E+00  0.16201626758E+03  0.16201626760E+03  0.25500000000E-02 0. -1.
          2   -1    0    0  501    0  0.00000000000E+00 -0.00000000000E+00 -0.31243243293E+03  0.31243243294E+03  0.25500000000E-02 0.  1.
    5000001    1    1    2    0    0 -0.10979117133E+02 -0.12894753644E+03  0.10749910126E+02  0.20997278094E+03  0.16500000000E+03 0.  0.
   -5000001    1    1    2    0    0  0.10979117133E+02  0.12894753644E+03 -0.16116607547E+03  0.26447591960E+03  0.16500000000E+03 0.  0.
<mgrwt>
<rscale>  0 0.44997394E+03</rscale>
<asrwt>0</asrwt>
<pdfrwt beam="1">  1        2 0.44633205E-01 0.44997394E+03</pdfrwt>
<pdfrwt beam="2">  1       -2 0.23145181E-01 0.44997394E+03</pdfrwt>
<totfact> 0.18628759E+03</totfact>
</mgrwt>
</event>
<event>
 4    1  0.5399378E-005  0.4512307E+03  0.7818608E-02  0.1027356E+00
         -2   -1    0    0    0  501 -0.00000000000E+00  0.00000000000E+00  0.12247038213E+03  0.12247038216E+03  0.25500000000E-02 0. -1.
          2   -1    0    0  501    0  0.00000000000E+00 -0.00000000000E+00 -0.41562929752E+03  0.41562929753E+03  0.25500000000E-02 0.  1.
    5000001    1    1    2    0    0  0.93073454580E+02  0.11783386121E+03 -0.10649616475E+03  0.24721229723E+03  0.16500000000E+03 0.  0.
   -5000001    1    1    2    0    0 -0.93073454580E+02 -0.11783386121E+03 -0.18666275064E+03  0.29088738246E+03  0.16500000000E+03 0.  0.
<mgrwt>
<rscale>  0 0.45123067E+03</rscale>
<asrwt>0</asrwt>
<pdfrwt beam="1">  1        2 0.59375613E-01 0.45123067E+03</pdfrwt>
<pdfrwt beam="2">  1       -2 0.17495769E-01 0.45123067E+03</pdfrwt>
<totfact> 0.22116340E+03</totfact>
</mgrwt>
</event>
<event>
 4    1  0.5399378E-005  0.7296112E+03  0.7818608E-02  0.9667892E-01
         -2   -1    0    0    0  501 -0.00000000000E+00  0.00000000000E+00  0.13984351458E+03  0.13984351460E+03  0.25500000000E-02 0. -1.
          2   -1    0    0  501    0  0.00000000000E+00 -0.00000000000E+00 -0.95165741660E+03  0.95165741660E+03  0.25500000000E-02 0.  1.
    5000001    1    1    2    0    0  0.30252247014E+02 -0.32383903075E+03 -0.41853037963E+03  0.55513925726E+03  0.16500000000E+03 0.  0.
   -5000001    1    1    2    0    0 -0.30252247014E+02  0.32383903075E+03 -0.39328352240E+03  0.53636167394E+03  0.16500000000E+03 0.  0.
<mgrwt>
<rscale>  0 0.72961118E+03</rscale>
<asrwt>0</asrwt>
<pdfrwt beam="1">  1        2 0.13595106E+00 0.72961118E+03</pdfrwt>
<pdfrwt beam="2">  1       -2 0.19977645E-01 0.72961118E+03</pdfrwt>
<totfact> 0.64624826E+02</totfact>
</mgrwt>
</event>
<event>
 4    1  0.5399378E-005  0.3944054E+03  0.7818608E-02  0.1045734E+00
         -2   -1    0    0    0  501 -0.00000000000E+00  0.00000000000E+00  0.19903247387E+03  0.19903247388E+03  0.25500000000E-02 0. -1.
          2   -1    0    0  501    0  0.00000000000E+00 -0.00000000000E+00 -0.19538972032E+03  0.19538972034E+03  0.25500000000E-02 0.  1.
    5000001    1    1    2    0    0  0.84779193378E+02 -0.20942301232E+02  0.65367834143E+02  0.19779799127E+03  0.16500000000E+03 0.  0.
   -5000001    1    1    2    0    0 -0.84779193378E+02  0.20942301232E+02 -0.61725080597E+02  0.19662420295E+03  0.16500000000E+03 0.  0.
<mgrwt>
<rscale>  0 0.39440537E+03</rscale>
<asrwt>0</asrwt>
<pdfrwt beam="1">  1        2 0.27912817E-01 0.39440537E+03</pdfrwt>
<pdfrwt beam="2">  1       -2 0.28433211E-01 0.39440537E+03</pdfrwt>
<totfact> 0.21590907E+03</totfact>
</mgrwt>
</event>
<event>
 4    1  0.5399378E-005  0.3475084E+03  0.7818608E-02  0.1063642E+00
          2   -1    0    0  501    0  0.00000000000E+00  0.00000000000E+00  0.23320616512E+03  0.23320616513E+03  0.25500000000E-02 0.  1.
         -2   -1    0    0    0  501 -0.00000000000E+00 -0.00000000000E+00 -0.12945849994E+03  0.12945849997E+03  0.25500000000E-02 0. -1.
    5000001    1    1    2    0    0  0.51903592208E+01 -0.49334446990E+02  0.75319009667E+02  0.18803930628E+03  0.16500000000E+03 0.  0.
   -5000001    1    1    2    0    0 -0.51903592208E+01  0.49334446990E+02  0.28428655504E+02  0.17462535882E+03  0.16500000000E+03 0.  0.
<mgrwt>
<rscale>  0 0.34750839E+03</rscale>
<asrwt>0</asrwt>
<pdfrwt beam="1">  1        2 0.33315166E-01 0.34750839E+03</pdfrwt>
<pdfrwt beam="2">  1       -2 0.18494072E-01 0.34750839E+03</pdfrwt>
<totfact> 0.37685355E+03</totfact>
</mgrwt>
</event>
<event>
 4    1  0.5399378E-005  0.5383673E+03  0.7818608E-02  0.1004223E+00
          2   -1    0    0  501    0  0.00000000000E+00  0.00000000000E+00  0.17898952251E+03  0.17898952253E+03  0.25500000000E-02 0.  1.
         -2   -1    0    0    0  501 -0.00000000000E+00 -0.00000000000E+00 -0.40482732101E+03  0.40482732102E+03  0.25500000000E-02 0. -1.
    5000001    1    1    2    0    0  0.20394370554E+03 -0.22627728926E+02 -0.17358641179E+03  0.31537642826E+03  0.16500000000E+03 0.  0.
   -5000001    1    1    2    0    0 -0.20394370554E+03  0.22627728926E+02 -0.52251386713E+02  0.26844041528E+03  0.16500000000E+03 0.  0.
<mgrwt>
<rscale>  0 0.53836734E+03</rscale>
<asrwt>0</asrwt>
<pdfrwt beam="1">  1        2 0.25569932E-01 0.53836734E+03</pdfrwt>
<pdfrwt beam="2">  1       -2 0.57832474E-01 0.53836734E+03</pdfrwt>
<totfact> 0.60191307E+02</totfact>
</mgrwt>
</event>
<event>
 4    1  0.5399378E-005  0.4140169E+03  0.7818608E-02  0.1039031E+00
         -2   -1    0    0    0  501 -0.00000000000E+00  0.00000000000E+00  0.23216578421E+03  0.23216578423E+03  0.25500000000E-02 0. -1.
          2   -1    0    0  501    0  0.00000000000E+00 -0.00000000000E+00 -0.18457714246E+03  0.18457714248E+03  0.25500000000E-02 0.  1.
    5000001    1    1    2    0    0  0.18954333442E+02 -0.86394536819E+02  0.11271745635E+03  0.21852575984E+03  0.16500000000E+03 0.  0.
   -5000001    1    1    2    0    0 -0.18954333442E+02  0.86394536819E+02 -0.65128814605E+02  0.19821716687E+03  0.16500000000E+03 0.  0.
<mgrwt>
<rscale>  0 0.41401689E+03</rscale>
<asrwt>0</asrwt>
<pdfrwt beam="1">  1        2 0.26368163E-01 0.41401689E+03</pdfrwt>
<pdfrwt beam="2">  1       -2 0.33166540E-01 0.41401689E+03</pdfrwt>
<totfact> 0.17349946E+03</totfact>
</mgrwt>
</event>
<event>
 4    1  0.5399378E-005  0.4359861E+03  0.7818608E-02  0.1031986E+00
          2   -1    0    0  501    0  0.00000000000E+00  0.00000000000E+00  0.14002347293E+04  0.14002347293E+04  0.25500000000E-02 0.  1.
         -2   -1    0    0    0  501 -0.00000000000E+00 -0.00000000000E+00 -0.33937862198E+02  0.33937862293E+02  0.25500000000E-02 0. -1.
    5000001    1    1    2    0    0  0.61974638673E+02  0.34018268500E+02  0.10900077939E+04  0.11046900421E+04  0.16500000000E+03 0.  0.
   -5000001    1    1    2    0    0 -0.61974638673E+02 -0.34018268500E+02  0.27628907323E+03  0.32948254949E+03  0.16500000000E+03 0.  0.
<mgrwt>
<rscale>  0 0.43598612E+03</rscale>
<asrwt>0</asrwt>
<pdfrwt beam="1">  1        2 0.20003354E+00 0.43598612E+03</pdfrwt>
<pdfrwt beam="2">  1       -2 0.48482659E-02 0.43598612E+03</pdfrwt>
<totfact> 0.36103370E+03</totfact>
</mgrwt>
</event>
<event>
 4    1  0.5399378E-005  0.5434817E+03  0.7818608E-02  0.1003014E+00
          2   -1    0    0  501    0  0.00000000000E+00  0.00000000000E+00  0.27642042358E+04  0.27642042358E+04  0.25500000000E-02 0.  1.
         -2   -1    0    0    0  501 -0.00000000000E+00 -0.00000000000E+00 -0.26714054540E+02  0.26714054662E+02  0.25500000000E-02 0. -1.
    5000001    1    1    2    0    0  0.20787300260E+03  0.49847859376E+02  0.12128066483E+04  0.12425059197E+04  0.16500000000E+03 0.  0.
   -5000001    1    1    2    0    0 -0.20787300260E+03 -0.49847859376E+02  0.15246835329E+04  0.15484123707E+04  0.16500000000E+03 0.  0.
<mgrwt>
<rscale>  0 0.54348175E+03</rscale>
<asrwt>0</asrwt>
<pdfrwt beam="1">  1        2 0.39488613E+00 0.54348175E+03</pdfrwt>
<pdfrwt beam="2">  1       -2 0.38162953E-02 0.54348175E+03</pdfrwt>
<totfact> 0.10547005E+03</totfact>
</mgrwt>
</event>
<event>
 4    1  0.5399378E-005  0.5619672E+03  0.7818608E-02  0.9987613E-01
         -2   -1    0    0    0  501 -0.00000000000E+00  0.00000000000E+00  0.26001449447E+03  0.26001449448E+03  0.25500000000E-02 0. -1.
          2   -1    0    0  501    0  0.00000000000E+00 -0.00000000000E+00 -0.30364373995E+03  0.30364373996E+03  0.25500000000E-02 0.  1.
    5000001    1    1    2    0    0  0.35655480542E+02  0.22309090330E+03  0.44540544600E+01  0.27979582383E+03  0.16500000000E+03 0.  0.
   -5000001    1    1    2    0    0 -0.35655480542E+02 -0.22309090330E+03 -0.48083299938E+02  0.28386241062E+03  0.16500000000E+03 0.  0.
<mgrwt>
<rscale>  0 0.56196716E+03</rscale>
<asrwt>0</asrwt>
<pdfrwt beam="1">  1        2 0.43377677E-01 0.56196716E+03</pdfrwt>
<pdfrwt beam="2">  1       -2 0.37144928E-01 0.56196716E+03</pdfrwt>
<totfact> 0.80715270E+02</totfact>
</mgrwt>
</event>
<event>
 4    1  0.5399378E-005  0.4081368E+03  0.7818608E-02  0.1040998E+00
          2   -1    0    0  501    0  0.00000000000E+00  0.00000000000E+00  0.10606189132E+04  0.10606189132E+04  0.25500000000E-02 0.  1.
         -2   -1    0    0    0  501 -0.00000000000E+00 -0.00000000000E+00 -0.39263790189E+02  0.39263790272E+02  0.25500000000E-02 0. -1.
    5000001    1    1    2    0    0  0.84724224112E+02  0.63157288040E+02  0.66435422676E+03  0.69264606820E+03  0.16500000000E+03 0.  0.
   -5000001    1    1    2    0    0 -0.84724224112E+02 -0.63157288040E+02  0.35700089626E+03  0.40723663528E+03  0.16500000000E+03 0.  0.
<mgrwt>
<rscale>  0 0.40813683E+03</rscale>
<asrwt>0</asrwt>
<pdfrwt beam="1">  1        2 0.15151697E+00 0.40813683E+03</pdfrwt>
<pdfrwt beam="2">  1       -2 0.56091134E-02 0.40813683E+03</pdfrwt>
<totfact> 0.44304089E+03</totfact>
</mgrwt>
</event>
<event>
 4    1  0.5399378E-005  0.8238963E+03  0.7818608E-02  0.9526058E-01
          2   -1    0    0  501    0  0.00000000000E+00  0.00000000000E+00  0.25032478533E+04  0.25032478533E+04  0.25500000000E-02 0. -1.
         -2   -1    0    0    0  501 -0.00000000000E+00 -0.00000000000E+00 -0.67792432302E+02  0.67792432350E+02  0.25500000000E-02 0.  1.
    5000001    1    1    2    0    0  0.20722412328E+03  0.22407493560E+03  0.52467028086E+03  0.62901138118E+03  0.16500000000E+03 0.  0.
   -5000001    1    1    2    0    0 -0.20722412328E+03 -0.22407493560E+03  0.19107851401E+04  0.19420289045E+04  0.16500000000E+03 0.  0.
<mgrwt>
<rscale>  0 0.82389626E+03</rscale>
<asrwt>0</asrwt>
<pdfrwt beam="1">  1        2 0.35760676E+00 0.82389626E+03</pdfrwt>
<pdfrwt beam="2">  1       -2 0.96846352E-02 0.82389626E+03</pdfrwt>
<totfact> 0.32586622E+02</totfact>
</mgrwt>
</event>
<event>
 4    1  0.5399378E-005  0.4600736E+03  0.7818608E-02  0.1024760E+00
          2   -1    0    0  501    0  0.00000000000E+00  0.00000000000E+00  0.97387628516E+02  0.97387628550E+02  0.25500000000E-02 0.  1.
         -2   -1    0    0    0  501 -0.00000000000E+00 -0.00000000000E+00 -0.54336387006E+03  0.54336387007E+03  0.25500000000E-02 0. -1.
    5000001    1    1    2    0    0  0.11112281527E+03  0.11425436757E+03 -0.19928828913E+03  0.30388017831E+03  0.16500000000E+03 0.  0.
   -5000001    1    1    2    0    0 -0.11112281527E+03 -0.11425436757E+03 -0.24668795242E+03  0.33687132031E+03  0.16500000000E+03 0.  0.
<mgrwt>
<rscale>  0 0.46007355E+03</rscale>
<asrwt>0</asrwt>
<pdfrwt beam="1">  1        2 0.13912519E-01 0.46007355E+03</pdfrwt>
<pdfrwt beam="2">  1       -2 0.77623408E-01 0.46007355E+03</pdfrwt>
<totfact> 0.65430589E+02</totfact>
</mgrwt>
</event>
<event>
 4    1  0.5399378E-005  0.4034449E+03  0.7818608E-02  0.1042593E+00
          2   -1    0    0  501    0  0.00000000000E+00  0.00000000000E+00  0.47507129453E+03  0.47507129454E+03  0.25500000000E-02 0.  1.
         -2   -1    0    0    0  501 -0.00000000000E+00 -0.00000000000E+00 -0.85654419825E+02  0.85654419863E+02  0.25500000000E-02 0. -1.
    5000001    1    1    2    0    0  0.10116916581E+03 -0.29808939685E+02  0.26198585433E+03  0.32708616734E+03  0.16500000000E+03 0.  0.
   -5000001    1    1    2    0    0 -0.10116916581E+03  0.29808939685E+02  0.12743102038E+03  0.23363954706E+03  0.16500000000E+03 0.  0.
<mgrwt>
<rscale>  0 0.40344495E+03</rscale>
<asrwt>0</asrwt>
<pdfrwt beam="1">  1        2 0.67867326E-01 0.40344495E+03</pdfrwt>
<pdfrwt beam="2">  1       -2 0.12236346E-01 0.40344495E+03</pdfrwt>
<totfact> 0.34552069E+03</totfact>
</mgrwt>
</event>
<event>
 4    1  0.5399378E-005  0.7911937E+03  0.7818608E-02  0.9572852E-01
          2   -1    0    0  501    0  0.00000000000E+00  0.00000000000E+00  0.87929395422E+03  0.87929395422E+03  0.25500000000E-02 0.  1.
         -2   -1    0    0    0  501 -0.00000000000E+00 -0.00000000000E+00 -0.17798013739E+03  0.17798013741E+03  0.25500000000E-02 0. -1.
    5000001    1    1    2    0    0  0.23594068429E+03  0.68121785096E+02  0.70158143258E+03  0.76141321938E+03  0.16500000000E+03 0.  0.
   -5000001    1    1    2    0    0 -0.23594068429E+03 -0.68121785096E+02 -0.26761574923E+00  0.29586087225E+03  0.16500000000E+03 0.  0.
<mgrwt>
<rscale>  0 0.79119368E+03</rscale>
<asrwt>0</asrwt>
<pdfrwt beam="1">  1        2 0.12561342E+00 0.79119368E+03</pdfrwt>
<pdfrwt beam="2">  1       -2 0.25425734E-01 0.79119368E+03</pdfrwt>
<totfact> 0.46766755E+02</totfact>
</mgrwt>
</event>
<event>
 4    1  0.5399378E-005  0.5419069E+03  0.7818608E-02  0.1003385E+00
          2   -1    0    0  501    0  0.00000000000E+00  0.00000000000E+00  0.99239008412E+03  0.99239008413E+03  0.25500000000E-02 0.  1.
         -2   -1    0    0    0  501 -0.00000000000E+00 -0.00000000000E+00 -0.73978731801E+02  0.73978731845E+02  0.25500000000E-02 0. -1.
    5000001    1    1    2    0    0  0.17771599387E+03 -0.12084655685E+03  0.45532199675E+03  0.52983958469E+03  0.16500000000E+03 0.  0.
   -5000001    1    1    2    0    0 -0.17771599387E+03  0.12084655685E+03  0.46308935557E+03  0.53652923128E+03  0.16500000000E+03 0.  0.
<mgrwt>
<rscale>  0 0.54190686E+03</rscale>
<asrwt>0</asrwt>
<pdfrwt beam="1">  1        2 0.14177001E+00 0.54190686E+03</pdfrwt>
<pdfrwt beam="2">  1       -2 0.10568390E-01 0.54190686E+03</pdfrwt>
<totfact> 0.17868879E+03</totfact>
</mgrwt>
</event>
<event>
 4    1  0.5399378E-005  0.3382249E+03  0.7818608E-02  0.1067555E+00
         -2   -1    0    0    0  501 -0.00000000000E+00  0.00000000000E+00  0.25629915065E+02  0.25629915192E+02  0.25500000000E-02 0. -1.
          2   -1    0    0  501    0  0.00000000000E+00 -0.00000000000E+00 -0.11158450916E+04  0.11158450917E+04  0.25500000000E-02 0.  1.
    5000001    1    1    2    0    0  0.10314181390E+02 -0.32393927757E+02 -0.59496778906E+03  0.61835864909E+03  0.16500000000E+03 0.  0.
   -5000001    1    1    2    0    0 -0.10314181390E+02  0.32393927757E+02 -0.49524738752E+03  0.52311635775E+03  0.16500000000E+03 0.  0.
<mgrwt>
<rscale>  0 0.33822487E+03</rscale>
<asrwt>0</asrwt>
<pdfrwt beam="1">  1        2 0.15940641E+00 0.33822487E+03</pdfrwt>
<pdfrwt beam="2">  1       -2 0.36614171E-02 0.33822487E+03</pdfrwt>
<totfact> 0.78725755E+03</totfact>
</mgrwt>
</event>
<event>
 4    1  0.5399378E-005  0.4097183E+03  0.7818608E-02  0.1040466E+00
          2   -1    0    0  501    0  0.00000000000E+00  0.00000000000E+00  0.85801646271E+03  0.85801646271E+03  0.25500000000E-02 0.  1.
         -2   -1    0    0    0  501 -0.00000000000E+00 -0.00000000000E+00 -0.48911965070E+02  0.48911965136E+02  0.25500000000E-02 0. -1.
    5000001    1    1    2    0    0  0.55395575044E+02 -0.94254090111E+02  0.52146764383E+03  0.55776877539E+03  0.16500000000E+03 0.  0.
   -5000001    1    1    2    0    0 -0.55395575044E+02  0.94254090111E+02  0.28763685381E+03  0.34915965246E+03  0.16500000000E+03 0.  0.
<mgrwt>
<rscale>  0 0.40971830E+03</rscale>
<asrwt>0</asrwt>
<pdfrwt beam="1">  1        2 0.12257378E+00 0.40971830E+03</pdfrwt>
<pdfrwt beam="2">  1       -2 0.69874236E-02 0.40971830E+03</pdfrwt>
<totfact> 0.41951119E+03</totfact>
</mgrwt>
</event>
<event>
 4    1  0.5399378E-005  0.5124083E+03  0.7818608E-02  0.1010590E+00
          2   -1    0    0  501    0  0.00000000000E+00  0.00000000000E+00  0.70051517981E+03  0.70051517981E+03  0.25500000000E-02 0.  1.
         -2   -1    0    0    0  501 -0.00000000000E+00 -0.00000000000E+00 -0.93703272693E+02  0.93703272727E+02  0.25500000000E-02 0. -1.
    5000001    1    1    2    0    0 -0.19188560697E+03  0.23400128554E+02  0.35358083859E+03  0.43544467111E+03  0.16500000000E+03 0.  0.
   -5000001    1    1    2    0    0  0.19188560697E+03 -0.23400128554E+02  0.25323106852E+03  0.35877378143E+03  0.16500000000E+03 0.  0.
<mgrwt>
<rscale>  0 0.51240829E+03</rscale>
<asrwt>0</asrwt>
<pdfrwt beam="1">  1        2 0.10007360E+00 0.51240829E+03</pdfrwt>
<pdfrwt beam="2">  1       -2 0.13386182E-01 0.51240829E+03</pdfrwt>
<totfact> 0.19044512E+03</totfact>
</mgrwt>
</event>
<event>
 4    1  0.5399378E-005  0.4414230E+03  0.7818608E-02  0.1030311E+00
          2   -1    0    0  501    0  0.00000000000E+00  0.00000000000E+00  0.27970609333E+04  0.27970609333E+04  0.25500000000E-02 0.  1.
         -2   -1    0    0    0  501 -0.00000000000E+00 -0.00000000000E+00 -0.17415986836E+02  0.17415987023E+02  0.25500000000E-02 0. -1.
    5000001    1    1    2    0    0 -0.12408400342E+03  0.24052634177E+02  0.18632405731E+04  0.18747975364E+04  0.16500000000E+03 0.  0.
   -5000001    1    1    2    0    0  0.12408400342E+03 -0.24052634177E+02  0.91640437335E+03  0.93967938394E+03  0.16500000000E+03 0.  0.
<mgrwt>
<rscale>  0 0.44142305E+03</rscale>
<asrwt>0</asrwt>
<pdfrwt beam="1">  1        2 0.39958056E+00 0.44142305E+03</pdfrwt>
<pdfrwt beam="2">  1       -2 0.24879955E-02 0.44142305E+03</pdfrwt>
<totfact> 0.19533506E+03</totfact>
</mgrwt>
</event>
<event>
 4    1  0.5399378E-005  0.4408387E+03  0.7818608E-02  0.1030490E+00
          2   -1    0    0  501    0  0.00000000000E+00  0.00000000000E+00  0.59051707453E+03  0.59051707454E+03  0.25500000000E-02 0.  1.
         -2   -1    0    0    0  501 -0.00000000000E+00 -0.00000000000E+00 -0.82274819245E+02  0.82274819284E+02  0.25500000000E-02 0. -1.
    5000001    1    1    2    0    0 -0.12080513286E+03 -0.77492298765E+02  0.21202697446E+03  0.30459706892E+03  0.16500000000E+03 0.  0.
   -5000001    1    1    2    0    0  0.12080513286E+03  0.77492298765E+02  0.29621528083E+03  0.36819482491E+03  0.16500000000E+03 0.  0.
<mgrwt>
<rscale>  0 0.44083868E+03</rscale>
<asrwt>0</asrwt>
<pdfrwt beam="1">  1        2 0.84359582E-01 0.44083868E+03</pdfrwt>
<pdfrwt beam="2">  1       -2 0.11753546E-01 0.44083868E+03</pdfrwt>
<totfact> 0.28859162E+03</totfact>
</mgrwt>
</event>
<event>
 4    1  0.5399378E-005  0.5276089E+03  0.7818608E-02  0.1006814E+00
          2   -1    0    0  501    0  0.00000000000E+00  0.00000000000E+00  0.12590531957E+03  0.12590531960E+03  0.25500000000E-02 0.  1.
         -2   -1    0    0    0  501 -0.00000000000E+00 -0.00000000000E+00 -0.55273907218E+03  0.55273907218E+03  0.25500000000E-02 0. -1.
    5000001    1    1    2    0    0  0.14188478879E+03  0.14286731788E+03 -0.26837251120E+03  0.37388657181E+03  0.16500000000E+03 0.  0.
   -5000001    1    1    2    0    0 -0.14188478879E+03 -0.14286731788E+03 -0.15846124141E+03  0.30475781998E+03  0.16500000000E+03 0.  0.
<mgrwt>
<rscale>  0 0.52760891E+03</rscale>
<asrwt>0</asrwt>
<pdfrwt beam="1">  1        2 0.17986475E-01 0.52760891E+03</pdfrwt>
<pdfrwt beam="2">  1       -2 0.78962723E-01 0.52760891E+03</pdfrwt>
<totfact> 0.46287150E+02</totfact>
</mgrwt>
</event>
<event>
 4    1  0.5399378E-005  0.8107413E+03  0.7818608E-02  0.9544598E-01
         -2   -1    0    0    0  501 -0.00000000000E+00  0.00000000000E+00  0.24344239164E+03  0.24344239165E+03  0.25500000000E-02 0. -1.
          2   -1    0    0  501    0  0.00000000000E+00 -0.00000000000E+00 -0.67500714239E+03  0.67500714239E+03  0.25500000000E-02 0.  1.
    5000001    1    1    2    0    0 -0.37724323392E+02 -0.34051839813E+03 -0.56680442286E+02  0.38446531258E+03  0.16500000000E+03 0.  0.
   -5000001    1    1    2    0    0  0.37724323392E+02  0.34051839813E+03 -0.37488430846E+03  0.53398422146E+03  0.16500000000E+03 0.  0.
<mgrwt>
<rscale>  0 0.81074127E+03</rscale>
<asrwt>0</asrwt>
<pdfrwt beam="1">  1        2 0.96429591E-01 0.81074127E+03</pdfrwt>
<pdfrwt beam="2">  1       -2 0.34777485E-01 0.81074127E+03</pdfrwt>
<totfact> 0.36626654E+02</totfact>
</mgrwt>
</event>
<event>
 4    1  0.5399378E-005  0.1089569E+04  0.7818608E-02  0.9215419E-01
          2   -1    0    0  501    0  0.00000000000E+00  0.00000000000E+00  0.30647303964E+04  0.30647303964E+04  0.25500000000E-02 0.  1.
         -2   -1    0    0    0  501 -0.00000000000E+00 -0.00000000000E+00 -0.96840504699E+02  0.96840504732E+02  0.25500000000E-02 0. -1.
    5000001    1    1    2    0    0 -0.13984452419E+03 -0.46459033181E+03  0.20202785208E+04  0.20842626920E+04  0.16500000000E+03 0.  0.
   -5000001    1    1    2    0    0  0.13984452419E+03  0.46459033181E+03  0.94761137086E+03  0.10773082092E+04  0.16500000000E+03 0.  0.
<mgrwt>
<rscale>  0 0.10895688E+04</rscale>
<asrwt>0</asrwt>
<pdfrwt beam="1">  1        2 0.43781855E+00 0.10895688E+04</pdfrwt>
<pdfrwt beam="2">  1       -2 0.13834360E-01 0.10895688E+04</pdfrwt>
<totfact> 0.88206091E+01</totfact>
</mgrwt>
</event>
<event>
 4    1  0.5399378E-005  0.4852913E+03  0.7818608E-02  0.1017691E+00
         -2   -1    0    0    0  501 -0.00000000000E+00  0.00000000000E+00  0.96678345101E+02  0.96678345134E+02  0.25500000000E-02 0. -1.
          2   -1    0    0  501    0  0.00000000000E+00 -0.00000000000E+00 -0.60899792476E+03  0.60899792477E+03  0.25500000000E-02 0.  1.
    5000001    1    1    2    0    0  0.34051651984E+02  0.12585351480E+03 -0.80136322961E+02  0.22504544530E+03  0.16500000000E+03 0.  0.
   -5000001    1    1    2    0    0 -0.34051651984E+02 -0.12585351480E+03 -0.43218325670E+03  0.48063082461E+03  0.16500000000E+03 0.  0.
<mgrwt>
<rscale>  0 0.48529130E+03</rscale>
<asrwt>0</asrwt>
<pdfrwt beam="1">  1        2 0.86999702E-01 0.48529130E+03</pdfrwt>
<pdfrwt beam="2">  1       -2 0.13811192E-01 0.48529130E+03</pdfrwt>
<totfact> 0.21366220E+03</totfact>
</mgrwt>
</event>
<event>
 4    1  0.5399378E-005  0.6046519E+03  0.7818608E-02  0.9895802E-01
          2   -1    0    0  501    0  0.00000000000E+00  0.00000000000E+00  0.29679823822E+04  0.29679823822E+04  0.25500000000E-02 0.  1.
         -2   -1    0    0    0  501 -0.00000000000E+00 -0.00000000000E+00 -0.30795662235E+02  0.30795662341E+02  0.25500000000E-02 0. -1.
    5000001    1    1    2    0    0 -0.18628938891E+03 -0.12589651593E+03  0.88974562754E+03  0.93243013190E+03  0.16500000000E+03 0.  0.
   -5000001    1    1    2    0    0  0.18628938891E+03  0.12589651593E+03  0.20474410924E+04  0.20663479126E+04  0.16500000000E+03 0.  0.
<mgrwt>
<rscale>  0 0.60465191E+03</rscale>
<asrwt>0</asrwt>
<pdfrwt beam="1">  1        2 0.42399762E+00 0.60465191E+03</pdfrwt>
<pdfrwt beam="2">  1       -2 0.43993789E-02 0.60465191E+03</pdfrwt>
<totfact> 0.65646598E+02</totfact>
</mgrwt>
</event>
<event>
 4    1  0.5399378E-005  0.5640798E+03  0.7818608E-02  0.9982865E-01
          2   -1    0    0  501    0  0.00000000000E+00  0.00000000000E+00  0.34147502232E+03  0.34147502233E+03  0.25500000000E-02 0.  1.
         -2   -1    0    0    0  501 -0.00000000000E+00 -0.00000000000E+00 -0.23294972580E+03  0.23294972581E+03  0.25500000000E-02 0. -1.
    5000001    1    1    2    0    0  0.20121003549E+02  0.19049951146E+03  0.18156157460E+03  0.31126278933E+03  0.16500000000E+03 0.  0.
   -5000001    1    1    2    0    0 -0.20121003549E+02 -0.19049951146E+03 -0.73036278079E+02  0.26316195881E+03  0.16500000000E+03 0.  0.
<mgrwt>
<rscale>  0 0.56407983E+03</rscale>
<asrwt>0</asrwt>
<pdfrwt beam="1">  1        2 0.48782146E-01 0.56407983E+03</pdfrwt>
<pdfrwt beam="2">  1       -2 0.33278532E-01 0.56407983E+03</pdfrwt>
<totfact> 0.87338261E+02</totfact>
</mgrwt>
</event>
<event>
 4    1  0.5399378E-005  0.7139580E+03  0.7818608E-02  0.9693655E-01
         -2   -1    0    0    0  501 -0.00000000000E+00  0.00000000000E+00  0.42923714059E+02  0.42923714135E+02  0.25500000000E-02 0. -1.
          2   -1    0    0  501    0  0.00000000000E+00 -0.00000000000E+00 -0.29688485852E+04  0.29688485852E+04  0.25500000000E-02 0.  1.
    5000001    1    1    2    0    0 -0.11165483321E+03  0.29397284775E+03 -0.16163510985E+04  0.16549026287E+04  0.16500000000E+03 0.  0.
   -5000001    1    1    2    0    0  0.11165483321E+03 -0.29397284775E+03 -0.13095737727E+04  0.13568696706E+04  0.16500000000E+03 0.  0.
<mgrwt>
<rscale>  0 0.71395800E+03</rscale>
<asrwt>0</asrwt>
<pdfrwt beam="1">  1        2 0.42412110E+00 0.71395800E+03</pdfrwt>
<pdfrwt beam="2">  1       -2 0.61319611E-02 0.71395800E+03</pdfrwt>
<totfact> 0.38693939E+02</totfact>
</mgrwt>
</event>
<event>
 4    1  0.5399378E-005  0.3866037E+03  0.7818608E-02  0.1048520E+00
          2   -1    0    0  501    0  0.00000000000E+00  0.00000000000E+00  0.38374588926E+03  0.38374588927E+03  0.25500000000E-02 0.  1.
         -2   -1    0    0    0  501 -0.00000000000E+00 -0.00000000000E+00 -0.97370715314E+02  0.97370715347E+02  0.25500000000E-02 0. -1.
    5000001    1    1    2    0    0  0.81477607496E+01  0.98610117398E+02  0.11989669746E+03  0.22669485949E+03  0.16500000000E+03 0.  0.
   -5000001    1    1    2    0    0 -0.81477607496E+01 -0.98610117398E+02  0.16647847649E+03  0.25442174513E+03  0.16500000000E+03 0.  0.
<mgrwt>
<rscale>  0 0.38660373E+03</rscale>
<asrwt>0</asrwt>
<pdfrwt beam="1">  1        2 0.54820842E-01 0.38660373E+03</pdfrwt>
<pdfrwt beam="2">  1       -2 0.13910102E-01 0.38660373E+03</pdfrwt>
<totfact> 0.35384854E+03</totfact>
</mgrwt>
</event>
<event>
 4    1  0.5399378E-005  0.4618853E+03  0.7818608E-02  0.1024236E+00
         -2   -1    0    0    0  501 -0.00000000000E+00  0.00000000000E+00  0.40113819833E+02  0.40113819914E+02  0.25500000000E-02 0. -1.
          2   -1    0    0  501    0  0.00000000000E+00 -0.00000000000E+00 -0.13295791774E+04  0.13295791774E+04  0.25500000000E-02 0.  1.
    5000001    1    1    2    0    0 -0.11347195177E+02  0.14852697145E+03 -0.45905541677E+03  0.51004499385E+03  0.16500000000E+03 0.  0.
   -5000001    1    1    2    0    0  0.11347195177E+02 -0.14852697145E+03 -0.83040994078E+03  0.85964800344E+03  0.16500000000E+03 0.  0.
<mgrwt>
<rscale>  0 0.46188527E+03</rscale>
<asrwt>0</asrwt>
<pdfrwt beam="1">  1        2 0.18993986E+00 0.46188527E+03</pdfrwt>
<pdfrwt beam="2">  1       -2 0.57305465E-02 0.46188527E+03</pdfrwt>
<totfact> 0.30393397E+03</totfact>
</mgrwt>
</event>
<event>
 4    1  0.5399378E-005  0.5997467E+03  0.7818608E-02  0.9905932E-01
         -2   -1    0    0    0  501 -0.00000000000E+00  0.00000000000E+00  0.25748166050E+03  0.25748166051E+03  0.25500000000E-02 0. -1.
          2   -1    0    0  501    0  0.00000000000E+00 -0.00000000000E+00 -0.34924440907E+03  0.34924440908E+03  0.25500000000E-02 0.  1.
    5000001    1    1    2    0    0  0.96089034167E+02 -0.21896633877E+03  0.29277687470E+02  0.29199579275E+03  0.16500000000E+03 0.  0.
   -5000001    1    1    2    0    0 -0.96089034167E+02  0.21896633877E+03 -0.12104043604E+03  0.31473027684E+03  0.16500000000E+03 0.  0.
<mgrwt>
<rscale>  0 0.59974671E+03</rscale>
<asrwt>0</asrwt>
<pdfrwt beam="1">  1        2 0.49892058E-01 0.59974671E+03</pdfrwt>
<pdfrwt beam="2">  1       -2 0.36783095E-01 0.59974671E+03</pdfrwt>
<totfact> 0.70452711E+02</totfact>
</mgrwt>
</event>
<event>
 4    1  0.5399378E-005  0.6493294E+03  0.7818608E-02  0.9808038E-01
         -2   -1    0    0    0  501 -0.00000000000E+00  0.00000000000E+00  0.10833223620E+03  0.10833223623E+03  0.25500000000E-02 0.  1.
          2   -1    0    0  501    0  0.00000000000E+00 -0.00000000000E+00 -0.97299914984E+03  0.97299914984E+03  0.25500000000E-02 0. -1.
    5000001    1    1    2    0    0  0.17790759008E+03  0.21363697418E+03 -0.48202282507E+03  0.58039888976E+03  0.16500000000E+03 0.  0.
   -5000001    1    1    2    0    0 -0.17790759008E+03 -0.21363697418E+03 -0.38264408856E+03  0.50093249631E+03  0.16500000000E+03 0.  0.
<mgrwt>
<rscale>  0 0.64932942E+03</rscale>
<asrwt>0</asrwt>
<pdfrwt beam="1">  1        2 0.13899987E+00 0.64932942E+03</pdfrwt>
<pdfrwt beam="2">  1       -2 0.15476034E-01 0.64932942E+03</pdfrwt>
<totfact> 0.97430552E+02</totfact>
</mgrwt>
</event>
<event>
 4    1  0.5399378E-005  0.7510100E+03  0.7818608E-02  0.9633767E-01
          2   -1    0    0  501    0  0.00000000000E+00  0.00000000000E+00  0.32951497747E+03  0.32951497748E+03  0.25500000000E-02 0.  1.
         -2   -1    0    0    0  501 -0.00000000000E+00 -0.00000000000E+00 -0.42791380531E+03  0.42791380532E+03  0.25500000000E-02 0. -1.
    5000001    1    1    2    0    0 -0.24882468364E+03 -0.18870960815E+03 -0.17778011444E+03  0.39541852320E+03  0.16500000000E+03 0.  0.
   -5000001    1    1    2    0    0  0.24882468364E+03  0.18870960815E+03  0.79381286600E+02  0.36201025960E+03  0.16500000000E+03 0.  0.
<mgrwt>
<rscale>  0 0.75101001E+03</rscale>
<asrwt>0</asrwt>
<pdfrwt beam="1">  1        2 0.47073568E-01 0.75101001E+03</pdfrwt>
<pdfrwt beam="2">  1       -2 0.61130543E-01 0.75101001E+03</pdfrwt>
<totfact> 0.26959625E+02</totfact>
</mgrwt>
</event>
<event>
 4    1  0.5399378E-005  0.5512624E+03  0.7818608E-02  0.1001202E+00
          2   -1    0    0  501    0  0.00000000000E+00  0.00000000000E+00  0.10349614830E+04  0.10349614830E+04  0.25500000000E-02 0.  1.
         -2   -1    0    0    0  501 -0.00000000000E+00 -0.00000000000E+00 -0.73406173446E+02  0.73406173490E+02  0.25500000000E-02 0. -1.
    5000001    1    1    2    0    0  0.11367084080E+03 -0.18708935313E+02  0.10207730190E+03  0.22564542954E+03  0.16500000000E+03 0.  0.
   -5000001    1    1    2    0    0 -0.11367084080E+03  0.18708935313E+02  0.85947800762E+03  0.88272222691E+03  0.16500000000E+03 0.  0.
<mgrwt>
<rscale>  0 0.55126241E+03</rscale>
<asrwt>0</asrwt>
<pdfrwt beam="1">  1        2 0.14785164E+00 0.55126241E+03</pdfrwt>
<pdfrwt beam="2">  1       -2 0.10486596E-01 0.55126241E+03</pdfrwt>
<totfact> 0.17054954E+03</totfact>
</mgrwt>
</event>
<event>
 4    1  0.5399378E-005  0.3756045E+03  0.7818608E-02  0.1052570E+00
          2   -1    0    0  501    0  0.00000000000E+00  0.00000000000E+00  0.21244868016E+04  0.21244868016E+04  0.25500000000E-02 0.  1.
         -2   -1    0    0    0  501 -0.00000000000E+00 -0.00000000000E+00 -0.16601512345E+02  0.16601512541E+02  0.25500000000E-02 0. -1.
    5000001    1    1    2    0    0  0.46807395493E+02  0.68436674886E+02  0.12489408854E+04  0.12625184537E+04  0.16500000000E+03 0.  0.
   -5000001    1    1    2    0    0 -0.46807395493E+02 -0.68436674886E+02  0.85894440387E+03  0.87856986045E+03  0.16500000000E+03 0.  0.
<mgrwt>
<rscale>  0 0.37560455E+03</rscale>
<asrwt>0</asrwt>
<pdfrwt beam="1">  1        2 0.30349825E+00 0.37560455E+03</pdfrwt>
<pdfrwt beam="2">  1       -2 0.23716436E-02 0.37560455E+03</pdfrwt>
<totfact> 0.46100402E+03</totfact>
</mgrwt>
</event>
<event>
 4    1  0.5399378E-005  0.1411431E+04  0.7818608E-02  0.8945586E-01
         -2   -1    0    0    0  501 -0.00000000000E+00  0.00000000000E+00  0.22109517953E+03  0.22109517955E+03  0.25500000000E-02 0. -1.
          2   -1    0    0  501    0  0.00000000000E+00 -0.00000000000E+00 -0.22525786160E+04  0.22525786160E+04  0.25500000000E-02 0.  1.
    5000001    1    1    2    0    0 -0.56302852095E+03 -0.36326938671E+03 -0.75671531305E+03  0.10241136791E+04  0.16500000000E+03 0.  0.
   -5000001    1    1    2    0    0  0.56302852095E+03  0.36326938671E+03 -0.12747681234E+04  0.14495601165E+04  0.16500000000E+03 0.  0.
<mgrwt>
<rscale>  0 0.14114309E+04</rscale>
<asrwt>0</asrwt>
<pdfrwt beam="1">  1        2 0.32179693E+00 0.14114309E+04</pdfrwt>
<pdfrwt beam="2">  1       -2 0.31585027E-01 0.14114309E+04</pdfrwt>
<totfact> 0.53881113E+01</totfact>
</mgrwt>
</event>
<event>
 4    1  0.5399378E-005  0.3890195E+03  0.7818608E-02  0.1047650E+00
         -2   -1    0    0    0  501 -0.00000000000E+00  0.00000000000E+00  0.37703406057E+02  0.37703406143E+02  0.25500000000E-02 0. -1.
          2   -1    0    0  501    0  0.00000000000E+00 -0.00000000000E+00 -0.10034648225E+04  0.10034648225E+04  0.25500000000E-02 0.  1.
    5000001    1    1    2    0    0  0.95033607508E+02  0.24331084953E+02 -0.39885509938E+03  0.44264407661E+03  0.16500000000E+03 0.  0.
   -5000001    1    1    2    0    0 -0.95033607508E+02 -0.24331084953E+02 -0.56690631703E+03  0.59852415201E+03  0.16500000000E+03 0.  0.
<mgrwt>
<rscale>  0 0.38901949E+03</rscale>
<asrwt>0</asrwt>
<pdfrwt beam="1">  1        2 0.14335210E+00 0.38901949E+03</pdfrwt>
<pdfrwt beam="2">  1       -2 0.53862015E-02 0.38901949E+03</pdfrwt>
<totfact> 0.50942487E+03</totfact>
</mgrwt>
</event>
<event>
 4    1  0.5399378E-005  0.4249395E+03  0.7818608E-02  0.1035471E+00
         -2   -1    0    0    0  501 -0.00000000000E+00  0.00000000000E+00  0.59803918017E+03  0.59803918017E+03  0.25500000000E-02 0. -1.
          2   -1    0    0  501    0  0.00000000000E+00 -0.00000000000E+00 -0.75485696595E+02  0.75485696638E+02  0.25500000000E-02 0.  1.
    5000001    1    1    2    0    0  0.66979824680E+02  0.11523964790E+03  0.24174012547E+03  0.32160497761E+03  0.16500000000E+03 0.  0.
   -5000001    1    1    2    0    0 -0.66979824680E+02 -0.11523964790E+03  0.28081335810E+03  0.35191989920E+03  0.16500000000E+03 0.  0.
<mgrwt>
<rscale>  0 0.42493954E+03</rscale>
<asrwt>0</asrwt>
<pdfrwt beam="1">  1        2 0.10783671E-01 0.42493954E+03</pdfrwt>
<pdfrwt beam="2">  1       -2 0.85434167E-01 0.42493954E+03</pdfrwt>
<totfact> 0.72259309E+02</totfact>
</mgrwt>
</event>
<event>
 4    1  0.5399378E-005  0.4222660E+03  0.7818608E-02  0.1036331E+00
         -2   -1    0    0    0  501 -0.00000000000E+00  0.00000000000E+00  0.73397386362E+01  0.73397390792E+01  0.25500000000E-02 0. -1.
          2   -1    0    0  501    0  0.00000000000E+00 -0.00000000000E+00 -0.60733965312E+04  0.60733965312E+04  0.25500000000E-02 0.  1.
    5000001    1    1    2    0    0 -0.11380959365E+03  0.38058004690E+02 -0.38153092284E+04  0.38207604667E+04  0.16500000000E+03 0.  0.
   -5000001    1    1    2    0    0  0.11380959365E+03 -0.38058004690E+02 -0.22507475642E+04  0.22599758036E+04  0.16500000000E+03 0.  0.
<mgrwt>
<rscale>  0 0.42226600E+03</rscale>
<asrwt>0</asrwt>
<pdfrwt beam="1">  1        2 0.86762486E+00 0.42226600E+03</pdfrwt>
<pdfrwt beam="2">  1       -2 0.10485380E-02 0.42226600E+03</pdfrwt>
<totfact> 0.97077280E+00</totfact>
</mgrwt>
</event>
<event>
 4    1  0.5399378E-005  0.1259475E+04  0.7818608E-02  0.9062334E-01
         -2   -1    0    0    0  501 -0.00000000000E+00  0.00000000000E+00  0.23226651551E+03  0.23226651552E+03  0.25500000000E-02 0. -1.
          2   -1    0    0  501    0  0.00000000000E+00 -0.00000000000E+00 -0.17073883338E+04  0.17073883338E+04  0.25500000000E-02 0.  1.
    5000001    1    1    2    0    0 -0.28276569112E+03  0.52866565147E+03 -0.58432523653E+03  0.85329056550E+03  0.16500000000E+03 0.  0.
   -5000001    1    1    2    0    0  0.28276569112E+03 -0.52866565147E+03 -0.89079658177E+03  0.10863642838E+04  0.16500000000E+03 0.  0.
<mgrwt>
<rscale>  0 0.12594747E+04</rscale>
<asrwt>0</asrwt>
<pdfrwt beam="1">  1        2 0.24391261E+00 0.12594747E+04</pdfrwt>
<pdfrwt beam="2">  1       -2 0.33180932E-01 0.12594747E+04</pdfrwt>
<totfact> 0.94750870E+01</totfact>
</mgrwt>
</event>
<event>
 4    1  0.5399378E-005  0.6977822E+03  0.7818608E-02  0.9721032E-01
         -2   -1    0    0    0  501 -0.00000000000E+00  0.00000000000E+00  0.12271280409E+03  0.12271280412E+03  0.25500000000E-02 0. -1.
          2   -1    0    0  501    0  0.00000000000E+00 -0.00000000000E+00 -0.99195027663E+03  0.99195027663E+03  0.25500000000E-02 0.  1.
    5000001    1    1    2    0    0  0.29505125431E+03 -0.60825469789E+02 -0.53237639089E+03  0.63356499431E+03  0.16500000000E+03 0.  0.
   -5000001    1    1    2    0    0 -0.29505125431E+03  0.60825469789E+02 -0.33686108165E+03  0.48109808644E+03  0.16500000000E+03 0.  0.
<mgrwt>
<rscale>  0 0.69778220E+03</rscale>
<asrwt>0</asrwt>
<pdfrwt beam="1">  1        2 0.14170718E+00 0.69778220E+03</pdfrwt>
<pdfrwt beam="2">  1       -2 0.17530401E-01 0.69778220E+03</pdfrwt>
<totfact> 0.76578153E+02</totfact>
</mgrwt>
</event>
<event>
 4    1  0.5399378E-005  0.4575043E+03  0.7818608E-02  0.1025508E+00
         -2   -1    0    0    0  501 -0.00000000000E+00  0.00000000000E+00  0.38828439635E+03  0.38828439636E+03  0.25500000000E-02 0. -1.
          2   -1    0    0  501    0  0.00000000000E+00 -0.00000000000E+00 -0.13476605048E+03  0.13476605050E+03  0.25500000000E-02 0.  1.
    5000001    1    1    2    0    0 -0.97643638783E+02  0.89816080663E+02  0.27740303853E+02  0.21353157377E+03  0.16500000000E+03 0.  0.
   -5000001    1    1    2    0    0  0.97643638783E+02 -0.89816080663E+02  0.22577804202E+03  0.30951887309E+03  0.16500000000E+03 0.  0.
<mgrwt>
<rscale>  0 0.45750434E+03</rscale>
<asrwt>0</asrwt>
<pdfrwt beam="1">  1        2 0.19252293E-01 0.45750434E+03</pdfrwt>
<pdfrwt beam="2">  1       -2 0.55469199E-01 0.45750434E+03</pdfrwt>
<totfact> 0.91018233E+02</totfact>
</mgrwt>
</event>
<event>
 4    1  0.5399378E-005  0.5159220E+03  0.7818608E-02  0.1009705E+00
          2   -1    0    0  501    0  0.00000000000E+00  0.00000000000E+00  0.21543263060E+03  0.21543263061E+03  0.25500000000E-02 0.  1.
         -2   -1    0    0    0  501 -0.00000000000E+00 -0.00000000000E+00 -0.30888490220E+03  0.30888490221E+03  0.25500000000E-02 0. -1.
    5000001    1    1    2    0    0  0.19721947424E+03 -0.89715174736E+01 -0.27907850586E+02  0.25880467011E+03  0.16500000000E+03 0.  0.
   -5000001    1    1    2    0    0 -0.19721947424E+03  0.89715174736E+01 -0.65544421020E+02  0.26551286272E+03  0.16500000000E+03 0.  0.
<mgrwt>
<rscale>  0 0.51592204E+03</rscale>
<asrwt>0</asrwt>
<pdfrwt beam="1">  1        2 0.30776090E-01 0.51592204E+03</pdfrwt>
<pdfrwt beam="2">  1       -2 0.44126414E-01 0.51592204E+03</pdfrwt>
<totfact> 0.84512949E+02</totfact>
</mgrwt>
</event>
<event>
 4    1  0.5399378E-005  0.5941357E+03  0.7818608E-02  0.9917648E-01
          2   -1    0    0  501    0  0.00000000000E+00  0.00000000000E+00  0.11222167834E+04  0.11222167834E+04  0.25500000000E-02 0. -1.
         -2   -1    0    0    0  501 -0.00000000000E+00 -0.00000000000E+00 -0.78638378108E+02  0.78638378150E+02  0.25500000000E-02 0.  1.
    5000001    1    1    2    0    0 -0.16113739162E+03 -0.19115812928E+02  0.89825877355E+03  0.92759069505E+03  0.16500000000E+03 0.  0.
   -5000001    1    1    2    0    0  0.16113739162E+03  0.19115812928E+02  0.14531963174E+03  0.27326446650E+03  0.16500000000E+03 0.  0.
<mgrwt>
<rscale>  0 0.59413570E+03</rscale>
<asrwt>0</asrwt>
<pdfrwt beam="1">  1        2 0.16031667E+00 0.59413570E+03</pdfrwt>
<pdfrwt beam="2">  1       -2 0.11234055E-01 0.59413570E+03</pdfrwt>
<totfact> 0.13539671E+03</totfact>
</mgrwt>
</event>
<event>
 4    1  0.5399378E-005  0.3746665E+03  0.7818608E-02  0.1052923E+00
         -2   -1    0    0    0  501 -0.00000000000E+00  0.00000000000E+00  0.48387206047E+02  0.48387206115E+02  0.25500000000E-02 0. -1.
          2   -1    0    0  501    0  0.00000000000E+00 -0.00000000000E+00 -0.72526901188E+03  0.72526901188E+03  0.25500000000E-02 0.  1.
    5000001    1    1    2    0    0 -0.65157927749E+02 -0.43452954837E+02 -0.25242946200E+03  0.31157558973E+03  0.16500000000E+03 0.  0.
   -5000001    1    1    2    0    0  0.65157927749E+02  0.43452954837E+02 -0.42445234383E+03  0.46208062826E+03  0.16500000000E+03 0.  0.
<mgrwt>
<rscale>  0 0.37466647E+03</rscale>
<asrwt>0</asrwt>
<pdfrwt beam="1">  1        2 0.10360985E+00 0.37466647E+03</pdfrwt>
<pdfrwt beam="2">  1       -2 0.69124585E-02 0.37466647E+03</pdfrwt>
<totfact> 0.52572958E+03</totfact>
</mgrwt>
</event>
<event>
 4    1  0.5399378E-005  0.3780934E+03  0.7818608E-02  0.1051641E+00
         -2   -1    0    0    0  501 -0.00000000000E+00  0.00000000000E+00  0.12363259001E+03  0.12363259004E+03  0.25500000000E-02 0.  1.
          2   -1    0    0  501    0  0.00000000000E+00 -0.00000000000E+00 -0.28907153160E+03  0.28907153161E+03  0.25500000000E-02 0. -1.
    5000001    1    1    2    0    0  0.18755437153E+02  0.90016115900E+02 -0.74335575500E+02  0.20299124446E+03  0.16500000000E+03 0.  0.
   -5000001    1    1    2    0    0 -0.18755437153E+02 -0.90016115900E+02 -0.91103366094E+02  0.20971287719E+03  0.16500000000E+03 0.  0.
<mgrwt>
<rscale>  0 0.37809344E+03</rscale>
<asrwt>0</asrwt>
<pdfrwt beam="1">  1        2 0.41295933E-01 0.37809344E+03</pdfrwt>
<pdfrwt beam="2">  1       -2 0.17661799E-01 0.37809344E+03</pdfrwt>
<totfact> 0.32287572E+03</totfact>
</mgrwt>
</event>
<event>
 4    1  0.5399378E-005  0.4396095E+03  0.7818608E-02  0.1030867E+00
         -2   -1    0    0    0  501 -0.00000000000E+00  0.00000000000E+00  0.41212386241E+02  0.41212386320E+02  0.25500000000E-02 0. -1.
          2   -1    0    0  501    0  0.00000000000E+00 -0.00000000000E+00 -0.11723204545E+04  0.11723204546E+04  0.25500000000E-02 0.  1.
    5000001    1    1    2    0    0  0.11746846263E+03  0.84947054455E+02 -0.58934572182E+03  0.62894214488E+03  0.16500000000E+03 0.  0.
   -5000001    1    1    2    0    0 -0.11746846263E+03 -0.84947054455E+02 -0.54176234648E+03  0.58459069599E+03  0.16500000000E+03 0.  0.
<mgrwt>
<rscale>  0 0.43960948E+03</rscale>
<asrwt>0</asrwt>
<pdfrwt beam="1">  1        2 0.16747433E+00 0.43960948E+03</pdfrwt>
<pdfrwt beam="2">  1       -2 0.58874845E-02 0.43960948E+03</pdfrwt>
<totfact> 0.35512134E+03</totfact>
</mgrwt>
</event>
<event>
 4    1  0.5399378E-005  0.8477577E+03  0.7818608E-02  0.9493351E-01
         -2   -1    0    0    0  501 -0.00000000000E+00  0.00000000000E+00  0.70748392813E+02  0.70748392859E+02  0.25500000000E-02 0. -1.
          2   -1    0    0  501    0  0.00000000000E+00 -0.00000000000E+00 -0.25396096302E+04  0.25396096302E+04  0.25500000000E-02 0.  1.
    5000001    1    1    2    0    0 -0.19541061283E+03 -0.33789890856E+03 -0.12632035801E+04  0.13323923089E+04  0.16500000000E+03 0.  0.
   -5000001    1    1    2    0    0  0.19541061283E+03  0.33789890856E+03 -0.12056576573E+04  0.12779657141E+04  0.16500000000E+03 0.  0.
<mgrwt>
<rscale>  0 0.84775775E+03</rscale>
<asrwt>0</asrwt>
<pdfrwt beam="1">  1        2 0.36280132E+00 0.84775775E+03</pdfrwt>
<pdfrwt beam="2">  1       -2 0.10106915E-01 0.84775775E+03</pdfrwt>
<totfact> 0.29047704E+02</totfact>
</mgrwt>
</event>
<event>
 4    1  0.5399378E-005  0.3550052E+03  0.7818608E-02  0.1060579E+00
          2   -1    0    0  501    0  0.00000000000E+00  0.00000000000E+00  0.32990432094E+03  0.32990432095E+03  0.25500000000E-02 0.  1.
         -2   -1    0    0    0  501 -0.00000000000E+00 -0.00000000000E+00 -0.95503948816E+02  0.95503948850E+02  0.25500000000E-02 0. -1.
    5000001    1    1    2    0    0 -0.35815918179E+02  0.54405250612E+02  0.10967326531E+03  0.20855679421E+03  0.16500000000E+03 0.  0.
   -5000001    1    1    2    0    0  0.35815918179E+02 -0.54405250612E+02  0.12472710681E+03  0.21685147558E+03  0.16500000000E+03 0.  0.
<mgrwt>
<rscale>  0 0.35500516E+03</rscale>
<asrwt>0</asrwt>
<pdfrwt beam="1">  1        2 0.47129188E-01 0.35500516E+03</pdfrwt>
<pdfrwt beam="2">  1       -2 0.13643422E-01 0.35500516E+03</pdfrwt>
<totfact> 0.42990407E+03</totfact>
</mgrwt>
</event>
<event>
 4    1  0.5399378E-005  0.4605102E+03  0.7818608E-02  0.1024633E+00
         -2   -1    0    0    0  501 -0.00000000000E+00  0.00000000000E+00  0.13820890552E+03  0.13820890554E+03  0.25500000000E-02 0. -1.
          2   -1    0    0  501    0  0.00000000000E+00 -0.00000000000E+00 -0.38360349494E+03  0.38360349495E+03  0.25500000000E-02 0.  1.
    5000001    1    1    2    0    0  0.14896059546E+03 -0.30975690058E+02 -0.64436223067E+02  0.23350755709E+03  0.16500000000E+03 0.  0.
   -5000001    1    1    2    0    0 -0.14896059546E+03  0.30975690058E+02 -0.18095836636E+03  0.28830484340E+03  0.16500000000E+03 0.  0.
<mgrwt>
<rscale>  0 0.46051024E+03</rscale>
<asrwt>0</asrwt>
<pdfrwt beam="1">  1        2 0.54800499E-01 0.46051024E+03</pdfrwt>
<pdfrwt beam="2">  1       -2 0.19744130E-01 0.46051024E+03</pdfrwt>
<totfact> 0.19639662E+03</totfact>
</mgrwt>
</event>
<event>
 4    1  0.5399378E-005  0.6572595E+03  0.7818608E-02  0.9793252E-01
         -2   -1    0    0    0  501 -0.00000000000E+00  0.00000000000E+00  0.16618864351E+03  0.16618864353E+03  0.25500000000E-02 0. -1.
          2   -1    0    0  501    0  0.00000000000E+00 -0.00000000000E+00 -0.64984898128E+03  0.64984898128E+03  0.25500000000E-02 0.  1.
    5000001    1    1    2    0    0  0.13124798201E+03  0.25170190003E+03 -0.25906266338E+03  0.41823240288E+03  0.16500000000E+03 0.  0.
   -5000001    1    1    2    0    0 -0.13124798201E+03 -0.25170190003E+03 -0.22459767439E+03  0.39780522193E+03  0.16500000000E+03 0.  0.
<mgrwt>
<rscale>  0 0.65725952E+03</rscale>
<asrwt>0</asrwt>
<pdfrwt beam="1">  1        2 0.92835567E-01 0.65725952E+03</pdfrwt>
<pdfrwt beam="2">  1       -2 0.23741235E-01 0.65725952E+03</pdfrwt>
<totfact> 0.77824849E+02</totfact>
</mgrwt>
</event>
<event>
 4    1  0.5399378E-005  0.5782527E+03  0.7818608E-02  0.9951581E-01
          2   -1    0    0  501    0  0.00000000000E+00  0.00000000000E+00  0.27186632123E+04  0.27186632123E+04  0.25500000000E-02 0.  1.
         -2   -1    0    0    0  501 -0.00000000000E+00 -0.00000000000E+00 -0.30748217729E+02  0.30748217835E+02  0.25500000000E-02 0. -1.
    5000001    1    1    2    0    0 -0.23480167331E+03  0.35109289419E+02  0.13338036612E+04  0.13647789911E+04  0.16500000000E+03 0.  0.
   -5000001    1    1    2    0    0  0.23480167331E+03 -0.35109289419E+02  0.13541113334E+04  0.13846324390E+04  0.16500000000E+03 0.  0.
<mgrwt>
<rscale>  0 0.57825271E+03</rscale>
<asrwt>0</asrwt>
<pdfrwt beam="1">  1        2 0.38838049E+00 0.57825271E+03</pdfrwt>
<pdfrwt beam="2">  1       -2 0.43926022E-02 0.57825271E+03</pdfrwt>
<totfact> 0.89534591E+02</totfact>
</mgrwt>
</event>
<event>
 4    1  0.5399378E-005  0.5553172E+03  0.7818608E-02  0.1000271E+00
         -2   -1    0    0    0  501 -0.00000000000E+00  0.00000000000E+00  0.17857851342E+02  0.17857851524E+02  0.25500000000E-02 0. -1.
          2   -1    0    0  501    0  0.00000000000E+00 -0.00000000000E+00 -0.43171100160E+04  0.43171100160E+04  0.25500000000E-02 0.  1.
    5000001    1    1    2    0    0 -0.15352556999E+03  0.15883608458E+03 -0.18942390240E+04  0.19142010037E+04  0.16500000000E+03 0.  0.
   -5000001    1    1    2    0    0  0.15352556999E+03 -0.15883608458E+03 -0.24050131407E+04  0.24207668639E+04  0.16500000000E+03 0.  0.
<mgrwt>
<rscale>  0 0.55531724E+03</rscale>
<asrwt>0</asrwt>
<pdfrwt beam="1">  1        2 0.61672933E+00 0.55531724E+03</pdfrwt>
<pdfrwt beam="2">  1       -2 0.25511244E-02 0.55531724E+03</pdfrwt>
<totfact> 0.22165190E+02</totfact>
</mgrwt>
</event>
<event>
 4    1  0.5399378E-005  0.9331370E+03  0.7818608E-02  0.9385081E-01
         -2   -1    0    0    0  501 -0.00000000000E+00  0.00000000000E+00  0.20235976639E+03  0.20235976641E+03  0.25500000000E-02 0.  1.
          2   -1    0    0  501    0  0.00000000000E+00 -0.00000000000E+00 -0.10757383369E+04  0.10757383369E+04  0.25500000000E-02 0. -1.
    5000001    1    1    2    0    0 -0.14871860557E+03 -0.40025158248E+03 -0.56028416738E+03  0.72350666973E+03  0.16500000000E+03 0.  0.
   -5000001    1    1    2    0    0  0.14871860557E+03  0.40025158248E+03 -0.31309440310E+03  0.55459143355E+03  0.16500000000E+03 0.  0.
<mgrwt>
<rscale>  0 0.93313699E+03</rscale>
<asrwt>0</asrwt>
<pdfrwt beam="1">  1        2 0.15367690E+00 0.93313699E+03</pdfrwt>
<pdfrwt beam="2">  1       -2 0.28908539E-01 0.93313699E+03</pdfrwt>
<totfact> 0.27700678E+02</totfact>
</mgrwt>
</event>
<event>
 4    1  0.5399378E-005  0.7155053E+03  0.7818608E-02  0.9691077E-01
          2   -1    0    0  501    0  0.00000000000E+00  0.00000000000E+00  0.16339202953E+04  0.16339202953E+04  0.25500000000E-02 0.  1.
         -2   -1    0    0    0  501 -0.00000000000E+00 -0.00000000000E+00 -0.78331213511E+02  0.78331213552E+02  0.25500000000E-02 0. -1.
    5000001    1    1    2    0    0  0.23279036305E+03  0.77927858612E+02  0.12593770585E+04  0.12936458866E+04  0.16500000000E+03 0.  0.
   -5000001    1    1    2    0    0 -0.23279036305E+03 -0.77927858612E+02  0.29621202322E+03  0.41860562224E+03  0.16500000000E+03 0.  0.
<mgrwt>
<rscale>  0 0.71550530E+03</rscale>
<asrwt>0</asrwt>
<pdfrwt beam="1">  1        2 0.23341717E+00 0.71550530E+03</pdfrwt>
<pdfrwt beam="2">  1       -2 0.11190174E-01 0.71550530E+03</pdfrwt>
<totfact> 0.71901837E+02</totfact>
</mgrwt>
</event>
<event>
 4    1  0.5399378E-005  0.4594620E+03  0.7818608E-02  0.1024937E+00
         -2   -1    0    0    0  501 -0.00000000000E+00  0.00000000000E+00  0.43463556396E+02  0.43463556471E+02  0.25500000000E-02 0. -1.
          2   -1    0    0  501    0  0.00000000000E+00 -0.00000000000E+00 -0.12142662518E+04  0.12142662518E+04  0.25500000000E-02 0.  1.
    5000001    1    1    2    0    0 -0.11109205498E+03 -0.68510152276E+02 -0.83801790770E+03  0.86402204790E+03  0.16500000000E+03 0.  0.
   -5000001    1    1    2    0    0  0.11109205498E+03  0.68510152276E+02 -0.33278478770E+03  0.39370776036E+03  0.16500000000E+03 0.  0.
<mgrwt>
<rscale>  0 0.45946199E+03</rscale>
<asrwt>0</asrwt>
<pdfrwt beam="1">  1        2 0.17346659E+00 0.45946199E+03</pdfrwt>
<pdfrwt beam="2">  1       -2 0.62090803E-02 0.45946199E+03</pdfrwt>
<totfact> 0.30987652E+03</totfact>
</mgrwt>
</event>
<event>
 4    1  0.5399378E-005  0.7184493E+03  0.7818608E-02  0.9686191E-01
          2   -1    0    0  501    0  0.00000000000E+00  0.00000000000E+00  0.28089466251E+04  0.28089466251E+04  0.25500000000E-02 0.  1.
         -2   -1    0    0    0  501 -0.00000000000E+00 -0.00000000000E+00 -0.45939761707E+02  0.45939761777E+02  0.25500000000E-02 0. -1.
    5000001    1    1    2    0    0  0.26146895813E+03  0.98124432516E+02  0.76817908796E+03  0.83385762064E+03  0.16500000000E+03 0.  0.
   -5000001    1    1    2    0    0 -0.26146895813E+03 -0.98124432516E+02  0.19948277754E+04  0.20210287662E+04  0.16500000000E+03 0.  0.
<mgrwt>
<rscale>  0 0.71844927E+03</rscale>
<asrwt>0</asrwt>
<pdfrwt beam="1">  1        2 0.40127805E+00 0.71844927E+03</pdfrwt>
<pdfrwt beam="2">  1       -2 0.65628237E-02 0.71844927E+03</pdfrwt>
<totfact> 0.42371212E+02</totfact>
</mgrwt>
</event>
<event>
 4    1  0.5399378E-005  0.3576203E+03  0.7818608E-02  0.1059530E+00
         -2   -1    0    0    0  501 -0.00000000000E+00  0.00000000000E+00  0.15007110529E+02  0.15007110746E+02  0.25500000000E-02 0. -1.
          2   -1    0    0  501    0  0.00000000000E+00 -0.00000000000E+00 -0.21305283588E+04  0.21305283588E+04  0.25500000000E-02 0.  1.
    5000001    1    1    2    0    0 -0.91903301392E+01  0.60974732223E+02 -0.87326376807E+03  0.89085183322E+03  0.16500000000E+03 0.  0.
   -5000001    1    1    2    0    0  0.91903301392E+01 -0.60974732223E+02 -0.12422574802E+04  0.12546836364E+04  0.16500000000E+03 0.  0.
<mgrwt>
<rscale>  0 0.35762033E+03</rscale>
<asrwt>0</asrwt>
<pdfrwt beam="1">  1        2 0.30436100E+00 0.35762033E+03</pdfrwt>
<pdfrwt beam="2">  1       -2 0.21438743E-02 0.35762033E+03</pdfrwt>
<totfact> 0.53221785E+03</totfact>
</mgrwt>
</event>
<event>
 4    1  0.5399378E-005  0.4903449E+03  0.7818608E-02  0.1016330E+00
         -2   -1    0    0    0  501 -0.00000000000E+00  0.00000000000E+00  0.97443422830E+02  0.97443422863E+02  0.25500000000E-02 0. -1.
          2   -1    0    0  501    0  0.00000000000E+00 -0.00000000000E+00 -0.61686583689E+03  0.61686583690E+03  0.25500000000E-02 0.  1.
    5000001    1    1    2    0    0 -0.13144660636E+03 -0.10993664367E+03 -0.34614248994E+03  0.42000464198E+03  0.16500000000E+03 0.  0.
   -5000001    1    1    2    0    0  0.13144660636E+03  0.10993664367E+03 -0.17327992412E+03  0.29430461778E+03  0.16500000000E+03 0.  0.
<mgrwt>
<rscale>  0 0.49034485E+03</rscale>
<asrwt>0</asrwt>
<pdfrwt beam="1">  1        2 0.88123689E-01 0.49034485E+03</pdfrwt>
<pdfrwt beam="2">  1       -2 0.13920489E-01 0.49034485E+03</pdfrwt>
<totfact> 0.20774030E+03</totfact>
</mgrwt>
</event>
<event>
 4    1  0.5399378E-005  0.4533447E+03  0.7818608E-02  0.1026729E+00
          2   -1    0    0  501    0  0.00000000000E+00  0.00000000000E+00  0.91899455476E+03  0.91899455476E+03  0.25500000000E-02 0.  1.
         -2   -1    0    0    0  501 -0.00000000000E+00 -0.00000000000E+00 -0.55909304703E+02  0.55909304761E+02  0.25500000000E-02 0. -1.
    5000001    1    1    2    0    0 -0.18569599017E+01  0.10714501386E+03  0.67361943824E+03  0.70176324346E+03  0.16500000000E+03 0.  0.
   -5000001    1    1    2    0    0  0.18569599017E+01 -0.10714501386E+03  0.18946581181E+03  0.27314061606E+03  0.16500000000E+03 0.  0.
<mgrwt>
<rscale>  0 0.45334467E+03</rscale>
<asrwt>0</asrwt>
<pdfrwt beam="1">  1        2 0.13128493E+00 0.45334467E+03</pdfrwt>
<pdfrwt beam="2">  1       -2 0.79870438E-02 0.45334467E+03</pdfrwt>
<totfact> 0.31086914E+03</totfact>
</mgrwt>
</event>
<event>
 4    1  0.5399378E-005  0.4007939E+03  0.7818608E-02  0.1043505E+00
          2   -1    0    0  501    0  0.00000000000E+00  0.00000000000E+00  0.10496729613E+03  0.10496729616E+03  0.25500000000E-02 0.  1.
         -2   -1    0    0    0  501 -0.00000000000E+00 -0.00000000000E+00 -0.38258527948E+03  0.38258527949E+03  0.25500000000E-02 0. -1.
    5000001    1    1    2    0    0 -0.49035268268E+02 -0.91432041627E+02 -0.19547163423E+03  0.27604064113E+03  0.16500000000E+03 0.  0.
   -5000001    1    1    2    0    0  0.49035268268E+02  0.91432041627E+02 -0.82146349119E+02  0.21151193452E+03  0.16500000000E+03 0.  0.
<mgrwt>
<rscale>  0 0.40079392E+03</rscale>
<asrwt>0</asrwt>
<pdfrwt beam="1">  1        2 0.14995328E-01 0.40079392E+03</pdfrwt>
<pdfrwt beam="2">  1       -2 0.54655039E-01 0.40079392E+03</pdfrwt>
<totfact> 0.12600263E+03</totfact>
</mgrwt>
</event>
<event>
 4    1  0.5399378E-005  0.3342244E+03  0.7818608E-02  0.1069283E+00
          2   -1    0    0  501    0  0.00000000000E+00  0.00000000000E+00  0.11635067642E+04  0.11635067642E+04  0.25500000000E-02 0.  1.
         -2   -1    0    0    0  501 -0.00000000000E+00 -0.00000000000E+00 -0.24001994878E+02  0.24001995013E+02  0.25500000000E-02 0. -1.
    5000001    1    1    2    0    0  0.22796907657E+02 -0.10168204883E+02  0.53829411619E+03  0.56356778378E+03  0.16500000000E+03 0.  0.
   -5000001    1    1    2    0    0 -0.22796907657E+02  0.10168204883E+02  0.60121065313E+03  0.62394097544E+03  0.16500000000E+03 0.  0.
<mgrwt>
<rscale>  0 0.33422438E+03</rscale>
<asrwt>0</asrwt>
<pdfrwt beam="1">  1        2 0.16621532E+00 0.33422438E+03</pdfrwt>
<pdfrwt beam="2">  1       -2 0.34288551E-02 0.33422438E+03</pdfrwt>
<totfact> 0.81705930E+03</totfact>
</mgrwt>
</event>
<event>
 4    1  0.5399378E-005  0.5083649E+03  0.7818608E-02  0.1011618E+00
         -2   -1    0    0    0  501 -0.00000000000E+00  0.00000000000E+00  0.73864738418E+02  0.73864738462E+02  0.25500000000E-02 0. -1.
          2   -1    0    0  501    0  0.00000000000E+00 -0.00000000000E+00 -0.87468975545E+03  0.87468975546E+03  0.25500000000E-02 0.  1.
    5000001    1    1    2    0    0  0.79677216911E+02 -0.15638606765E+03 -0.55175319671E+03  0.60204788110E+03  0.16500000000E+03 0.  0.
   -5000001    1    1    2    0    0 -0.79677216911E+02  0.15638606765E+03 -0.24907182032E+03  0.34650661282E+03  0.16500000000E+03 0.  0.
<mgrwt>
<rscale>  0 0.50836495E+03</rscale>
<asrwt>0</asrwt>
<pdfrwt beam="1">  1        2 0.12495567E+00 0.50836495E+03</pdfrwt>
<pdfrwt beam="2">  1       -2 0.10552106E-01 0.50836495E+03</pdfrwt>
<totfact> 0.21252045E+03</totfact>
</mgrwt>
</event>
<event>
 4    1  0.5399378E-005  0.7531882E+03  0.7818608E-02  0.9630362E-01
         -2   -1    0    0    0  501 -0.00000000000E+00  0.00000000000E+00  0.78284532854E+02  0.78284532895E+02  0.25500000000E-02 0. -1.
          2   -1    0    0  501    0  0.00000000000E+00 -0.00000000000E+00 -0.18116365533E+04  0.18116365533E+04  0.25500000000E-02 0.  1.
    5000001    1    1    2    0    0  0.21282186845E+03  0.22576563574E+03 -0.52691084386E+03  0.63334296187E+03  0.16500000000E+03 0.  0.
   -5000001    1    1    2    0    0 -0.21282186845E+03 -0.22576563574E+03 -0.12064411766E+04  0.12565781243E+04  0.16500000000E+03 0.  0.
<mgrwt>
<rscale>  0 0.75318821E+03</rscale>
<asrwt>0</asrwt>
<pdfrwt beam="1">  1        2 0.25880520E+00 0.75318821E+03</pdfrwt>
<pdfrwt beam="2">  1       -2 0.11183506E-01 0.75318821E+03</pdfrwt>
<totfact> 0.58263323E+02</totfact>
</mgrwt>
</event>
<event>
 4    1  0.5399378E-005  0.4461738E+03  0.7818608E-02  0.1028869E+00
          2   -1    0    0  501    0  0.00000000000E+00  0.00000000000E+00  0.24326778322E+04  0.24326778322E+04  0.25500000000E-02 0.  1.
         -2   -1    0    0    0  501 -0.00000000000E+00 -0.00000000000E+00 -0.20458015360E+02  0.20458015518E+02  0.25500000000E-02 0. -1.
    5000001    1    1    2    0    0 -0.14568834001E+03 -0.28678278037E+02  0.10837557706E+04  0.11062545396E+04  0.16500000000E+03 0.  0.
   -5000001    1    1    2    0    0  0.14568834001E+03  0.28678278037E+02  0.13284640462E+04  0.13468813081E+04  0.16500000000E+03 0.  0.
<mgrwt>
<rscale>  0 0.44617378E+03</rscale>
<asrwt>0</asrwt>
<pdfrwt beam="1">  1        2 0.34752517E+00 0.44617378E+03</pdfrwt>
<pdfrwt beam="2">  1       -2 0.29225756E-02 0.44617378E+03</pdfrwt>
<totfact> 0.23590260E+03</totfact>
</mgrwt>
</event>
<event>
 4    1  0.5399378E-005  0.3652542E+03  0.7818608E-02  0.1056523E+00
          2   -1    0    0  501    0  0.00000000000E+00  0.00000000000E+00  0.38896969281E+04  0.38896969281E+04  0.25500000000E-02 0.  1.
         -2   -1    0    0    0  501 -0.00000000000E+00 -0.00000000000E+00 -0.85746163975E+01  0.85746167767E+01  0.25500000000E-02 0. -1.
    5000001    1    1    2    0    0 -0.26223679958E+02 -0.73725401838E+02  0.19178115549E+04  0.19264862513E+04  0.16500000000E+03 0.  0.
   -5000001    1    1    2    0    0  0.26223679958E+02  0.73725401838E+02  0.19633107567E+04  0.19717852935E+04  0.16500000000E+03 0.  0.
<mgrwt>
<rscale>  0 0.36525421E+03</rscale>
<asrwt>0</asrwt>
<pdfrwt beam="1">  1        2 0.55567202E+00 0.36525421E+03</pdfrwt>
<pdfrwt beam="2">  1       -2 0.12249430E-02 0.36525421E+03</pdfrwt>
<totfact> 0.13325134E+03</totfact>
</mgrwt>
</event>
<event>
 4    1  0.5399378E-005  0.3782292E+03  0.7818608E-02  0.1051590E+00
         -2   -1    0    0    0  501 -0.00000000000E+00  0.00000000000E+00  0.26334222700E+03  0.26334222702E+03  0.25500000000E-02 0. -1.
          2   -1    0    0  501    0  0.00000000000E+00 -0.00000000000E+00 -0.13580932895E+03  0.13580932897E+03  0.25500000000E-02 0.  1.
    5000001    1    1    2    0    0  0.59538204003E+02 -0.42769612831E+02  0.43933416856E+01  0.18060547879E+03  0.16500000000E+03 0.  0.
   -5000001    1    1    2    0    0 -0.59538204003E+02  0.42769612831E+02  0.12313955637E+03  0.21854607720E+03  0.16500000000E+03 0.  0.
<mgrwt>
<rscale>  0 0.37822920E+03</rscale>
<asrwt>0</asrwt>
<pdfrwt beam="1">  1        2 0.19401333E-01 0.37822920E+03</pdfrwt>
<pdfrwt beam="2">  1       -2 0.37620318E-01 0.37822920E+03</pdfrwt>
<totfact> 0.19406946E+03</totfact>
</mgrwt>
</event>
<event>
 4    1  0.5399378E-005  0.6916500E+03  0.7818608E-02  0.9731619E-01
          2   -1    0    0  501    0  0.00000000000E+00  0.00000000000E+00  0.21121637297E+04  0.21121637297E+04  0.25500000000E-02 0.  1.
         -2   -1    0    0    0  501 -0.00000000000E+00 -0.00000000000E+00 -0.56622006184E+02  0.56622006242E+02  0.25500000000E-02 0. -1.
    5000001    1    1    2    0    0  0.25922097881E+03  0.97548303747E+02  0.63538899834E+03  0.71249938009E+03  0.16500000000E+03 0.  0.
   -5000001    1    1    2    0    0 -0.25922097881E+03 -0.97548303747E+02  0.14201527252E+04  0.14562863558E+04  0.16500000000E+03 0.  0.
<mgrwt>
<rscale>  0 0.69165005E+03</rscale>
<asrwt>0</asrwt>
<pdfrwt beam="1">  1        2 0.30173765E+00 0.69165005E+03</pdfrwt>
<pdfrwt beam="2">  1       -2 0.80888588E-02 0.69165005E+03</pdfrwt>
<totfact> 0.69663591E+02</totfact>
</mgrwt>
</event>
<event>
 4    1  0.5399378E-005  0.4555536E+03  0.7818608E-02  0.1026079E+00
         -2   -1    0    0    0  501 -0.00000000000E+00  0.00000000000E+00  0.39311712107E+03  0.39311712108E+03  0.25500000000E-02 0. -1.
          2   -1    0    0  501    0  0.00000000000E+00 -0.00000000000E+00 -0.13197664720E+03  0.13197664723E+03  0.25500000000E-02 0.  1.
    5000001    1    1    2    0    0 -0.70432934311E+02 -0.13079708952E+03  0.18921510952E+03  0.29171224611E+03  0.16500000000E+03 0.  0.
   -5000001    1    1    2    0    0  0.70432934311E+02  0.13079708952E+03  0.71925364348E+02  0.23338152219E+03  0.16500000000E+03 0.  0.
<mgrwt>
<rscale>  0 0.45555364E+03</rscale>
<asrwt>0</asrwt>
<pdfrwt beam="1">  1        2 0.18853807E-01 0.45555364E+03</pdfrwt>
<pdfrwt beam="2">  1       -2 0.56159589E-01 0.45555364E+03</pdfrwt>
<totfact> 0.90921340E+02</totfact>
</mgrwt>
</event>
<event>
 4    1  0.5399378E-005  0.7886875E+03  0.7818608E-02  0.9576537E-01
          2   -1    0    0  501    0  0.00000000000E+00  0.00000000000E+00  0.12526189025E+04  0.12526189025E+04  0.25500000000E-02 0.  1.
         -2   -1    0    0    0  501 -0.00000000000E+00 -0.00000000000E+00 -0.12414548409E+03  0.12414548411E+03  0.25500000000E-02 0. -1.
    5000001    1    1    2    0    0 -0.53502944531E+01 -0.35777490315E+03  0.59186380320E+03  0.71102691125E+03  0.16500000000E+03 0.  0.
   -5000001    1    1    2    0    0  0.53502944531E+01  0.35777490315E+03  0.53660961520E+03  0.66573747536E+03  0.16500000000E+03 0.  0.
<mgrwt>
<rscale>  0 0.78868747E+03</rscale>
<asrwt>0</asrwt>
<pdfrwt beam="1">  1        2 0.17894557E+00 0.78868747E+03</pdfrwt>
<pdfrwt beam="2">  1       -2 0.17735067E-01 0.78868747E+03</pdfrwt>
<totfact> 0.52732669E+02</totfact>
</mgrwt>
</event>
<event>
 4    1  0.5399378E-005  0.1059952E+04  0.7818608E-02  0.9245129E-01
          2   -1    0    0  501    0  0.00000000000E+00  0.00000000000E+00  0.62789121617E+03  0.62789121617E+03  0.25500000000E-02 0.  1.
         -2   -1    0    0    0  501 -0.00000000000E+00 -0.00000000000E+00 -0.44732989201E+03  0.44732989201E+03  0.25500000000E-02 0. -1.
    5000001    1    1    2    0    0 -0.44327124723E+03 -0.15355262068E+03 -0.95612316708E+02  0.50639364238E+03  0.16500000000E+03 0.  0.
   -5000001    1    1    2    0    0  0.44327124723E+03  0.15355262068E+03  0.27617364087E+03  0.56882746580E+03  0.16500000000E+03 0.  0.
<mgrwt>
<rscale>  0 0.10599519E+04</rscale>
<asrwt>0</asrwt>
<pdfrwt beam="1">  1        2 0.89698744E-01 0.10599519E+04</pdfrwt>
<pdfrwt beam="2">  1       -2 0.63904271E-01 0.10599519E+04</pdfrwt>
<totfact> 0.11589803E+02</totfact>
</mgrwt>
</event>
<event>
 4    1  0.5399378E-005  0.4863738E+03  0.7818608E-02  0.1017398E+00
          2   -1    0    0  501    0  0.00000000000E+00  0.00000000000E+00  0.13516187834E+03  0.13516187836E+03  0.25500000000E-02 0.  1.
         -2   -1    0    0    0  501 -0.00000000000E+00 -0.00000000000E+00 -0.43754848742E+03  0.43754848743E+03  0.25500000000E-02 0. -1.
    5000001    1    1    2    0    0  0.77467731907E+02  0.13032030230E+03 -0.39918580397E+02  0.22760299589E+03  0.16500000000E+03 0.  0.
   -5000001    1    1    2    0    0 -0.77467731907E+02 -0.13032030230E+03 -0.26246802869E+03  0.34510736990E+03  0.16500000000E+03 0.  0.
<mgrwt>
<rscale>  0 0.48637383E+03</rscale>
<asrwt>0</asrwt>
<pdfrwt beam="1">  1        2 0.19308840E-01 0.48637383E+03</pdfrwt>
<pdfrwt beam="2">  1       -2 0.62506926E-01 0.48637383E+03</pdfrwt>
<totfact> 0.70714313E+02</totfact>
</mgrwt>
</event>
<event>
 4    1  0.5399378E-005  0.5054275E+03  0.7818608E-02  0.1012372E+00
         -2   -1    0    0    0  501 -0.00000000000E+00  0.00000000000E+00  0.77047394501E+03  0.77047394502E+03  0.25500000000E-02 0. -1.
          2   -1    0    0  501    0  0.00000000000E+00 -0.00000000000E+00 -0.82889536530E+02  0.82889536569E+02  0.25500000000E-02 0.  1.
    5000001    1    1    2    0    0  0.94923926958E+02  0.69084884929E+02  0.88536820842E+02  0.22101366899E+03  0.16500000000E+03 0.  0.
   -5000001    1    1    2    0    0 -0.94923926958E+02 -0.69084884929E+02  0.59904758764E+03  0.63234981260E+03  0.16500000000E+03 0.  0.
<mgrwt>
<rscale>  0 0.50542746E+03</rscale>
<asrwt>0</asrwt>
<pdfrwt beam="1">  1        2 0.11841363E-01 0.50542746E+03</pdfrwt>
<pdfrwt beam="2">  1       -2 0.11006770E+00 0.50542746E+03</pdfrwt>
<totfact> 0.35633932E+02</totfact>
</mgrwt>
</event>
<event>
 4    1  0.5399378E-005  0.6078761E+03  0.7818608E-02  0.9889199E-01
          2   -1    0    0  501    0  0.00000000000E+00  0.00000000000E+00  0.26586948469E+04  0.26586948469E+04  0.25500000000E-02 0.  1.
         -2   -1    0    0    0  501 -0.00000000000E+00 -0.00000000000E+00 -0.34745742767E+02  0.34745742861E+02  0.25500000000E-02 0. -1.
    5000001    1    1    2    0    0 -0.19342187670E+03  0.16641145115E+03  0.12811060888E+04  0.13166482462E+04  0.16500000000E+03 0.  0.
   -5000001    1    1    2    0    0  0.19342187670E+03 -0.16641145115E+03  0.13428430153E+04  0.13767923435E+04  0.16500000000E+03 0.  0.
<mgrwt>
<rscale>  0 0.60787606E+03</rscale>
<asrwt>0</asrwt>
<pdfrwt beam="1">  1        2 0.37981364E+00 0.60787606E+03</pdfrwt>
<pdfrwt beam="2">  1       -2 0.49636763E-02 0.60787606E+03</pdfrwt>
<totfact> 0.79468193E+02</totfact>
</mgrwt>
</event>
<event>
 4    1  0.5399378E-005  0.4481531E+03  0.7818608E-02  0.1028274E+00
          2   -1    0    0  501    0  0.00000000000E+00  0.00000000000E+00  0.46698990375E+03  0.46698990375E+03  0.25500000000E-02 0.  1.
         -2   -1    0    0    0  501 -0.00000000000E+00 -0.00000000000E+00 -0.10751903125E+03  0.10751903128E+03  0.25500000000E-02 0. -1.
    5000001    1    1    2    0    0  0.77468527493E+02 -0.95686662157E+02  0.66313890605E+02  0.21628648167E+03  0.16500000000E+03 0.  0.
   -5000001    1    1    2    0    0 -0.77468527493E+02  0.95686662157E+02  0.29315698189E+03  0.35822245337E+03  0.16500000000E+03 0.  0.
<mgrwt>
<rscale>  0 0.44815311E+03</rscale>
<asrwt>0</asrwt>
<pdfrwt beam="1">  1        2 0.66712845E-01 0.44815311E+03</pdfrwt>
<pdfrwt beam="2">  1       -2 0.15359861E-01 0.44815311E+03</pdfrwt>
<totfact> 0.24211703E+03</totfact>
</mgrwt>
</event>
<event>
 4    1  0.5399378E-005  0.3406212E+03  0.7818608E-02  0.1066532E+00
          2   -1    0    0  501    0  0.00000000000E+00  0.00000000000E+00  0.13075642960E+03  0.13075642962E+03  0.25500000000E-02 0.  1.
         -2   -1    0    0    0  501 -0.00000000000E+00 -0.00000000000E+00 -0.22183001808E+03  0.22183001810E+03  0.25500000000E-02 0. -1.
    5000001    1    1    2    0    0  0.40262773788E+02 -0.10437016131E+02 -0.52905776017E+02  0.17819664249E+03  0.16500000000E+03 0.  0.
   -5000001    1    1    2    0    0 -0.40262773788E+02  0.10437016131E+02 -0.38167812470E+02  0.17438980523E+03  0.16500000000E+03 0.  0.
<mgrwt>
<rscale>  0 0.34062120E+03</rscale>
<asrwt>0</asrwt>
<pdfrwt beam="1">  1        2 0.18679490E-01 0.34062120E+03</pdfrwt>
<pdfrwt beam="2">  1       -2 0.31690003E-01 0.34062120E+03</pdfrwt>
<totfact> 0.27901923E+03</totfact>
</mgrwt>
</event>
<event>
 4    1  0.5399378E-005  0.5663806E+03  0.7818608E-02  0.9977720E-01
         -2   -1    0    0    0  501 -0.00000000000E+00  0.00000000000E+00  0.26945091808E+03  0.26945091809E+03  0.25500000000E-02 0. -1.
          2   -1    0    0  501    0  0.00000000000E+00 -0.00000000000E+00 -0.29763027482E+03  0.29763027483E+03  0.25500000000E-02 0.  1.
    5000001    1    1    2    0    0  0.12521788347E+03  0.59692163423E+02  0.16979227031E+03  0.27440314826E+03  0.16500000000E+03 0.  0.
   -5000001    1    1    2    0    0 -0.12521788347E+03 -0.59692163423E+02 -0.19797162705E+03  0.29267804467E+03  0.16500000000E+03 0.  0.
<mgrwt>
<rscale>  0 0.56638062E+03</rscale>
<asrwt>0</asrwt>
<pdfrwt beam="1">  1        2 0.42518611E-01 0.56638062E+03</pdfrwt>
<pdfrwt beam="2">  1       -2 0.38492988E-01 0.56638062E+03</pdfrwt>
<totfact> 0.77054992E+02</totfact>
</mgrwt>
</event>
<event>
 4    1  0.5399378E-005  0.4165263E+03  0.7818608E-02  0.1038203E+00
         -2   -1    0    0    0  501 -0.00000000000E+00  0.00000000000E+00  0.24021881444E+02  0.24021881579E+02  0.25500000000E-02 0. -1.
          2   -1    0    0  501    0  0.00000000000E+00 -0.00000000000E+00 -0.18055846287E+04  0.18055846287E+04  0.25500000000E-02 0.  1.
    5000001    1    1    2    0    0 -0.85080739441E+01 -0.12170312231E+03 -0.10469792585E+04  0.10668995290E+04  0.16500000000E+03 0.  0.
   -5000001    1    1    2    0    0  0.85080739441E+01  0.12170312231E+03 -0.73458348874E+03  0.76270698124E+03  0.16500000000E+03 0.  0.
<mgrwt>
<rscale>  0 0.41652630E+03</rscale>
<asrwt>0</asrwt>
<pdfrwt beam="1">  1        2 0.25794057E+00 0.41652630E+03</pdfrwt>
<pdfrwt beam="2">  1       -2 0.34316985E-02 0.41652630E+03</pdfrwt>
<totfact> 0.38046608E+03</totfact>
</mgrwt>
</event>
<event>
 4    1  0.5399378E-005  0.5130070E+03  0.7818608E-02  0.1010439E+00
          2   -1    0    0  501    0  0.00000000000E+00  0.00000000000E+00  0.28194073439E+04  0.28194073439E+04  0.25500000000E-02 0.  1.
         -2   -1    0    0    0  501 -0.00000000000E+00 -0.00000000000E+00 -0.23336124744E+02  0.23336124883E+02  0.25500000000E-02 0. -1.
    5000001    1    1    2    0    0  0.14839812392E+03  0.77667434874E+02  0.82981750572E+03  0.86248265283E+03  0.16500000000E+03 0.  0.
   -5000001    1    1    2    0    0 -0.14839812392E+03 -0.77667434874E+02  0.19662537134E+04  0.19802608159E+04  0.16500000000E+03 0.  0.
<mgrwt>
<rscale>  0 0.51300699E+03</rscale>
<asrwt>0</asrwt>
<pdfrwt beam="1">  1        2 0.40277258E+00 0.51300699E+03</pdfrwt>
<pdfrwt beam="2">  1       -2 0.33337313E-02 0.51300699E+03</pdfrwt>
<totfact> 0.12152448E+03</totfact>
</mgrwt>
</event>
<event>
 4    1  0.5399378E-005  0.5629722E+03  0.7818608E-02  0.9985352E-01
         -2   -1    0    0    0  501 -0.00000000000E+00  0.00000000000E+00  0.38137503430E+02  0.38137503516E+02  0.25500000000E-02 0.  1.
          2   -1    0    0  501    0  0.00000000000E+00 -0.00000000000E+00 -0.20775987233E+04  0.20775987233E+04  0.25500000000E-02 0. -1.
    5000001    1    1    2    0    0 -0.10372373370E+03 -0.84592540052E+02 -0.32579466276E+03  0.38894944793E+03  0.16500000000E+03 0.  0.
   -5000001    1    1    2    0    0  0.10372373370E+03  0.84592540052E+02 -0.17136665571E+04  0.17267867789E+04  0.16500000000E+03 0.  0.
<mgrwt>
<rscale>  0 0.56297221E+03</rscale>
<asrwt>0</asrwt>
<pdfrwt beam="1">  1        2 0.29679975E+00 0.56297221E+03</pdfrwt>
<pdfrwt beam="2">  1       -2 0.54482161E-02 0.56297221E+03</pdfrwt>
<totfact> 0.13626350E+03</totfact>
</mgrwt>
</event>
<event>
 4    1  0.5399378E-005  0.4223486E+03  0.7818608E-02  0.1036305E+00
          2   -1    0    0  501    0  0.00000000000E+00  0.00000000000E+00  0.37774759495E+04  0.37774759495E+04  0.25500000000E-02 0.  1.
         -2   -1    0    0    0  501 -0.00000000000E+00 -0.00000000000E+00 -0.11805392054E+02  0.11805392330E+02  0.25500000000E-02 0. -1.
    5000001    1    1    2    0    0 -0.31530691593E+02  0.12776696569E+03  0.18187609805E+04  0.18309656158E+04  0.16500000000E+03 0.  0.
   -5000001    1    1    2    0    0  0.31530691593E+02 -0.12776696569E+03  0.19469095770E+04  0.19583157261E+04  0.16500000000E+03 0.  0.
<mgrwt>
<rscale>  0 0.42234860E+03</rscale>
<asrwt>0</asrwt>
<pdfrwt beam="1">  1        2 0.53964017E+00 0.42234860E+03</pdfrwt>
<pdfrwt beam="2">  1       -2 0.16864822E-02 0.42234860E+03</pdfrwt>
<totfact> 0.97042455E+02</totfact>
</mgrwt>
</event>
<event>
 4    1  0.5399378E-005  0.3716378E+03  0.7818608E-02  0.1054068E+00
         -2   -1    0    0    0  501 -0.00000000000E+00  0.00000000000E+00  0.78264932529E+02  0.78264932570E+02  0.25500000000E-02 0. -1.
          2   -1    0    0  501    0  0.00000000000E+00 -0.00000000000E+00 -0.44117679125E+03  0.44117679125E+03  0.25500000000E-02 0.  1.
    5000001    1    1    2    0    0 -0.31070304688E+02 -0.78925633479E+02 -0.19605194876E+03  0.26991848041E+03  0.16500000000E+03 0.  0.
   -5000001    1    1    2    0    0  0.31070304688E+02  0.78925633479E+02 -0.16685990996E+03  0.24952324341E+03  0.16500000000E+03 0.  0.
<mgrwt>
<rscale>  0 0.37163784E+03</rscale>
<asrwt>0</asrwt>
<pdfrwt beam="1">  1        2 0.63025254E-01 0.37163784E+03</pdfrwt>
<pdfrwt beam="2">  1       -2 0.11180705E-01 0.37163784E+03</pdfrwt>
<totfact> 0.43356761E+03</totfact>
</mgrwt>
</event>
<event>
 4    1  0.5399378E-005  0.5591575E+03  0.7818608E-02  0.9993963E-01
          2   -1    0    0  501    0  0.00000000000E+00  0.00000000000E+00  0.24280356288E+04  0.24280356288E+04  0.25500000000E-02 0.  1.
         -2   -1    0    0    0  501 -0.00000000000E+00 -0.00000000000E+00 -0.32192394578E+02  0.32192394679E+02  0.25500000000E-02 0. -1.
    5000001    1    1    2    0    0  0.19326648915E+03 -0.74226827292E+02  0.80247698395E+03  0.84501826459E+03  0.16500000000E+03 0.  0.
   -5000001    1    1    2    0    0 -0.19326648915E+03  0.74226827292E+02  0.15933662503E+04  0.16152097589E+04  0.16500000000E+03 0.  0.
<mgrwt>
<rscale>  0 0.55915751E+03</rscale>
<asrwt>0</asrwt>
<pdfrwt beam="1">  1        2 0.34686235E+00 0.55915751E+03</pdfrwt>
<pdfrwt beam="2">  1       -2 0.45989120E-02 0.55915751E+03</pdfrwt>
<totfact> 0.11798239E+03</totfact>
</mgrwt>
</event>
<event>
 4    1  0.5399378E-005  0.4411533E+03  0.7818608E-02  0.1030394E+00
         -2   -1    0    0    0  501 -0.00000000000E+00  0.00000000000E+00  0.12101073567E+03  0.12101073570E+03  0.25500000000E-02 0. -1.
          2   -1    0    0  501    0  0.00000000000E+00 -0.00000000000E+00 -0.40206392458E+03  0.40206392459E+03  0.25500000000E-02 0.  1.
    5000001    1    1    2    0    0  0.11917404904E+03 -0.81842625164E+02 -0.16778172149E+03  0.27618177949E+03  0.16500000000E+03 0.  0.
   -5000001    1    1    2    0    0 -0.11917404904E+03  0.81842625164E+02 -0.11327146742E+03  0.24689288080E+03  0.16500000000E+03 0.  0.
<mgrwt>
<rscale>  0 0.44115327E+03</rscale>
<asrwt>0</asrwt>
<pdfrwt beam="1">  1        2 0.57437703E-01 0.44115327E+03</pdfrwt>
<pdfrwt beam="2">  1       -2 0.17287248E-01 0.44115327E+03</pdfrwt>
<totfact> 0.23406796E+03</totfact>
</mgrwt>
</event>
<event>
 4    1  0.5399378E-005  0.4702606E+03  0.7818608E-02  0.1021847E+00
         -2   -1    0    0    0  501 -0.00000000000E+00  0.00000000000E+00  0.17559453318E+02  0.17559453503E+02  0.25500000000E-02 0. -1.
          2   -1    0    0  501    0  0.00000000000E+00 -0.00000000000E+00 -0.31485183569E+04  0.31485183569E+04  0.25500000000E-02 0.  1.
    5000001    1    1    2    0    0  0.13727638776E+03 -0.40893329937E+02 -0.21502551219E+04  0.21613281010E+04  0.16500000000E+03 0.  0.
   -5000001    1    1    2    0    0 -0.13727638776E+03  0.40893329937E+02 -0.98070378168E+03  0.10047497094E+04  0.16500000000E+03 0.  0.
<mgrwt>
<rscale>  0 0.47026061E+03</rscale>
<asrwt>0</asrwt>
<pdfrwt beam="1">  1        2 0.44978798E+00 0.47026061E+03</pdfrwt>
<pdfrwt beam="2">  1       -2 0.25084953E-02 0.47026061E+03</pdfrwt>
<totfact> 0.12456848E+03</totfact>
</mgrwt>
</event>
<event>
 4    1  0.5399378E-005  0.5340765E+03  0.7818608E-02  0.1005248E+00
         -2   -1    0    0    0  501 -0.00000000000E+00  0.00000000000E+00  0.39051678878E+03  0.39051678879E+03  0.25500000000E-02 0. -1.
          2   -1    0    0  501    0  0.00000000000E+00 -0.00000000000E+00 -0.18260273769E+03  0.18260273771E+03  0.25500000000E-02 0.  1.
    5000001    1    1    2    0    0  0.18840211832E+03  0.18490444567E+02  0.65041967306E+01  0.25120620872E+03  0.16500000000E+03 0.  0.
   -5000001    1    1    2    0    0 -0.18840211832E+03 -0.18490444567E+02  0.20140985435E+03  0.32191331777E+03  0.16500000000E+03 0.  0.
<mgrwt>
<rscale>  0 0.53407653E+03</rscale>
<asrwt>0</asrwt>
<pdfrwt beam="1">  1        2 0.26086106E-01 0.53407653E+03</pdfrwt>
<pdfrwt beam="2">  1       -2 0.55788112E-01 0.53407653E+03</pdfrwt>
<totfact> 0.63404437E+02</totfact>
</mgrwt>
</event>
<event>
 4    1  0.5399378E-005  0.5341554E+03  0.7818608E-02  0.1005229E+00
          2   -1    0    0  501    0  0.00000000000E+00  0.00000000000E+00  0.23535640230E+03  0.23535640231E+03  0.25500000000E-02 0.  1.
         -2   -1    0    0    0  501 -0.00000000000E+00 -0.00000000000E+00 -0.30307436759E+03  0.30307436760E+03  0.25500000000E-02 0. -1.
    5000001    1    1    2    0    0 -0.29800071381E+02 -0.18961233158E+03  0.52055916015E+02  0.25840994357E+03  0.16500000000E+03 0.  0.
   -5000001    1    1    2    0    0  0.29800071381E+02  0.18961233158E+03 -0.11977388131E+03  0.28002082635E+03  0.16500000000E+03 0.  0.
<mgrwt>
<rscale>  0 0.53415538E+03</rscale>
<asrwt>0</asrwt>
<pdfrwt beam="1">  1        2 0.33622343E-01 0.53415538E+03</pdfrwt>
<pdfrwt beam="2">  1       -2 0.43296338E-01 0.53415538E+03</pdfrwt>
<totfact> 0.79491299E+02</totfact>
</mgrwt>
</event>
<event>
 4    1  0.5399378E-005  0.3778859E+03  0.7818608E-02  0.1051718E+00
          2   -1    0    0  501    0  0.00000000000E+00  0.00000000000E+00  0.29544278655E+04  0.29544278655E+04  0.25500000000E-02 0.  1.
         -2   -1    0    0    0  501 -0.00000000000E+00 -0.00000000000E+00 -0.12083365351E+02  0.12083365620E+02  0.25500000000E-02 0. -1.
    5000001    1    1    2    0    0  0.32389570215E+02  0.81508781646E+02  0.12516917459E+04  0.12655631128E+04  0.16500000000E+03 0.  0.
   -5000001    1    1    2    0    0 -0.32389570215E+02 -0.81508781646E+02  0.16906527542E+04  0.17009481183E+04  0.16500000000E+03 0.  0.
<mgrwt>
<rscale>  0 0.37788586E+03</rscale>
<asrwt>0</asrwt>
<pdfrwt beam="1">  1        2 0.42206132E+00 0.37788586E+03</pdfrwt>
<pdfrwt beam="2">  1       -2 0.17261943E-02 0.37788586E+03</pdfrwt>
<totfact> 0.27942928E+03</totfact>
</mgrwt>
</event>
<event>
 4    1  0.5399378E-005  0.3780778E+03  0.7818608E-02  0.1051647E+00
          2   -1    0    0  501    0  0.00000000000E+00  0.00000000000E+00  0.18061534830E+04  0.18061534830E+04  0.25500000000E-02 0.  1.
         -2   -1    0    0    0  501 -0.00000000000E+00 -0.00000000000E+00 -0.19785526027E+02  0.19785526192E+02  0.25500000000E-02 0. -1.
    5000001    1    1    2    0    0  0.77400916512E+02  0.32143753805E+02  0.70697593954E+03  0.73079689509E+03  0.16500000000E+03 0.  0.
   -5000001    1    1    2    0    0 -0.77400916512E+02 -0.32143753805E+02  0.10793920175E+04  0.10951421141E+04  0.16500000000E+03 0.  0.
<mgrwt>
<rscale>  0 0.37807775E+03</rscale>
<asrwt>0</asrwt>
<pdfrwt beam="1">  1        2 0.25802174E+00 0.37807775E+03</pdfrwt>
<pdfrwt beam="2">  1       -2 0.28265058E-02 0.37807775E+03</pdfrwt>
<totfact> 0.50939257E+03</totfact>
</mgrwt>
</event>
<event>
 4    1  0.5399378E-005  0.4866957E+03  0.7818608E-02  0.1017311E+00
          2   -1    0    0  501    0  0.00000000000E+00  0.00000000000E+00  0.35968176037E+04  0.35968176037E+04  0.25500000000E-02 0.  1.
         -2   -1    0    0    0  501 -0.00000000000E+00 -0.00000000000E+00 -0.16464050355E+02  0.16464050553E+02  0.25500000000E-02 0. -1.
    5000001    1    1    2    0    0 -0.14238349085E+03  0.27401948059E+02  0.25677350724E+04  0.25771131770E+04  0.16500000000E+03 0.  0.
   -5000001    1    1    2    0    0  0.14238349085E+03 -0.27401948059E+02  0.10126184809E+04  0.10361684772E+04  0.16500000000E+03 0.  0.
<mgrwt>
<rscale>  0 0.48669574E+03</rscale>
<asrwt>0</asrwt>
<pdfrwt beam="1">  1        2 0.51383149E+00 0.48669574E+03</pdfrwt>
<pdfrwt beam="2">  1       -2 0.23520054E-02 0.48669574E+03</pdfrwt>
<totfact> 0.75577957E+02</totfact>
</mgrwt>
</event>
<event>
 4    1  0.5399378E-005  0.6675269E+03  0.7818608E-02  0.9774436E-01
          2   -1    0    0  501    0  0.00000000000E+00  0.00000000000E+00  0.21393362419E+04  0.21393362419E+04  0.25500000000E-02 0.  1.
         -2   -1    0    0    0  501 -0.00000000000E+00 -0.00000000000E+00 -0.52071309266E+02  0.52071309328E+02  0.25500000000E-02 0. -1.
    5000001    1    1    2    0    0 -0.27462727370E+03  0.64034971207E+02  0.81971192142E+03  0.88242464330E+03  0.16500000000E+03 0.  0.
   -5000001    1    1    2    0    0  0.27462727370E+03 -0.64034971207E+02  0.12675530112E+04  0.13089829079E+04  0.16500000000E+03 0.  0.
<mgrwt>
<rscale>  0 0.66752690E+03</rscale>
<asrwt>0</asrwt>
<pdfrwt beam="1">  1        2 0.30561944E+00 0.66752690E+03</pdfrwt>
<pdfrwt beam="2">  1       -2 0.74387591E-02 0.66752690E+03</pdfrwt>
<totfact> 0.77266476E+02</totfact>
</mgrwt>
</event>
<event>
 4    1  0.5399378E-005  0.5901542E+03  0.7818608E-02  0.9926046E-01
         -2   -1    0    0    0  501 -0.00000000000E+00  0.00000000000E+00  0.34567813240E+03  0.34567813241E+03  0.25500000000E-02 0. -1.
          2   -1    0    0  501    0  0.00000000000E+00 -0.00000000000E+00 -0.25188313257E+03  0.25188313258E+03  0.25500000000E-02 0.  1.
    5000001    1    1    2    0    0 -0.21146968784E+03 -0.11659471948E+03  0.86526081933E+02  0.30500085302E+03  0.16500000000E+03 0.  0.
   -5000001    1    1    2    0    0  0.21146968784E+03  0.11659471948E+03  0.72689179012E+01  0.29256041197E+03  0.16500000000E+03 0.  0.
<mgrwt>
<rscale>  0 0.59015419E+03</rscale>
<asrwt>0</asrwt>
<pdfrwt beam="1">  1        2 0.35983305E-01 0.59015419E+03</pdfrwt>
<pdfrwt beam="2">  1       -2 0.49382590E-01 0.59015419E+03</pdfrwt>
<totfact> 0.56688570E+02</totfact>
</mgrwt>
</event>
<event>
 4    1  0.5399378E-005  0.4288479E+03  0.7818608E-02  0.1034225E+00
         -2   -1    0    0    0  501 -0.00000000000E+00  0.00000000000E+00  0.19271822464E+03  0.19271822466E+03  0.25500000000E-02 0. -1.
          2   -1    0    0  501    0  0.00000000000E+00 -0.00000000000E+00 -0.23857441690E+03  0.23857441692E+03  0.25500000000E-02 0.  1.
    5000001    1    1    2    0    0  0.80135927999E+01 -0.12755224685E+03  0.26534023096E+02  0.21038737540E+03  0.16500000000E+03 0.  0.
   -5000001    1    1    2    0    0 -0.80135927999E+01  0.12755224685E+03 -0.72390215357E+02  0.22090526618E+03  0.16500000000E+03 0.  0.
<mgrwt>
<rscale>  0 0.42884794E+03</rscale>
<asrwt>0</asrwt>
<pdfrwt beam="1">  1        2 0.34082059E-01 0.42884794E+03</pdfrwt>
<pdfrwt beam="2">  1       -2 0.27531175E-01 0.42884794E+03</pdfrwt>
<totfact> 0.18360310E+03</totfact>
</mgrwt>
</event>
<event>
 4    1  0.5399378E-005  0.3660985E+03  0.7818608E-02  0.1056195E+00
         -2   -1    0    0    0  501 -0.00000000000E+00  0.00000000000E+00  0.23022339059E+03  0.23022339061E+03  0.25500000000E-02 0. -1.
          2   -1    0    0  501    0  0.00000000000E+00 -0.00000000000E+00 -0.14554140360E+03  0.14554140362E+03  0.25500000000E-02 0.  1.
    5000001    1    1    2    0    0  0.61453014840E+02 -0.48892842998E+02  0.53350445839E+02  0.19036347654E+03  0.16500000000E+03 0.  0.
   -5000001    1    1    2    0    0 -0.61453014840E+02  0.48892842998E+02  0.31331541155E+02  0.18540131769E+03  0.16500000000E+03 0.  0.
<mgrwt>
<rscale>  0 0.36609854E+03</rscale>
<asrwt>0</asrwt>
<pdfrwt beam="1">  1        2 0.20791629E-01 0.36609854E+03</pdfrwt>
<pdfrwt beam="2">  1       -2 0.32889056E-01 0.36609854E+03</pdfrwt>
<totfact> 0.23049024E+03</totfact>
</mgrwt>
</event>
<event>
 4    1  0.5399378E-005  0.1086794E+04  0.7818608E-02  0.9218159E-01
         -2   -1    0    0    0  501 -0.00000000000E+00  0.00000000000E+00  0.38485127777E+03  0.38485127777E+03  0.25500000000E-02 0. -1.
          2   -1    0    0  501    0  0.00000000000E+00 -0.00000000000E+00 -0.76725881409E+03  0.76725881410E+03  0.25500000000E-02 0.  1.
    5000001    1    1    2    0    0 -0.13600956255E+03  0.32255968880E+03  0.21318236132E+03  0.44183149856E+03  0.16500000000E+03 0.  0.
   -5000001    1    1    2    0    0  0.13600956255E+03 -0.32255968880E+03 -0.59558989765E+03  0.71027859331E+03  0.16500000000E+03 0.  0.
<mgrwt>
<rscale>  0 0.10867944E+04</rscale>
<asrwt>0</asrwt>
<pdfrwt beam="1">  1        2 0.10960840E+00 0.10867944E+04</pdfrwt>
<pdfrwt beam="2">  1       -2 0.54978754E-01 0.10867944E+04</pdfrwt>
<totfact> 0.12403259E+02</totfact>
</mgrwt>
</event>
<event>
 4    1  0.5399378E-005  0.4254208E+03  0.7818608E-02  0.1035316E+00
         -2   -1    0    0    0  501 -0.00000000000E+00  0.00000000000E+00  0.89971477332E+02  0.89971477368E+02  0.25500000000E-02 0. -1.
          2   -1    0    0  501    0  0.00000000000E+00 -0.00000000000E+00 -0.50288941718E+03  0.50288941719E+03  0.25500000000E-02 0.  1.
    5000001    1    1    2    0    0  0.17669313541E+02 -0.10442023201E+03 -0.32141862863E+03  0.37649797387E+03  0.16500000000E+03 0.  0.
   -5000001    1    1    2    0    0 -0.17669313541E+02  0.10442023201E+03 -0.91499311214E+02  0.21636292068E+03  0.16500000000E+03 0.  0.
<mgrwt>
<rscale>  0 0.42542075E+03</rscale>
<asrwt>0</asrwt>
<pdfrwt beam="1">  1        2 0.71841344E-01 0.42542075E+03</pdfrwt>
<pdfrwt beam="2">  1       -2 0.12853068E-01 0.42542075E+03</pdfrwt>
<totfact> 0.29933227E+03</totfact>
</mgrwt>
</event>
<event>
 4    1  0.5399378E-005  0.6667858E+03  0.7818608E-02  0.9775782E-01
          2   -1    0    0  501    0  0.00000000000E+00  0.00000000000E+00  0.13014987293E+04  0.13014987293E+04  0.25500000000E-02 0.  1.
         -2   -1    0    0    0  501 -0.00000000000E+00 -0.00000000000E+00 -0.85402166061E+02  0.85402166099E+02  0.25500000000E-02 0. -1.
    5000001    1    1    2    0    0 -0.25452860966E+03  0.35689213460E+01  0.32037677213E+03  0.44120723754E+03  0.16500000000E+03 0.  0.
   -5000001    1    1    2    0    0  0.25452860966E+03 -0.35689213460E+01  0.89571979106E+03  0.94569365781E+03  0.16500000000E+03 0.  0.
<mgrwt>
<rscale>  0 0.66678575E+03</rscale>
<asrwt>0</asrwt>
<pdfrwt beam="1">  1        2 0.18592839E+00 0.66678575E+03</pdfrwt>
<pdfrwt beam="2">  1       -2 0.12200309E-01 0.66678575E+03</pdfrwt>
<totfact> 0.93617639E+02</totfact>
</mgrwt>
</event>
<event>
 4    1  0.5399378E-005  0.4260961E+03  0.7818608E-02  0.1035100E+00
         -2   -1    0    0    0  501 -0.00000000000E+00  0.00000000000E+00  0.14289948650E+03  0.14289948652E+03  0.25500000000E-02 0. -1.
          2   -1    0    0  501    0  0.00000000000E+00 -0.00000000000E+00 -0.31763217944E+03  0.31763217945E+03  0.25500000000E-02 0.  1.
    5000001    1    1    2    0    0  0.88461091971E+02  0.97273206711E+02 -0.55358232249E+02  0.21812146940E+03  0.16500000000E+03 0.  0.
   -5000001    1    1    2    0    0 -0.88461091971E+02 -0.97273206711E+02 -0.11937446070E+03  0.24241019657E+03  0.16500000000E+03 0.  0.
<mgrwt>
<rscale>  0 0.42609612E+03</rscale>
<asrwt>0</asrwt>
<pdfrwt beam="1">  1        2 0.45376025E-01 0.42609612E+03</pdfrwt>
<pdfrwt beam="2">  1       -2 0.20414213E-01 0.42609612E+03</pdfrwt>
<totfact> 0.22774849E+03</totfact>
</mgrwt>
</event>
<event>
 4    1  0.5399378E-005  0.5058777E+03  0.7818608E-02  0.1012256E+00
         -2   -1    0    0    0  501 -0.00000000000E+00  0.00000000000E+00  0.78264985150E+02  0.78264985191E+02  0.25500000000E-02 0. -1.
          2   -1    0    0  501    0  0.00000000000E+00 -0.00000000000E+00 -0.81745459046E+03  0.81745459047E+03  0.25500000000E-02 0.  1.
    5000001    1    1    2    0    0  0.83526759656E+02 -0.14392038680E+03 -0.53816044305E+03  0.58696802279E+03  0.16500000000E+03 0.  0.
   -5000001    1    1    2    0    0 -0.83526759656E+02  0.14392038680E+03 -0.20102916226E+03  0.30875155286E+03  0.16500000000E+03 0.  0.
<mgrwt>
<rscale>  0 0.50587774E+03</rscale>
<asrwt>0</asrwt>
<pdfrwt beam="1">  1        2 0.11677922E+00 0.50587774E+03</pdfrwt>
<pdfrwt beam="2">  1       -2 0.11180713E-01 0.50587774E+03</pdfrwt>
<totfact> 0.21118017E+03</totfact>
</mgrwt>
</event>
<event>
 4    1  0.5399378E-005  0.5534284E+03  0.7818608E-02  0.1000703E+00
          2   -1    0    0  501    0  0.00000000000E+00  0.00000000000E+00  0.39229852605E+03  0.39229852606E+03  0.25500000000E-02 0.  1.
         -2   -1    0    0    0  501 -0.00000000000E+00 -0.00000000000E+00 -0.19518490457E+03  0.19518490458E+03  0.25500000000E-02 0. -1.
    5000001    1    1    2    0    0  0.43297299039E+02 -0.70407734039E+02  0.31743342838E+03  0.36717963801E+03  0.16500000000E+03 0.  0.
   -5000001    1    1    2    0    0 -0.43297299039E+02  0.70407734039E+02 -0.12031980690E+03  0.22030379263E+03  0.16500000000E+03 0.  0.
<mgrwt>
<rscale>  0 0.55342841E+03</rscale>
<asrwt>0</asrwt>
<pdfrwt beam="1">  1        2 0.56042647E-01 0.55342841E+03</pdfrwt>
<pdfrwt beam="2">  1       -2 0.27883558E-01 0.55342841E+03</pdfrwt>
<totfact> 0.10392216E+03</totfact>
</mgrwt>
</event>
<event>
 4    1  0.5399378E-005  0.7575463E+03  0.7818608E-02  0.9623585E-01
          2   -1    0    0  501    0  0.00000000000E+00  0.00000000000E+00  0.57251186230E+03  0.57251186231E+03  0.25500000000E-02 0.  1.
         -2   -1    0    0    0  501 -0.00000000000E+00 -0.00000000000E+00 -0.25059586239E+03  0.25059586240E+03  0.25500000000E-02 0. -1.
    5000001    1    1    2    0    0 -0.10807053371E+02 -0.33543584730E+03  0.22624208686E+03  0.43708635523E+03  0.16500000000E+03 0.  0.
   -5000001    1    1    2    0    0  0.10807053371E+02  0.33543584730E+03  0.95673913049E+02  0.38602136948E+03  0.16500000000E+03 0.  0.
<mgrwt>
<rscale>  0 0.75754631E+03</rscale>
<asrwt>0</asrwt>
<pdfrwt beam="1">  1        2 0.81787408E-01 0.75754631E+03</pdfrwt>
<pdfrwt beam="2">  1       -2 0.35799409E-01 0.75754631E+03</pdfrwt>
<totfact> 0.42282635E+02</totfact>
</mgrwt>
</event>
<event>
 4    1  0.5399378E-005  0.1345417E+04  0.7818608E-02  0.8994305E-01
          2   -1    0    0  501    0  0.00000000000E+00  0.00000000000E+00  0.40886010254E+04  0.40886010254E+04  0.25500000000E-02 0.  1.
         -2   -1    0    0    0  501 -0.00000000000E+00 -0.00000000000E+00 -0.11068254408E+03  0.11068254410E+03  0.25500000000E-02 0. -1.
    5000001    1    1    2    0    0 -0.27922776873E+03  0.46942869999E+03  0.31011684042E+04  0.31532208807E+04  0.16500000000E+03 0.  0.
   -5000001    1    1    2    0    0  0.27922776873E+03 -0.46942869999E+03  0.87675007714E+03  0.10460626888E+04  0.16500000000E+03 0.  0.
<mgrwt>
<rscale>  0 0.13454171E+04</rscale>
<asrwt>0</asrwt>
<pdfrwt beam="1">  1        2 0.58408590E+00 0.13454171E+04</pdfrwt>
<pdfrwt beam="2">  1       -2 0.15811791E-01 0.13454171E+04</pdfrwt>
<totfact> 0.15931112E+01</totfact>
</mgrwt>
</event>
<event>
 4    1  0.5399378E-005  0.5977283E+03  0.7818608E-02  0.9910130E-01
         -2   -1    0    0    0  501 -0.00000000000E+00  0.00000000000E+00  0.14134775139E+04  0.14134775139E+04  0.25500000000E-02 0. -1.
          2   -1    0    0  501    0  0.00000000000E+00 -0.00000000000E+00 -0.63191504918E+02  0.63191504970E+02  0.25500000000E-02 0.  1.
    5000001    1    1    2    0    0  0.82242393707E+02  0.21623486933E+03  0.44639518910E+03  0.52916443086E+03  0.16500000000E+03 0.  0.
   -5000001    1    1    2    0    0 -0.82242393707E+02 -0.21623486933E+03  0.90389081992E+03  0.94750458805E+03  0.16500000000E+03 0.  0.
<mgrwt>
<rscale>  0 0.59772827E+03</rscale>
<asrwt>0</asrwt>
<pdfrwt beam="1">  1        2 0.90273594E-02 0.59772827E+03</pdfrwt>
<pdfrwt beam="2">  1       -2 0.20192532E+00 0.59772827E+03</pdfrwt>
<totfact> 0.10044099E+02</totfact>
</mgrwt>
</event>
<event>
 4    1  0.5399378E-005  0.4753103E+03  0.7818608E-02  0.1020432E+00
         -2   -1    0    0    0  501 -0.00000000000E+00  0.00000000000E+00  0.42833201759E+02  0.42833201835E+02  0.25500000000E-02 0. -1.
          2   -1    0    0  501    0  0.00000000000E+00 -0.00000000000E+00 -0.13186023957E+04  0.13186023957E+04  0.25500000000E-02 0.  1.
    5000001    1    1    2    0    0 -0.15105272540E+03  0.39698043360E+02 -0.83760937160E+03  0.86787517530E+03  0.16500000000E+03 0.  0.
   -5000001    1    1    2    0    0  0.15105272540E+03 -0.39698043360E+02 -0.43815982237E+03  0.49356042227E+03  0.16500000000E+03 0.  0.
<mgrwt>
<rscale>  0 0.47531027E+03</rscale>
<asrwt>0</asrwt>
<pdfrwt beam="1">  1        2 0.18837175E+00 0.47531027E+03</pdfrwt>
<pdfrwt beam="2">  1       -2 0.61190297E-02 0.47531027E+03</pdfrwt>
<totfact> 0.27817263E+03</totfact>
</mgrwt>
</event>
<event>
 4    1  0.5399378E-005  0.7622023E+03  0.7818608E-02  0.9616399E-01
         -2   -1    0    0    0  501 -0.00000000000E+00  0.00000000000E+00  0.24512043913E+03  0.24512043914E+03  0.25500000000E-02 0. -1.
          2   -1    0    0  501    0  0.00000000000E+00 -0.00000000000E+00 -0.59251721944E+03  0.59251721944E+03  0.25500000000E-02 0.  1.
    5000001    1    1    2    0    0 -0.20835361149E+03  0.25488467931E+03 -0.28157481443E+03  0.46355884555E+03  0.16500000000E+03 0.  0.
   -5000001    1    1    2    0    0  0.20835361149E+03 -0.25488467931E+03 -0.65821965876E+02  0.37407881303E+03  0.16500000000E+03 0.  0.
<mgrwt>
<rscale>  0 0.76220229E+03</rscale>
<asrwt>0</asrwt>
<pdfrwt beam="1">  1        2 0.84645316E-01 0.76220229E+03</pdfrwt>
<pdfrwt beam="2">  1       -2 0.35017206E-01 0.76220229E+03</pdfrwt>
<totfact> 0.42347507E+02</totfact>
</mgrwt>
</event>
<event>
 4    1  0.5399378E-005  0.9623877E+03  0.7818608E-02  0.9350787E-01
         -2   -1    0    0    0  501 -0.00000000000E+00  0.00000000000E+00  0.53722589672E+02  0.53722589733E+02  0.25500000000E-02 0. -1.
          2   -1    0    0  501    0  0.00000000000E+00 -0.00000000000E+00 -0.43100583908E+04  0.43100583908E+04  0.25500000000E-02 0.  1.
    5000001    1    1    2    0    0 -0.31144695894E+03  0.28647495754E+03 -0.28487607259E+04  0.28847408520E+04  0.16500000000E+03 0.  0.
   -5000001    1    1    2    0    0  0.31144695894E+03 -0.28647495754E+03 -0.14075750752E+04  0.14790401285E+04  0.16500000000E+03 0.  0.
<mgrwt>
<rscale>  0 0.96238765E+03</rscale>
<asrwt>0</asrwt>
<pdfrwt beam="1">  1        2 0.61572241E+00 0.96238765E+03</pdfrwt>
<pdfrwt beam="2">  1       -2 0.76746584E-02 0.96238765E+03</pdfrwt>
<totfact> 0.38232521E+01</totfact>
</mgrwt>
</event>
<event>
 4    1  0.5399378E-005  0.4772480E+03  0.7818608E-02  0.1019894E+00
          2   -1    0    0  501    0  0.00000000000E+00  0.00000000000E+00  0.40427754522E+03  0.40427754523E+03  0.25500000000E-02 0.  1.
         -2   -1    0    0    0  501 -0.00000000000E+00 -0.00000000000E+00 -0.14084730202E+03  0.14084730205E+03  0.25500000000E-02 0. -1.
    5000001    1    1    2    0    0 -0.15680676288E+03  0.67840579154E+02  0.15790415266E+03  0.28521820856E+03  0.16500000000E+03 0.  0.
   -5000001    1    1    2    0    0  0.15680676288E+03 -0.67840579154E+02  0.10552609054E+03  0.25990663872E+03  0.16500000000E+03 0.  0.
<mgrwt>
<rscale>  0 0.47724795E+03</rscale>
<asrwt>0</asrwt>
<pdfrwt beam="1">  1        2 0.57753936E-01 0.47724795E+03</pdfrwt>
<pdfrwt beam="2">  1       -2 0.20121043E-01 0.47724795E+03</pdfrwt>
<totfact> 0.17943267E+03</totfact>
</mgrwt>
</event>
<event>
 4    1  0.5399378E-005  0.3401960E+03  0.7818608E-02  0.1066712E+00
          2   -1    0    0  501    0  0.00000000000E+00  0.00000000000E+00  0.19365236951E+04  0.19365236951E+04  0.25500000000E-02 0.  1.
         -2   -1    0    0    0  501 -0.00000000000E+00 -0.00000000000E+00 -0.14940858864E+02  0.14940859081E+02  0.25500000000E-02 0. -1.
    5000001    1    1    2    0    0 -0.28231854141E+02 -0.23409744384E+02  0.10701237131E+04  0.10833904260E+04  0.16500000000E+03 0.  0.
   -5000001    1    1    2    0    0  0.28231854141E+02  0.23409744384E+02  0.85145912314E+03  0.86807412823E+03  0.16500000000E+03 0.  0.
<mgrwt>
<rscale>  0 0.34019599E+03</rscale>
<asrwt>0</asrwt>
<pdfrwt beam="1">  1        2 0.27664627E+00 0.34019599E+03</pdfrwt>
<pdfrwt beam="2">  1       -2 0.21344082E-02 0.34019599E+03</pdfrwt>
<totfact> 0.66744254E+03</totfact>
</mgrwt>
</event>
<event>
 4    1  0.5399378E-005  0.3745058E+03  0.7818608E-02  0.1052983E+00
          2   -1    0    0  501    0  0.00000000000E+00  0.00000000000E+00  0.13872617053E+04  0.13872617053E+04  0.25500000000E-02 0.  1.
         -2   -1    0    0    0  501 -0.00000000000E+00 -0.00000000000E+00 -0.25275432523E+02  0.25275432651E+02  0.25500000000E-02 0. -1.
    5000001    1    1    2    0    0 -0.57323570491E+02 -0.34097755081E+02  0.90059734524E+03  0.91801374004E+03  0.16500000000E+03 0.  0.
   -5000001    1    1    2    0    0  0.57323570491E+02  0.34097755081E+02  0.46138892750E+03  0.49452339789E+03  0.16500000000E+03 0.  0.
<mgrwt>
<rscale>  0 0.37450575E+03</rscale>
<asrwt>0</asrwt>
<pdfrwt beam="1">  1        2 0.19818026E+00 0.37450575E+03</pdfrwt>
<pdfrwt beam="2">  1       -2 0.36107758E-02 0.37450575E+03</pdfrwt>
<totfact> 0.57417399E+03</totfact>
</mgrwt>
</event>
<event>
 4    1  0.5399378E-005  0.4365225E+03  0.7818608E-02  0.1031819E+00
          2   -1    0    0  501    0  0.00000000000E+00  0.00000000000E+00  0.10269152458E+03  0.10269152461E+03  0.25500000000E-02 0.  1.
         -2   -1    0    0    0  501 -0.00000000000E+00 -0.00000000000E+00 -0.46389383469E+03  0.46389383470E+03  0.25500000000E-02 0. -1.
    5000001    1    1    2    0    0  0.12822257927E+03 -0.22908790852E+01 -0.98853984919E+02  0.23117826086E+03  0.16500000000E+03 0.  0.
   -5000001    1    1    2    0    0 -0.12822257927E+03  0.22908790852E+01 -0.26234832519E+03  0.33540709845E+03  0.16500000000E+03 0.  0.
<mgrwt>
<rscale>  0 0.43652246E+03</rscale>
<asrwt>0</asrwt>
<pdfrwt beam="1">  1        2 0.14670218E-01 0.43652246E+03</pdfrwt>
<pdfrwt beam="2">  1       -2 0.66270547E-01 0.43652246E+03</pdfrwt>
<totfact> 0.86524918E+02</totfact>
</mgrwt>
</event>
<event>
 4    1  0.5399378E-005  0.4800451E+03  0.7818608E-02  0.1019123E+00
          2   -1    0    0  501    0  0.00000000000E+00  0.00000000000E+00  0.67625658142E+02  0.67625658190E+02  0.25500000000E-02 0.  1.
         -2   -1    0    0    0  501 -0.00000000000E+00 -0.00000000000E+00 -0.85190786785E+03  0.85190786786E+03  0.25500000000E-02 0. -1.
    5000001    1    1    2    0    0  0.15882436280E+03  0.34748565633E+02 -0.51257793243E+03  0.56248891353E+03  0.16500000000E+03 0.  0.
   -5000001    1    1    2    0    0 -0.15882436280E+03 -0.34748565633E+02 -0.27170427728E+03  0.35704461252E+03  0.16500000000E+03 0.  0.
<mgrwt>
<rscale>  0 0.48004512E+03</rscale>
<asrwt>0</asrwt>
<pdfrwt beam="1">  1        2 0.96608088E-02 0.48004512E+03</pdfrwt>
<pdfrwt beam="2">  1       -2 0.12170112E+00 0.48004512E+03</pdfrwt>
<totfact> 0.36043269E+02</totfact>
</mgrwt>
</event>
<event>
 4    1  0.5399378E-005  0.4464776E+03  0.7818608E-02  0.1028778E+00
          2   -1    0    0  501    0  0.00000000000E+00  0.00000000000E+00  0.12635533416E+04  0.12635533416E+04  0.25500000000E-02 0.  1.
         -2   -1    0    0    0  501 -0.00000000000E+00 -0.00000000000E+00 -0.39440807395E+02  0.39440807477E+02  0.25500000000E-02 0. -1.
    5000001    1    1    2    0    0 -0.13409654206E+03 -0.55939767668E+02  0.72506317352E+03  0.75766268602E+03  0.16500000000E+03 0.  0.
   -5000001    1    1    2    0    0  0.13409654206E+03  0.55939767668E+02  0.49904936070E+03  0.54533146307E+03  0.16500000000E+03 0.  0.
<mgrwt>
<rscale>  0 0.44647761E+03</rscale>
<asrwt>0</asrwt>
<pdfrwt beam="1">  1        2 0.18050758E+00 0.44647761E+03</pdfrwt>
<pdfrwt beam="2">  1       -2 0.56344022E-02 0.44647761E+03</pdfrwt>
<totfact> 0.33864171E+03</totfact>
</mgrwt>
</event>
<event>
 4    1  0.5399378E-005  0.6721671E+03  0.7818608E-02  0.9766051E-01
          2   -1    0    0  501    0  0.00000000000E+00  0.00000000000E+00  0.17151727155E+04  0.17151727155E+04  0.25500000000E-02 0.  1.
         -2   -1    0    0    0  501 -0.00000000000E+00 -0.00000000000E+00 -0.65854682814E+02  0.65854682864E+02  0.25500000000E-02 0. -1.
    5000001    1    1    2    0    0  0.19784024787E+03  0.17861654707E+03  0.50359350702E+03  0.59319141504E+03  0.16500000000E+03 0.  0.
   -5000001    1    1    2    0    0 -0.19784024787E+03 -0.17861654707E+03  0.11457245256E+04  0.11878359833E+04  0.16500000000E+03 0.  0.
<mgrwt>
<rscale>  0 0.67216711E+03</rscale>
<asrwt>0</asrwt>
<pdfrwt beam="1">  1        2 0.24502467E+00 0.67216711E+03</pdfrwt>
<pdfrwt beam="2">  1       -2 0.94078122E-02 0.67216711E+03</pdfrwt>
<totfact> 0.86856171E+02</totfact>
</mgrwt>
</event>
<event>
 4    1  0.5399378E-005  0.4816984E+03  0.7818608E-02  0.1018669E+00
         -2   -1    0    0    0  501 -0.00000000000E+00  0.00000000000E+00  0.39139877424E+02  0.39139877507E+02  0.25500000000E-02 0. -1.
          2   -1    0    0  501    0  0.00000000000E+00 -0.00000000000E+00 -0.14820774688E+04  0.14820774688E+04  0.25500000000E-02 0.  1.
    5000001    1    1    2    0    0  0.70424316797E+02 -0.15976988385E+03 -0.77592353784E+03  0.81226124908E+03  0.16500000000E+03 0.  0.
   -5000001    1    1    2    0    0 -0.70424316797E+02  0.15976988385E+03 -0.66701405349E+03  0.70895609718E+03  0.16500000000E+03 0.  0.
<mgrwt>
<rscale>  0 0.48169837E+03</rscale>
<asrwt>0</asrwt>
<pdfrwt beam="1">  1        2 0.21172532E+00 0.48169837E+03</pdfrwt>
<pdfrwt beam="2">  1       -2 0.55914120E-02 0.48169837E+03</pdfrwt>
<totfact> 0.26246539E+03</totfact>
</mgrwt>
</event>
<event>
 4    1  0.5399378E-005  0.7769398E+03  0.7818608E-02  0.9594009E-01
         -2   -1    0    0    0  501 -0.00000000000E+00  0.00000000000E+00  0.11627519572E+03  0.11627519575E+03  0.25500000000E-02 0. -1.
          2   -1    0    0  501    0  0.00000000000E+00 -0.00000000000E+00 -0.12978595003E+04  0.12978595003E+04  0.25500000000E-02 0.  1.
    5000001    1    1    2    0    0  0.28697506440E+03 -0.19168813802E+03 -0.46754826717E+03  0.60409056604E+03  0.16500000000E+03 0.  0.
   -5000001    1    1    2    0    0 -0.28697506440E+03  0.19168813802E+03 -0.71403603743E+03  0.81004413003E+03  0.16500000000E+03 0.  0.
<mgrwt>
<rscale>  0 0.77693981E+03</rscale>
<asrwt>0</asrwt>
<pdfrwt beam="1">  1        2 0.18540849E+00 0.77693981E+03</pdfrwt>
<pdfrwt beam="2">  1       -2 0.16610743E-01 0.77693981E+03</pdfrwt>
<totfact> 0.55737526E+02</totfact>
</mgrwt>
</event>
<event>
 4    1  0.5399378E-005  0.6707951E+03  0.7818608E-02  0.9768523E-01
          2   -1    0    0  501    0  0.00000000000E+00  0.00000000000E+00  0.58355126612E+03  0.58355126613E+03  0.25500000000E-02 0. -1.
         -2   -1    0    0    0  501 -0.00000000000E+00 -0.00000000000E+00 -0.19277056224E+03  0.19277056226E+03  0.25500000000E-02 0.  1.
    5000001    1    1    2    0    0 -0.28254156244E+03  0.73669123735E+02  0.19898201997E+03  0.38996886872E+03  0.16500000000E+03 0.  0.
   -5000001    1    1    2    0    0  0.28254156244E+03 -0.73669123735E+02  0.19179868391E+03  0.38635295967E+03  0.16500000000E+03 0.  0.
<mgrwt>
<rscale>  0 0.67079507E+03</rscale>
<asrwt>0</asrwt>
<pdfrwt beam="1">  1        2 0.83364466E-01 0.67079507E+03</pdfrwt>
<pdfrwt beam="2">  1       -2 0.27538652E-01 0.67079507E+03</pdfrwt>
<totfact> 0.67635366E+02</totfact>
</mgrwt>
</event>
<event>
 4    1  0.5399378E-005  0.4699552E+03  0.7818608E-02  0.1021933E+00
          2   -1    0    0  501    0  0.00000000000E+00  0.00000000000E+00  0.23100453752E+03  0.23100453753E+03  0.25500000000E-02 0.  1.
         -2   -1    0    0    0  501 -0.00000000000E+00 -0.00000000000E+00 -0.23901897741E+03  0.23901897742E+03  0.25500000000E-02 0. -1.
    5000001    1    1    2    0    0  0.16115242302E+03 -0.28149548583E+02 -0.39040413415E+02  0.23560911360E+03  0.16500000000E+03 0.  0.
   -5000001    1    1    2    0    0 -0.16115242302E+03  0.28149548583E+02  0.31025973524E+02  0.23441440136E+03  0.16500000000E+03 0.  0.
<mgrwt>
<rscale>  0 0.46995518E+03</rscale>
<asrwt>0</asrwt>
<pdfrwt beam="1">  1        2 0.33000648E-01 0.46995518E+03</pdfrwt>
<pdfrwt beam="2">  1       -2 0.34145568E-01 0.46995518E+03</pdfrwt>
<totfact> 0.12803799E+03</totfact>
</mgrwt>
</event>
<event>
 4    1  0.5399378E-005  0.5188091E+03  0.7818608E-02  0.1008983E+00
         -2   -1    0    0    0  501 -0.00000000000E+00  0.00000000000E+00  0.59912425613E+02  0.59912425668E+02  0.25500000000E-02 0. -1.
          2   -1    0    0  501    0  0.00000000000E+00 -0.00000000000E+00 -0.11231513659E+04  0.11231513659E+04  0.25500000000E-02 0.  1.
    5000001    1    1    2    0    0  0.18513157925E+03  0.17440218982E+02 -0.70054763945E+03  0.74335042747E+03  0.16500000000E+03 0.  0.
   -5000001    1    1    2    0    0 -0.18513157925E+03 -0.17440218982E+02 -0.36269130085E+03  0.43971336412E+03  0.16500000000E+03 0.  0.
<mgrwt>
<rscale>  0 0.51880911E+03</rscale>
<asrwt>0</asrwt>
<pdfrwt beam="1">  1        2 0.16045018E+00 0.51880911E+03</pdfrwt>
<pdfrwt beam="2">  1       -2 0.85589186E-02 0.51880911E+03</pdfrwt>
<totfact> 0.21012666E+03</totfact>
</mgrwt>
</event>
<event>
 4    1  0.5399378E-005  0.5907576E+03  0.7818608E-02  0.9924769E-01
          2   -1    0    0  501    0  0.00000000000E+00  0.00000000000E+00  0.15034790171E+03  0.15034790173E+03  0.25500000000E-02 0.  1.
         -2   -1    0    0    0  501 -0.00000000000E+00 -0.00000000000E+00 -0.58031160321E+03  0.58031160321E+03  0.25500000000E-02 0. -1.
    5000001    1    1    2    0    0  0.15573718282E+02  0.23576911718E+03 -0.13488403051E+03  0.31819541009E+03  0.16500000000E+03 0.  0.
   -5000001    1    1    2    0    0 -0.15573718282E+02 -0.23576911718E+03 -0.29507967098E+03  0.41246409485E+03  0.16500000000E+03 0.  0.
<mgrwt>
<rscale>  0 0.59075759E+03</rscale>
<asrwt>0</asrwt>
<pdfrwt beam="1">  1        2 0.21478272E-01 0.59075759E+03</pdfrwt>
<pdfrwt beam="2">  1       -2 0.82901656E-01 0.59075759E+03</pdfrwt>
<totfact> 0.33678443E+02</totfact>
</mgrwt>
</event>
<event>
 4    1  0.5399378E-005  0.4077724E+03  0.7818608E-02  0.1041121E+00
         -2   -1    0    0    0  501 -0.00000000000E+00  0.00000000000E+00  0.53260684869E+02  0.53260684930E+02  0.25500000000E-02 0. -1.
          2   -1    0    0  501    0  0.00000000000E+00 -0.00000000000E+00 -0.78049278135E+03  0.78049278135E+03  0.25500000000E-02 0.  1.
    5000001    1    1    2    0    0 -0.57003004827E+02 -0.97625741480E+02 -0.28274352775E+03  0.34633658548E+03  0.16500000000E+03 0.  0.
   -5000001    1    1    2    0    0  0.57003004827E+02  0.97625741480E+02 -0.44448856873E+03  0.48741688080E+03  0.16500000000E+03 0.  0.
<mgrwt>
<rscale>  0 0.40777239E+03</rscale>
<asrwt>0</asrwt>
<pdfrwt beam="1">  1        2 0.11149896E+00 0.40777239E+03</pdfrwt>
<pdfrwt beam="2">  1       -2 0.76086697E-02 0.40777239E+03</pdfrwt>
<totfact> 0.41388475E+03</totfact>
</mgrwt>
</event>
<event>
 4    1  0.5399378E-005  0.5002143E+03  0.7818608E-02  0.1013723E+00
         -2   -1    0    0    0  501 -0.00000000000E+00  0.00000000000E+00  0.51799149135E+02  0.51799149198E+02  0.25500000000E-02 0. -1.
          2   -1    0    0  501    0  0.00000000000E+00 -0.00000000000E+00 -0.12076179246E+04  0.12076179246E+04  0.25500000000E-02 0.  1.
    5000001    1    1    2    0    0 -0.11981949786E+03  0.36046550694E+02 -0.93104656125E+03  0.95379702510E+03  0.16500000000E+03 0.  0.
   -5000001    1    1    2    0    0  0.11981949786E+03 -0.36046550694E+02 -0.22477221424E+03  0.30562004872E+03  0.16500000000E+03 0.  0.
<mgrwt>
<rscale>  0 0.50021428E+03</rscale>
<asrwt>0</asrwt>
<pdfrwt beam="1">  1        2 0.17251683E+00 0.50021428E+03</pdfrwt>
<pdfrwt beam="2">  1       -2 0.73998792E-02 0.50021428E+03</pdfrwt>
<totfact> 0.23727417E+03</totfact>
</mgrwt>
</event>
<event>
 4    1  0.5399378E-005  0.6256005E+03  0.7818608E-02  0.9853672E-01
         -2   -1    0    0    0  501 -0.00000000000E+00  0.00000000000E+00  0.31018781404E+03  0.31018781405E+03  0.25500000000E-02 0. -1.
          2   -1    0    0  501    0  0.00000000000E+00 -0.00000000000E+00 -0.31543465956E+03  0.31543465957E+03  0.25500000000E-02 0.  1.
    5000001    1    1    2    0    0 -0.12762465302E+03 -0.13938807457E+03 -0.18945049558E+03  0.31437808077E+03  0.16500000000E+03 0.  0.
   -5000001    1    1    2    0    0  0.12762465302E+03  0.13938807457E+03  0.18420365005E+03  0.31124439286E+03  0.16500000000E+03 0.  0.
<mgrwt>
<rscale>  0 0.62560047E+03</rscale>
<asrwt>0</asrwt>
<pdfrwt beam="1">  1        2 0.45062094E-01 0.62560047E+03</pdfrwt>
<pdfrwt beam="2">  1       -2 0.44312545E-01 0.62560047E+03</pdfrwt>
<totfact> 0.54855561E+02</totfact>
</mgrwt>
</event>
<event>
 4    1  0.5399378E-005  0.4680253E+03  0.7818608E-02  0.1022479E+00
          2   -1    0    0  501    0  0.00000000000E+00  0.00000000000E+00  0.75763842706E+02  0.75763842749E+02  0.25500000000E-02 0.  1.
         -2   -1    0    0    0  501 -0.00000000000E+00 -0.00000000000E+00 -0.72279743085E+03  0.72279743085E+03  0.25500000000E-02 0. -1.
    5000001    1    1    2    0    0  0.15550917972E+03  0.57480804252E+02 -0.33555307767E+03  0.40903302528E+03  0.16500000000E+03 0.  0.
   -5000001    1    1    2    0    0 -0.15550917972E+03 -0.57480804252E+02 -0.31148051047E+03  0.38952824832E+03  0.16500000000E+03 0.  0.
<mgrwt>
<rscale>  0 0.46802526E+03</rscale>
<asrwt>0</asrwt>
<pdfrwt beam="1">  1        2 0.10823406E-01 0.46802526E+03</pdfrwt>
<pdfrwt beam="2">  1       -2 0.10325677E+00 0.46802526E+03</pdfrwt>
<totfact> 0.46438179E+02</totfact>
</mgrwt>
</event>
<event>
 4    1  0.5399378E-005  0.4543587E+03  0.7818608E-02  0.1026430E+00
         -2   -1    0    0    0  501 -0.00000000000E+00  0.00000000000E+00  0.32275670739E+02  0.32275670839E+02  0.25500000000E-02 0. -1.
          2   -1    0    0  501    0  0.00000000000E+00 -0.00000000000E+00 -0.15990512599E+04  0.15990512599E+04  0.25500000000E-02 0.  1.
    5000001    1    1    2    0    0 -0.13680641331E+03 -0.61924883890E+02 -0.93717936407E+03  0.96336952745E+03  0.16500000000E+03 0.  0.
   -5000001    1    1    2    0    0  0.13680641331E+03  0.61924883890E+02 -0.62959622506E+03  0.66795740326E+03  0.16500000000E+03 0.  0.
<mgrwt>
<rscale>  0 0.45435868E+03</rscale>
<asrwt>0</asrwt>
<pdfrwt beam="1">  1        2 0.22843584E+00 0.45435868E+03</pdfrwt>
<pdfrwt beam="2">  1       -2 0.46108111E-02 0.45435868E+03</pdfrwt>
<totfact> 0.30793204E+03</totfact>
</mgrwt>
</event>
<event>
 4    1  0.5399378E-005  0.4052377E+03  0.7818608E-02  0.1041981E+00
          2   -1    0    0  501    0  0.00000000000E+00  0.00000000000E+00  0.92035173071E+02  0.92035173106E+02  0.25500000000E-02 0.  1.
         -2   -1    0    0    0  501 -0.00000000000E+00 -0.00000000000E+00 -0.44607289745E+03  0.44607289746E+03  0.25500000000E-02 0. -1.
    5000001    1    1    2    0    0  0.98235228499E+02  0.64641325717E+02 -0.17815745645E+03  0.26980315120E+03  0.16500000000E+03 0.  0.
   -5000001    1    1    2    0    0 -0.98235228499E+02 -0.64641325717E+02 -0.17588026794E+03  0.26830491937E+03  0.16500000000E+03 0.  0.
<mgrwt>
<rscale>  0 0.40523769E+03</rscale>
<asrwt>0</asrwt>
<pdfrwt beam="1">  1        2 0.13147882E-01 0.40523769E+03</pdfrwt>
<pdfrwt beam="2">  1       -2 0.63724699E-01 0.40523769E+03</pdfrwt>
<totfact> 0.10733314E+03</totfact>
</mgrwt>
</event>
<event>
 4    1  0.5399378E-005  0.1260261E+04  0.7818608E-02  0.9061686E-01
         -2   -1    0    0    0  501 -0.00000000000E+00  0.00000000000E+00  0.26504744460E+03  0.26504744461E+03  0.25500000000E-02 0. -1.
          2   -1    0    0  501    0  0.00000000000E+00 -0.00000000000E+00 -0.14980872089E+04  0.14980872089E+04  0.25500000000E-02 0.  1.
    5000001    1    1    2    0    0  0.46465353703E+03 -0.39072787659E+03 -0.56670198947E+03  0.84672742243E+03  0.16500000000E+03 0.  0.
   -5000001    1    1    2    0    0 -0.46465353703E+03  0.39072787659E+03 -0.66633777478E+03  0.91640723105E+03  0.16500000000E+03 0.  0.
<mgrwt>
<rscale>  0 0.12602606E+04</rscale>
<asrwt>0</asrwt>
<pdfrwt beam="1">  1        2 0.21401245E+00 0.12602606E+04</pdfrwt>
<pdfrwt beam="2">  1       -2 0.37863921E-01 0.12602606E+04</pdfrwt>
<totfact> 0.94758310E+01</totfact>
</mgrwt>
</event>
<event>
 4    1  0.5399378E-005  0.8406651E+03  0.7818608E-02  0.9502952E-01
         -2   -1    0    0    0  501 -0.00000000000E+00  0.00000000000E+00  0.26841999447E+03  0.26841999449E+03  0.25500000000E-02 0. -1.
          2   -1    0    0  501    0  0.00000000000E+00 -0.00000000000E+00 -0.65822015727E+03  0.65822015728E+03  0.25500000000E-02 0.  1.
    5000001    1    1    2    0    0 -0.94397078849E+02 -0.33187785586E+03 -0.27103793232E+01  0.38247361459E+03  0.16500000000E+03 0.  0.
   -5000001    1    1    2    0    0  0.94397078849E+02  0.33187785586E+03 -0.38708978347E+03  0.54416653717E+03  0.16500000000E+03 0.  0.
<mgrwt>
<rscale>  0 0.84066510E+03</rscale>
<asrwt>0</asrwt>
<pdfrwt beam="1">  1        2 0.94031450E-01 0.84066510E+03</pdfrwt>
<pdfrwt beam="2">  1       -2 0.38345714E-01 0.84066510E+03</pdfrwt>
<totfact> 0.31277965E+02</totfact>
</mgrwt>
</event>
<event>
 4    1  0.5399378E-005  0.5728539E+03  0.7818608E-02  0.9963383E-01
          2   -1    0    0  501    0  0.00000000000E+00  0.00000000000E+00  0.37759115950E+02  0.37759116036E+02  0.25500000000E-02 0.  1.
         -2   -1    0    0    0  501 -0.00000000000E+00 -0.00000000000E+00 -0.21727305745E+04  0.21727305745E+04  0.25500000000E-02 0. -1.
    5000001    1    1    2    0    0 -0.13673828727E+03 -0.18043016403E+03 -0.83715520553E+03  0.88278323582E+03  0.16500000000E+03 0.  0.
   -5000001    1    1    2    0    0  0.13673828727E+03  0.18043016403E+03 -0.12978162530E+04  0.13277064547E+04  0.16500000000E+03 0.  0.
<mgrwt>
<rscale>  0 0.57285386E+03</rscale>
<asrwt>0</asrwt>
<pdfrwt beam="1">  1        2 0.53941608E-02 0.57285386E+03</pdfrwt>
<pdfrwt beam="2">  1       -2 0.31039000E+00 0.57285386E+03</pdfrwt>
<totfact> 0.43543676E+01</totfact>
</mgrwt>
</event>
<event>
 4    1  0.5399378E-005  0.4514967E+03  0.7818608E-02  0.1027277E+00
          2   -1    0    0  501    0  0.00000000000E+00  0.00000000000E+00  0.11242586178E+04  0.11242586178E+04  0.25500000000E-02 0.  1.
         -2   -1    0    0    0  501 -0.00000000000E+00 -0.00000000000E+00 -0.45329701155E+02  0.45329701227E+02  0.25500000000E-02 0. -1.
    5000001    1    1    2    0    0  0.12751558362E+03  0.79446884402E+02  0.62789307498E+03  0.66636832541E+03  0.16500000000E+03 0.  0.
   -5000001    1    1    2    0    0 -0.12751558362E+03 -0.79446884402E+02  0.45103584166E+03  0.50321999361E+03  0.16500000000E+03 0.  0.
<mgrwt>
<rscale>  0 0.45149665E+03</rscale>
<asrwt>0</asrwt>
<pdfrwt beam="1">  1        2 0.16060836E+00 0.45149665E+03</pdfrwt>
<pdfrwt beam="2">  1       -2 0.64756723E-02 0.45149665E+03</pdfrwt>
<totfact> 0.32593955E+03</totfact>
</mgrwt>
</event>
<event>
 4    1  0.5399378E-005  0.4783170E+03  0.7818608E-02  0.1019599E+00
         -2   -1    0    0    0  501 -0.00000000000E+00  0.00000000000E+00  0.26877944853E+02  0.26877944974E+02  0.25500000000E-02 0. -1.
          2   -1    0    0  501    0  0.00000000000E+00 -0.00000000000E+00 -0.21280196491E+04  0.21280196491E+04  0.25500000000E-02 0.  1.
    5000001    1    1    2    0    0  0.11479860929E+03  0.83574502200E+02 -0.14967500974E+04  0.15124976933E+04  0.16500000000E+03 0.  0.
   -5000001    1    1    2    0    0 -0.11479860929E+03 -0.83574502200E+02 -0.60439160684E+03  0.64239990079E+03  0.16500000000E+03 0.  0.
<mgrwt>
<rscale>  0 0.47831703E+03</rscale>
<asrwt>0</asrwt>
<pdfrwt beam="1">  1        2 0.30400270E+00 0.47831703E+03</pdfrwt>
<pdfrwt beam="2">  1       -2 0.38397078E-02 0.47831703E+03</pdfrwt>
<totfact> 0.22131712E+03</totfact>
</mgrwt>
</event>
<event>
 4    1  0.5399378E-005  0.4238668E+03  0.7818608E-02  0.1035815E+00
         -2   -1    0    0    0  501 -0.00000000000E+00  0.00000000000E+00  0.31546515683E+02  0.31546515787E+02  0.25500000000E-02 0. -1.
          2   -1    0    0  501    0  0.00000000000E+00 -0.00000000000E+00 -0.14237946652E+04  0.14237946652E+04  0.25500000000E-02 0.  1.
    5000001    1    1    2    0    0 -0.11098185387E+03  0.71606795912E+02 -0.75000419928E+03  0.77921486385E+03  0.16500000000E+03 0.  0.
   -5000001    1    1    2    0    0  0.11098185387E+03 -0.71606795912E+02 -0.64224395023E+03  0.67612631713E+03  0.16500000000E+03 0.  0.
<mgrwt>
<rscale>  0 0.42386678E+03</rscale>
<asrwt>0</asrwt>
<pdfrwt beam="1">  1        2 0.20339920E+00 0.42386678E+03</pdfrwt>
<pdfrwt beam="2">  1       -2 0.45066460E-02 0.42386678E+03</pdfrwt>
<totfact> 0.39254905E+03</totfact>
</mgrwt>
</event>
<event>
 4    1  0.5399378E-005  0.3783730E+03  0.7818608E-02  0.1051537E+00
         -2   -1    0    0    0  501 -0.00000000000E+00  0.00000000000E+00  0.18098500136E+02  0.18098500316E+02  0.25500000000E-02 0. -1.
          2   -1    0    0  501    0  0.00000000000E+00 -0.00000000000E+00 -0.19775969159E+04  0.19775969159E+04  0.25500000000E-02 0.  1.
    5000001    1    1    2    0    0  0.17149553716E+02  0.90919521999E+02 -0.96675277333E+03  0.98508699687E+03  0.16500000000E+03 0.  0.
   -5000001    1    1    2    0    0 -0.17149553716E+02 -0.90919521999E+02 -0.99274564246E+03  0.10106084194E+04  0.16500000000E+03 0.  0.
<mgrwt>
<rscale>  0 0.37837303E+03</rscale>
<asrwt>0</asrwt>
<pdfrwt beam="1">  1        2 0.28251371E+00 0.37837303E+03</pdfrwt>
<pdfrwt beam="2">  1       -2 0.25855013E-02 0.37837303E+03</pdfrwt>
<totfact> 0.47886817E+03</totfact>
</mgrwt>
</event>
<event>
 4    1  0.5399378E-005  0.5594027E+03  0.7818608E-02  0.9993407E-01
          2   -1    0    0  501    0  0.00000000000E+00  0.00000000000E+00  0.90805748192E+03  0.90805748192E+03  0.25500000000E-02 0.  1.
         -2   -1    0    0    0  501 -0.00000000000E+00 -0.00000000000E+00 -0.86154078610E+02  0.86154078648E+02  0.25500000000E-02 0. -1.
    5000001    1    1    2    0    0  0.15761430669E+03 -0.10345615907E+03  0.18995143267E+03  0.31440736838E+03  0.16500000000E+03 0.  0.
   -5000001    1    1    2    0    0 -0.15761430669E+03  0.10345615907E+03  0.63195197064E+03  0.67980419218E+03  0.16500000000E+03 0.  0.
<mgrwt>
<rscale>  0 0.55940274E+03</rscale>
<asrwt>0</asrwt>
<pdfrwt beam="1">  1        2 0.12972249E+00 0.55940274E+03</pdfrwt>
<pdfrwt beam="2">  1       -2 0.12307726E-01 0.55940274E+03</pdfrwt>
<totfact> 0.15719533E+03</totfact>
</mgrwt>
</event>
<event>
 4    1  0.5399378E-005  0.4325691E+03  0.7818608E-02  0.1033051E+00
          2   -1    0    0  501    0  0.00000000000E+00  0.00000000000E+00  0.51956351513E+03  0.51956351514E+03  0.25500000000E-02 0.  1.
         -2   -1    0    0    0  501 -0.00000000000E+00 -0.00000000000E+00 -0.90035182914E+02  0.90035182950E+02  0.25500000000E-02 0. -1.
    5000001    1    1    2    0    0  0.11177699408E+03 -0.43959369470E+02  0.11385274989E+03  0.23369632267E+03  0.16500000000E+03 0.  0.
   -5000001    1    1    2    0    0 -0.11177699408E+03  0.43959369470E+02  0.31567558233E+03  0.37590237542E+03  0.16500000000E+03 0.  0.
<mgrwt>
<rscale>  0 0.43256905E+03</rscale>
<asrwt>0</asrwt>
<pdfrwt beam="1">  1        2 0.74223357E-01 0.43256905E+03</pdfrwt>
<pdfrwt beam="2">  1       -2 0.12862169E-01 0.43256905E+03</pdfrwt>
<totfact> 0.28823752E+03</totfact>
</mgrwt>
</event>
<event>
 4    1  0.5399378E-005  0.4082435E+03  0.7818608E-02  0.1040962E+00
          2   -1    0    0  501    0  0.00000000000E+00  0.00000000000E+00  0.94303830706E+03  0.94303830706E+03  0.25500000000E-02 0.  1.
         -2   -1    0    0    0  501 -0.00000000000E+00 -0.00000000000E+00 -0.44182387332E+02  0.44182387405E+02  0.25500000000E-02 0. -1.
    5000001    1    1    2    0    0  0.69129789118E+02  0.94638730695E+02  0.51364816475E+03  0.55208228937E+03  0.16500000000E+03 0.  0.
   -5000001    1    1    2    0    0 -0.69129789118E+02 -0.94638730695E+02  0.38520775498E+03  0.43513840509E+03  0.16500000000E+03 0.  0.
<mgrwt>
<rscale>  0 0.40824348E+03</rscale>
<asrwt>0</asrwt>
<pdfrwt beam="1">  1        2 0.13471975E+00 0.40824348E+03</pdfrwt>
<pdfrwt beam="2">  1       -2 0.63117699E-02 0.40824348E+03</pdfrwt>
<totfact> 0.43406345E+03</totfact>
</mgrwt>
</event>
<event>
 4    1  0.5399378E-005  0.3817649E+03  0.7818608E-02  0.1050283E+00
          2   -1    0    0  501    0  0.00000000000E+00  0.00000000000E+00  0.81164077658E+03  0.81164077659E+03  0.25500000000E-02 0.  1.
         -2   -1    0    0    0  501 -0.00000000000E+00 -0.00000000000E+00 -0.44891918865E+02  0.44891918938E+02  0.25500000000E-02 0. -1.
    5000001    1    1    2    0    0  0.34159218247E+02  0.85722447259E+02  0.32418718096E+03  0.37528325096E+03  0.16500000000E+03 0.  0.
   -5000001    1    1    2    0    0 -0.34159218247E+02 -0.85722447259E+02  0.44256167676E+03  0.48124944456E+03  0.16500000000E+03 0.  0.
<mgrwt>
<rscale>  0 0.38176491E+03</rscale>
<asrwt>0</asrwt>
<pdfrwt beam="1">  1        2 0.11594867E+00 0.38176491E+03</pdfrwt>
<pdfrwt beam="2">  1       -2 0.64131320E-02 0.38176491E+03</pdfrwt>
<totfact> 0.51423581E+03</totfact>
</mgrwt>
</event>
<event>
 4    1  0.5399378E-005  0.4062750E+03  0.7818608E-02  0.1041628E+00
          2   -1    0    0  501    0  0.00000000000E+00  0.00000000000E+00  0.56146616886E+03  0.56146616886E+03  0.25500000000E-02 0.  1.
         -2   -1    0    0    0  501 -0.00000000000E+00 -0.00000000000E+00 -0.73494817048E+02  0.73494817093E+02  0.25500000000E-02 0. -1.
    5000001    1    1    2    0    0 -0.11833616302E+03 -0.56699092249E+01  0.24721068573E+03  0.31995893250E+03  0.16500000000E+03 0.  0.
   -5000001    1    1    2    0    0  0.11833616302E+03  0.56699092249E+01  0.24076066608E+03  0.31500205345E+03  0.16500000000E+03 0.  0.
<mgrwt>
<rscale>  0 0.40627505E+03</rscale>
<asrwt>0</asrwt>
<pdfrwt beam="1">  1        2 0.80209458E-01 0.40627505E+03</pdfrwt>
<pdfrwt beam="2">  1       -2 0.10499259E-01 0.40627505E+03</pdfrwt>
<totfact> 0.36687714E+03</totfact>
</mgrwt>
</event>
<event>
 4    1  0.5399378E-005  0.5735877E+03  0.7818608E-02  0.9961771E-01
          2   -1    0    0  501    0  0.00000000000E+00  0.00000000000E+00  0.37426377798E+04  0.37426377798E+04  0.25500000000E-02 0.  1.
         -2   -1    0    0    0  501 -0.00000000000E+00 -0.00000000000E+00 -0.21976668915E+02  0.21976669063E+02  0.25500000000E-02 0. -1.
    5000001    1    1    2    0    0  0.30384954299E+02  0.18219935542E+03  0.28093054147E+04  0.28202024331E+04  0.16500000000E+03 0.  0.
   -5000001    1    1    2    0    0 -0.30384954299E+02 -0.18219935542E+03  0.91135569619E+03  0.94441201577E+03  0.16500000000E+03 0.  0.
<mgrwt>
<rscale>  0 0.57358770E+03</rscale>
<asrwt>0</asrwt>
<pdfrwt beam="1">  1        2 0.53466290E+00 0.57358770E+03</pdfrwt>
<pdfrwt beam="2">  1       -2 0.31395221E-02 0.57358770E+03</pdfrwt>
<totfact> 0.39311737E+02</totfact>
</mgrwt>
</event>
<event>
 4    1  0.5399378E-005  0.4746471E+03  0.7818608E-02  0.1020617E+00
         -2   -1    0    0    0  501 -0.00000000000E+00  0.00000000000E+00  0.96158367782E+02  0.96158367816E+02  0.25500000000E-02 0. -1.
          2   -1    0    0  501    0  0.00000000000E+00 -0.00000000000E+00 -0.58572621094E+03  0.58572621094E+03  0.25500000000E-02 0.  1.
    5000001    1    1    2    0    0 -0.15525668440E+03 -0.35013551541E+02 -0.33295607487E+03  0.40424662600E+03  0.16500000000E+03 0.  0.
   -5000001    1    1    2    0    0  0.15525668440E+03  0.35013551541E+02 -0.15661176829E+03  0.27763795275E+03  0.16500000000E+03 0.  0.
<mgrwt>
<rscale>  0 0.47464714E+03</rscale>
<asrwt>0</asrwt>
<pdfrwt beam="1">  1        2 0.83675171E-01 0.47464714E+03</pdfrwt>
<pdfrwt beam="2">  1       -2 0.13736910E-01 0.47464714E+03</pdfrwt>
<totfact> 0.22557174E+03</totfact>
</mgrwt>
</event>
<event>
 4    1  0.5399378E-005  0.3793443E+03  0.7818608E-02  0.1051176E+00
         -2   -1    0    0    0  501 -0.00000000000E+00  0.00000000000E+00  0.18835932789E+02  0.18835932962E+02  0.25500000000E-02 0. -1.
          2   -1    0    0  501    0  0.00000000000E+00 -0.00000000000E+00 -0.19099412378E+04  0.19099412379E+04  0.25500000000E-02 0.  1.
    5000001    1    1    2    0    0 -0.75953664496E+01  0.70333831100E+02 -0.63435833563E+03  0.65927235295E+03  0.16500000000E+03 0.  0.
   -5000001    1    1    2    0    0  0.75953664496E+01 -0.70333831100E+02 -0.12567469694E+04  0.12695048179E+04  0.16500000000E+03 0.  0.
<mgrwt>
<rscale>  0 0.37934430E+03</rscale>
<asrwt>0</asrwt>
<pdfrwt beam="1">  1        2 0.27284862E+00 0.37934430E+03</pdfrwt>
<pdfrwt beam="2">  1       -2 0.26908488E-02 0.37934430E+03</pdfrwt>
<totfact> 0.48716517E+03</totfact>
</mgrwt>
</event>
<event>
 4    1  0.5399378E-005  0.1075758E+04  0.7818608E-02  0.9229147E-01
         -2   -1    0    0    0  501 -0.00000000000E+00  0.00000000000E+00  0.16506230476E+03  0.16506230478E+03  0.25500000000E-02 0.  1.
          2   -1    0    0  501    0  0.00000000000E+00 -0.00000000000E+00 -0.17527553118E+04  0.17527553118E+04  0.25500000000E-02 0. -1.
    5000001    1    1    2    0    0  0.12431037094E+03 -0.36000089666E+03 -0.14037355132E+04  0.14638142317E+04  0.16500000000E+03 0.  0.
   -5000001    1    1    2    0    0 -0.12431037094E+03  0.36000089666E+03 -0.18395749381E+03  0.45400338484E+03  0.16500000000E+03 0.  0.
<mgrwt>
<rscale>  0 0.10757580E+04</rscale>
<asrwt>0</asrwt>
<pdfrwt beam="1">  1        2 0.25039360E+00 0.10757580E+04</pdfrwt>
<pdfrwt beam="2">  1       -2 0.23580330E-01 0.10757580E+04</pdfrwt>
<totfact> 0.17055408E+02</totfact>
</mgrwt>
</event>
<event>
 4    1  0.5399378E-005  0.6985359E+03  0.7818608E-02  0.9719739E-01
         -2   -1    0    0    0  501 -0.00000000000E+00  0.00000000000E+00  0.45686000396E+02  0.45686000467E+02  0.25500000000E-02 0. -1.
          2   -1    0    0  501    0  0.00000000000E+00 -0.00000000000E+00 -0.26701419238E+04  0.26701419238E+04  0.25500000000E-02 0.  1.
    5000001    1    1    2    0    0 -0.14782556705E+03 -0.17262712395E+03 -0.21194731382E+04  0.21379999779E+04  0.16500000000E+03 0.  0.
   -5000001    1    1    2    0    0  0.14782556705E+03  0.17262712395E+03 -0.50498278528E+03  0.57782794638E+03  0.16500000000E+03 0.  0.
<mgrwt>
<rscale>  0 0.69853591E+03</rscale>
<asrwt>0</asrwt>
<pdfrwt beam="1">  1        2 0.38144875E+00 0.69853591E+03</pdfrwt>
<pdfrwt beam="2">  1       -2 0.65265732E-02 0.69853591E+03</pdfrwt>
<totfact> 0.50696474E+02</totfact>
</mgrwt>
</event>
<event>
 4    1  0.5399378E-005  0.5515523E+03  0.7818608E-02  0.1001135E+00
          2   -1    0    0  501    0  0.00000000000E+00  0.00000000000E+00  0.78402667863E+03  0.78402667863E+03  0.25500000000E-02 0.  1.
         -2   -1    0    0    0  501 -0.00000000000E+00 -0.00000000000E+00 -0.97002431126E+02  0.97002431159E+02  0.25500000000E-02 0. -1.
    5000001    1    1    2    0    0 -0.17443497056E+03  0.53235080390E+02  0.54280487551E+03  0.59592253323E+03  0.16500000000E+03 0.  0.
   -5000001    1    1    2    0    0  0.17443497056E+03 -0.53235080390E+02  0.14421937200E+03  0.28510657656E+03  0.16500000000E+03 0.  0.
<mgrwt>
<rscale>  0 0.55155233E+03</rscale>
<asrwt>0</asrwt>
<pdfrwt beam="1">  1        2 0.11200382E+00 0.55155233E+03</pdfrwt>
<pdfrwt beam="2">  1       -2 0.13857489E-01 0.55155233E+03</pdfrwt>
<totfact> 0.15634118E+03</totfact>
</mgrwt>
</event>
<event>
 4    1  0.5399378E-005  0.5188780E+03  0.7818608E-02  0.1008966E+00
          2   -1    0    0  501    0  0.00000000000E+00  0.00000000000E+00  0.67264861309E+03  0.67264861310E+03  0.25500000000E-02 0.  1.
         -2   -1    0    0    0  501 -0.00000000000E+00 -0.00000000000E+00 -0.10006500384E+03  0.10006500388E+03  0.25500000000E-02 0. -1.
    5000001    1    1    2    0    0 -0.17659171710E+02 -0.18443314106E+03  0.17330710862E+03  0.30263473655E+03  0.16500000000E+03 0.  0.
   -5000001    1    1    2    0    0  0.17659171710E+02  0.18443314106E+03  0.39927650063E+03  0.47007888043E+03  0.16500000000E+03 0.  0.
<mgrwt>
<rscale>  0 0.51887797E+03</rscale>
<asrwt>0</asrwt>
<pdfrwt beam="1">  1        2 0.96092655E-01 0.51887797E+03</pdfrwt>
<pdfrwt beam="2">  1       -2 0.14295001E-01 0.51887797E+03</pdfrwt>
<totfact> 0.17932761E+03</totfact>
</mgrwt>
</event>
<event>
 4    1  0.5399378E-005  0.7718048E+03  0.7818608E-02  0.9601750E-01
         -2   -1    0    0    0  501 -0.00000000000E+00  0.00000000000E+00  0.70299238665E+02  0.70299238711E+02  0.25500000000E-02 0. -1.
          2   -1    0    0  501    0  0.00000000000E+00 -0.00000000000E+00 -0.21183823483E+04  0.21183823483E+04  0.25500000000E-02 0.  1.
    5000001    1    1    2    0    0  0.61178031890E+01 -0.29116230600E+03 -0.47943012345E+03  0.58471459638E+03  0.16500000000E+03 0.  0.
   -5000001    1    1    2    0    0 -0.61178031890E+01  0.29116230600E+03 -0.15686529861E+04  0.16039669906E+04  0.16500000000E+03 0.  0.
<mgrwt>
<rscale>  0 0.77180481E+03</rscale>
<asrwt>0</asrwt>
<pdfrwt beam="1">  1        2 0.30262601E+00 0.77180481E+03</pdfrwt>
<pdfrwt beam="2">  1       -2 0.10042750E-01 0.77180481E+03</pdfrwt>
<totfact> 0.48516690E+02</totfact>
</mgrwt>
</event>
<event>
 4    1  0.5399378E-005  0.5999746E+03  0.7818608E-02  0.9905459E-01
         -2   -1    0    0    0  501 -0.00000000000E+00  0.00000000000E+00  0.13774309803E+03  0.13774309805E+03  0.25500000000E-02 0. -1.
          2   -1    0    0  501    0  0.00000000000E+00 -0.00000000000E+00 -0.65333485030E+03  0.65333485031E+03  0.25500000000E-02 0.  1.
    5000001    1    1    2    0    0  0.19562591599E+03  0.13790734653E+03 -0.35539685706E+03  0.45915124005E+03  0.16500000000E+03 0.  0.
   -5000001    1    1    2    0    0 -0.19562591599E+03 -0.13790734653E+03 -0.16019489521E+03  0.33192670831E+03  0.16500000000E+03 0.  0.
<mgrwt>
<rscale>  0 0.59997455E+03</rscale>
<asrwt>0</asrwt>
<pdfrwt beam="1">  1        2 0.93333548E-01 0.59997455E+03</pdfrwt>
<pdfrwt beam="2">  1       -2 0.19677586E-01 0.59997455E+03</pdfrwt>
<totfact> 0.10774037E+03</totfact>
</mgrwt>
</event>
<event>
 4    1  0.5399378E-005  0.5185930E+03  0.7818608E-02  0.1009037E+00
         -2   -1    0    0    0  501 -0.00000000000E+00  0.00000000000E+00  0.84119249626E+02  0.84119249664E+02  0.25500000000E-02 0. -1.
          2   -1    0    0  501    0  0.00000000000E+00 -0.00000000000E+00 -0.79927820690E+03  0.79927820690E+03  0.25500000000E-02 0.  1.
    5000001    1    1    2    0    0 -0.48257137371E+02 -0.11599849115E+03 -0.62271254007E+03  0.65633856265E+03  0.16500000000E+03 0.  0.
   -5000001    1    1    2    0    0  0.48257137371E+02  0.11599849115E+03 -0.92446417206E+02  0.22705889392E+03  0.16500000000E+03 0.  0.
<mgrwt>
<rscale>  0 0.51859303E+03</rscale>
<asrwt>0</asrwt>
<pdfrwt beam="1">  1        2 0.11418260E+00 0.51859303E+03</pdfrwt>
<pdfrwt beam="2">  1       -2 0.12017036E-01 0.51859303E+03</pdfrwt>
<totfact> 0.19313968E+03</totfact>
</mgrwt>
</event>
<event>
 4    1  0.5399378E-005  0.4301522E+03  0.7818608E-02  0.1033812E+00
          2   -1    0    0  501    0  0.00000000000E+00  0.00000000000E+00  0.31289325534E+04  0.31289325534E+04  0.25500000000E-02 0.  1.
         -2   -1    0    0    0  501 -0.00000000000E+00 -0.00000000000E+00 -0.14783869123E+02  0.14783869343E+02  0.25500000000E-02 0. -1.
    5000001    1    1    2    0    0  0.76531728328E+02  0.11436235196E+03  0.16290077996E+04  0.16431151099E+04  0.16500000000E+03 0.  0.
   -5000001    1    1    2    0    0 -0.76531728328E+02 -0.11436235196E+03  0.14851408847E+04  0.15006013129E+04  0.16500000000E+03 0.  0.
<mgrwt>
<rscale>  0 0.43015220E+03</rscale>
<asrwt>0</asrwt>
<pdfrwt beam="1">  1        2 0.44699111E+00 0.43015220E+03</pdfrwt>
<pdfrwt beam="2">  1       -2 0.21119778E-02 0.43015220E+03</pdfrwt>
<totfact> 0.16588146E+03</totfact>
</mgrwt>
</event>
<event>
 4    1  0.5399378E-005  0.5942449E+03  0.7818608E-02  0.9917419E-01
          2   -1    0    0  501    0  0.00000000000E+00  0.00000000000E+00  0.25495786633E+04  0.25495786633E+04  0.25500000000E-02 0.  1.
         -2   -1    0    0    0  501 -0.00000000000E+00 -0.00000000000E+00 -0.34626010078E+02  0.34626010172E+02  0.25500000000E-02 0. -1.
    5000001    1    1    2    0    0 -0.19437490406E+03 -0.10503310449E+03  0.17386574698E+04  0.17603886939E+04  0.16500000000E+03 0.  0.
   -5000001    1    1    2    0    0  0.19437490406E+03  0.10503310449E+03  0.77629518335E+03  0.82381597948E+03  0.16500000000E+03 0.  0.
<mgrwt>
<rscale>  0 0.59424485E+03</rscale>
<asrwt>0</asrwt>
<pdfrwt beam="1">  1        2 0.36422551E+00 0.59424485E+03</pdfrwt>
<pdfrwt beam="2">  1       -2 0.49465731E-02 0.59424485E+03</pdfrwt>
<totfact> 0.91099268E+02</totfact>
</mgrwt>
</event>
<event>
 4    1  0.5399378E-005  0.3722141E+03  0.7818608E-02  0.1053850E+00
          2   -1    0    0  501    0  0.00000000000E+00  0.00000000000E+00  0.36426000691E+02  0.36426000780E+02  0.25500000000E-02 0.  1.
         -2   -1    0    0    0  501 -0.00000000000E+00 -0.00000000000E+00 -0.95085460753E+03  0.95085460754E+03  0.25500000000E-02 0. -1.
    5000001    1    1    2    0    0  0.26919112704E+02  0.32870162440E+02 -0.65580754035E+03  0.67757923240E+03  0.16500000000E+03 0.  0.
   -5000001    1    1    2    0    0 -0.26919112704E+02 -0.32870162440E+02 -0.25862106649E+03  0.30970137591E+03  0.16500000000E+03 0.  0.
<mgrwt>
<rscale>  0 0.37221408E+03</rscale>
<asrwt>0</asrwt>
<pdfrwt beam="1">  1        2 0.52037150E-02 0.37221408E+03</pdfrwt>
<pdfrwt beam="2">  1       -2 0.13583636E+00 0.37221408E+03</pdfrwt>
<totfact> 0.61286276E+02</totfact>
</mgrwt>
</event>
<event>
 4    1  0.5399378E-005  0.8055254E+03  0.7818608E-02  0.9552054E-01
          2   -1    0    0  501    0  0.00000000000E+00  0.00000000000E+00  0.23291054535E+03  0.23291054536E+03  0.25500000000E-02 0.  1.
         -2   -1    0    0    0  501 -0.00000000000E+00 -0.00000000000E+00 -0.69648115362E+03  0.69648115362E+03  0.25500000000E-02 0. -1.
    5000001    1    1    2    0    0 -0.28038700840E+03 -0.51704334694E+02 -0.49915806416E+03  0.59805851362E+03  0.16500000000E+03 0.  0.
   -5000001    1    1    2    0    0  0.28038700840E+03  0.51704334694E+02  0.35587455886E+02  0.33133318536E+03  0.16500000000E+03 0.  0.
<mgrwt>
<rscale>  0 0.80552543E+03</rscale>
<asrwt>0</asrwt>
<pdfrwt beam="1">  1        2 0.33272935E-01 0.80552543E+03</pdfrwt>
<pdfrwt beam="2">  1       -2 0.99497307E-01 0.80552543E+03</pdfrwt>
<totfact> 0.13328473E+02</totfact>
</mgrwt>
</event>
<event>
 4    1  0.5399378E-005  0.5526011E+03  0.7818608E-02  0.1000894E+00
          2   -1    0    0  501    0  0.00000000000E+00  0.00000000000E+00  0.12132260974E+04  0.12132260974E+04  0.25500000000E-02 0.  1.
         -2   -1    0    0    0  501 -0.00000000000E+00 -0.00000000000E+00 -0.62924792428E+02  0.62924792480E+02  0.25500000000E-02 0. -1.
    5000001    1    1    2    0    0  0.77506523513E+02  0.74913658868E+02  0.10223410613E+04  0.10411654830E+04  0.16500000000E+03 0.  0.
   -5000001    1    1    2    0    0 -0.77506523513E+02 -0.74913658868E+02  0.12796024371E+03  0.23498540687E+03  0.16500000000E+03 0.  0.
<mgrwt>
<rscale>  0 0.55260112E+03</rscale>
<asrwt>0</asrwt>
<pdfrwt beam="1">  1        2 0.17331802E+00 0.55260112E+03</pdfrwt>
<pdfrwt beam="2">  1       -2 0.89892558E-02 0.55260112E+03</pdfrwt>
<totfact> 0.17271381E+03</totfact>
</mgrwt>
</event>
<event>
 4    1  0.5399378E-005  0.4429910E+03  0.7818608E-02  0.1029833E+00
          2   -1    0    0  501    0  0.00000000000E+00  0.00000000000E+00  0.54026329250E+03  0.54026329250E+03  0.25500000000E-02 0.  1.
         -2   -1    0    0    0  501 -0.00000000000E+00 -0.00000000000E+00 -0.90808040013E+02  0.90808040049E+02  0.25500000000E-02 0. -1.
    5000001    1    1    2    0    0  0.98940549893E+02  0.10732135994E+03  0.25746619908E+03  0.33885240206E+03  0.16500000000E+03 0.  0.
   -5000001    1    1    2    0    0 -0.98940549893E+02 -0.10732135994E+03  0.19198905341E+03  0.29221893050E+03  0.16500000000E+03 0.  0.
<mgrwt>
<rscale>  0 0.44299097E+03</rscale>
<asrwt>0</asrwt>
<pdfrwt beam="1">  1        2 0.77180471E-01 0.44299097E+03</pdfrwt>
<pdfrwt beam="2">  1       -2 0.12972577E-01 0.44299097E+03</pdfrwt>
<totfact> 0.27194768E+03</totfact>
</mgrwt>
</event>
<event>
 4    1  0.5399378E-005  0.7224057E+03  0.7818608E-02  0.9679664E-01
          2   -1    0    0  501    0  0.00000000000E+00  0.00000000000E+00  0.32146532028E+04  0.32146532028E+04  0.25500000000E-02 0.  1.
         -2   -1    0    0    0  501 -0.00000000000E+00 -0.00000000000E+00 -0.40585252517E+02  0.40585252597E+02  0.25500000000E-02 0. -1.
    5000001    1    1    2    0    0  0.12702959980E+03  0.21019068842E+03  0.25206346588E+04  0.25379402530E+04  0.16500000000E+03 0.  0.
   -5000001    1    1    2    0    0 -0.12702959980E+03 -0.21019068842E+03  0.65343329147E+03  0.71729820237E+03  0.16500000000E+03 0.  0.
<mgrwt>
<rscale>  0 0.72240574E+03</rscale>
<asrwt>0</asrwt>
<pdfrwt beam="1">  1        2 0.45923625E+00 0.72240574E+03</pdfrwt>
<pdfrwt beam="2">  1       -2 0.57978923E-02 0.72240574E+03</pdfrwt>
<totfact> 0.30840623E+02</totfact>
</mgrwt>
</event>
<event>
 4    1  0.5399378E-005  0.4927422E+03  0.7818608E-02  0.1015691E+00
          2   -1    0    0  501    0  0.00000000000E+00  0.00000000000E+00  0.15398276388E+04  0.15398276388E+04  0.25500000000E-02 0.  1.
         -2   -1    0    0    0  501 -0.00000000000E+00 -0.00000000000E+00 -0.39419165607E+02  0.39419165690E+02  0.25500000000E-02 0. -1.
    5000001    1    1    2    0    0 -0.18061835060E+03 -0.22769237919E+02  0.69178020916E+03  0.73411598849E+03  0.16500000000E+03 0.  0.
   -5000001    1    1    2    0    0  0.18061835060E+03  0.22769237919E+02  0.80862826401E+03  0.84513081598E+03  0.16500000000E+03 0.  0.
<mgrwt>
<rscale>  0 0.49274221E+03</rscale>
<asrwt>0</asrwt>
<pdfrwt beam="1">  1        2 0.21997541E+00 0.49274221E+03</pdfrwt>
<pdfrwt beam="2">  1       -2 0.56313085E-02 0.49274221E+03</pdfrwt>
<totfact> 0.24231232E+03</totfact>
</mgrwt>
</event>
<event>
 4    1  0.5399378E-005  0.3949654E+03  0.7818608E-02  0.1045537E+00
          2   -1    0    0  501    0  0.00000000000E+00  0.00000000000E+00  0.10113825906E+03  0.10113825909E+03  0.25500000000E-02 0.  1.
         -2   -1    0    0    0  501 -0.00000000000E+00 -0.00000000000E+00 -0.38560490452E+03  0.38560490453E+03  0.25500000000E-02 0. -1.
    5000001    1    1    2    0    0  0.35659335990E+02  0.87855062182E+02 -0.20726119341E+03  0.28137573188E+03  0.16500000000E+03 0.  0.
   -5000001    1    1    2    0    0 -0.35659335990E+02 -0.87855062182E+02 -0.77205452046E+02  0.20536743174E+03  0.16500000000E+03 0.  0.
<mgrwt>
<rscale>  0 0.39496536E+03</rscale>
<asrwt>0</asrwt>
<pdfrwt beam="1">  1        2 0.14448323E-01 0.39496536E+03</pdfrwt>
<pdfrwt beam="2">  1       -2 0.55086414E-01 0.39496536E+03</pdfrwt>
<totfact> 0.12962812E+03</totfact>
</mgrwt>
</event>
<event>
 4    1  0.5399378E-005  0.6238469E+03  0.7818608E-02  0.9857130E-01
         -2   -1    0    0    0  501 -0.00000000000E+00  0.00000000000E+00  0.78444802763E+02  0.78444802804E+02  0.25500000000E-02 0. -1.
          2   -1    0    0  501    0  0.00000000000E+00 -0.00000000000E+00 -0.12403145453E+04  0.12403145453E+04  0.25500000000E-02 0.  1.
    5000001    1    1    2    0    0 -0.63656265793E+02 -0.24379555912E+03 -0.40942305867E+03  0.50827220640E+03  0.16500000000E+03 0.  0.
   -5000001    1    1    2    0    0  0.63656265793E+02  0.24379555912E+03 -0.75244668390E+03  0.81048714175E+03  0.16500000000E+03 0.  0.
<mgrwt>
<rscale>  0 0.62384687E+03</rscale>
<asrwt>0</asrwt>
<pdfrwt beam="1">  1        2 0.17718778E+00 0.62384687E+03</pdfrwt>
<pdfrwt beam="2">  1       -2 0.11206401E-01 0.62384687E+03</pdfrwt>
<totfact> 0.11650019E+03</totfact>
</mgrwt>
</event>
<event>
 4    1  0.5399378E-005  0.5845283E+03  0.7818608E-02  0.9938035E-01
          2   -1    0    0  501    0  0.00000000000E+00  0.00000000000E+00  0.11806373964E+04  0.11806373964E+04  0.25500000000E-02 0.  1.
         -2   -1    0    0    0  501 -0.00000000000E+00 -0.00000000000E+00 -0.72349345992E+02  0.72349346037E+02  0.25500000000E-02 0. -1.
    5000001    1    1    2    0    0  0.22696733551E+03 -0.76458072284E+02  0.61602409567E+03  0.68122734432E+03  0.16500000000E+03 0.  0.
   -5000001    1    1    2    0    0 -0.22696733551E+03  0.76458072284E+02  0.49226395476E+03  0.57175939814E+03  0.16500000000E+03 0.  0.
<mgrwt>
<rscale>  0 0.58452833E+03</rscale>
<asrwt>0</asrwt>
<pdfrwt beam="1">  1        2 0.16866248E+00 0.58452833E+03</pdfrwt>
<pdfrwt beam="2">  1       -2 0.10335621E-01 0.58452833E+03</pdfrwt>
<totfact> 0.14369011E+03</totfact>
</mgrwt>
</event>
<event>
 4    1  0.5399378E-005  0.8190628E+03  0.7818608E-02  0.9532827E-01
         -2   -1    0    0    0  501 -0.00000000000E+00  0.00000000000E+00  0.51493553920E+03  0.51493553921E+03  0.25500000000E-02 0. -1.
          2   -1    0    0  501    0  0.00000000000E+00 -0.00000000000E+00 -0.32570284429E+03  0.32570284430E+03  0.25500000000E-02 0.  1.
    5000001    1    1    2    0    0 -0.58104491532E+01  0.34900222487E+03 -0.45563514424E+02  0.38876387195E+03  0.16500000000E+03 0.  0.
   -5000001    1    1    2    0    0  0.58104491532E+01 -0.34900222487E+03  0.23479620934E+03  0.45187451156E+03  0.16500000000E+03 0.  0.
<mgrwt>
<rscale>  0 0.81906281E+03</rscale>
<asrwt>0</asrwt>
<pdfrwt beam="1">  1        2 0.46528978E-01 0.81906281E+03</pdfrwt>
<pdfrwt beam="2">  1       -2 0.73562220E-01 0.81906281E+03</pdfrwt>
<totfact> 0.18260203E+02</totfact>
</mgrwt>
</event>
<event>
 4    1  0.5399378E-005  0.5428508E+03  0.7818608E-02  0.1003162E+00
         -2   -1    0    0    0  501 -0.00000000000E+00  0.00000000000E+00  0.44547707594E+02  0.44547707667E+02  0.25500000000E-02 0.  1.
          2   -1    0    0  501    0  0.00000000000E+00 -0.00000000000E+00 -0.16537720153E+04  0.16537720153E+04  0.25500000000E-02 0. -1.
    5000001    1    1    2    0    0 -0.18921456553E+03  0.10269032552E+03 -0.83578726682E+03  0.87869949934E+03  0.16500000000E+03 0.  0.
   -5000001    1    1    2    0    0  0.18921456553E+03 -0.10269032552E+03 -0.77343704090E+03  0.81962022364E+03  0.16500000000E+03 0.  0.
<mgrwt>
<rscale>  0 0.54285082E+03</rscale>
<asrwt>0</asrwt>
<pdfrwt beam="1">  1        2 0.23625311E+00 0.54285082E+03</pdfrwt>
<pdfrwt beam="2">  1       -2 0.63639593E-02 0.54285082E+03</pdfrwt>
<totfact> 0.17482939E+03</totfact>
</mgrwt>
</event>
<event>
 4    1  0.5399378E-005  0.5739243E+03  0.7818608E-02  0.9961032E-01
          2   -1    0    0  501    0  0.00000000000E+00  0.00000000000E+00  0.17259311403E+04  0.17259311403E+04  0.25500000000E-02 0.  1.
         -2   -1    0    0    0  501 -0.00000000000E+00 -0.00000000000E+00 -0.47711788759E+02  0.47711788827E+02  0.25500000000E-02 0. -1.
    5000001    1    1    2    0    0  0.17187628714E+03  0.97967723247E+02  0.44841047863E+03  0.51714223404E+03  0.16500000000E+03 0.  0.
   -5000001    1    1    2    0    0 -0.17187628714E+03 -0.97967723247E+02  0.12298088729E+04  0.12565006951E+04  0.16500000000E+03 0.  0.
<mgrwt>
<rscale>  0 0.57392425E+03</rscale>
<asrwt>0</asrwt>
<pdfrwt beam="1">  1        2 0.24656163E+00 0.57392425E+03</pdfrwt>
<pdfrwt beam="2">  1       -2 0.68159687E-02 0.57392425E+03</pdfrwt>
<totfact> 0.14408413E+03</totfact>
</mgrwt>
</event>
<event>
 4    1  0.5399378E-005  0.6338233E+03  0.7818608E-02  0.9837616E-01
         -2   -1    0    0    0  501 -0.00000000000E+00  0.00000000000E+00  0.34188315695E+02  0.34188315790E+02  0.25500000000E-02 0. -1.
          2   -1    0    0  501    0  0.00000000000E+00 -0.00000000000E+00 -0.29376406035E+04  0.29376406035E+04  0.25500000000E-02 0.  1.
    5000001    1    1    2    0    0  0.21612870158E+03  0.11410784683E+03 -0.19960186935E+04  0.20176837813E+04  0.16500000000E+03 0.  0.
   -5000001    1    1    2    0    0 -0.21612870158E+03 -0.11410784683E+03 -0.90743359427E+03  0.95414513800E+03  0.16500000000E+03 0.  0.
<mgrwt>
<rscale>  0 0.63382327E+03</rscale>
<asrwt>0</asrwt>
<pdfrwt beam="1">  1        2 0.41966278E+00 0.63382327E+03</pdfrwt>
<pdfrwt beam="2">  1       -2 0.48840470E-02 0.63382327E+03</pdfrwt>
<totfact> 0.57840670E+02</totfact>
</mgrwt>
</event>
<event>
 4    1  0.5399378E-005  0.5293963E+03  0.7818608E-02  0.1006379E+00
          2   -1    0    0  501    0  0.00000000000E+00  0.00000000000E+00  0.11734592524E+04  0.11734592524E+04  0.25500000000E-02 0.  1.
         -2   -1    0    0    0  501 -0.00000000000E+00 -0.00000000000E+00 -0.59708165931E+02  0.59708165985E+02  0.25500000000E-02 0. -1.
    5000001    1    1    2    0    0  0.40720618330E+02 -0.19827695114E+03  0.65755728695E+03  0.70751572685E+03  0.16500000000E+03 0.  0.
   -5000001    1    1    2    0    0 -0.40720618330E+02  0.19827695114E+03  0.45619379955E+03  0.52565169157E+03  0.16500000000E+03 0.  0.
<mgrwt>
<rscale>  0 0.52939626E+03</rscale>
<asrwt>0</asrwt>
<pdfrwt beam="1">  1        2 0.16763706E+00 0.52939626E+03</pdfrwt>
<pdfrwt beam="2">  1       -2 0.85297368E-02 0.52939626E+03</pdfrwt>
<totfact> 0.19779664E+03</totfact>
</mgrwt>
</event>
<event>
 4    1  0.5399378E-005  0.5554160E+03  0.7818608E-02  0.1000248E+00
          2   -1    0    0  501    0  0.00000000000E+00  0.00000000000E+00  0.17580289339E+04  0.17580289339E+04  0.25500000000E-02 0.  1.
         -2   -1    0    0    0  501 -0.00000000000E+00 -0.00000000000E+00 -0.43868290435E+02  0.43868290509E+02  0.25500000000E-02 0. -1.
    5000001    1    1    2    0    0  0.27641372451E+02  0.21543187533E+03  0.10263341921E+04  0.10619613045E+04  0.16500000000E+03 0.  0.
   -5000001    1    1    2    0    0 -0.27641372451E+02 -0.21543187533E+03  0.68782645140E+03  0.73993591994E+03  0.16500000000E+03 0.  0.
<mgrwt>
<rscale>  0 0.55541597E+03</rscale>
<asrwt>0</asrwt>
<pdfrwt beam="1">  1        2 0.25114701E+00 0.55541597E+03</pdfrwt>
<pdfrwt beam="2">  1       -2 0.62668982E-02 0.55541597E+03</pdfrwt>
<totfact> 0.15850254E+03</totfact>
</mgrwt>
</event>
<event>
 4    1  0.5399378E-005  0.5519386E+03  0.7818608E-02  0.1001046E+00
          2   -1    0    0  501    0  0.00000000000E+00  0.00000000000E+00  0.21809146367E+03  0.21809146369E+03  0.25500000000E-02 0.  1.
         -2   -1    0    0    0  501 -0.00000000000E+00 -0.00000000000E+00 -0.34920692750E+03  0.34920692751E+03  0.25500000000E-02 0. -1.
    5000001    1    1    2    0    0 -0.63532725221E+02 -0.21129484759E+03 -0.49237241893E+02  0.27987716195E+03  0.16500000000E+03 0.  0.
   -5000001    1    1    2    0    0  0.63532725221E+02  0.21129484759E+03 -0.81878221935E+02  0.28742122924E+03  0.16500000000E+03 0.  0.
<mgrwt>
<rscale>  0 0.55193858E+03</rscale>
<asrwt>0</asrwt>
<pdfrwt beam="1">  1        2 0.31155924E-01 0.55193858E+03</pdfrwt>
<pdfrwt beam="2">  1       -2 0.49886704E-01 0.55193858E+03</pdfrwt>
<totfact> 0.65234078E+02</totfact>
</mgrwt>
</event>
<event>
 4    1  0.5399378E-005  0.4764708E+03  0.7818608E-02  0.1020110E+00
          2   -1    0    0  501    0  0.00000000000E+00  0.00000000000E+00  0.22390511535E+04  0.22390511535E+04  0.25500000000E-02 0.  1.
         -2   -1    0    0    0  501 -0.00000000000E+00 -0.00000000000E+00 -0.25348285272E+02  0.25348285401E+02  0.25500000000E-02 0. -1.
    5000001    1    1    2    0    0  0.12463325917E+03  0.11136085318E+03  0.12967362041E+04  0.13178332489E+04  0.16500000000E+03 0.  0.
   -5000001    1    1    2    0    0 -0.12463325917E+03 -0.11136085318E+03  0.91696666413E+03  0.94656618999E+03  0.16500000000E+03 0.  0.
<mgrwt>
<rscale>  0 0.47647081E+03</rscale>
<asrwt>0</asrwt>
<pdfrwt beam="1">  1        2 0.31986441E+00 0.47647081E+03</pdfrwt>
<pdfrwt beam="2">  1       -2 0.36211840E-02 0.47647081E+03</pdfrwt>
<totfact> 0.21298994E+03</totfact>
</mgrwt>
</event>
<event>
 4    1  0.5399378E-005  0.4695513E+03  0.7818608E-02  0.1022047E+00
         -2   -1    0    0    0  501 -0.00000000000E+00  0.00000000000E+00  0.23468343071E+03  0.23468343072E+03  0.25500000000E-02 0. -1.
          2   -1    0    0  501    0  0.00000000000E+00 -0.00000000000E+00 -0.23486791813E+03  0.23486791814E+03  0.25500000000E-02 0.  1.
    5000001    1    1    2    0    0 -0.85155375750E+02 -0.11216789958E+03 -0.89878291209E+02  0.23481095150E+03  0.16500000000E+03 0.  0.
   -5000001    1    1    2    0    0  0.85155375750E+02  0.11216789958E+03  0.89693803789E+02  0.23474039736E+03  0.16500000000E+03 0.  0.
<mgrwt>
<rscale>  0 0.46955131E+03</rscale>
<asrwt>0</asrwt>
<pdfrwt beam="1">  1        2 0.33552560E-01 0.46955131E+03</pdfrwt>
<pdfrwt beam="2">  1       -2 0.33526204E-01 0.46955131E+03</pdfrwt>
<totfact> 0.13009521E+03</totfact>
</mgrwt>
</event>
<event>
 4    1  0.5399378E-005  0.5361445E+03  0.7818608E-02  0.1004753E+00
          2   -1    0    0  501    0  0.00000000000E+00  0.00000000000E+00  0.11315573310E+04  0.11315573310E+04  0.25500000000E-02 0.  1.
         -2   -1    0    0    0  501 -0.00000000000E+00 -0.00000000000E+00 -0.63507822856E+02  0.63507822907E+02  0.25500000000E-02 0. -1.
    5000001    1    1    2    0    0  0.12157117355E+03 -0.13513446008E+03  0.29398670485E+03  0.38300659938E+03  0.16500000000E+03 0.  0.
   -5000001    1    1    2    0    0 -0.12157117355E+03  0.13513446008E+03  0.77406280325E+03  0.81205855449E+03  0.16500000000E+03 0.  0.
<mgrwt>
<rscale>  0 0.53614454E+03</rscale>
<asrwt>0</asrwt>
<pdfrwt beam="1">  1        2 0.16165105E+00 0.53614454E+03</pdfrwt>
<pdfrwt beam="2">  1       -2 0.90725460E-02 0.53614454E+03</pdfrwt>
<totfact> 0.18926565E+03</totfact>
</mgrwt>
</event>
<event>
 4    1  0.5399378E-005  0.5735652E+03  0.7818608E-02  0.9961820E-01
          2   -1    0    0  501    0  0.00000000000E+00  0.00000000000E+00  0.54052080901E+04  0.54052080901E+04  0.25500000000E-02 0.  1.
         -2   -1    0    0    0  501 -0.00000000000E+00 -0.00000000000E+00 -0.15215741290E+02  0.15215741503E+02  0.25500000000E-02 0. -1.
    5000001    1    1    2    0    0 -0.86035843624E+02  0.20923056643E+03  0.32805899130E+04  0.32925179990E+04  0.16500000000E+03 0.  0.
   -5000001    1    1    2    0    0  0.86035843624E+02 -0.20923056643E+03  0.21094024358E+04  0.21279058326E+04  0.16500000000E+03 0.  0.
<mgrwt>
<rscale>  0 0.57356516E+03</rscale>
<asrwt>0</asrwt>
<pdfrwt beam="1">  1        2 0.77217276E+00 0.57356516E+03</pdfrwt>
<pdfrwt beam="2">  1       -2 0.21736768E-02 0.57356516E+03</pdfrwt>
<totfact> 0.29325521E+01</totfact>
</mgrwt>
</event>
<event>
 4    1  0.5399378E-005  0.5348386E+03  0.7818608E-02  0.1005065E+00
         -2   -1    0    0    0  501 -0.00000000000E+00  0.00000000000E+00  0.22297058493E+02  0.22297058638E+02  0.25500000000E-02 0. -1.
          2   -1    0    0  501    0  0.00000000000E+00 -0.00000000000E+00 -0.32072877557E+04  0.32072877557E+04  0.25500000000E-02 0.  1.
    5000001    1    1    2    0    0 -0.15123757769E+03 -0.12387530692E+03 -0.11220329045E+04  0.11508261099E+04  0.16500000000E+03 0.  0.
   -5000001    1    1    2    0    0  0.15123757769E+03  0.12387530692E+03 -0.20629577928E+04  0.20787587045E+04  0.16500000000E+03 0.  0.
<mgrwt>
<rscale>  0 0.53483860E+03</rscale>
<asrwt>0</asrwt>
<pdfrwt beam="1">  1        2 0.45818367E+00 0.53483860E+03</pdfrwt>
<pdfrwt beam="2">  1       -2 0.31852961E-02 0.53483860E+03</pdfrwt>
<totfact> 0.80004859E+02</totfact>
</mgrwt>
</event>
<event>
 4    1  0.5399378E-005  0.4685563E+03  0.7818608E-02  0.1022328E+00
         -2   -1    0    0    0  501 -0.00000000000E+00  0.00000000000E+00  0.31096949543E+02  0.31096949648E+02  0.25500000000E-02 0. -1.
          2   -1    0    0  501    0  0.00000000000E+00 -0.00000000000E+00 -0.17650042680E+04  0.17650042680E+04  0.25500000000E-02 0.  1.
    5000001    1    1    2    0    0  0.76645159352E+02  0.14723272249E+03 -0.82687929177E+03  0.85936390324E+03  0.16500000000E+03 0.  0.
   -5000001    1    1    2    0    0 -0.76645159352E+02 -0.14723272249E+03 -0.90702802668E+03  0.93673731441E+03  0.16500000000E+03 0.  0.
<mgrwt>
<rscale>  0 0.46855629E+03</rscale>
<asrwt>0</asrwt>
<pdfrwt beam="1">  1        2 0.25214340E+00 0.46855629E+03</pdfrwt>
<pdfrwt beam="2">  1       -2 0.44424225E-02 0.46855629E+03</pdfrwt>
<totfact> 0.26877094E+03</totfact>
</mgrwt>
</event>
<event>
 4    1  0.5399378E-005  0.6493085E+03  0.7818608E-02  0.9808078E-01
         -2   -1    0    0    0  501 -0.00000000000E+00  0.00000000000E+00  0.98870991316E+02  0.98870991349E+02  0.25500000000E-02 0. -1.
          2   -1    0    0  501    0  0.00000000000E+00 -0.00000000000E+00 -0.10660393869E+04  0.10660393869E+04  0.25500000000E-02 0.  1.
    5000001    1    1    2    0    0 -0.22237044101E+03  0.13827104509E+03 -0.65943936941E+03  0.72845917997E+03  0.16500000000E+03 0.  0.
   -5000001    1    1    2    0    0  0.22237044101E+03 -0.13827104509E+03 -0.30772902621E+03  0.43645119832E+03  0.16500000000E+03 0.  0.
<mgrwt>
<rscale>  0 0.64930847E+03</rscale>
<asrwt>0</asrwt>
<pdfrwt beam="1">  1        2 0.15229133E+00 0.64930847E+03</pdfrwt>
<pdfrwt beam="2">  1       -2 0.14124428E-01 0.64930847E+03</pdfrwt>
<totfact> 0.99813415E+02</totfact>
</mgrwt>
</event>
<event>
 4    1  0.5399378E-005  0.5199519E+03  0.7818608E-02  0.1008699E+00
         -2   -1    0    0    0  501 -0.00000000000E+00  0.00000000000E+00  0.19448570757E+02  0.19448570924E+02  0.25500000000E-02 0. -1.
          2   -1    0    0  501    0  0.00000000000E+00 -0.00000000000E+00 -0.34751901956E+04  0.34751901956E+04  0.25500000000E-02 0.  1.
    5000001    1    1    2    0    0  0.12866311408E+03  0.15300708248E+03 -0.15939342298E+04  0.16148735842E+04  0.16500000000E+03 0.  0.
   -5000001    1    1    2    0    0 -0.12866311408E+03 -0.15300708248E+03 -0.18618073950E+04  0.18797651822E+04  0.16500000000E+03 0.  0.
<mgrwt>
<rscale>  0 0.51995185E+03</rscale>
<asrwt>0</asrwt>
<pdfrwt beam="1">  1        2 0.49645534E+00 0.51995185E+03</pdfrwt>
<pdfrwt beam="2">  1       -2 0.27783695E-02 0.51995185E+03</pdfrwt>
<totfact> 0.69190849E+02</totfact>
</mgrwt>
</event>
<event>
 4    1  0.5399378E-005  0.4070148E+03  0.7818608E-02  0.1041377E+00
          2   -1    0    0  501    0  0.00000000000E+00  0.00000000000E+00  0.60541919405E+02  0.60541919459E+02  0.25500000000E-02 0.  1.
         -2   -1    0    0    0  501 -0.00000000000E+00 -0.00000000000E+00 -0.68407583369E+03  0.68407583369E+03  0.25500000000E-02 0. -1.
    5000001    1    1    2    0    0  0.11236197228E+03  0.72881354129E+01 -0.38290298818E+03  0.43187732991E+03  0.16500000000E+03 0.  0.
   -5000001    1    1    2    0    0 -0.11236197228E+03 -0.72881354129E+01 -0.24063092610E+03  0.31274042324E+03  0.16500000000E+03 0.  0.
<mgrwt>
<rscale>  0 0.40701481E+03</rscale>
<asrwt>0</asrwt>
<pdfrwt beam="1">  1        2 0.86488460E-02 0.40701481E+03</pdfrwt>
<pdfrwt beam="2">  1       -2 0.97725115E-01 0.40701481E+03</pdfrwt>
<totfact> 0.70155561E+02</totfact>
</mgrwt>
</event>
<event>
 4    1  0.5399378E-005  0.4040374E+03  0.7818608E-02  0.1042391E+00
         -2   -1    0    0    0  501 -0.00000000000E+00  0.00000000000E+00  0.15748936819E+03  0.15748936821E+03  0.25500000000E-02 0. -1.
          2   -1    0    0  501    0  0.00000000000E+00 -0.00000000000E+00 -0.25913849743E+03  0.25913849744E+03  0.25500000000E-02 0.  1.
    5000001    1    1    2    0    0  0.48944339599E+01 -0.99861011576E+02  0.10962420662E+02  0.19323910521E+03  0.16500000000E+03 0.  0.
   -5000001    1    1    2    0    0 -0.48944339599E+01  0.99861011576E+02 -0.11261154991E+03  0.22338876044E+03  0.16500000000E+03 0.  0.
<mgrwt>
<rscale>  0 0.40403742E+03</rscale>
<asrwt>0</asrwt>
<pdfrwt beam="1">  1        2 0.37019785E-01 0.40403742E+03</pdfrwt>
<pdfrwt beam="2">  1       -2 0.22498481E-01 0.40403742E+03</pdfrwt>
<totfact> 0.23997094E+03</totfact>
</mgrwt>
</event>
<event>
 4    1  0.5399378E-005  0.3609181E+03  0.7818608E-02  0.1058221E+00
          2   -1    0    0  501    0  0.00000000000E+00  0.00000000000E+00  0.10086453441E+04  0.10086453441E+04  0.25500000000E-02 0.  1.
         -2   -1    0    0    0  501 -0.00000000000E+00 -0.00000000000E+00 -0.32286344990E+02  0.32286345091E+02  0.25500000000E-02 0. -1.
    5000001    1    1    2    0    0  0.36094468704E+02 -0.62857147746E+02  0.46133393451E+03  0.49528560531E+03  0.16500000000E+03 0.  0.
   -5000001    1    1    2    0    0 -0.36094468704E+02  0.62857147746E+02  0.51502506456E+03  0.54564608385E+03  0.16500000000E+03 0.  0.
<mgrwt>
<rscale>  0 0.36091812E+03</rscale>
<asrwt>0</asrwt>
<pdfrwt beam="1">  1        2 0.14409219E+00 0.36091812E+03</pdfrwt>
<pdfrwt beam="2">  1       -2 0.46123350E-02 0.36091812E+03</pdfrwt>
<totfact> 0.64075180E+03</totfact>
</mgrwt>
</event>
<event>
 4    1  0.5399378E-005  0.3941149E+03  0.7818608E-02  0.1045837E+00
         -2   -1    0    0    0  501 -0.00000000000E+00  0.00000000000E+00  0.62900561005E+02  0.62900561057E+02  0.25500000000E-02 0. -1.
          2   -1    0    0  501    0  0.00000000000E+00 -0.00000000000E+00 -0.61734954694E+03  0.61734954695E+03  0.25500000000E-02 0.  1.
    5000001    1    1    2    0    0  0.95345684735E+02 -0.40067571789E+02 -0.32930406372E+03  0.38257336067E+03  0.16500000000E+03 0.  0.
   -5000001    1    1    2    0    0 -0.95345684735E+02  0.40067571789E+02 -0.22514492221E+03  0.29767674734E+03  0.16500000000E+03 0.  0.
<mgrwt>
<rscale>  0 0.39411487E+03</rscale>
<asrwt>0</asrwt>
<pdfrwt beam="1">  1        2 0.88192789E-01 0.39411487E+03</pdfrwt>
<pdfrwt beam="2">  1       -2 0.89857948E-02 0.39411487E+03</pdfrwt>
<totfact> 0.42165016E+03</totfact>
</mgrwt>
</event>
<event>
 4    1  0.5399378E-005  0.5427830E+03  0.7818608E-02  0.1003178E+00
         -2   -1    0    0    0  501 -0.00000000000E+00  0.00000000000E+00  0.69676176732E+02  0.69676176778E+02  0.25500000000E-02 0. -1.
          2   -1    0    0  501    0  0.00000000000E+00 -0.00000000000E+00 -0.10570806162E+04  0.10570806162E+04  0.25500000000E-02 0.  1.
    5000001    1    1    2    0    0  0.16178242220E+03  0.49801119548E+02 -0.21694160259E+03  0.32084632237E+03  0.16500000000E+03 0.  0.
   -5000001    1    1    2    0    0 -0.16178242220E+03 -0.49801119548E+02 -0.77046283687E+03  0.80591047061E+03  0.16500000000E+03 0.  0.
<mgrwt>
<rscale>  0 0.54278296E+03</rscale>
<asrwt>0</asrwt>
<pdfrwt beam="1">  1        2 0.15101151E+00 0.54278296E+03</pdfrwt>
<pdfrwt beam="2">  1       -2 0.99537402E-02 0.54278296E+03</pdfrwt>
<totfact> 0.18007951E+03</totfact>
</mgrwt>
</event>
<event>
 4    1  0.5399378E-005  0.4386661E+03  0.7818608E-02  0.1031157E+00
         -2   -1    0    0    0  501 -0.00000000000E+00  0.00000000000E+00  0.34206177359E+02  0.34206177454E+02  0.25500000000E-02 0. -1.
          2   -1    0    0  501    0  0.00000000000E+00 -0.00000000000E+00 -0.14063827885E+04  0.14063827885E+04  0.25500000000E-02 0.  1.
    5000001    1    1    2    0    0 -0.12877478476E+03 -0.62158484996E+02 -0.75461009110E+03  0.78556222671E+03  0.16500000000E+03 0.  0.
   -5000001    1    1    2    0    0  0.12877478476E+03  0.62158484996E+02 -0.61756652000E+03  0.65502673920E+03  0.16500000000E+03 0.  0.
<mgrwt>
<rscale>  0 0.43866607E+03</rscale>
<asrwt>0</asrwt>
<pdfrwt beam="1">  1        2 0.20091179E+00 0.43866607E+03</pdfrwt>
<pdfrwt beam="2">  1       -2 0.48865977E-02 0.43866607E+03</pdfrwt>
<totfact> 0.35405145E+03</totfact>
</mgrwt>
</event>
<event>
 4    1  0.5399378E-005  0.3897824E+03  0.7818608E-02  0.1047376E+00
          2   -1    0    0  501    0  0.00000000000E+00  0.00000000000E+00  0.10937146448E+04  0.10937146448E+04  0.25500000000E-02 0. -1.
         -2   -1    0    0    0  501 -0.00000000000E+00 -0.00000000000E+00 -0.34728050548E+02  0.34728050642E+02  0.25500000000E-02 0.  1.
    5000001    1    1    2    0    0 -0.89931292471E+02 -0.17804892144E+02  0.66992379302E+03  0.69600829019E+03  0.16500000000E+03 0.  0.
   -5000001    1    1    2    0    0  0.89931292471E+02  0.17804892144E+02  0.38906280121E+03  0.43243440524E+03  0.16500000000E+03 0.  0.
<mgrwt>
<rscale>  0 0.38978239E+03</rscale>
<asrwt>0</asrwt>
<pdfrwt beam="1">  1        2 0.15624493E+00 0.38978239E+03</pdfrwt>
<pdfrwt beam="2">  1       -2 0.49611507E-02 0.38978239E+03</pdfrwt>
<totfact> 0.51185432E+03</totfact>
</mgrwt>
</event>
<event>
 4    1  0.5399378E-005  0.4558360E+03  0.7818608E-02  0.1025996E+00
         -2   -1    0    0    0  501 -0.00000000000E+00  0.00000000000E+00  0.12308929758E+03  0.12308929761E+03  0.25500000000E-02 0. -1.
          2   -1    0    0  501    0  0.00000000000E+00 -0.00000000000E+00 -0.42202390281E+03  0.42202390281E+03  0.25500000000E-02 0.  1.
    5000001    1    1    2    0    0  0.48491252043E+02  0.13909034227E+03 -0.21522947827E+03  0.30861991697E+03  0.16500000000E+03 0.  0.
   -5000001    1    1    2    0    0 -0.48491252043E+02 -0.13909034227E+03 -0.83705126959E+02  0.23649328345E+03  0.16500000000E+03 0.  0.
<mgrwt>
<rscale>  0 0.45583605E+03</rscale>
<asrwt>0</asrwt>
<pdfrwt beam="1">  1        2 0.60289128E-01 0.45583605E+03</pdfrwt>
<pdfrwt beam="2">  1       -2 0.17584186E-01 0.45583605E+03</pdfrwt>
<totfact> 0.21562781E+03</totfact>
</mgrwt>
</event>
<event>
 4    1  0.5399378E-005  0.4835446E+03  0.7818608E-02  0.1018166E+00
         -2   -1    0    0    0  501 -0.00000000000E+00  0.00000000000E+00  0.21774020944E+02  0.21774021093E+02  0.25500000000E-02 0. -1.
          2   -1    0    0  501    0  0.00000000000E+00 -0.00000000000E+00 -0.26845684040E+04  0.26845684040E+04  0.25500000000E-02 0.  1.
    5000001    1    1    2    0    0 -0.15386737773E+03  0.22993183452E+02 -0.18005011790E+04  0.18147267982E+04  0.16500000000E+03 0.  0.
   -5000001    1    1    2    0    0  0.15386737773E+03 -0.22993183452E+02 -0.86229320405E+03  0.89161562692E+03  0.16500000000E+03 0.  0.
<mgrwt>
<rscale>  0 0.48354462E+03</rscale>
<asrwt>0</asrwt>
<pdfrwt beam="1">  1        2 0.38350956E+00 0.48354462E+03</pdfrwt>
<pdfrwt beam="2">  1       -2 0.31105761E-02 0.48354462E+03</pdfrwt>
<totfact> 0.15917916E+03</totfact>
</mgrwt>
</event>
<event>
 4    1  0.5399378E-005  0.6119492E+03  0.7818608E-02  0.9880921E-01
          2   -1    0    0  501    0  0.00000000000E+00  0.00000000000E+00  0.10698250211E+04  0.10698250211E+04  0.25500000000E-02 0.  1.
         -2   -1    0    0    0  501 -0.00000000000E+00 -0.00000000000E+00 -0.87510064173E+02  0.87510064210E+02  0.25500000000E-02 0. -1.
    5000001    1    1    2    0    0  0.84165960611E+02  0.24302872371E+03  0.52097577157E+03  0.60397650951E+03  0.16500000000E+03 0.  0.
   -5000001    1    1    2    0    0 -0.84165960611E+02 -0.24302872371E+03  0.46133918536E+03  0.55335857581E+03  0.16500000000E+03 0.  0.
<mgrwt>
<rscale>  0 0.61194920E+03</rscale>
<asrwt>0</asrwt>
<pdfrwt beam="1">  1        2 0.15283214E+00 0.61194920E+03</pdfrwt>
<pdfrwt beam="2">  1       -2 0.12501439E-01 0.61194920E+03</pdfrwt>
<totfact> 0.12179141E+03</totfact>
</mgrwt>
</event>
<event>
 4    1  0.5399378E-005  0.8310243E+03  0.7818608E-02  0.9516165E-01
         -2   -1    0    0    0  501 -0.00000000000E+00  0.00000000000E+00  0.56234630309E+02  0.56234630367E+02  0.25500000000E-02 0.  1.
          2   -1    0    0  501    0  0.00000000000E+00 -0.00000000000E+00 -0.30701783190E+04  0.30701783190E+04  0.25500000000E-02 0. -1.
    5000001    1    1    2    0    0  0.74189656699E+02 -0.15470867514E+03 -0.22571477082E+03  0.32804121249E+03  0.16500000000E+03 0.  0.
   -5000001    1    1    2    0    0 -0.74189656699E+02  0.15470867514E+03 -0.27882289179E+04  0.27983717369E+04  0.16500000000E+03 0.  0.
<mgrwt>
<rscale>  0 0.83102429E+03</rscale>
<asrwt>0</asrwt>
<pdfrwt beam="1">  1        2 0.43859680E+00 0.83102429E+03</pdfrwt>
<pdfrwt beam="2">  1       -2 0.80335206E-02 0.83102429E+03</pdfrwt>
<totfact> 0.21914606E+02</totfact>
</mgrwt>
</event>
<event>
 4    1  0.5399378E-005  0.6733033E+03  0.7818608E-02  0.9764009E-01
         -2   -1    0    0    0  501 -0.00000000000E+00  0.00000000000E+00  0.13997805817E+03  0.13997805820E+03  0.25500000000E-02 0. -1.
          2   -1    0    0  501    0  0.00000000000E+00 -0.00000000000E+00 -0.80965779421E+03  0.80965779421E+03  0.25500000000E-02 0.  1.
    5000001    1    1    2    0    0 -0.24245864791E+03 -0.58398397306E+02 -0.55294264743E+03  0.62862320996E+03  0.16500000000E+03 0.  0.
   -5000001    1    1    2    0    0  0.24245864791E+03  0.58398397306E+02 -0.11673708860E+03  0.32101264245E+03  0.16500000000E+03 0.  0.
<mgrwt>
<rscale>  0 0.67330328E+03</rscale>
<asrwt>0</asrwt>
<pdfrwt beam="1">  1        2 0.11566540E+00 0.67330328E+03</pdfrwt>
<pdfrwt beam="2">  1       -2 0.19996866E-01 0.67330328E+03</pdfrwt>
<totfact> 0.80144930E+02</totfact>
</mgrwt>
</event>
<event>
 4    1  0.5399378E-005  0.4209095E+03  0.7818608E-02  0.1036771E+00
         -2   -1    0    0    0  501 -0.00000000000E+00  0.00000000000E+00  0.19582455313E+04  0.19582455313E+04  0.25500000000E-02 0. -1.
          2   -1    0    0  501    0  0.00000000000E+00 -0.00000000000E+00 -0.22617792895E+02  0.22617793039E+02  0.25500000000E-02 0.  1.
    5000001    1    1    2    0    0  0.97540867302E+02  0.70163657621E+02  0.72651027136E+03  0.75463854529E+03  0.16500000000E+03 0.  0.
   -5000001    1    1    2    0    0 -0.97540867302E+02 -0.70163657621E+02  0.12091174671E+04  0.12262247791E+04  0.16500000000E+03 0.  0.
<mgrwt>
<rscale>  0 0.42090945E+03</rscale>
<asrwt>0</asrwt>
<pdfrwt beam="1">  1        2 0.32311135E-02 0.42090945E+03</pdfrwt>
<pdfrwt beam="2">  1       -2 0.27974934E+00 0.42090945E+03</pdfrwt>
<totfact> 0.13471363E+02</totfact>
</mgrwt>
</event>
<event>
 4    1  0.5399378E-005  0.6094639E+03  0.7818608E-02  0.9885964E-01
         -2   -1    0    0    0  501 -0.00000000000E+00  0.00000000000E+00  0.18948434021E+03  0.18948434022E+03  0.25500000000E-02 0. -1.
          2   -1    0    0  501    0  0.00000000000E+00 -0.00000000000E+00 -0.49007504434E+03  0.49007504435E+03  0.25500000000E-02 0.  1.
    5000001    1    1    2    0    0 -0.33272040872E+02 -0.24352037356E+03 -0.23091113223E+03  0.37543861287E+03  0.16500000000E+03 0.  0.
   -5000001    1    1    2    0    0  0.33272040872E+02  0.24352037356E+03 -0.69679571903E+02  0.30412077170E+03  0.16500000000E+03 0.  0.
<mgrwt>
<rscale>  0 0.60946385E+03</rscale>
<asrwt>0</asrwt>
<pdfrwt beam="1">  1        2 0.70010720E-01 0.60946385E+03</pdfrwt>
<pdfrwt beam="2">  1       -2 0.27069192E-01 0.60946385E+03</pdfrwt>
<totfact> 0.85451986E+02</totfact>
</mgrwt>
</event>
<event>
 4    1  0.5399378E-005  0.7434725E+03  0.7818608E-02  0.9645647E-01
          2   -1    0    0  501    0  0.00000000000E+00  0.00000000000E+00  0.43654349336E+03  0.43654349337E+03  0.25500000000E-02 0.  1.
         -2   -1    0    0    0  501 -0.00000000000E+00 -0.00000000000E+00 -0.31655000749E+03  0.31655000750E+03  0.25500000000E-02 0. -1.
    5000001    1    1    2    0    0  0.11801586858E+03 -0.28183194177E+03 -0.74407373726E+02  0.35513158956E+03  0.16500000000E+03 0.  0.
   -5000001    1    1    2    0    0 -0.11801586858E+03  0.28183194177E+03  0.19440085959E+03  0.39796191131E+03  0.16500000000E+03 0.  0.
<mgrwt>
<rscale>  0 0.74347252E+03</rscale>
<asrwt>0</asrwt>
<pdfrwt beam="1">  1        2 0.62363356E-01 0.74347252E+03</pdfrwt>
<pdfrwt beam="2">  1       -2 0.45221429E-01 0.74347252E+03</pdfrwt>
<totfact> 0.36596194E+02</totfact>
</mgrwt>
</event>
<event>
 4    1  0.5399378E-005  0.5555575E+03  0.7818608E-02  0.1000216E+00
         -2   -1    0    0    0  501 -0.00000000000E+00  0.00000000000E+00  0.15245432395E+03  0.15245432397E+03  0.25500000000E-02 0. -1.
          2   -1    0    0  501    0  0.00000000000E+00 -0.00000000000E+00 -0.50612566688E+03  0.50612566689E+03  0.25500000000E-02 0.  1.
    5000001    1    1    2    0    0 -0.15524967416E+03 -0.14008043170E+03 -0.83410852645E+02  0.27911889762E+03  0.16500000000E+03 0.  0.
   -5000001    1    1    2    0    0  0.15524967416E+03  0.14008043170E+03 -0.27026049028E+03  0.37946109324E+03  0.16500000000E+03 0.  0.
<mgrwt>
<rscale>  0 0.55555754E+03</rscale>
<asrwt>0</asrwt>
<pdfrwt beam="1">  1        2 0.72303666E-01 0.55555754E+03</pdfrwt>
<pdfrwt beam="2">  1       -2 0.21779189E-01 0.55555754E+03</pdfrwt>
<totfact> 0.12156396E+03</totfact>
</mgrwt>
</event>
<event>
 4    1  0.5399378E-005  0.4469363E+03  0.7818608E-02  0.1028640E+00
          2   -1    0    0  501    0  0.00000000000E+00  0.00000000000E+00  0.78059880460E+03  0.78059880460E+03  0.25500000000E-02 0.  1.
         -2   -1    0    0    0  501 -0.00000000000E+00 -0.00000000000E+00 -0.63973970391E+02  0.63973970441E+02  0.25500000000E-02 0. -1.
    5000001    1    1    2    0    0  0.62933568585E+02 -0.12222126975E+03  0.47502044603E+03  0.52131381814E+03  0.16500000000E+03 0.  0.
   -5000001    1    1    2    0    0 -0.62933568585E+02  0.12222126975E+03  0.24160438817E+03  0.32325895690E+03  0.16500000000E+03 0.  0.
<mgrwt>
<rscale>  0 0.44693626E+03</rscale>
<asrwt>0</asrwt>
<pdfrwt beam="1">  1        2 0.11151411E+00 0.44693626E+03</pdfrwt>
<pdfrwt beam="2">  1       -2 0.91391393E-02 0.44693626E+03</pdfrwt>
<totfact> 0.30977870E+03</totfact>
</mgrwt>
</event>
<event>
 4    1  0.5399378E-005  0.7500253E+03  0.7818608E-02  0.9635311E-01
         -2   -1    0    0    0  501 -0.00000000000E+00  0.00000000000E+00  0.38239410954E+03  0.38239410955E+03  0.25500000000E-02 0. -1.
          2   -1    0    0  501    0  0.00000000000E+00 -0.00000000000E+00 -0.36777372125E+03  0.36777372125E+03  0.25500000000E-02 0.  1.
    5000001    1    1    2    0    0  0.44262875633E+02  0.32706913913E+03 -0.59606033813E+02  0.37377975226E+03  0.16500000000E+03 0.  0.
   -5000001    1    1    2    0    0 -0.44262875633E+02 -0.32706913913E+03  0.74226422105E+02  0.37638807854E+03  0.16500000000E+03 0.  0.
<mgrwt>
<rscale>  0 0.75002535E+03</rscale>
<asrwt>0</asrwt>
<pdfrwt beam="1">  1        2 0.52539103E-01 0.75002535E+03</pdfrwt>
<pdfrwt beam="2">  1       -2 0.54627730E-01 0.75002535E+03</pdfrwt>
<totfact> 0.30196616E+02</totfact>
</mgrwt>
</event>
<event>
 4    1  0.5399378E-005  0.4004613E+03  0.7818608E-02  0.1043620E+00
         -2   -1    0    0    0  501 -0.00000000000E+00  0.00000000000E+00  0.49404389409E+02  0.49404389475E+02  0.25500000000E-02 0. -1.
          2   -1    0    0  501    0  0.00000000000E+00 -0.00000000000E+00 -0.81151326725E+03  0.81151326726E+03  0.25500000000E-02 0.  1.
    5000001    1    1    2    0    0 -0.38415564115E+02  0.10052474211E+03 -0.45815874173E+03  0.49871375754E+03  0.16500000000E+03 0.  0.
   -5000001    1    1    2    0    0  0.38415564115E+02 -0.10052474211E+03 -0.30395013612E+03  0.36220389919E+03  0.16500000000E+03 0.  0.
<mgrwt>
<rscale>  0 0.40046132E+03</rscale>
<asrwt>0</asrwt>
<pdfrwt beam="1">  1        2 0.11593046E+00 0.40046132E+03</pdfrwt>
<pdfrwt beam="2">  1       -2 0.70577704E-02 0.40046132E+03</pdfrwt>
<totfact> 0.44332545E+03</totfact>
</mgrwt>
</event>
<event>
 4    1  0.5399378E-005  0.5552662E+03  0.7818608E-02  0.1000282E+00
         -2   -1    0    0    0  501 -0.00000000000E+00  0.00000000000E+00  0.66502201681E+02  0.66502201730E+02  0.25500000000E-02 0. -1.
          2   -1    0    0  501    0  0.00000000000E+00 -0.00000000000E+00 -0.11590613473E+04  0.11590613473E+04  0.25500000000E-02 0.  1.
    5000001    1    1    2    0    0  0.11997913198E+03  0.83622342754E+02 -0.91867886580E+03  0.94476639800E+03  0.16500000000E+03 0.  0.
   -5000001    1    1    2    0    0 -0.11997913198E+03 -0.83622342754E+02 -0.17388027981E+03  0.28079715103E+03  0.16500000000E+03 0.  0.
<mgrwt>
<rscale>  0 0.55526618E+03</rscale>
<asrwt>0</asrwt>
<pdfrwt beam="1">  1        2 0.16558018E+00 0.55526618E+03</pdfrwt>
<pdfrwt beam="2">  1       -2 0.95003152E-02 0.55526618E+03</pdfrwt>
<totfact> 0.16947239E+03</totfact>
</mgrwt>
</event>
<event>
 4    1  0.5399378E-005  0.6137343E+03  0.7818608E-02  0.9877314E-01
          2   -1    0    0  501    0  0.00000000000E+00  0.00000000000E+00  0.20044551872E+04  0.20044551872E+04  0.25500000000E-02 0.  1.
         -2   -1    0    0    0  501 -0.00000000000E+00 -0.00000000000E+00 -0.46979077677E+02  0.46979077746E+02  0.25500000000E-02 0. -1.
    5000001    1    1    2    0    0  0.18968944737E+03 -0.92332741977E+02  0.14793953627E+04  0.15034437338E+04  0.16500000000E+03 0.  0.
   -5000001    1    1    2    0    0 -0.18968944737E+03  0.92332741977E+02  0.47808074681E+03  0.54799053108E+03  0.16500000000E+03 0.  0.
<mgrwt>
<rscale>  0 0.61373433E+03</rscale>
<asrwt>0</asrwt>
<pdfrwt beam="1">  1        2 0.28635073E+00 0.61373433E+03</pdfrwt>
<pdfrwt beam="2">  1       -2 0.67112972E-02 0.61373433E+03</pdfrwt>
<totfact> 0.10667425E+03</totfact>
</mgrwt>
</event>
<event>
 4    1  0.5399378E-005  0.6659715E+03  0.7818608E-02  0.9777263E-01
         -2   -1    0    0    0  501 -0.00000000000E+00  0.00000000000E+00  0.28472773057E+02  0.28472773171E+02  0.25500000000E-02 0. -1.
          2   -1    0    0  501    0  0.00000000000E+00 -0.00000000000E+00 -0.38942290182E+04  0.38942290182E+04  0.25500000000E-02 0.  1.
    5000001    1    1    2    0    0 -0.94057174223E+02  0.27350031111E+03 -0.19192832590E+04  0.19479533877E+04  0.16500000000E+03 0.  0.
   -5000001    1    1    2    0    0  0.94057174223E+02 -0.27350031111E+03 -0.19464729862E+04  0.19747484037E+04  0.16500000000E+03 0.  0.
<mgrwt>
<rscale>  0 0.66597147E+03</rscale>
<asrwt>0</asrwt>
<pdfrwt beam="1">  1        2 0.55631809E+00 0.66597147E+03</pdfrwt>
<pdfrwt beam="2">  1       -2 0.40675415E-02 0.66597147E+03</pdfrwt>
<totfact> 0.20909365E+02</totfact>
</mgrwt>
</event>
<event>
 4    1  0.5399378E-005  0.7256910E+03  0.7818608E-02  0.9674279E-01
          2   -1    0    0  501    0  0.00000000000E+00  0.00000000000E+00  0.71850733471E+03  0.71850733471E+03  0.25500000000E-02 0.  1.
         -2   -1    0    0    0  501 -0.00000000000E+00 -0.00000000000E+00 -0.18323661132E+03  0.18323661134E+03  0.25500000000E-02 0. -1.
    5000001    1    1    2    0    0  0.17246088152E+03 -0.26896060929E+03  0.32786347969E+03  0.48662308445E+03  0.16500000000E+03 0.  0.
   -5000001    1    1    2    0    0 -0.17246088152E+03  0.26896060929E+03  0.20740724370E+03  0.41512086161E+03  0.16500000000E+03 0.  0.
<mgrwt>
<rscale>  0 0.72569098E+03</rscale>
<asrwt>0</asrwt>
<pdfrwt beam="1">  1        2 0.10264391E+00 0.72569098E+03</pdfrwt>
<pdfrwt beam="2">  1       -2 0.26176658E-01 0.72569098E+03</pdfrwt>
<totfact> 0.57646790E+02</totfact>
</mgrwt>
</event>
<event>
 4    1  0.5399378E-005  0.5320434E+03  0.7818608E-02  0.1005738E+00
          2   -1    0    0  501    0  0.00000000000E+00  0.00000000000E+00  0.81509463443E+03  0.81509463443E+03  0.25500000000E-02 0.  1.
         -2   -1    0    0    0  501 -0.00000000000E+00 -0.00000000000E+00 -0.86821271753E+02  0.86821271790E+02  0.25500000000E-02 0. -1.
    5000001    1    1    2    0    0 -0.15683021966E+03 -0.58476576649E+02  0.15290099850E+03  0.28039069735E+03  0.16500000000E+03 0.  0.
   -5000001    1    1    2    0    0  0.15683021966E+03  0.58476576649E+02  0.57537236417E+03  0.62152520887E+03  0.16500000000E+03 0.  0.
<mgrwt>
<rscale>  0 0.53204343E+03</rscale>
<asrwt>0</asrwt>
<pdfrwt beam="1">  1        2 0.11644209E+00 0.53204343E+03</pdfrwt>
<pdfrwt beam="2">  1       -2 0.12403039E-01 0.53204343E+03</pdfrwt>
<totfact> 0.17882464E+03</totfact>
</mgrwt>
</event>
<event>
 4    1  0.5399378E-005  0.8918662E+03  0.7818608E-02  0.9435807E-01
         -2   -1    0    0    0  501 -0.00000000000E+00  0.00000000000E+00  0.52025197474E+02  0.52025197537E+02  0.25500000000E-02 0. -1.
          2   -1    0    0  501    0  0.00000000000E+00 -0.00000000000E+00 -0.38223080801E+04  0.38223080801E+04  0.25500000000E-02 0.  1.
    5000001    1    1    2    0    0 -0.52808728193E+02 -0.18385240095E+03 -0.34814979041E+04  0.34906508165E+04  0.16500000000E+03 0.  0.
   -5000001    1    1    2    0    0  0.52808728193E+02  0.18385240095E+03 -0.28878497860E+03  0.38368246112E+03  0.16500000000E+03 0.  0.
<mgrwt>
<rscale>  0 0.89186621E+03</rscale>
<asrwt>0</asrwt>
<pdfrwt beam="1">  1        2 0.54604383E+00 0.89186621E+03</pdfrwt>
<pdfrwt beam="2">  1       -2 0.74321735E-02 0.89186621E+03</pdfrwt>
<totfact> 0.87924426E+01</totfact>
</mgrwt>
</event>
<event>
 4    1  0.5399378E-005  0.7041062E+03  0.7818608E-02  0.9710236E-01
          2   -1    0    0  501    0  0.00000000000E+00  0.00000000000E+00  0.48228501324E+04  0.48228501324E+04  0.25500000000E-02 0.  1.
         -2   -1    0    0    0  501 -0.00000000000E+00 -0.00000000000E+00 -0.25698787693E+02  0.25698787820E+02  0.25500000000E-02 0. -1.
    5000001    1    1    2    0    0 -0.12660800777E+03 -0.25978242940E+03  0.31897259141E+04  0.32070380268E+04  0.16500000000E+03 0.  0.
   -5000001    1    1    2    0    0  0.12660800777E+03  0.25978242940E+03  0.16074254306E+04  0.16415108934E+04  0.16500000000E+03 0.  0.
<mgrwt>
<rscale>  0 0.70410625E+03</rscale>
<asrwt>0</asrwt>
<pdfrwt beam="1">  1        2 0.68897886E+00 0.70410625E+03</pdfrwt>
<pdfrwt beam="2">  1       -2 0.36712540E-02 0.70410625E+03</pdfrwt>
<totfact> 0.49047896E+01</totfact>
</mgrwt>
</event>
<event>
 4    1  0.5399378E-005  0.4560297E+03  0.7818608E-02  0.1025939E+00
          2   -1    0    0  501    0  0.00000000000E+00  0.00000000000E+00  0.40559752138E+03  0.40559752139E+03  0.25500000000E-02 0.  1.
         -2   -1    0    0    0  501 -0.00000000000E+00 -0.00000000000E+00 -0.12818315516E+03  0.12818315518E+03  0.25500000000E-02 0. -1.
    5000001    1    1    2    0    0 -0.15601639014E+01  0.71319579983E+02 -0.25483138116E+02  0.18155799880E+03  0.16500000000E+03 0.  0.
   -5000001    1    1    2    0    0  0.15601639014E+01 -0.71319579983E+02  0.30289750434E+03  0.35222267777E+03  0.16500000000E+03 0.  0.
<mgrwt>
<rscale>  0 0.45602969E+03</rscale>
<asrwt>0</asrwt>
<pdfrwt beam="1">  1        2 0.57942504E-01 0.45602969E+03</pdfrwt>
<pdfrwt beam="2">  1       -2 0.18311879E-01 0.45602969E+03</pdfrwt>
<totfact> 0.21022070E+03</totfact>
</mgrwt>
</event>
<event>
 4    1  0.5399378E-005  0.7197365E+03  0.7818608E-02  0.9684063E-01
         -2   -1    0    0    0  501 -0.00000000000E+00  0.00000000000E+00  0.10660370372E+03  0.10660370375E+03  0.25500000000E-02 0. -1.
          2   -1    0    0  501    0  0.00000000000E+00 -0.00000000000E+00 -0.12148279629E+04  0.12148279629E+04  0.25500000000E-02 0.  1.
    5000001    1    1    2    0    0  0.16861818930E+03 -0.23657506064E+03 -0.30860807716E+03  0.45482282085E+03  0.16500000000E+03 0.  0.
   -5000001    1    1    2    0    0 -0.16861818930E+03  0.23657506064E+03 -0.79961618199E+03  0.86660884578E+03  0.16500000000E+03 0.  0.
<mgrwt>
<rscale>  0 0.71973651E+03</rscale>
<asrwt>0</asrwt>
<pdfrwt beam="1">  1        2 0.17354684E+00 0.71973651E+03</pdfrwt>
<pdfrwt beam="2">  1       -2 0.15229101E-01 0.71973651E+03</pdfrwt>
<totfact> 0.72016656E+02</totfact>
</mgrwt>
</event>
<event>
 4    1  0.5399378E-005  0.5079384E+03  0.7818608E-02  0.1011727E+00
          2   -1    0    0  501    0  0.00000000000E+00  0.00000000000E+00  0.47770344949E+03  0.47770344950E+03  0.25500000000E-02 0.  1.
         -2   -1    0    0    0  501 -0.00000000000E+00 -0.00000000000E+00 -0.13502176563E+03  0.13502176566E+03  0.25500000000E-02 0. -1.
    5000001    1    1    2    0    0 -0.85601310679E+02  0.17086879030E+03  0.13826900886E+03  0.28786636952E+03  0.16500000000E+03 0.  0.
   -5000001    1    1    2    0    0  0.85601310679E+02 -0.17086879030E+03  0.20441267500E+03  0.32485884564E+03  0.16500000000E+03 0.  0.
<mgrwt>
<rscale>  0 0.50793843E+03</rscale>
<asrwt>0</asrwt>
<pdfrwt beam="1">  1        2 0.68243349E-01 0.50793843E+03</pdfrwt>
<pdfrwt beam="2">  1       -2 0.19288824E-01 0.50793843E+03</pdfrwt>
<totfact> 0.16036235E+03</totfact>
</mgrwt>
</event>
<event>
 4    1  0.5399378E-005  0.5855006E+03  0.7818608E-02  0.9935953E-01
          2   -1    0    0  501    0  0.00000000000E+00  0.00000000000E+00  0.43045717158E+03  0.43045717159E+03  0.25500000000E-02 0.  1.
         -2   -1    0    0    0  501 -0.00000000000E+00 -0.00000000000E+00 -0.19909702161E+03  0.19909702162E+03  0.25500000000E-02 0. -1.
    5000001    1    1    2    0    0 -0.59925038356E+02 -0.23382154596E+03  0.13141740074E+03  0.32056053842E+03  0.16500000000E+03 0.  0.
   -5000001    1    1    2    0    0  0.59925038356E+02  0.23382154596E+03  0.99942749242E+02  0.30899365479E+03  0.16500000000E+03 0.  0.
<mgrwt>
<rscale>  0 0.58550061E+03</rscale>
<asrwt>0</asrwt>
<pdfrwt beam="1">  1        2 0.61493882E-01 0.58550061E+03</pdfrwt>
<pdfrwt beam="2">  1       -2 0.28442431E-01 0.58550061E+03</pdfrwt>
<totfact> 0.90373284E+02</totfact>
</mgrwt>
</event>
<event>
 4    1  0.5399378E-005  0.4359795E+03  0.7818608E-02  0.1031988E+00
          2   -1    0    0  501    0  0.00000000000E+00  0.00000000000E+00  0.10382304315E+04  0.10382304315E+04  0.25500000000E-02 0.  1.
         -2   -1    0    0    0  501 -0.00000000000E+00 -0.00000000000E+00 -0.45769739745E+02  0.45769739816E+02  0.25500000000E-02 0. -1.
    5000001    1    1    2    0    0 -0.68538644548E+02 -0.11995468848E+03  0.40981871472E+03  0.46288557120E+03  0.16500000000E+03 0.  0.
   -5000001    1    1    2    0    0  0.68538644548E+02  0.11995468848E+03  0.58264197707E+03  0.62111460016E+03  0.16500000000E+03 0.  0.
<mgrwt>
<rscale>  0 0.43597953E+03</rscale>
<asrwt>0</asrwt>
<pdfrwt beam="1">  1        2 0.14831862E+00 0.43597953E+03</pdfrwt>
<pdfrwt beam="2">  1       -2 0.65385347E-02 0.43597953E+03</pdfrwt>
<totfact> 0.36007083E+03</totfact>
</mgrwt>
</event>
<event>
 4    1  0.5399378E-005  0.3933377E+03  0.7818608E-02  0.1046111E+00
          2   -1    0    0  501    0  0.00000000000E+00  0.00000000000E+00  0.64786873201E+03  0.64786873201E+03  0.25500000000E-02 0.  1.
         -2   -1    0    0    0  501 -0.00000000000E+00 -0.00000000000E+00 -0.59701359468E+02  0.59701359522E+02  0.25500000000E-02 0. -1.
    5000001    1    1    2    0    0 -0.22849810292E+02  0.88695926206E+02  0.19450001739E+03  0.27100615846E+03  0.16500000000E+03 0.  0.
   -5000001    1    1    2    0    0  0.22849810292E+02 -0.88695926206E+02  0.39366735515E+03  0.43656393308E+03  0.16500000000E+03 0.  0.
<mgrwt>
<rscale>  0 0.39333774E+03</rscale>
<asrwt>0</asrwt>
<pdfrwt beam="1">  1        2 0.92552675E-01 0.39333774E+03</pdfrwt>
<pdfrwt beam="2">  1       -2 0.85287657E-02 0.39333774E+03</pdfrwt>
<totfact> 0.43286614E+03</totfact>
</mgrwt>
</event>
<event>
 4    1  0.5399378E-005  0.4833016E+03  0.7818608E-02  0.1018232E+00
         -2   -1    0    0    0  501 -0.00000000000E+00  0.00000000000E+00  0.40511690397E+02  0.40511690478E+02  0.25500000000E-02 0. -1.
          2   -1    0    0  501    0  0.00000000000E+00 -0.00000000000E+00 -0.14414381917E+04  0.14414381917E+04  0.25500000000E-02 0.  1.
    5000001    1    1    2    0    0 -0.17152063772E+03  0.29705530549E+02 -0.79082044888E+03  0.82639199540E+03  0.16500000000E+03 0.  0.
   -5000001    1    1    2    0    0  0.17152063772E+03 -0.29705530549E+02 -0.61010605246E+03  0.65555788681E+03  0.16500000000E+03 0.  0.
<mgrwt>
<rscale>  0 0.48330155E+03</rscale>
<asrwt>0</asrwt>
<pdfrwt beam="1">  1        2 0.20591971E+00 0.48330155E+03</pdfrwt>
<pdfrwt beam="2">  1       -2 0.57873852E-02 0.48330155E+03</pdfrwt>
<totfact> 0.26119915E+03</totfact>
</mgrwt>
</event>
<event>
 4    1  0.5399378E-005  0.8076969E+03  0.7818608E-02  0.9548943E-01
         -2   -1    0    0    0  501 -0.00000000000E+00  0.00000000000E+00  0.58250977895E+03  0.58250977895E+03  0.25500000000E-02 0.  1.
          2   -1    0    0  501    0  0.00000000000E+00 -0.00000000000E+00 -0.27998426020E+03  0.27998426021E+03  0.25500000000E-02 0. -1.
    5000001    1    1    2    0    0 -0.21650090208E+03  0.29674349364E+03  0.11853674010E+03  0.41976815073E+03  0.16500000000E+03 0.  0.
   -5000001    1    1    2    0    0  0.21650090208E+03 -0.29674349364E+03  0.18398877865E+03  0.44272588843E+03  0.16500000000E+03 0.  0.
<mgrwt>
<rscale>  0 0.80769690E+03</rscale>
<asrwt>0</asrwt>
<pdfrwt beam="1">  1        2 0.39997752E-01 0.80769690E+03</pdfrwt>
<pdfrwt beam="2">  1       -2 0.83215681E-01 0.80769690E+03</pdfrwt>
<totfact> 0.16402337E+02</totfact>
</mgrwt>
</event>
<event>
 4    1  0.5399378E-005  0.5344065E+03  0.7818608E-02  0.1005169E+00
         -2   -1    0    0    0  501 -0.00000000000E+00  0.00000000000E+00  0.49955036356E+02  0.49955036421E+02  0.25500000000E-02 0. -1.
          2   -1    0    0  501    0  0.00000000000E+00 -0.00000000000E+00 -0.14292366234E+04  0.14292366234E+04  0.25500000000E-02 0.  1.
    5000001    1    1    2    0    0 -0.18084896827E+03 -0.70988040699E+02 -0.46774244634E+03  0.53268531738E+03  0.16500000000E+03 0.  0.
   -5000001    1    1    2    0    0  0.18084896827E+03  0.70988040699E+02 -0.91153914071E+03  0.94650634244E+03  0.16500000000E+03 0.  0.
<mgrwt>
<rscale>  0 0.53440647E+03</rscale>
<asrwt>0</asrwt>
<pdfrwt beam="1">  1        2 0.20417663E+00 0.53440647E+03</pdfrwt>
<pdfrwt beam="2">  1       -2 0.71364347E-02 0.53440647E+03</pdfrwt>
<totfact> 0.19072366E+03</totfact>
</mgrwt>
</event>
<event>
 4    1  0.5399378E-005  0.3588429E+03  0.7818608E-02  0.1059043E+00
         -2   -1    0    0    0  501 -0.00000000000E+00  0.00000000000E+00  0.14824415178E+02  0.14824415398E+02  0.25500000000E-02 0. -1.
          2   -1    0    0  501    0  0.00000000000E+00 -0.00000000000E+00 -0.21715565975E+04  0.21715565975E+04  0.25500000000E-02 0.  1.
    5000001    1    1    2    0    0 -0.51018793693E+02 -0.30916582827E+02 -0.84971685219E+03  0.86764190846E+03  0.16500000000E+03 0.  0.
   -5000001    1    1    2    0    0  0.51018793693E+02  0.30916582827E+02 -0.13070153302E+04  0.13187391045E+04  0.16500000000E+03 0.  0.
<mgrwt>
<rscale>  0 0.35884290E+03</rscale>
<asrwt>0</asrwt>
<pdfrwt beam="1">  1        2 0.31022217E+00 0.35884290E+03</pdfrwt>
<pdfrwt beam="2">  1       -2 0.21177750E-02 0.35884290E+03</pdfrwt>
<totfact> 0.51729027E+03</totfact>
</mgrwt>
</event>
<event>
 4    1  0.5399378E-005  0.5103987E+03  0.7818608E-02  0.1011100E+00
          2   -1    0    0  501    0  0.00000000000E+00  0.00000000000E+00  0.57824772951E+03  0.57824772951E+03  0.25500000000E-02 0.  1.
         -2   -1    0    0    0  501 -0.00000000000E+00 -0.00000000000E+00 -0.11262770503E+03  0.11262770505E+03  0.25500000000E-02 0. -1.
    5000001    1    1    2    0    0  0.17804336330E+03  0.12697408522E+02  0.12760257728E+03  0.27453247736E+03  0.16500000000E+03 0.  0.
   -5000001    1    1    2    0    0 -0.17804336330E+03 -0.12697408522E+02  0.33801744720E+03  0.41634295720E+03  0.16500000000E+03 0.  0.
<mgrwt>
<rscale>  0 0.51039873E+03</rscale>
<asrwt>0</asrwt>
<pdfrwt beam="1">  1        2 0.82606819E-01 0.51039873E+03</pdfrwt>
<pdfrwt beam="2">  1       -2 0.16089672E-01 0.51039873E+03</pdfrwt>
<totfact> 0.17576760E+03</totfact>
</mgrwt>
</event>
<event>
 4    1  0.5399378E-005  0.7187069E+03  0.7818608E-02  0.9685765E-01
          2   -1    0    0  501    0  0.00000000000E+00  0.00000000000E+00  0.41129056292E+03  0.41129056293E+03  0.25500000000E-02 0.  1.
         -2   -1    0    0    0  501 -0.00000000000E+00 -0.00000000000E+00 -0.31397483499E+03  0.31397483500E+03  0.25500000000E-02 0. -1.
    5000001    1    1    2    0    0 -0.22718105859E+03 -0.19308036077E+03 -0.66482545744E+02  0.34718321962E+03  0.16500000000E+03 0.  0.
   -5000001    1    1    2    0    0  0.22718105859E+03  0.19308036077E+03  0.16379827368E+03  0.37808217831E+03  0.16500000000E+03 0.  0.
<mgrwt>
<rscale>  0 0.71870686E+03</rscale>
<asrwt>0</asrwt>
<pdfrwt beam="1">  1        2 0.58755795E-01 0.71870686E+03</pdfrwt>
<pdfrwt beam="2">  1       -2 0.44853548E-01 0.71870686E+03</pdfrwt>
<totfact> 0.39797354E+02</totfact>
</mgrwt>
</event>
<event>
 4    1  0.5399378E-005  0.5115038E+03  0.7818608E-02  0.1010819E+00
         -2   -1    0    0    0  501 -0.00000000000E+00  0.00000000000E+00  0.74622134618E+02  0.74622134661E+02  0.25500000000E-02 0. -1.
          2   -1    0    0  501    0  0.00000000000E+00 -0.00000000000E+00 -0.87653652998E+03  0.87653652998E+03  0.25500000000E-02 0.  1.
    5000001    1    1    2    0    0  0.15028267339E+03 -0.12406669817E+03 -0.42768533546E+03  0.49811361524E+03  0.16500000000E+03 0.  0.
   -5000001    1    1    2    0    0 -0.15028267339E+03  0.12406669817E+03 -0.37422905990E+03  0.45304504941E+03  0.16500000000E+03 0.  0.
<mgrwt>
<rscale>  0 0.51150377E+03</rscale>
<asrwt>0</asrwt>
<pdfrwt beam="1">  1        2 0.12521950E+00 0.51150377E+03</pdfrwt>
<pdfrwt beam="2">  1       -2 0.10660305E-01 0.51150377E+03</pdfrwt>
<totfact> 0.20845146E+03</totfact>
</mgrwt>
</event>
<event>
 4    1  0.5399378E-005  0.5924408E+03  0.7818608E-02  0.9921214E-01
          2   -1    0    0  501    0  0.00000000000E+00  0.00000000000E+00  0.21855729870E+04  0.21855729870E+04  0.25500000000E-02 0.  1.
         -2   -1    0    0    0  501 -0.00000000000E+00 -0.00000000000E+00 -0.40148059978E+02  0.40148060059E+02  0.25500000000E-02 0. -1.
    5000001    1    1    2    0    0  0.21388029241E+01  0.12250681918E+03  0.27126595675E+03  0.34032736375E+03  0.16500000000E+03 0.  0.
   -5000001    1    1    2    0    0 -0.21388029241E+01 -0.12250681918E+03  0.18741589703E+04  0.18853936834E+04  0.16500000000E+03 0.  0.
<mgrwt>
<rscale>  0 0.59244077E+03</rscale>
<asrwt>0</asrwt>
<pdfrwt beam="1">  1        2 0.31222474E+00 0.59244077E+03</pdfrwt>
<pdfrwt beam="2">  1       -2 0.57354366E-02 0.59244077E+03</pdfrwt>
<totfact> 0.11082540E+03</totfact>
</mgrwt>
</event>
<event>
 4    1  0.5399378E-005  0.4476615E+03  0.7818608E-02  0.1028422E+00
          2   -1    0    0  501    0  0.00000000000E+00  0.00000000000E+00  0.35708116543E+04  0.35708116543E+04  0.25500000000E-02 0.  1.
         -2   -1    0    0    0  501 -0.00000000000E+00 -0.00000000000E+00 -0.14030478682E+02  0.14030478914E+02  0.25500000000E-02 0. -1.
    5000001    1    1    2    0    0  0.64790419019E+02 -0.11694104130E+03  0.12120202680E+04  0.12304841062E+04  0.16500000000E+03 0.  0.
   -5000001    1    1    2    0    0 -0.64790419019E+02  0.11694104130E+03  0.23447609076E+04  0.23543580270E+04  0.16500000000E+03 0.  0.
<mgrwt>
<rscale>  0 0.44766147E+03</rscale>
<asrwt>0</asrwt>
<pdfrwt beam="1">  1        2 0.51011649E+00 0.44766147E+03</pdfrwt>
<pdfrwt beam="2">  1       -2 0.20043520E-02 0.44766147E+03</pdfrwt>
<totfact> 0.10003419E+03</totfact>
</mgrwt>
</event>
<event>
 4    1  0.5399378E-005  0.6821707E+03  0.7818608E-02  0.9748218E-01
         -2   -1    0    0    0  501 -0.00000000000E+00  0.00000000000E+00  0.12717478826E+03  0.12717478829E+03  0.25500000000E-02 0. -1.
          2   -1    0    0  501    0  0.00000000000E+00 -0.00000000000E+00 -0.91479777788E+03  0.91479777788E+03  0.25500000000E-02 0.  1.
    5000001    1    1    2    0    0  0.16388110515E+03  0.11048268373E+03 -0.73553009960E+03  0.77929004065E+03  0.16500000000E+03 0.  0.
   -5000001    1    1    2    0    0 -0.16388110515E+03 -0.11048268373E+03 -0.52092890010E+02  0.26268252553E+03  0.16500000000E+03 0.  0.
<mgrwt>
<rscale>  0 0.68217069E+03</rscale>
<asrwt>0</asrwt>
<pdfrwt beam="1">  1        2 0.13068539E+00 0.68217069E+03</pdfrwt>
<pdfrwt beam="2">  1       -2 0.18167827E-01 0.68217069E+03</pdfrwt>
<totfact> 0.80553761E+02</totfact>
</mgrwt>
</event>
<event>
 4    1  0.5399378E-005  0.8065929E+03  0.7818608E-02  0.9550523E-01
          2   -1    0    0  501    0  0.00000000000E+00  0.00000000000E+00  0.21344504236E+04  0.21344504236E+04  0.25500000000E-02 0.  1.
         -2   -1    0    0    0  501 -0.00000000000E+00 -0.00000000000E+00 -0.76201359141E+02  0.76201359184E+02  0.25500000000E-02 0. -1.
    5000001    1    1    2    0    0  0.18685662880E+03 -0.28676226232E+03  0.65861875851E+03  0.76036285014E+03  0.16500000000E+03 0.  0.
   -5000001    1    1    2    0    0 -0.18685662880E+03  0.28676226232E+03  0.13996303059E+04  0.14502889326E+04  0.16500000000E+03 0.  0.
<mgrwt>
<rscale>  0 0.80659289E+03</rscale>
<asrwt>0</asrwt>
<pdfrwt beam="1">  1        2 0.30492140E+00 0.80659289E+03</pdfrwt>
<pdfrwt beam="2">  1       -2 0.10885912E-01 0.80659289E+03</pdfrwt>
<totfact> 0.41635144E+02</totfact>
</mgrwt>
</event>
<event>
 4    1  0.5399378E-005  0.5149521E+03  0.7818608E-02  0.1009948E+00
         -2   -1    0    0    0  501 -0.00000000000E+00  0.00000000000E+00  0.90403607254E+02  0.90403607290E+02  0.25500000000E-02 0.  1.
          2   -1    0    0  501    0  0.00000000000E+00 -0.00000000000E+00 -0.73331058654E+03  0.73331058654E+03  0.25500000000E-02 0. -1.
    5000001    1    1    2    0    0 -0.13999842750E+03  0.57302963007E+02 -0.52495886383E+03  0.57069255995E+03  0.16500000000E+03 0.  0.
   -5000001    1    1    2    0    0  0.13999842750E+03 -0.57302963007E+02 -0.11794811546E+03  0.25302163388E+03  0.16500000000E+03 0.  0.
<mgrwt>
<rscale>  0 0.51495212E+03</rscale>
<asrwt>0</asrwt>
<pdfrwt beam="1">  1        2 0.10475865E+00 0.51495212E+03</pdfrwt>
<pdfrwt beam="2">  1       -2 0.12914801E-01 0.51495212E+03</pdfrwt>
<totfact> 0.19106832E+03</totfact>
</mgrwt>
</event>
<event>
 4    1  0.5399378E-005  0.7788381E+03  0.7818608E-02  0.9591163E-01
          2   -1    0    0  501    0  0.00000000000E+00  0.00000000000E+00  0.59734026086E+03  0.59734026086E+03  0.25500000000E-02 0.  1.
         -2   -1    0    0    0  501 -0.00000000000E+00 -0.00000000000E+00 -0.25387071523E+03  0.25387071525E+03  0.25500000000E-02 0. -1.
    5000001    1    1    2    0    0 -0.98893235197E+02 -0.30967137685E+03  0.22096071251E+02  0.36522523184E+03  0.16500000000E+03 0.  0.
   -5000001    1    1    2    0    0  0.98893235197E+02  0.30967137685E+03  0.32137347437E+03  0.48598574427E+03  0.16500000000E+03 0.  0.
<mgrwt>
<rscale>  0 0.77883811E+03</rscale>
<asrwt>0</asrwt>
<pdfrwt beam="1">  1        2 0.85334322E-01 0.77883811E+03</pdfrwt>
<pdfrwt beam="2">  1       -2 0.36267245E-01 0.77883811E+03</pdfrwt>
<totfact> 0.39205398E+02</totfact>
</mgrwt>
</event>
<event>
 4    1  0.5399378E-005  0.5994986E+03  0.7818608E-02  0.9906447E-01
         -2   -1    0    0    0  501 -0.00000000000E+00  0.00000000000E+00  0.22597874935E+03  0.22597874936E+03  0.25500000000E-02 0. -1.
          2   -1    0    0  501    0  0.00000000000E+00 -0.00000000000E+00 -0.39760215429E+03  0.39760215429E+03  0.25500000000E-02 0.  1.
    5000001    1    1    2    0    0 -0.22032740772E+01 -0.21231177024E+03  0.51960851693E+02  0.27387236500E+03  0.16500000000E+03 0.  0.
   -5000001    1    1    2    0    0  0.22032740772E+01  0.21231177024E+03 -0.22358425663E+03  0.34970853866E+03  0.16500000000E+03 0.  0.
<mgrwt>
<rscale>  0 0.59949858E+03</rscale>
<asrwt>0</asrwt>
<pdfrwt beam="1">  1        2 0.56800307E-01 0.59949858E+03</pdfrwt>
<pdfrwt beam="2">  1       -2 0.32282679E-01 0.59949858E+03</pdfrwt>
<totfact> 0.78094797E+02</totfact>
</mgrwt>
</event>
<event>
 4    1  0.5399378E-005  0.4348224E+03  0.7818608E-02  0.1032347E+00
          2   -1    0    0  501    0  0.00000000000E+00  0.00000000000E+00  0.12871891492E+04  0.12871891492E+04  0.25500000000E-02 0.  1.
         -2   -1    0    0    0  501 -0.00000000000E+00 -0.00000000000E+00 -0.36721582688E+02  0.36721582776E+02  0.25500000000E-02 0. -1.
    5000001    1    1    2    0    0  0.28743836068E+01  0.13820578965E+03  0.71826072583E+03  0.74982169390E+03  0.16500000000E+03 0.  0.
   -5000001    1    1    2    0    0 -0.28743836068E+01 -0.13820578965E+03  0.53220684072E+03  0.57408903812E+03  0.16500000000E+03 0.  0.
<mgrwt>
<rscale>  0 0.43482237E+03</rscale>
<asrwt>0</asrwt>
<pdfrwt beam="1">  1        2 0.18388418E+00 0.43482237E+03</pdfrwt>
<pdfrwt beam="2">  1       -2 0.52459399E-02 0.43482237E+03</pdfrwt>
<totfact> 0.36719400E+03</totfact>
</mgrwt>
</event>
<event>
 4    1  0.5399378E-005  0.4601592E+03  0.7818608E-02  0.1024735E+00
          2   -1    0    0  501    0  0.00000000000E+00  0.00000000000E+00  0.17147950097E+03  0.17147950098E+03  0.25500000000E-02 0.  1.
         -2   -1    0    0    0  501 -0.00000000000E+00 -0.00000000000E+00 -0.30870525348E+03  0.30870525349E+03  0.25500000000E-02 0. -1.
    5000001    1    1    2    0    0  0.13752042228E+03 -0.36153394849E+02 -0.14595084012E+03  0.26219378756E+03  0.16500000000E+03 0.  0.
   -5000001    1    1    2    0    0 -0.13752042228E+03  0.36153394849E+02  0.87250876058E+01  0.21799096692E+03  0.16500000000E+03 0.  0.
<mgrwt>
<rscale>  0 0.46015920E+03</rscale>
<asrwt>0</asrwt>
<pdfrwt beam="1">  1        2 0.24497072E-01 0.46015920E+03</pdfrwt>
<pdfrwt beam="2">  1       -2 0.44100750E-01 0.46015920E+03</pdfrwt>
<totfact> 0.10939400E+03</totfact>
</mgrwt>
</event>
<event>
 4    1  0.5399378E-005  0.5092550E+03  0.7818608E-02  0.1011391E+00
         -2   -1    0    0    0  501 -0.00000000000E+00  0.00000000000E+00  0.72795872971E+02  0.72795873015E+02  0.25500000000E-02 0. -1.
          2   -1    0    0  501    0  0.00000000000E+00 -0.00000000000E+00 -0.89064356138E+03  0.89064356138E+03  0.25500000000E-02 0.  1.
    5000001    1    1    2    0    0 -0.18322181695E+03 -0.10587596845E+02 -0.52749149133E+03  0.58236981793E+03  0.16500000000E+03 0.  0.
   -5000001    1    1    2    0    0  0.18322181695E+03  0.10587596845E+02 -0.29035619708E+03  0.38106961647E+03  0.16500000000E+03 0.  0.
<mgrwt>
<rscale>  0 0.50925505E+03</rscale>
<asrwt>0</asrwt>
<pdfrwt beam="1">  1        2 0.12723479E+00 0.50925505E+03</pdfrwt>
<pdfrwt beam="2">  1       -2 0.10399411E-01 0.50925505E+03</pdfrwt>
<totfact> 0.21247481E+03</totfact>
</mgrwt>
</event>
<event>
 4    1  0.5399378E-005  0.6833179E+03  0.7818608E-02  0.9746194E-01
          2   -1    0    0  501    0  0.00000000000E+00  0.00000000000E+00  0.15892025075E+04  0.15892025075E+04  0.25500000000E-02 0.  1.
         -2   -1    0    0    0  501 -0.00000000000E+00 -0.00000000000E+00 -0.73452460377E+02  0.73452460421E+02  0.25500000000E-02 0. -1.
    5000001    1    1    2    0    0 -0.14636857328E+03 -0.18364001155E+03  0.30685487523E+03  0.42015750325E+03  0.16500000000E+03 0.  0.
   -5000001    1    1    2    0    0  0.14636857328E+03  0.18364001155E+03  0.12088951719E+04  0.12424974647E+04  0.16500000000E+03 0.  0.
<mgrwt>
<rscale>  0 0.68331789E+03</rscale>
<asrwt>0</asrwt>
<pdfrwt beam="1">  1        2 0.22702892E+00 0.68331789E+03</pdfrwt>
<pdfrwt beam="2">  1       -2 0.10493209E-01 0.68331789E+03</pdfrwt>
<totfact> 0.84372814E+02</totfact>
</mgrwt>
</event>
<event>
 4    1  0.5399378E-005  0.3650949E+03  0.7818608E-02  0.1056584E+00
         -2   -1    0    0    0  501 -0.00000000000E+00  0.00000000000E+00  0.29055930764E+02  0.29055930876E+02  0.25500000000E-02 0. -1.
          2   -1    0    0  501    0  0.00000000000E+00 -0.00000000000E+00 -0.11468770585E+04  0.11468770585E+04  0.25500000000E-02 0.  1.
    5000001    1    1    2    0    0  0.68083924963E+02  0.10303368732E+02 -0.44026084602E+03  0.47518016876E+03  0.16500000000E+03 0.  0.
   -5000001    1    1    2    0    0 -0.68083924963E+02 -0.10303368732E+02 -0.67756028173E+03  0.70075282063E+03  0.16500000000E+03 0.  0.
<mgrwt>
<rscale>  0 0.36509495E+03</rscale>
<asrwt>0</asrwt>
<pdfrwt beam="1">  1        2 0.16383955E+00 0.36509495E+03</pdfrwt>
<pdfrwt beam="2">  1       -2 0.41508480E-02 0.36509495E+03</pdfrwt>
<totfact> 0.62636600E+03</totfact>
</mgrwt>
</event>
<event>
 4    1  0.5399378E-005  0.8207344E+03  0.7818608E-02  0.9530481E-01
         -2   -1    0    0    0  501 -0.00000000000E+00  0.00000000000E+00  0.10335052967E+03  0.10335052970E+03  0.25500000000E-02 0. -1.
          2   -1    0    0  501    0  0.00000000000E+00 -0.00000000000E+00 -0.16294181711E+04  0.16294181711E+04  0.25500000000E-02 0.  1.
    5000001    1    1    2    0    0 -0.23718114326E+03 -0.16713847481E+02 -0.14880401858E+03  0.32542569561E+03  0.16500000000E+03 0.  0.
   -5000001    1    1    2    0    0  0.23718114326E+03  0.16713847481E+02 -0.13772636229E+04  0.14073430052E+04  0.16500000000E+03 0.  0.
<mgrwt>
<rscale>  0 0.82073438E+03</rscale>
<asrwt>0</asrwt>
<pdfrwt beam="1">  1        2 0.23277401E+00 0.82073438E+03</pdfrwt>
<pdfrwt beam="2">  1       -2 0.14764362E-01 0.82073438E+03</pdfrwt>
<totfact> 0.45309037E+02</totfact>
</mgrwt>
</event>
<event>
 4    1  0.5399378E-005  0.4051416E+03  0.7818608E-02  0.1042014E+00
         -2   -1    0    0    0  501 -0.00000000000E+00  0.00000000000E+00  0.64827130847E+02  0.64827130897E+02  0.25500000000E-02 0. -1.
          2   -1    0    0  501    0  0.00000000000E+00 -0.00000000000E+00 -0.63298997246E+03  0.63298997246E+03  0.25500000000E-02 0.  1.
    5000001    1    1    2    0    0  0.43780218640E+02  0.10391174927E+03 -0.22707105924E+03  0.30249070254E+03  0.16500000000E+03 0.  0.
   -5000001    1    1    2    0    0 -0.43780218640E+02 -0.10391174927E+03 -0.34109178237E+03  0.39532640082E+03  0.16500000000E+03 0.  0.
<mgrwt>
<rscale>  0 0.40514157E+03</rscale>
<asrwt>0</asrwt>
<pdfrwt beam="1">  1        2 0.90427135E-01 0.40514157E+03</pdfrwt>
<pdfrwt beam="2">  1       -2 0.92610191E-02 0.40514157E+03</pdfrwt>
<totfact> 0.39045868E+03</totfact>
</mgrwt>
</event>
<event>
 4    1  0.5399378E-005  0.4890306E+03  0.7818608E-02  0.1016682E+00
         -2   -1    0    0    0  501 -0.00000000000E+00  0.00000000000E+00  0.33004640611E+02  0.33004640709E+02  0.25500000000E-02 0. -1.
          2   -1    0    0  501    0  0.00000000000E+00 -0.00000000000E+00 -0.18114949518E+04  0.18114949518E+04  0.25500000000E-02 0.  1.
    5000001    1    1    2    0    0 -0.17210310417E+03  0.50309718081E+02 -0.81266906347E+03  0.84841413998E+03  0.16500000000E+03 0.  0.
   -5000001    1    1    2    0    0  0.17210310417E+03 -0.50309718081E+02 -0.96582124775E+03  0.99608545256E+03  0.16500000000E+03 0.  0.
<mgrwt>
<rscale>  0 0.48903063E+03</rscale>
<asrwt>0</asrwt>
<pdfrwt beam="1">  1        2 0.25878493E+00 0.48903063E+03</pdfrwt>
<pdfrwt beam="2">  1       -2 0.47149498E-02 0.48903063E+03</pdfrwt>
<totfact> 0.23232039E+03</totfact>
</mgrwt>
</event>
<event>
 4    1  0.5399378E-005  0.7784747E+03  0.7818608E-02  0.9591707E-01
         -2   -1    0    0    0  501 -0.00000000000E+00  0.00000000000E+00  0.66654031193E+02  0.66654031242E+02  0.25500000000E-02 0. -1.
          2   -1    0    0  501    0  0.00000000000E+00 -0.00000000000E+00 -0.22730167718E+04  0.22730167718E+04  0.25500000000E-02 0.  1.
    5000001    1    1    2    0    0  0.25008225841E+03 -0.24749395901E+03 -0.11694606930E+04  0.12323383091E+04  0.16500000000E+03 0.  0.
   -5000001    1    1    2    0    0 -0.25008225841E+03  0.24749395901E+03 -0.10369020477E+04  0.11073324939E+04  0.16500000000E+03 0.  0.
<mgrwt>
<rscale>  0 0.77847474E+03</rscale>
<asrwt>0</asrwt>
<pdfrwt beam="1">  1        2 0.32471663E+00 0.77847474E+03</pdfrwt>
<pdfrwt beam="2">  1       -2 0.95220059E-02 0.77847474E+03</pdfrwt>
<totfact> 0.44130404E+02</totfact>
</mgrwt>
</event>
<event>
 4    1  0.5399378E-005  0.4074783E+03  0.7818608E-02  0.1041221E+00
         -2   -1    0    0    0  501 -0.00000000000E+00  0.00000000000E+00  0.13902378988E+03  0.13902378990E+03  0.25500000000E-02 0. -1.
          2   -1    0    0  501    0  0.00000000000E+00 -0.00000000000E+00 -0.29857947500E+03  0.29857947501E+03  0.25500000000E-02 0.  1.
    5000001    1    1    2    0    0  0.11333670912E+03 -0.13640943003E+01 -0.12049636441E+03  0.23364812052E+03  0.16500000000E+03 0.  0.
   -5000001    1    1    2    0    0 -0.11333670912E+03  0.13640943003E+01 -0.39059320704E+02  0.20395514438E+03  0.16500000000E+03 0.  0.
<mgrwt>
<rscale>  0 0.40747834E+03</rscale>
<asrwt>0</asrwt>
<pdfrwt beam="1">  1        2 0.42654211E-01 0.40747834E+03</pdfrwt>
<pdfrwt beam="2">  1       -2 0.19860541E-01 0.40747834E+03</pdfrwt>
<totfact> 0.25536227E+03</totfact>
</mgrwt>
</event>
<event>
 4    1  0.5399378E-005  0.5601105E+03  0.7818608E-02  0.9991805E-01
          2   -1    0    0  501    0  0.00000000000E+00  0.00000000000E+00  0.10633483069E+04  0.10633483069E+04  0.25500000000E-02 0.  1.
         -2   -1    0    0    0  501 -0.00000000000E+00 -0.00000000000E+00 -0.73758478215E+02  0.73758478259E+02  0.25500000000E-02 0. -1.
    5000001    1    1    2    0    0  0.98154754230E+02  0.18244994872E+03  0.67956745052E+03  0.72935537249E+03  0.16500000000E+03 0.  0.
   -5000001    1    1    2    0    0 -0.98154754230E+02 -0.18244994872E+03  0.31002237812E+03  0.40775141263E+03  0.16500000000E+03 0.  0.
<mgrwt>
<rscale>  0 0.56011054E+03</rscale>
<asrwt>0</asrwt>
<pdfrwt beam="1">  1        2 0.15190689E+00 0.56011054E+03</pdfrwt>
<pdfrwt beam="2">  1       -2 0.10536926E-01 0.56011054E+03</pdfrwt>
<totfact> 0.16277000E+03</totfact>
</mgrwt>
</event>
<event>
 4    1  0.5399378E-005  0.6300671E+03  0.7818608E-02  0.9844918E-01
         -2   -1    0    0    0  501 -0.00000000000E+00  0.00000000000E+00  0.54874655758E+02  0.54874655817E+02  0.25500000000E-02 0. -1.
          2   -1    0    0  501    0  0.00000000000E+00 -0.00000000000E+00 -0.18085968181E+04  0.18085968181E+04  0.25500000000E-02 0.  1.
    5000001    1    1    2    0    0  0.11159223898E+03  0.22632462617E+03 -0.60667610117E+03  0.67746332442E+03  0.16500000000E+03 0.  0.
   -5000001    1    1    2    0    0 -0.11159223898E+03 -0.22632462617E+03 -0.11470460612E+04  0.11860081495E+04  0.16500000000E+03 0.  0.
<mgrwt>
<rscale>  0 0.63006707E+03</rscale>
<asrwt>0</asrwt>
<pdfrwt beam="1">  1        2 0.25837094E+00 0.63006707E+03</pdfrwt>
<pdfrwt beam="2">  1       -2 0.78392377E-02 0.63006707E+03</pdfrwt>
<totfact> 0.10456847E+03</totfact>
</mgrwt>
</event>
<event>
 4    1  0.5399378E-005  0.8305029E+03  0.7818608E-02  0.9516886E-01
         -2   -1    0    0    0  501 -0.00000000000E+00  0.00000000000E+00  0.32755402365E+03  0.32755402366E+03  0.25500000000E-02 0. -1.
          2   -1    0    0  501    0  0.00000000000E+00 -0.00000000000E+00 -0.52642845901E+03  0.52642845902E+03  0.25500000000E-02 0.  1.
    5000001    1    1    2    0    0  0.31611625471E+03 -0.11454031633E+03  0.84964267845E+02  0.38404804044E+03  0.16500000000E+03 0.  0.
   -5000001    1    1    2    0    0 -0.31611625471E+03  0.11454031633E+03 -0.28383870321E+03  0.46993444223E+03  0.16500000000E+03 0.  0.
<mgrwt>
<rscale>  0 0.83050288E+03</rscale>
<asrwt>0</asrwt>
<pdfrwt beam="1">  1        2 0.75204065E-01 0.83050288E+03</pdfrwt>
<pdfrwt beam="2">  1       -2 0.46793433E-01 0.83050288E+03</pdfrwt>
<totfact> 0.27526333E+02</totfact>
</mgrwt>
</event>
<event>
 4    1  0.5399378E-005  0.5726865E+03  0.7818608E-02  0.9963751E-01
         -2   -1    0    0    0  501 -0.00000000000E+00  0.00000000000E+00  0.79524643076E+02  0.79524643117E+02  0.25500000000E-02 0. -1.
          2   -1    0    0  501    0  0.00000000000E+00 -0.00000000000E+00 -0.10310321239E+04  0.10310321239E+04  0.25500000000E-02 0.  1.
    5000001    1    1    2    0    0 -0.16841133592E+03  0.14459564220E+03 -0.61953223629E+03  0.67846552573E+03  0.16500000000E+03 0.  0.
   -5000001    1    1    2    0    0  0.16841133592E+03 -0.14459564220E+03 -0.33197524452E+03  0.43209124127E+03  0.16500000000E+03 0.  0.
<mgrwt>
<rscale>  0 0.57268652E+03</rscale>
<asrwt>0</asrwt>
<pdfrwt beam="1">  1        2 0.14729030E+00 0.57268652E+03</pdfrwt>
<pdfrwt beam="2">  1       -2 0.11360664E-01 0.57268652E+03</pdfrwt>
<totfact> 0.15044412E+03</totfact>
</mgrwt>
</event>
<event>
 4    1  0.5399378E-005  0.5481665E+03  0.7818608E-02  0.1001919E+00
         -2   -1    0    0    0  501 -0.00000000000E+00  0.00000000000E+00  0.42036838439E+03  0.42036838439E+03  0.25500000000E-02 0. -1.
          2   -1    0    0  501    0  0.00000000000E+00 -0.00000000000E+00 -0.17870428535E+03  0.17870428537E+03  0.25500000000E-02 0.  1.
    5000001    1    1    2    0    0 -0.17365289861E+03  0.33562167596E+02 -0.20037022764E+02  0.24271017813E+03  0.16500000000E+03 0.  0.
   -5000001    1    1    2    0    0  0.17365289861E+03 -0.33562167596E+02  0.26170112180E+03  0.35636249163E+03  0.16500000000E+03 0.  0.
<mgrwt>
<rscale>  0 0.54816651E+03</rscale>
<asrwt>0</asrwt>
<pdfrwt beam="1">  1        2 0.25529184E-01 0.54816651E+03</pdfrwt>
<pdfrwt beam="2">  1       -2 0.60052626E-01 0.54816651E+03</pdfrwt>
<totfact> 0.55727929E+02</totfact>
</mgrwt>
</event>
<event>
 4    1  0.5399378E-005  0.4591317E+03  0.7818608E-02  0.1025033E+00
         -2   -1    0    0    0  501 -0.00000000000E+00  0.00000000000E+00  0.27525940277E+02  0.27525940395E+02  0.25500000000E-02 0. -1.
          2   -1    0    0  501    0  0.00000000000E+00 -0.00000000000E+00 -0.19145749244E+04  0.19145749244E+04  0.25500000000E-02 0.  1.
    5000001    1    1    2    0    0 -0.12436873717E+03  0.48463804474E+02 -0.57333433671E+03  0.61135389488E+03  0.16500000000E+03 0.  0.
   -5000001    1    1    2    0    0  0.12436873717E+03 -0.48463804474E+02 -0.13137146474E+04  0.13307469699E+04  0.16500000000E+03 0.  0.
<mgrwt>
<rscale>  0 0.45913168E+03</rscale>
<asrwt>0</asrwt>
<pdfrwt beam="1">  1        2 0.27351062E+00 0.45913168E+03</pdfrwt>
<pdfrwt beam="2">  1       -2 0.39322784E-02 0.45913168E+03</pdfrwt>
<totfact> 0.27278439E+03</totfact>
</mgrwt>
</event>
<event>
 4    1  0.5399378E-005  0.4594582E+03  0.7818608E-02  0.1024938E+00
         -2   -1    0    0    0  501 -0.00000000000E+00  0.00000000000E+00  0.66949821657E+02  0.66949821706E+02  0.25500000000E-02 0. -1.
          2   -1    0    0  501    0  0.00000000000E+00 -0.00000000000E+00 -0.78828376502E+03  0.78828376503E+03  0.25500000000E-02 0.  1.
    5000001    1    1    2    0    0  0.24474353472E+02 -0.15771266307E+03 -0.37712527333E+03  0.44149830108E+03  0.16500000000E+03 0.  0.
   -5000001    1    1    2    0    0 -0.24474353472E+02  0.15771266307E+03 -0.34420867003E+03  0.41373528565E+03  0.16500000000E+03 0.  0.
<mgrwt>
<rscale>  0 0.45945819E+03</rscale>
<asrwt>0</asrwt>
<pdfrwt beam="1">  1        2 0.11261196E+00 0.45945819E+03</pdfrwt>
<pdfrwt beam="2">  1       -2 0.95642607E-02 0.45945819E+03</pdfrwt>
<totfact> 0.28456243E+03</totfact>
</mgrwt>
</event>
<event>
 4    1  0.5399378E-005  0.4910721E+03  0.7818608E-02  0.1016136E+00
         -2   -1    0    0    0  501 -0.00000000000E+00  0.00000000000E+00  0.11181233672E+03  0.11181233674E+03  0.25500000000E-02 0.  1.
          2   -1    0    0  501    0  0.00000000000E+00 -0.00000000000E+00 -0.53918868933E+03  0.53918868933E+03  0.25500000000E-02 0. -1.
    5000001    1    1    2    0    0 -0.88162258263E+02  0.15227152257E+03 -0.15288403266E+03  0.28558313642E+03  0.16500000000E+03 0.  0.
   -5000001    1    1    2    0    0  0.88162258263E+02 -0.15227152257E+03 -0.27449231995E+03  0.36541788965E+03  0.16500000000E+03 0.  0.
<mgrwt>
<rscale>  0 0.49107208E+03</rscale>
<asrwt>0</asrwt>
<pdfrwt beam="1">  1        2 0.77026954E-01 0.49107208E+03</pdfrwt>
<pdfrwt beam="2">  1       -2 0.15973191E-01 0.49107208E+03</pdfrwt>
<totfact> 0.19285106E+03</totfact>
</mgrwt>
</event>
<event>
 4    1  0.5399378E-005  0.6808792E+03  0.7818608E-02  0.9750502E-01
         -2   -1    0    0    0  501 -0.00000000000E+00  0.00000000000E+00  0.68945398590E+02  0.68945398637E+02  0.25500000000E-02 0. -1.
          2   -1    0    0  501    0  0.00000000000E+00 -0.00000000000E+00 -0.16810277017E+04  0.16810277017E+04  0.25500000000E-02 0.  1.
    5000001    1    1    2    0    0 -0.16390620052E+02 -0.28514066662E+03 -0.10226114106E+04  0.10744919494E+04  0.16500000000E+03 0.  0.
   -5000001    1    1    2    0    0  0.16390620052E+02  0.28514066662E+03 -0.58947089247E+03  0.67548115092E+03  0.16500000000E+03 0.  0.
<mgrwt>
<rscale>  0 0.68087921E+03</rscale>
<asrwt>0</asrwt>
<pdfrwt beam="1">  1        2 0.24014679E+00 0.68087921E+03</pdfrwt>
<pdfrwt beam="2">  1       -2 0.98493437E-02 0.68087921E+03</pdfrwt>
<totfact> 0.83904916E+02</totfact>
</mgrwt>
</event>
<event>
 4    1  0.5399378E-005  0.5996573E+03  0.7818608E-02  0.9906117E-01
         -2   -1    0    0    0  501 -0.00000000000E+00  0.00000000000E+00  0.50941171105E+02  0.50941171168E+02  0.25500000000E-02 0. -1.
          2   -1    0    0  501    0  0.00000000000E+00 -0.00000000000E+00 -0.17647260238E+04  0.17647260238E+04  0.25500000000E-02 0.  1.
    5000001    1    1    2    0    0 -0.19695652688E+03 -0.11714743393E+03 -0.11620414103E+04  0.11958597886E+04  0.16500000000E+03 0.  0.
   -5000001    1    1    2    0    0  0.19695652688E+03  0.11714743393E+03 -0.55174344240E+03  0.61980740636E+03  0.16500000000E+03 0.  0.
<mgrwt>
<rscale>  0 0.59965727E+03</rscale>
<asrwt>0</asrwt>
<pdfrwt beam="1">  1        2 0.25210368E+00 0.59965727E+03</pdfrwt>
<pdfrwt beam="2">  1       -2 0.72773113E-02 0.59965727E+03</pdfrwt>
<totfact> 0.12403397E+03</totfact>
</mgrwt>
</event>
<event>
 4    1  0.5399378E-005  0.6907010E+03  0.7818608E-02  0.9733268E-01
          2   -1    0    0  501    0  0.00000000000E+00  0.00000000000E+00  0.14378064033E+04  0.14378064033E+04  0.25500000000E-02 0. -1.
         -2   -1    0    0    0  501 -0.00000000000E+00 -0.00000000000E+00 -0.82950644074E+02  0.82950644114E+02  0.25500000000E-02 0.  1.
    5000001    1    1    2    0    0  0.51277951582E+02  0.29901919076E+03  0.67797821505E+03  0.76086882237E+03  0.16500000000E+03 0.  0.
   -5000001    1    1    2    0    0 -0.51277951582E+02 -0.29901919076E+03  0.67687754416E+03  0.75988822504E+03  0.16500000000E+03 0.  0.
<mgrwt>
<rscale>  0 0.69070100E+03</rscale>
<asrwt>0</asrwt>
<pdfrwt beam="1">  1        2 0.20540092E+00 0.69070100E+03</pdfrwt>
<pdfrwt beam="2">  1       -2 0.11850092E-01 0.69070100E+03</pdfrwt>
<totfact> 0.82908441E+02</totfact>
</mgrwt>
</event>
<event>
 4    1  0.5399378E-005  0.5537673E+03  0.7818608E-02  0.1000626E+00
         -2   -1    0    0    0  501 -0.00000000000E+00  0.00000000000E+00  0.28549648664E+02  0.28549648777E+02  0.25500000000E-02 0. -1.
          2   -1    0    0  501    0  0.00000000000E+00 -0.00000000000E+00 -0.26853062675E+04  0.26853062675E+04  0.25500000000E-02 0.  1.
    5000001    1    1    2    0    0 -0.21698762296E+03  0.47123642477E+02 -0.12713771837E+04  0.13011261313E+04  0.16500000000E+03 0.  0.
   -5000001    1    1    2    0    0  0.21698762296E+03 -0.47123642477E+02 -0.13853794351E+04  0.14127297850E+04  0.16500000000E+03 0.  0.
<mgrwt>
<rscale>  0 0.55376728E+03</rscale>
<asrwt>0</asrwt>
<pdfrwt beam="1">  1        2 0.38361502E+00 0.55376728E+03</pdfrwt>
<pdfrwt beam="2">  1       -2 0.40785230E-02 0.55376728E+03</pdfrwt>
<totfact> 0.10467315E+03</totfact>
</mgrwt>
</event>
<event>
 4    1  0.5399378E-005  0.5870838E+03  0.7818608E-02  0.9932571E-01
         -2   -1    0    0    0  501 -0.00000000000E+00  0.00000000000E+00  0.11485434213E+03  0.11485434216E+03  0.25500000000E-02 0. -1.
          2   -1    0    0  501    0  0.00000000000E+00 -0.00000000000E+00 -0.75022721196E+03  0.75022721197E+03  0.25500000000E-02 0.  1.
    5000001    1    1    2    0    0 -0.17185146838E+03 -0.53157166346E+02 -0.77437811552E+02  0.25608636468E+03  0.16500000000E+03 0.  0.
   -5000001    1    1    2    0    0  0.17185146838E+03  0.53157166346E+02 -0.55793505828E+03  0.60899518945E+03  0.16500000000E+03 0.  0.
<mgrwt>
<rscale>  0 0.58708382E+03</rscale>
<asrwt>0</asrwt>
<pdfrwt beam="1">  1        2 0.10717531E+00 0.58708382E+03</pdfrwt>
<pdfrwt beam="2">  1       -2 0.16407764E-01 0.58708382E+03</pdfrwt>
<totfact> 0.12431653E+03</totfact>
</mgrwt>
</event>
<event>
 4    1  0.5399378E-005  0.6808588E+03  0.7818608E-02  0.9750538E-01
          2   -1    0    0  501    0  0.00000000000E+00  0.00000000000E+00  0.12838436686E+04  0.12838436686E+04  0.25500000000E-02 0.  1.
         -2   -1    0    0    0  501 -0.00000000000E+00 -0.00000000000E+00 -0.90269707767E+02  0.90269707803E+02  0.25500000000E-02 0. -1.
    5000001    1    1    2    0    0  0.16184264427E+03 -0.71827649378E+02  0.10799563593E+04  0.11067443204E+04  0.16500000000E+03 0.  0.
   -5000001    1    1    2    0    0 -0.16184264427E+03  0.71827649378E+02  0.11361760148E+03  0.26736905596E+03  0.16500000000E+03 0.  0.
<mgrwt>
<rscale>  0 0.68085885E+03</rscale>
<asrwt>0</asrwt>
<pdfrwt beam="1">  1        2 0.18340624E+00 0.68085885E+03</pdfrwt>
<pdfrwt beam="2">  1       -2 0.12895673E-01 0.68085885E+03</pdfrwt>
<totfact> 0.87278573E+02</totfact>
</mgrwt>
</event>
<event>
 4    1  0.5399378E-005  0.3548940E+03  0.7818608E-02  0.1060624E+00
         -2   -1    0    0    0  501 -0.00000000000E+00  0.00000000000E+00  0.10419594222E+04  0.10419594222E+04  0.25500000000E-02 0. -1.
          2   -1    0    0  501    0  0.00000000000E+00 -0.00000000000E+00 -0.30219453231E+02  0.30219453339E+02  0.25500000000E-02 0.  1.
    5000001    1    1    2    0    0 -0.52998196059E+01  0.60359742466E+02  0.43242140375E+03  0.46678116610E+03  0.16500000000E+03 0.  0.
   -5000001    1    1    2    0    0  0.52998196059E+01 -0.60359742466E+02  0.57931856521E+03  0.60539770944E+03  0.16500000000E+03 0.  0.
<mgrwt>
<rscale>  0 0.35489404E+03</rscale>
<asrwt>0</asrwt>
<pdfrwt beam="1">  1        2 0.43170644E-02 0.35489404E+03</pdfrwt>
<pdfrwt beam="2">  1       -2 0.14885136E+00 0.35489404E+03</pdfrwt>
<totfact> 0.62224470E+02</totfact>
</mgrwt>
</event>
<event>
 4    1  0.5399378E-005  0.3805908E+03  0.7818608E-02  0.1050716E+00
         -2   -1    0    0    0  501 -0.00000000000E+00  0.00000000000E+00  0.10378812595E+03  0.10378812598E+03  0.25500000000E-02 0. -1.
          2   -1    0    0  501    0  0.00000000000E+00 -0.00000000000E+00 -0.34890642931E+03  0.34890642932E+03  0.25500000000E-02 0.  1.
    5000001    1    1    2    0    0 -0.59136257769E+02 -0.27480753795E+02 -0.40710883068E+02  0.18202929658E+03  0.16500000000E+03 0.  0.
   -5000001    1    1    2    0    0  0.59136257769E+02  0.27480753795E+02 -0.20440742029E+03  0.27066525872E+03  0.16500000000E+03 0.  0.
<mgrwt>
<rscale>  0 0.38059083E+03</rscale>
<asrwt>0</asrwt>
<pdfrwt beam="1">  1        2 0.49843775E-01 0.38059083E+03</pdfrwt>
<pdfrwt beam="2">  1       -2 0.14826875E-01 0.38059083E+03</pdfrwt>
<totfact> 0.35303702E+03</totfact>
</mgrwt>
</event>
<event>
 4    1  0.5399378E-005  0.4539087E+03  0.7818608E-02  0.1026563E+00
          2   -1    0    0  501    0  0.00000000000E+00  0.00000000000E+00  0.15128871525E+04  0.15128871525E+04  0.25500000000E-02 0.  1.
         -2   -1    0    0    0  501 -0.00000000000E+00 -0.00000000000E+00 -0.34046348010E+02  0.34046348105E+02  0.25500000000E-02 0. -1.
    5000001    1    1    2    0    0 -0.13000291490E+03  0.85306743795E+02  0.77438951492E+03  0.80689659761E+03  0.16500000000E+03 0.  0.
   -5000001    1    1    2    0    0  0.13000291490E+03 -0.85306743795E+02  0.70445128956E+03  0.74003690299E+03  0.16500000000E+03 0.  0.
<mgrwt>
<rscale>  0 0.45390872E+03</rscale>
<asrwt>0</asrwt>
<pdfrwt beam="1">  1        2 0.21612677E+00 0.45390872E+03</pdfrwt>
<pdfrwt beam="2">  1       -2 0.48637633E-02 0.45390872E+03</pdfrwt>
<totfact> 0.31396191E+03</totfact>
</mgrwt>
</event>
<event>
 4    1  0.5399378E-005  0.7711708E+03  0.7818608E-02  0.9602710E-01
         -2   -1    0    0    0  501 -0.00000000000E+00  0.00000000000E+00  0.64731839373E+02  0.64731839423E+02  0.25500000000E-02 0. -1.
          2   -1    0    0  501    0  0.00000000000E+00 -0.00000000000E+00 -0.22967999653E+04  0.22967999653E+04  0.25500000000E-02 0.  1.
    5000001    1    1    2    0    0  0.27672117996E+03 -0.16164720505E+03 -0.15353150312E+04  0.15770610881E+04  0.16500000000E+03 0.  0.
   -5000001    1    1    2    0    0 -0.27672117996E+03  0.16164720505E+03 -0.69675309468E+03  0.78447071665E+03  0.16500000000E+03 0.  0.
<mgrwt>
<rscale>  0 0.77117076E+03</rscale>
<asrwt>0</asrwt>
<pdfrwt beam="1">  1        2 0.32811423E+00 0.77117076E+03</pdfrwt>
<pdfrwt beam="2">  1       -2 0.92474071E-02 0.77117076E+03</pdfrwt>
<totfact> 0.45023669E+02</totfact>
</mgrwt>
</event>
<event>
 4    1  0.5399378E-005  0.5663204E+03  0.7818608E-02  0.9977854E-01
          2   -1    0    0  501    0  0.00000000000E+00  0.00000000000E+00  0.21655625576E+04  0.21655625576E+04  0.25500000000E-02 0.  1.
         -2   -1    0    0    0  501 -0.00000000000E+00 -0.00000000000E+00 -0.37024879527E+02  0.37024879614E+02  0.25500000000E-02 0. -1.
    5000001    1    1    2    0    0  0.20779773343E+03 -0.36351891830E+02  0.14218585416E+04  0.14468614551E+04  0.16500000000E+03 0.  0.
   -5000001    1    1    2    0    0 -0.20779773343E+03  0.36351891830E+02  0.70667913652E+03  0.75572598212E+03  0.16500000000E+03 0.  0.
<mgrwt>
<rscale>  0 0.56632038E+03</rscale>
<asrwt>0</asrwt>
<pdfrwt beam="1">  1        2 0.30936607E+00 0.56632038E+03</pdfrwt>
<pdfrwt beam="2">  1       -2 0.52892687E-02 0.56632038E+03</pdfrwt>
<totfact> 0.12887320E+03</totfact>
</mgrwt>
</event>
<event>
 4    1  0.5399378E-005  0.4547917E+03  0.7818608E-02  0.1026303E+00
         -2   -1    0    0    0  501 -0.00000000000E+00  0.00000000000E+00  0.11553892526E+03  0.11553892529E+03  0.25500000000E-02 0. -1.
          2   -1    0    0  501    0  0.00000000000E+00 -0.00000000000E+00 -0.44754512271E+03  0.44754512272E+03  0.25500000000E-02 0.  1.
    5000001    1    1    2    0    0 -0.50940808709E+02  0.13387095344E+03 -0.24398938905E+03  0.32752438098E+03  0.16500000000E+03 0.  0.
   -5000001    1    1    2    0    0  0.50940808709E+02 -0.13387095344E+03 -0.88016808400E+02  0.23555966702E+03  0.16500000000E+03 0.  0.
<mgrwt>
<rscale>  0 0.45479174E+03</rscale>
<asrwt>0</asrwt>
<pdfrwt beam="1">  1        2 0.63935017E-01 0.45479174E+03</pdfrwt>
<pdfrwt beam="2">  1       -2 0.16505561E-01 0.45479174E+03</pdfrwt>
<totfact> 0.22494298E+03</totfact>
</mgrwt>
</event>
<event>
 4    1  0.5399378E-005  0.4005235E+03  0.7818608E-02  0.1043599E+00
          2   -1    0    0  501    0  0.00000000000E+00  0.00000000000E+00  0.32820914336E+03  0.32820914337E+03  0.25500000000E-02 0.  1.
         -2   -1    0    0    0  501 -0.00000000000E+00 -0.00000000000E+00 -0.12219274979E+03  0.12219274981E+03  0.25500000000E-02 0. -1.
    5000001    1    1    2    0    0 -0.53819651420E+02 -0.28218863145E+02  0.21079288990E+03  0.27450227968E+03  0.16500000000E+03 0.  0.
   -5000001    1    1    2    0    0  0.53819651420E+02  0.28218863145E+02 -0.47764963190E+01  0.17589961351E+03  0.16500000000E+03 0.  0.
<mgrwt>
<rscale>  0 0.40052355E+03</rscale>
<asrwt>0</asrwt>
<pdfrwt beam="1">  1        2 0.46887020E-01 0.40052355E+03</pdfrwt>
<pdfrwt beam="2">  1       -2 0.17456107E-01 0.40052355E+03</pdfrwt>
<totfact> 0.28714347E+03</totfact>
</mgrwt>
</event>
<event>
 4    1  0.5399378E-005  0.5127424E+03  0.7818608E-02  0.1010505E+00
         -2   -1    0    0    0  501 -0.00000000000E+00  0.00000000000E+00  0.54213906474E+02  0.54213906534E+02  0.25500000000E-02 0. -1.
          2   -1    0    0  501    0  0.00000000000E+00 -0.00000000000E+00 -0.12123494233E+04  0.12123494233E+04  0.25500000000E-02 0.  1.
    5000001    1    1    2    0    0  0.11904308949E+03  0.14929383493E+03 -0.46746363951E+03  0.53123173904E+03  0.16500000000E+03 0.  0.
   -5000001    1    1    2    0    0 -0.11904308949E+03 -0.14929383493E+03 -0.69067187731E+03  0.73533159079E+03  0.16500000000E+03 0.  0.
<mgrwt>
<rscale>  0 0.51274242E+03</rscale>
<asrwt>0</asrwt>
<pdfrwt beam="1">  1        2 0.17319276E+00 0.51274242E+03</pdfrwt>
<pdfrwt beam="2">  1       -2 0.77448446E-02 0.51274242E+03</pdfrwt>
<totfact> 0.21941237E+03</totfact>
</mgrwt>
</event>
<event>
 4    1  0.5399378E-005  0.4744304E+03  0.7818608E-02  0.1020677E+00
          2   -1    0    0  501    0  0.00000000000E+00  0.00000000000E+00  0.48420426889E+03  0.48420426889E+03  0.25500000000E-02 0.  1.
         -2   -1    0    0    0  501 -0.00000000000E+00 -0.00000000000E+00 -0.11621347271E+03  0.11621347273E+03  0.25500000000E-02 0. -1.
    5000001    1    1    2    0    0 -0.11695432764E+03  0.20942548261E+02  0.29363680131E+02  0.20543643979E+03  0.16500000000E+03 0.  0.
   -5000001    1    1    2    0    0  0.11695432764E+03 -0.20942548261E+02  0.33862711605E+03  0.39498130184E+03  0.16500000000E+03 0.  0.
<mgrwt>
<rscale>  0 0.47443044E+03</rscale>
<asrwt>0</asrwt>
<pdfrwt beam="1">  1        2 0.69172037E-01 0.47443044E+03</pdfrwt>
<pdfrwt beam="2">  1       -2 0.16601925E-01 0.47443044E+03</pdfrwt>
<totfact> 0.20405193E+03</totfact>
</mgrwt>
</event>
<event>
 4    1  0.5399378E-005  0.4833040E+03  0.7818608E-02  0.1018231E+00
          2   -1    0    0  501    0  0.00000000000E+00  0.00000000000E+00  0.87737140651E+03  0.87737140652E+03  0.25500000000E-02 0.  1.
         -2   -1    0    0    0  501 -0.00000000000E+00 -0.00000000000E+00 -0.66557543823E+02  0.66557543872E+02  0.25500000000E-02 0. -1.
    5000001    1    1    2    0    0 -0.86625603476E+02 -0.14597516535E+03  0.31056825847E+03  0.39050017573E+03  0.16500000000E+03 0.  0.
   -5000001    1    1    2    0    0  0.86625603476E+02  0.14597516535E+03  0.50024560422E+03  0.55342877465E+03  0.16500000000E+03 0.  0.
<mgrwt>
<rscale>  0 0.48330399E+03</rscale>
<asrwt>0</asrwt>
<pdfrwt beam="1">  1        2 0.12533876E+00 0.48330399E+03</pdfrwt>
<pdfrwt beam="2">  1       -2 0.95082212E-02 0.48330399E+03</pdfrwt>
<totfact> 0.25040677E+03</totfact>
</mgrwt>
</event>
<event>
 4    1  0.5399378E-005  0.4879425E+03  0.7818608E-02  0.1016975E+00
          2   -1    0    0  501    0  0.00000000000E+00  0.00000000000E+00  0.65929340254E+03  0.65929340255E+03  0.25500000000E-02 0.  1.
         -2   -1    0    0    0  501 -0.00000000000E+00 -0.00000000000E+00 -0.90281462458E+02  0.90281462494E+02  0.25500000000E-02 0. -1.
    5000001    1    1    2    0    0  0.11829924633E+03  0.77248693183E+02  0.11389215914E+03  0.24527228990E+03  0.16500000000E+03 0.  0.
   -5000001    1    1    2    0    0 -0.11829924633E+03 -0.77248693183E+02  0.45511978094E+03  0.50430257513E+03  0.16500000000E+03 0.  0.
<mgrwt>
<rscale>  0 0.48794251E+03</rscale>
<asrwt>0</asrwt>
<pdfrwt beam="1">  1        2 0.94184769E-01 0.48794251E+03</pdfrwt>
<pdfrwt beam="2">  1       -2 0.12897352E-01 0.48794251E+03</pdfrwt>
<totfact> 0.21787010E+03</totfact>
</mgrwt>
</event>
<event>
 4    1  0.5399378E-005  0.5282404E+03  0.7818608E-02  0.1006660E+00
          2   -1    0    0  501    0  0.00000000000E+00  0.00000000000E+00  0.39933886034E+03  0.39933886035E+03  0.25500000000E-02 0.  1.
         -2   -1    0    0    0  501 -0.00000000000E+00 -0.00000000000E+00 -0.17468744390E+03  0.17468744392E+03  0.25500000000E-02 0. -1.
    5000001    1    1    2    0    0 -0.19179168834E+03 -0.34353131903E+02  0.38862092239E+02  0.25826236970E+03  0.16500000000E+03 0.  0.
   -5000001    1    1    2    0    0  0.19179168834E+03  0.34353131903E+02  0.18578932420E+03  0.31576393457E+03  0.16500000000E+03 0.  0.
<mgrwt>
<rscale>  0 0.52824042E+03</rscale>
<asrwt>0</asrwt>
<pdfrwt beam="1">  1        2 0.57048408E-01 0.52824042E+03</pdfrwt>
<pdfrwt beam="2">  1       -2 0.24955349E-01 0.52824042E+03</pdfrwt>
<totfact> 0.12450989E+03</totfact>
</mgrwt>
</event>
<event>
 4    1  0.5399378E-005  0.5889708E+03  0.7818608E-02  0.9928556E-01
         -2   -1    0    0    0  501 -0.00000000000E+00  0.00000000000E+00  0.40781099818E+02  0.40781099898E+02  0.25500000000E-02 0. -1.
          2   -1    0    0  501    0  0.00000000000E+00 -0.00000000000E+00 -0.21265156700E+04  0.21265156700E+04  0.25500000000E-02 0.  1.
    5000001    1    1    2    0    0  0.24115979599E+03 -0.84929699064E+01 -0.91191227868E+03  0.95762162766E+03  0.16500000000E+03 0.  0.
   -5000001    1    1    2    0    0 -0.24115979599E+03  0.84929699064E+01 -0.11738222915E+04  0.12096751422E+04  0.16500000000E+03 0.  0.
<mgrwt>
<rscale>  0 0.58897079E+03</rscale>
<asrwt>0</asrwt>
<pdfrwt beam="1">  1        2 0.30378788E+00 0.58897079E+03</pdfrwt>
<pdfrwt beam="2">  1       -2 0.58258728E-02 0.58897079E+03</pdfrwt>
<totfact> 0.11582775E+03</totfact>
</mgrwt>
</event>
<event>
 4    1  0.5399378E-005  0.3656634E+03  0.7818608E-02  0.1056364E+00
         -2   -1    0    0    0  501 -0.00000000000E+00  0.00000000000E+00  0.57896738831E+02  0.57896738888E+02  0.25500000000E-02 0. -1.
          2   -1    0    0  501    0  0.00000000000E+00 -0.00000000000E+00 -0.57736298239E+03  0.57736298239E+03  0.25500000000E-02 0.  1.
    5000001    1    1    2    0    0 -0.62384413530E+02  0.33006884664E+02 -0.32044265045E+03  0.36727341547E+03  0.16500000000E+03 0.  0.
   -5000001    1    1    2    0    0  0.62384413530E+02 -0.33006884664E+02 -0.19902359310E+03  0.26798630581E+03  0.16500000000E+03 0.  0.
<mgrwt>
<rscale>  0 0.36566342E+03</rscale>
<asrwt>0</asrwt>
<pdfrwt beam="1">  1        2 0.82480423E-01 0.36566342E+03</pdfrwt>
<pdfrwt beam="2">  1       -2 0.82709630E-02 0.36566342E+03</pdfrwt>
<totfact> 0.51870236E+03</totfact>
</mgrwt>
</event>
<event>
 4    1  0.5399378E-005  0.6209180E+03  0.7818608E-02  0.9862934E-01
         -2   -1    0    0    0  501 -0.00000000000E+00  0.00000000000E+00  0.57486253666E+02  0.57486253722E+02  0.25500000000E-02 0.  1.
          2   -1    0    0  501    0  0.00000000000E+00 -0.00000000000E+00 -0.16766578350E+04  0.16766578350E+04  0.25500000000E-02 0. -1.
    5000001    1    1    2    0    0 -0.41212466451E+01 -0.26121875917E+03 -0.89372277098E+03  0.94563080332E+03  0.16500000000E+03 0.  0.
   -5000001    1    1    2    0    0  0.41212466451E+01  0.26121875917E+03 -0.72544881037E+03  0.78851328542E+03  0.16500000000E+03 0.  0.
<mgrwt>
<rscale>  0 0.62091796E+03</rscale>
<asrwt>0</asrwt>
<pdfrwt beam="1">  1        2 0.23952252E+00 0.62091796E+03</pdfrwt>
<pdfrwt beam="2">  1       -2 0.82123230E-02 0.62091796E+03</pdfrwt>
<totfact> 0.11333491E+03</totfact>
</mgrwt>
</event>
<event>
 4    1  0.5399378E-005  0.4582087E+03  0.7818608E-02  0.1025302E+00
         -2   -1    0    0    0  501 -0.00000000000E+00  0.00000000000E+00  0.38501771289E+02  0.38501771374E+02  0.25500000000E-02 0. -1.
          2   -1    0    0  501    0  0.00000000000E+00 -0.00000000000E+00 -0.13632827833E+04  0.13632827833E+04  0.25500000000E-02 0.  1.
    5000001    1    1    2    0    0 -0.14163522149E+03 -0.47390122093E+02 -0.82876091650E+03  0.85812354376E+03  0.16500000000E+03 0.  0.
   -5000001    1    1    2    0    0  0.14163522149E+03  0.47390122093E+02 -0.49602009551E+03  0.54366101091E+03  0.16500000000E+03 0.  0.
<mgrwt>
<rscale>  0 0.45820869E+03</rscale>
<asrwt>0</asrwt>
<pdfrwt beam="1">  1        2 0.19475465E+00 0.45820869E+03</pdfrwt>
<pdfrwt beam="2">  1       -2 0.55002539E-02 0.45820869E+03</pdfrwt>
<totfact> 0.31079263E+03</totfact>
</mgrwt>
</event>
<event>
 4    1  0.5399378E-005  0.5388940E+03  0.7818608E-02  0.1004098E+00
          2   -1    0    0  501    0  0.00000000000E+00  0.00000000000E+00  0.22449934098E+04  0.22449934098E+04  0.25500000000E-02 0.  1.
         -2   -1    0    0    0  501 -0.00000000000E+00 -0.00000000000E+00 -0.32339380269E+02  0.32339380369E+02  0.25500000000E-02 0. -1.
    5000001    1    1    2    0    0  0.20179926098E+03  0.48177589969E+02  0.13104303615E+04  0.13369729819E+04  0.16500000000E+03 0.  0.
   -5000001    1    1    2    0    0 -0.20179926098E+03 -0.48177589969E+02  0.90222366797E+03  0.94035980824E+03  0.16500000000E+03 0.  0.
<mgrwt>
<rscale>  0 0.53889404E+03</rscale>
<asrwt>0</asrwt>
<pdfrwt beam="1">  1        2 0.32071329E+00 0.53889404E+03</pdfrwt>
<pdfrwt beam="2">  1       -2 0.46199123E-02 0.53889404E+03</pdfrwt>
<totfact> 0.14517466E+03</totfact>
</mgrwt>
</event>
<event>
 4    1  0.5399378E-005  0.4984416E+03  0.7818608E-02  0.1014186E+00
          2   -1    0    0  501    0  0.00000000000E+00  0.00000000000E+00  0.12942436876E+04  0.12942436876E+04  0.25500000000E-02 0.  1.
         -2   -1    0    0    0  501 -0.00000000000E+00 -0.00000000000E+00 -0.47990203713E+02  0.47990203781E+02  0.25500000000E-02 0. -1.
    5000001    1    1    2    0    0 -0.66802784588E+01  0.17835323175E+03  0.47485995536E+03  0.53345241456E+03  0.16500000000E+03 0.  0.
   -5000001    1    1    2    0    0  0.66802784588E+01 -0.17835323175E+03  0.77139352853E+03  0.80878147683E+03  0.16500000000E+03 0.  0.
<mgrwt>
<rscale>  0 0.49844164E+03</rscale>
<asrwt>0</asrwt>
<pdfrwt beam="1">  1        2 0.18489192E+00 0.49844164E+03</pdfrwt>
<pdfrwt beam="2">  1       -2 0.68557449E-02 0.49844164E+03</pdfrwt>
<totfact> 0.23991596E+03</totfact>
</mgrwt>
</event>
<event>
 4    1  0.5399378E-005  0.4522067E+03  0.7818608E-02  0.1027066E+00
          2   -1    0    0  501    0  0.00000000000E+00  0.00000000000E+00  0.36049289520E+03  0.36049289521E+03  0.25500000000E-02 0.  1.
         -2   -1    0    0    0  501 -0.00000000000E+00 -0.00000000000E+00 -0.14181339545E+03  0.14181339547E+03  0.25500000000E-02 0. -1.
    5000001    1    1    2    0    0  0.20063438434E+02  0.74249710862E+02  0.25829388775E+03  0.31600046452E+03  0.16500000000E+03 0.  0.
   -5000001    1    1    2    0    0 -0.20063438434E+02 -0.74249710862E+02 -0.39614387999E+02  0.18630582616E+03  0.16500000000E+03 0.  0.
<mgrwt>
<rscale>  0 0.45220669E+03</rscale>
<asrwt>0</asrwt>
<pdfrwt beam="1">  1        2 0.51498985E-01 0.45220669E+03</pdfrwt>
<pdfrwt beam="2">  1       -2 0.20259057E-01 0.45220669E+03</pdfrwt>
<totfact> 0.20107015E+03</totfact>
</mgrwt>
</event>
<event>
 4    1  0.5399378E-005  0.4061737E+03  0.7818608E-02  0.1041663E+00
         -2   -1    0    0    0  501 -0.00000000000E+00  0.00000000000E+00  0.15026713360E+02  0.15026713576E+02  0.25500000000E-02 0. -1.
          2   -1    0    0  501    0  0.00000000000E+00 -0.00000000000E+00 -0.27447291896E+04  0.27447291896E+04  0.25500000000E-02 0.  1.
    5000001    1    1    2    0    0  0.78455413112E+02  0.61993170878E+02 -0.17956932787E+04  0.18060281715E+04  0.16500000000E+03 0.  0.
   -5000001    1    1    2    0    0 -0.78455413112E+02 -0.61993170878E+02 -0.93400919755E+03  0.95372773169E+03  0.16500000000E+03 0.  0.
<mgrwt>
<rscale>  0 0.40617365E+03</rscale>
<asrwt>0</asrwt>
<pdfrwt beam="1">  1        2 0.39210385E+00 0.40617365E+03</pdfrwt>
<pdfrwt beam="2">  1       -2 0.21466751E-02 0.40617365E+03</pdfrwt>
<totfact> 0.26000030E+03</totfact>
</mgrwt>
</event>
<event>
 4    1  0.5399378E-005  0.8269404E+03  0.7818608E-02  0.9521820E-01
         -2   -1    0    0    0  501 -0.00000000000E+00  0.00000000000E+00  0.56601286858E+02  0.56601286915E+02  0.25500000000E-02 0. -1.
          2   -1    0    0  501    0  0.00000000000E+00 -0.00000000000E+00 -0.30203835921E+04  0.30203835921E+04  0.25500000000E-02 0.  1.
    5000001    1    1    2    0    0 -0.36247734637E+03 -0.84377378205E+02 -0.17508096783E+04  0.17975174264E+04  0.16500000000E+03 0.  0.
   -5000001    1    1    2    0    0  0.36247734637E+03  0.84377378205E+02 -0.12129726269E+04  0.12794674526E+04  0.16500000000E+03 0.  0.
<mgrwt>
<rscale>  0 0.82694038E+03</rscale>
<asrwt>0</asrwt>
<pdfrwt beam="1">  1        2 0.43148327E+00 0.82694038E+03</pdfrwt>
<pdfrwt beam="2">  1       -2 0.80859000E-02 0.82694038E+03</pdfrwt>
<totfact> 0.23115680E+02</totfact>
</mgrwt>
</event>
<event>
 4    1  0.5399378E-005  0.5769831E+03  0.7818608E-02  0.9954344E-01
         -2   -1    0    0    0  501 -0.00000000000E+00  0.00000000000E+00  0.56531241521E+02  0.56531241578E+02  0.25500000000E-02 0. -1.
          2   -1    0    0  501    0  0.00000000000E+00 -0.00000000000E+00 -0.14722366626E+04  0.14722366626E+04  0.25500000000E-02 0.  1.
    5000001    1    1    2    0    0  0.12829213791E+03  0.10560921463E+03 -0.26141320841E+03  0.35096159960E+03  0.16500000000E+03 0.  0.
   -5000001    1    1    2    0    0 -0.12829213791E+03 -0.10560921463E+03 -0.11542922126E+04  0.11778063045E+04  0.16500000000E+03 0.  0.
<mgrwt>
<rscale>  0 0.57698307E+03</rscale>
<asrwt>0</asrwt>
<pdfrwt beam="1">  1        2 0.21031950E+00 0.57698307E+03</pdfrwt>
<pdfrwt beam="2">  1       -2 0.80758926E-02 0.57698307E+03</pdfrwt>
<totfact> 0.14865252E+03</totfact>
</mgrwt>
</event>
<event>
 4    1  0.5399378E-005  0.3746452E+03  0.7818608E-02  0.1052931E+00
          2   -1    0    0  501    0  0.00000000000E+00  0.00000000000E+00  0.29173294171E+04  0.29173294171E+04  0.25500000000E-02 0.  1.
         -2   -1    0    0    0  501 -0.00000000000E+00 -0.00000000000E+00 -0.12028038845E+02  0.12028039116E+02  0.25500000000E-02 0. -1.
    5000001    1    1    2    0    0  0.45848648000E+02 -0.61083582627E+02  0.18050663710E+04  0.18142003490E+04  0.16500000000E+03 0.  0.
   -5000001    1    1    2    0    0 -0.45848648000E+02  0.61083582627E+02  0.11002350072E+04  0.11151571071E+04  0.16500000000E+03 0.  0.
<mgrwt>
<rscale>  0 0.37464518E+03</rscale>
<asrwt>0</asrwt>
<pdfrwt beam="1">  1        2 0.41676066E+00 0.37464518E+03</pdfrwt>
<pdfrwt beam="2">  1       -2 0.17182941E-02 0.37464518E+03</pdfrwt>
<totfact> 0.29445647E+03</totfact>
</mgrwt>
</event>
<event>
 4    1  0.5399378E-005  0.5902860E+03  0.7818608E-02  0.9925767E-01
          2   -1    0    0  501    0  0.00000000000E+00  0.00000000000E+00  0.11610529220E+04  0.11610529220E+04  0.25500000000E-02 0.  1.
         -2   -1    0    0    0  501 -0.00000000000E+00 -0.00000000000E+00 -0.75026209771E+02  0.75026209815E+02  0.25500000000E-02 0. -1.
    5000001    1    1    2    0    0 -0.20935345775E+03 -0.96105374774E+02  0.71593654847E+03  0.76997094411E+03  0.16500000000E+03 0.  0.
   -5000001    1    1    2    0    0  0.20935345775E+03  0.96105374774E+02  0.37009016372E+03  0.46610818767E+03  0.16500000000E+03 0.  0.
<mgrwt>
<rscale>  0 0.59028603E+03</rscale>
<asrwt>0</asrwt>
<pdfrwt beam="1">  1        2 0.16586470E+00 0.59028603E+03</pdfrwt>
<pdfrwt beam="2">  1       -2 0.10718030E-01 0.59028603E+03</pdfrwt>
<totfact> 0.13892418E+03</totfact>
</mgrwt>
</event>
<event>
 4    1  0.5399378E-005  0.1350692E+04  0.7818608E-02  0.8990304E-01
          2   -1    0    0  501    0  0.00000000000E+00  0.00000000000E+00  0.46443467567E+03  0.46443467568E+03  0.25500000000E-02 0.  1.
         -2   -1    0    0    0  501 -0.00000000000E+00 -0.00000000000E+00 -0.98203742771E+03  0.98203742771E+03  0.25500000000E-02 0. -1.
    5000001    1    1    2    0    0 -0.38055191826E+03  0.42682223884E+03 -0.60060558779E+03  0.84554660318E+03  0.16500000000E+03 0.  0.
   -5000001    1    1    2    0    0  0.38055191826E+03 -0.42682223884E+03  0.83002835749E+02  0.60092550021E+03  0.16500000000E+03 0.  0.
<mgrwt>
<rscale>  0 0.13506920E+04</rscale>
<asrwt>0</asrwt>
<pdfrwt beam="1">  1        2 0.66347811E-01 0.13506920E+04</pdfrwt>
<pdfrwt beam="2">  1       -2 0.14029106E+00 0.13506920E+04</pdfrwt>
<totfact> 0.25510870E+01</totfact>
</mgrwt>
</event>
<event>
 4    1  0.5399378E-005  0.6002621E+03  0.7818608E-02  0.9904863E-01
          2   -1    0    0  501    0  0.00000000000E+00  0.00000000000E+00  0.68539816814E+03  0.68539816815E+03  0.25500000000E-02 0.  1.
         -2   -1    0    0    0  501 -0.00000000000E+00 -0.00000000000E+00 -0.13142526488E+03  0.13142526491E+03  0.25500000000E-02 0. -1.
    5000001    1    1    2    0    0  0.19256026337E+03  0.15801693673E+03  0.31559104334E+03  0.43459350427E+03  0.16500000000E+03 0.  0.
   -5000001    1    1    2    0    0 -0.19256026337E+03 -0.15801693673E+03  0.23838185992E+03  0.38222992879E+03  0.16500000000E+03 0.  0.
<mgrwt>
<rscale>  0 0.60026206E+03</rscale>
<asrwt>0</asrwt>
<pdfrwt beam="1">  1        2 0.97914025E-01 0.60026206E+03</pdfrwt>
<pdfrwt beam="2">  1       -2 0.18775038E-01 0.60026206E+03</pdfrwt>
<totfact> 0.11029811E+03</totfact>
</mgrwt>
</event>
<event>
 4    1  0.5399378E-005  0.5099537E+03  0.7818608E-02  0.1011213E+00
         -2   -1    0    0    0  501 -0.00000000000E+00  0.00000000000E+00  0.75240276694E+02  0.75240276737E+02  0.25500000000E-02 0. -1.
          2   -1    0    0  501    0  0.00000000000E+00 -0.00000000000E+00 -0.86407447908E+03  0.86407447909E+03  0.25500000000E-02 0.  1.
    5000001    1    1    2    0    0  0.16806983200E+03  0.91078123382E+02 -0.45942317918E+03  0.52424932099E+03  0.16500000000E+03 0.  0.
   -5000001    1    1    2    0    0 -0.16806983200E+03 -0.91078123382E+02 -0.32941102321E+03  0.41506543484E+03  0.16500000000E+03 0.  0.
<mgrwt>
<rscale>  0 0.50995373E+03</rscale>
<asrwt>0</asrwt>
<pdfrwt beam="1">  1        2 0.12343921E+00 0.50995373E+03</pdfrwt>
<pdfrwt beam="2">  1       -2 0.10748611E-01 0.50995373E+03</pdfrwt>
<totfact> 0.20957748E+03</totfact>
</mgrwt>
</event>
<event>
 4    1  0.5399378E-005  0.7179206E+03  0.7818608E-02  0.9687067E-01
         -2   -1    0    0    0  501 -0.00000000000E+00  0.00000000000E+00  0.18947530917E+03  0.18947530918E+03  0.25500000000E-02 0. -1.
          2   -1    0    0  501    0  0.00000000000E+00 -0.00000000000E+00 -0.68004907374E+03  0.68004907374E+03  0.25500000000E-02 0.  1.
    5000001    1    1    2    0    0  0.18447925700E+03 -0.20639973654E+03 -0.53806739361E+02  0.32673171365E+03  0.16500000000E+03 0.  0.
   -5000001    1    1    2    0    0 -0.18447925700E+03  0.20639973654E+03 -0.43676702521E+03  0.54279266927E+03  0.16500000000E+03 0.  0.
<mgrwt>
<rscale>  0 0.71792063E+03</rscale>
<asrwt>0</asrwt>
<pdfrwt beam="1">  1        2 0.97149867E-01 0.71792063E+03</pdfrwt>
<pdfrwt beam="2">  1       -2 0.27067902E-01 0.71792063E+03</pdfrwt>
<totfact> 0.58054803E+02</totfact>
</mgrwt>
</event>
<event>
 4    1  0.5399378E-005  0.3956503E+03  0.7818608E-02  0.1045296E+00
         -2   -1    0    0    0  501 -0.00000000000E+00  0.00000000000E+00  0.14506420532E+02  0.14506420756E+02  0.25500000000E-02 0. -1.
          2   -1    0    0  501    0  0.00000000000E+00 -0.00000000000E+00 -0.26977571203E+04  0.26977571203E+04  0.25500000000E-02 0.  1.
    5000001    1    1    2    0    0 -0.42408742158E+02  0.99002197172E+02 -0.12209536902E+04  0.12367509249E+04  0.16500000000E+03 0.  0.
   -5000001    1    1    2    0    0  0.42408742158E+02 -0.99002197172E+02 -0.14622970096E+04  0.14755126162E+04  0.16500000000E+03 0.  0.
<mgrwt>
<rscale>  0 0.39565035E+03</rscale>
<asrwt>0</asrwt>
<pdfrwt beam="1">  1        2 0.38539356E+00 0.39565035E+03</pdfrwt>
<pdfrwt beam="2">  1       -2 0.20723475E-02 0.39565035E+03</pdfrwt>
<totfact> 0.28998991E+03</totfact>
</mgrwt>
</event>
<event>
 4    1  0.5399378E-005  0.5178004E+03  0.7818608E-02  0.1009234E+00
         -2   -1    0    0    0  501 -0.00000000000E+00  0.00000000000E+00  0.30711351730E+02  0.30711351836E+02  0.25500000000E-02 0. -1.
          2   -1    0    0  501    0  0.00000000000E+00 -0.00000000000E+00 -0.21825585079E+04  0.21825585079E+04  0.25500000000E-02 0.  1.
    5000001    1    1    2    0    0 -0.17304081888E+03 -0.24354425982E+02 -0.14874202782E+04  0.15067117664E+04  0.16500000000E+03 0.  0.
   -5000001    1    1    2    0    0  0.17304081888E+03  0.24354425982E+02 -0.66442687797E+03  0.70655809332E+03  0.16500000000E+03 0.  0.
<mgrwt>
<rscale>  0 0.51780043E+03</rscale>
<asrwt>0</asrwt>
<pdfrwt beam="1">  1        2 0.31179397E+00 0.51780043E+03</pdfrwt>
<pdfrwt beam="2">  1       -2 0.43873374E-02 0.51780043E+03</pdfrwt>
<totfact> 0.16914877E+03</totfact>
</mgrwt>
</event>
<event>
 4    1  0.5399378E-005  0.4532399E+03  0.7818608E-02  0.1026760E+00
          2   -1    0    0  501    0  0.00000000000E+00  0.00000000000E+00  0.80368854130E+03  0.80368854130E+03  0.25500000000E-02 0.  1.
         -2   -1    0    0    0  501 -0.00000000000E+00 -0.00000000000E+00 -0.63901119481E+02  0.63901119532E+02  0.25500000000E-02 0. -1.
    5000001    1    1    2    0    0  0.21341289962E+02  0.15324612677E+03  0.39640179160E+03  0.45639807889E+03  0.16500000000E+03 0.  0.
   -5000001    1    1    2    0    0 -0.21341289962E+02 -0.15324612677E+03  0.34338563021E+03  0.41119158195E+03  0.16500000000E+03 0.  0.
<mgrwt>
<rscale>  0 0.45323988E+03</rscale>
<asrwt>0</asrwt>
<pdfrwt beam="1">  1        2 0.11481264E+00 0.45323988E+03</pdfrwt>
<pdfrwt beam="2">  1       -2 0.91287321E-02 0.45323988E+03</pdfrwt>
<totfact> 0.29919104E+03</totfact>
</mgrwt>
</event>
<event>
 4    1  0.5399378E-005  0.4129067E+03  0.7818608E-02  0.1039400E+00
          2   -1    0    0  501    0  0.00000000000E+00  0.00000000000E+00  0.52623964056E+03  0.52623964057E+03  0.25500000000E-02 0.  1.
         -2   -1    0    0    0  501 -0.00000000000E+00 -0.00000000000E+00 -0.80995398889E+02  0.80995398929E+02  0.25500000000E-02 0. -1.
    5000001    1    1    2    0    0  0.56362591065E+02 -0.87457756417E+02  0.12317860981E+03  0.23070234230E+03  0.16500000000E+03 0.  0.
   -5000001    1    1    2    0    0 -0.56362591065E+02  0.87457756417E+02  0.32206563187E+03  0.37653269720E+03  0.16500000000E+03 0.  0.
<mgrwt>
<rscale>  0 0.41290672E+03</rscale>
<asrwt>0</asrwt>
<pdfrwt beam="1">  1        2 0.75177088E-01 0.41290672E+03</pdfrwt>
<pdfrwt beam="2">  1       -2 0.11570772E-01 0.41290672E+03</pdfrwt>
<totfact> 0.33754913E+03</totfact>
</mgrwt>
</event>
<event>
 4    1  0.5399378E-005  0.8520265E+03  0.7818608E-02  0.9487621E-01
         -2   -1    0    0    0  501 -0.00000000000E+00  0.00000000000E+00  0.25100078089E+03  0.25100078090E+03  0.25500000000E-02 0. -1.
          2   -1    0    0  501    0  0.00000000000E+00 -0.00000000000E+00 -0.72305465989E+03  0.72305465989E+03  0.25500000000E-02 0.  1.
    5000001    1    1    2    0    0  0.26488350970E+03  0.13047167990E+03 -0.53211074070E+03  0.63051801983E+03  0.16500000000E+03 0.  0.
   -5000001    1    1    2    0    0 -0.26488350970E+03 -0.13047167990E+03  0.60056861698E+02  0.34353742096E+03  0.16500000000E+03 0.  0.
<mgrwt>
<rscale>  0 0.85202649E+03</rscale>
<asrwt>0</asrwt>
<pdfrwt beam="1">  1        2 0.10329352E+00 0.85202649E+03</pdfrwt>
<pdfrwt beam="2">  1       -2 0.35857255E-01 0.85202649E+03</pdfrwt>
<totfact> 0.31688379E+02</totfact>
</mgrwt>
</event>
<event>
 4    1  0.5399378E-005  0.5221467E+03  0.7818608E-02  0.1008155E+00
         -2   -1    0    0    0  501 -0.00000000000E+00  0.00000000000E+00  0.29242095670E+02  0.29242095781E+02  0.25500000000E-02 0. -1.
          2   -1    0    0  501    0  0.00000000000E+00 -0.00000000000E+00 -0.23308623829E+04  0.23308623829E+04  0.25500000000E-02 0.  1.
    5000001    1    1    2    0    0 -0.16739207662E+03 -0.11067247673E+02 -0.63959587616E+03  0.68150603525E+03  0.16500000000E+03 0.  0.
   -5000001    1    1    2    0    0  0.16739207662E+03  0.11067247673E+02 -0.16620244111E+04  0.16785984434E+04  0.16500000000E+03 0.  0.
<mgrwt>
<rscale>  0 0.52214673E+03</rscale>
<asrwt>0</asrwt>
<pdfrwt beam="1">  1        2 0.33298022E+00 0.52214673E+03</pdfrwt>
<pdfrwt beam="2">  1       -2 0.41774437E-02 0.52214673E+03</pdfrwt>
<totfact> 0.15357488E+03</totfact>
</mgrwt>
</event>
<event>
 4    1  0.5399378E-005  0.6776693E+03  0.7818608E-02  0.9756202E-01
          2   -1    0    0  501    0  0.00000000000E+00  0.00000000000E+00  0.62542622923E+03  0.62542622924E+03  0.25500000000E-02 0.  1.
         -2   -1    0    0    0  501 -0.00000000000E+00 -0.00000000000E+00 -0.18356910619E+03  0.18356910621E+03  0.25500000000E-02 0. -1.
    5000001    1    1    2    0    0 -0.20602770148E+03 -0.21149139065E+03  0.24503934455E+03  0.41766649671E+03  0.16500000000E+03 0.  0.
   -5000001    1    1    2    0    0  0.20602770148E+03  0.21149139065E+03  0.19681777849E+03  0.39132883874E+03  0.16500000000E+03 0.  0.
<mgrwt>
<rscale>  0 0.67766934E+03</rscale>
<asrwt>0</asrwt>
<pdfrwt beam="1">  1        2 0.89346605E-01 0.67766934E+03</pdfrwt>
<pdfrwt beam="2">  1       -2 0.26224158E-01 0.67766934E+03</pdfrwt>
<totfact> 0.68099576E+02</totfact>
</mgrwt>
</event>
<event>
 4    1  0.5399378E-005  0.8251458E+03  0.7818608E-02  0.9524316E-01
         -2   -1    0    0    0  501 -0.00000000000E+00  0.00000000000E+00  0.88551472480E+02  0.88551472516E+02  0.25500000000E-02 0. -1.
          2   -1    0    0  501    0  0.00000000000E+00 -0.00000000000E+00 -0.19222312650E+04  0.19222312650E+04  0.25500000000E-02 0.  1.
    5000001    1    1    2    0    0 -0.36058732036E+03 -0.43551904379E+02 -0.66042916214E+03  0.77156442516E+03  0.16500000000E+03 0.  0.
   -5000001    1    1    2    0    0  0.36058732036E+03  0.43551904379E+02 -0.11732506304E+04  0.12392183123E+04  0.16500000000E+03 0.  0.
<mgrwt>
<rscale>  0 0.82514583E+03</rscale>
<asrwt>0</asrwt>
<pdfrwt beam="1">  1        2 0.27460444E+00 0.82514583E+03</pdfrwt>
<pdfrwt beam="2">  1       -2 0.12650212E-01 0.82514583E+03</pdfrwt>
<totfact> 0.41573005E+02</totfact>
</mgrwt>
</event>
<event>
 4    1  0.5399378E-005  0.6949726E+03  0.7818608E-02  0.9725869E-01
         -2   -1    0    0    0  501 -0.00000000000E+00  0.00000000000E+00  0.70097918289E+03  0.70097918289E+03  0.25500000000E-02 0. -1.
          2   -1    0    0  501    0  0.00000000000E+00 -0.00000000000E+00 -0.17225436471E+03  0.17225436473E+03  0.25500000000E-02 0.  1.
    5000001    1    1    2    0    0  0.41252545279E+02  0.27422806784E+03  0.10238139533E+03  0.33854062650E+03  0.16500000000E+03 0.  0.
   -5000001    1    1    2    0    0 -0.41252545279E+02 -0.27422806784E+03  0.42634342285E+03  0.53469292112E+03  0.16500000000E+03 0.  0.
<mgrwt>
<rscale>  0 0.69497259E+03</rscale>
<asrwt>0</asrwt>
<pdfrwt beam="1">  1        2 0.24607766E-01 0.69497259E+03</pdfrwt>
<pdfrwt beam="2">  1       -2 0.10013988E+00 0.69497259E+03</pdfrwt>
<totfact> 0.18561405E+02</totfact>
</mgrwt>
</event>
<event>
 4    1  0.5399378E-005  0.6546138E+03  0.7818608E-02  0.9798160E-01
         -2   -1    0    0    0  501 -0.00000000000E+00  0.00000000000E+00  0.11074176419E+03  0.11074176422E+03  0.25500000000E-02 0. -1.
          2   -1    0    0  501    0  0.00000000000E+00 -0.00000000000E+00 -0.96738390760E+03  0.96738390760E+03  0.25500000000E-02 0.  1.
    5000001    1    1    2    0    0  0.27838312487E+02 -0.27439747645E+03 -0.32631752555E+03  0.45801427293E+03  0.16500000000E+03 0.  0.
   -5000001    1    1    2    0    0 -0.27838312487E+02  0.27439747645E+03 -0.53032461786E+03  0.62011139889E+03  0.16500000000E+03 0.  0.
<mgrwt>
<rscale>  0 0.65461378E+03</rscale>
<asrwt>0</asrwt>
<pdfrwt beam="1">  1        2 0.13819770E+00 0.65461378E+03</pdfrwt>
<pdfrwt beam="2">  1       -2 0.15820253E-01 0.65461378E+03</pdfrwt>
<totfact> 0.94610191E+02</totfact>
</mgrwt>
</event>
<event>
 4    1  0.5399378E-005  0.4607986E+03  0.7818608E-02  0.1024550E+00
          2   -1    0    0  501    0  0.00000000000E+00  0.00000000000E+00  0.44623709416E+03  0.44623709417E+03  0.25500000000E-02 0.  1.
         -2   -1    0    0    0  501 -0.00000000000E+00 -0.00000000000E+00 -0.11895879676E+03  0.11895879678E+03  0.25500000000E-02 0. -1.
    5000001    1    1    2    0    0  0.13750874033E+03 -0.77529511141E+02  0.12604663379E+03  0.26082989218E+03  0.16500000000E+03 0.  0.
   -5000001    1    1    2    0    0 -0.13750874033E+03  0.77529511141E+02  0.20123166361E+03  0.30436599877E+03  0.16500000000E+03 0.  0.
<mgrwt>
<rscale>  0 0.46079856E+03</rscale>
<asrwt>0</asrwt>
<pdfrwt beam="1">  1        2 0.63748157E-01 0.46079856E+03</pdfrwt>
<pdfrwt beam="2">  1       -2 0.16994114E-01 0.46079856E+03</pdfrwt>
<totfact> 0.21482518E+03</totfact>
</mgrwt>
</event>
<event>
 4    1  0.5399378E-005  0.4057584E+03  0.7818608E-02  0.1041804E+00
          2   -1    0    0  501    0  0.00000000000E+00  0.00000000000E+00  0.14299666297E+04  0.14299666297E+04  0.25500000000E-02 0.  1.
         -2   -1    0    0    0  501 -0.00000000000E+00 -0.00000000000E+00 -0.28783871076E+02  0.28783871189E+02  0.25500000000E-02 0. -1.
    5000001    1    1    2    0    0 -0.10831561555E+03  0.43211814562E+02  0.76643625796E+03  0.79262164430E+03  0.16500000000E+03 0.  0.
   -5000001    1    1    2    0    0  0.10831561555E+03 -0.43211814562E+02  0.63474650071E+03  0.66612885664E+03  0.16500000000E+03 0.  0.
<mgrwt>
<rscale>  0 0.40575843E+03</rscale>
<asrwt>0</asrwt>
<pdfrwt beam="1">  1        2 0.20428095E+00 0.40575843E+03</pdfrwt>
<pdfrwt beam="2">  1       -2 0.41119815E-02 0.40575843E+03</pdfrwt>
<totfact> 0.44812402E+03</totfact>
</mgrwt>
</event>
<event>
 4    1  0.5399378E-005  0.6744476E+03  0.7818608E-02  0.9761956E-01
         -2   -1    0    0    0  501 -0.00000000000E+00  0.00000000000E+00  0.14453688534E+03  0.14453688536E+03  0.25500000000E-02 0. -1.
          2   -1    0    0  501    0  0.00000000000E+00 -0.00000000000E+00 -0.78678808896E+03  0.78678808896E+03  0.25500000000E-02 0.  1.
    5000001    1    1    2    0    0 -0.27734458210E+03 -0.96377276317E+02 -0.29776058363E+03  0.44954973226E+03  0.16500000000E+03 0.  0.
   -5000001    1    1    2    0    0  0.27734458210E+03  0.96377276317E+02 -0.34449061999E+03  0.48177524207E+03  0.16500000000E+03 0.  0.
<mgrwt>
<rscale>  0 0.67444763E+03</rscale>
<asrwt>0</asrwt>
<pdfrwt beam="1">  1        2 0.11239830E+00 0.67444763E+03</pdfrwt>
<pdfrwt beam="2">  1       -2 0.20648127E-01 0.67444763E+03</pdfrwt>
<totfact> 0.78607424E+02</totfact>
</mgrwt>
</event>
<event>
 4    1  0.5399378E-005  0.5986325E+03  0.7818608E-02  0.9908247E-01
         -2   -1    0    0    0  501 -0.00000000000E+00  0.00000000000E+00  0.85061240955E+02  0.85061240993E+02  0.25500000000E-02 0. -1.
          2   -1    0    0  501    0  0.00000000000E+00 -0.00000000000E+00 -0.10532437857E+04  0.10532437857E+04  0.25500000000E-02 0.  1.
    5000001    1    1    2    0    0 -0.24820424556E+02 -0.20700534919E+03 -0.22269116727E+03  0.34681929596E+03  0.16500000000E+03 0.  0.
   -5000001    1    1    2    0    0  0.24820424556E+02  0.20700534919E+03 -0.74549137744E+03  0.79148573071E+03  0.16500000000E+03 0.  0.
<mgrwt>
<rscale>  0 0.59863252E+03</rscale>
<asrwt>0</asrwt>
<pdfrwt beam="1">  1        2 0.15046339E+00 0.59863252E+03</pdfrwt>
<pdfrwt beam="2">  1       -2 0.12151607E-01 0.59863252E+03</pdfrwt>
<totfact> 0.13059011E+03</totfact>
</mgrwt>
</event>
<event>
 4    1  0.5399378E-005  0.4190877E+03  0.7818608E-02  0.1037364E+00
         -2   -1    0    0    0  501 -0.00000000000E+00  0.00000000000E+00  0.57661651664E+02  0.57661651720E+02  0.25500000000E-02 0. -1.
          2   -1    0    0  501    0  0.00000000000E+00 -0.00000000000E+00 -0.76148749251E+03  0.76148749251E+03  0.25500000000E-02 0.  1.
    5000001    1    1    2    0    0 -0.11546167960E+03 -0.57407964923E+02 -0.33721402756E+03  0.39694505196E+03  0.16500000000E+03 0.  0.
   -5000001    1    1    2    0    0  0.11546167960E+03  0.57407964923E+02 -0.36661181329E+03  0.42220409228E+03  0.16500000000E+03 0.  0.
<mgrwt>
<rscale>  0 0.41908771E+03</rscale>
<asrwt>0</asrwt>
<pdfrwt beam="1">  1        2 0.10878392E+00 0.41908771E+03</pdfrwt>
<pdfrwt beam="2">  1       -2 0.82373793E-02 0.41908771E+03</pdfrwt>
<totfact> 0.37664234E+03</totfact>
</mgrwt>
</event>
<event>
 4    1  0.5399378E-005  0.3871941E+03  0.7818608E-02  0.1048306E+00
          2   -1    0    0  501    0  0.00000000000E+00  0.00000000000E+00  0.16412461829E+04  0.16412461829E+04  0.25500000000E-02 0.  1.
         -2   -1    0    0    0  501 -0.00000000000E+00 -0.00000000000E+00 -0.22836191939E+02  0.22836192082E+02  0.25500000000E-02 0. -1.
    5000001    1    1    2    0    0 -0.59871092290E+02  0.66957412064E+02  0.10101918046E+04  0.10275117151E+04  0.16500000000E+03 0.  0.
   -5000001    1    1    2    0    0  0.59871092290E+02 -0.66957412064E+02  0.60821818639E+03  0.63657065985E+03  0.16500000000E+03 0.  0.
<mgrwt>
<rscale>  0 0.38719408E+03</rscale>
<asrwt>0</asrwt>
<pdfrwt beam="1">  1        2 0.23446379E+00 0.38719408E+03</pdfrwt>
<pdfrwt beam="2">  1       -2 0.32623124E-02 0.38719408E+03</pdfrwt>
<totfact> 0.49630837E+03</totfact>
</mgrwt>
</event>
<event>
 4    1  0.5399378E-005  0.4165577E+03  0.7818608E-02  0.1038192E+00
         -2   -1    0    0    0  501 -0.00000000000E+00  0.00000000000E+00  0.23137885637E+02  0.23137885778E+02  0.25500000000E-02 0. -1.
          2   -1    0    0  501    0  0.00000000000E+00 -0.00000000000E+00 -0.18748510273E+04  0.18748510273E+04  0.25500000000E-02 0.  1.
    5000001    1    1    2    0    0  0.10578339480E+03 -0.65932666266E+02 -0.10391118537E+04  0.10594884084E+04  0.16500000000E+03 0.  0.
   -5000001    1    1    2    0    0 -0.10578339480E+03  0.65932666266E+02 -0.81260128797E+03  0.83850050466E+03  0.16500000000E+03 0.  0.
<mgrwt>
<rscale>  0 0.41655775E+03</rscale>
<asrwt>0</asrwt>
<pdfrwt beam="1">  1        2 0.26783576E+00 0.41655775E+03</pdfrwt>
<pdfrwt beam="2">  1       -2 0.33054134E-02 0.41655775E+03</pdfrwt>
<totfact> 0.37196281E+03</totfact>
</mgrwt>
</event>
<event>
 4    1  0.5399378E-005  0.8454885E+03  0.7818608E-02  0.9496412E-01
          2   -1    0    0  501    0  0.00000000000E+00  0.00000000000E+00  0.77314466144E+03  0.77314466145E+03  0.25500000000E-02 0.  1.
         -2   -1    0    0    0  501 -0.00000000000E+00 -0.00000000000E+00 -0.23115042500E+03  0.23115042501E+03  0.25500000000E-02 0. -1.
    5000001    1    1    2    0    0 -0.28560918288E+03 -0.26292202534E+03  0.30432242683E+03  0.52013242181E+03  0.16500000000E+03 0.  0.
   -5000001    1    1    2    0    0  0.28560918288E+03  0.26292202534E+03  0.23767180962E+03  0.48416266464E+03  0.16500000000E+03 0.  0.
<mgrwt>
<rscale>  0 0.84548854E+03</rscale>
<asrwt>0</asrwt>
<pdfrwt beam="1">  1        2 0.11044924E+00 0.84548854E+03</pdfrwt>
<pdfrwt beam="2">  1       -2 0.33021489E-01 0.84548854E+03</pdfrwt>
<totfact> 0.34063766E+02</totfact>
</mgrwt>
</event>
<event>
 4    1  0.5399378E-005  0.5416729E+03  0.7818608E-02  0.1003440E+00
         -2   -1    0    0    0  501 -0.00000000000E+00  0.00000000000E+00  0.14406179465E+02  0.14406179690E+02  0.25500000000E-02 0. -1.
          2   -1    0    0  501    0  0.00000000000E+00 -0.00000000000E+00 -0.50917306204E+04  0.50917306204E+04  0.25500000000E-02 0.  1.
    5000001    1    1    2    0    0 -0.11827499641E+03  0.12662381854E+03 -0.13423810712E+04  0.13635374973E+04  0.16500000000E+03 0.  0.
   -5000001    1    1    2    0    0  0.11827499641E+03 -0.12662381854E+03 -0.37349433697E+04  0.37425993028E+04  0.16500000000E+03 0.  0.
<mgrwt>
<rscale>  0 0.54167291E+03</rscale>
<asrwt>0</asrwt>
<pdfrwt beam="1">  1        2 0.72738894E+00 0.54167291E+03</pdfrwt>
<pdfrwt beam="2">  1       -2 0.20580289E-02 0.54167291E+03</pdfrwt>
<totfact> 0.68857425E+01</totfact>
</mgrwt>
</event>
<event>
 4    1  0.5399378E-005  0.5110453E+03  0.7818608E-02  0.1010935E+00
          2   -1    0    0  501    0  0.00000000000E+00  0.00000000000E+00  0.10578111780E+03  0.10578111783E+03  0.25500000000E-02 0.  1.
         -2   -1    0    0    0  501 -0.00000000000E+00 -0.00000000000E+00 -0.61723518403E+03  0.61723518403E+03  0.25500000000E-02 0. -1.
    5000001    1    1    2    0    0  0.29843376012E+02  0.16158490657E+03 -0.40455830389E+03  0.46678981391E+03  0.16500000000E+03 0.  0.
   -5000001    1    1    2    0    0 -0.29843376012E+02 -0.16158490657E+03 -0.10689576233E+03  0.25622648795E+03  0.16500000000E+03 0.  0.
<mgrwt>
<rscale>  0 0.51104531E+03</rscale>
<asrwt>0</asrwt>
<pdfrwt beam="1">  1        2 0.15111589E-01 0.51104531E+03</pdfrwt>
<pdfrwt beam="2">  1       -2 0.88176453E-01 0.51104531E+03</pdfrwt>
<totfact> 0.44450725E+02</totfact>
</mgrwt>
</event>
<event>
 4    1  0.5399378E-005  0.9449847E+03  0.7818608E-02  0.9371032E-01
         -2   -1    0    0    0  501 -0.00000000000E+00  0.00000000000E+00  0.32114374951E+03  0.32114374952E+03  0.25500000000E-02 0. -1.
          2   -1    0    0  501    0  0.00000000000E+00 -0.00000000000E+00 -0.69516852979E+03  0.69516852980E+03  0.25500000000E-02 0.  1.
    5000001    1    1    2    0    0 -0.12574521141E+03  0.39303641008E+03 -0.14483955872E+02  0.44466196466E+03  0.16500000000E+03 0.  0.
   -5000001    1    1    2    0    0  0.12574521141E+03 -0.39303641008E+03 -0.35954082441E+03  0.57165031466E+03  0.16500000000E+03 0.  0.
<mgrwt>
<rscale>  0 0.94498472E+03</rscale>
<asrwt>0</asrwt>
<pdfrwt beam="1">  1        2 0.99309790E-01 0.94498472E+03</pdfrwt>
<pdfrwt beam="2">  1       -2 0.45877679E-01 0.94498472E+03</pdfrwt>
<totfact> 0.20457705E+02</totfact>
</mgrwt>
</event>
<event>
 4    1  0.5399378E-005  0.5668400E+03  0.7818608E-02  0.9976696E-01
          2   -1    0    0  501    0  0.00000000000E+00  0.00000000000E+00  0.62486851110E+03  0.62486851111E+03  0.25500000000E-02 0.  1.
         -2   -1    0    0    0  501 -0.00000000000E+00 -0.00000000000E+00 -0.12855006659E+03  0.12855006661E+03  0.25500000000E-02 0. -1.
    5000001    1    1    2    0    0  0.98091189498E+02 -0.15328068887E+03  0.43605989799E+03  0.50048984572E+03  0.16500000000E+03 0.  0.
   -5000001    1    1    2    0    0 -0.98091189498E+02  0.15328068887E+03  0.60258546531E+02  0.25292873200E+03  0.16500000000E+03 0.  0.
<mgrwt>
<rscale>  0 0.56683997E+03</rscale>
<asrwt>0</asrwt>
<pdfrwt beam="1">  1        2 0.89266928E-01 0.56683997E+03</pdfrwt>
<pdfrwt beam="2">  1       -2 0.18364296E-01 0.56683997E+03</pdfrwt>
<totfact> 0.12808000E+03</totfact>
</mgrwt>
</event>
<event>
 4    1  0.5399378E-005  0.4045345E+03  0.7818608E-02  0.1042221E+00
          2   -1    0    0  501    0  0.00000000000E+00  0.00000000000E+00  0.20251703799E+03  0.20251703800E+03  0.25500000000E-02 0.  1.
         -2   -1    0    0    0  501 -0.00000000000E+00 -0.00000000000E+00 -0.20201777006E+03  0.20201777008E+03  0.25500000000E-02 0. -1.
    5000001    1    1    2    0    0 -0.20869476861E+02  0.47371065501E+02  0.10516628791E+03  0.20239688986E+03  0.16500000000E+03 0.  0.
   -5000001    1    1    2    0    0  0.20869476861E+02 -0.47371065501E+02 -0.10466701998E+03  0.20213791822E+03  0.16500000000E+03 0.  0.
<mgrwt>
<rscale>  0 0.40453450E+03</rscale>
<asrwt>0</asrwt>
<pdfrwt beam="1">  1        2 0.28931006E-01 0.40453450E+03</pdfrwt>
<pdfrwt beam="2">  1       -2 0.28859681E-01 0.40453450E+03</pdfrwt>
<totfact> 0.20198652E+03</totfact>
</mgrwt>
</event>
<event>
 4    1  0.5399378E-005  0.3555280E+03  0.7818608E-02  0.1060369E+00
          2   -1    0    0  501    0  0.00000000000E+00  0.00000000000E+00  0.18962911003E+04  0.18962911003E+04  0.25500000000E-02 0.  1.
         -2   -1    0    0    0  501 -0.00000000000E+00 -0.00000000000E+00 -0.16664127155E+02  0.16664127350E+02  0.25500000000E-02 0. -1.
    5000001    1    1    2    0    0 -0.65498810340E+02  0.90260272952E+01  0.92978637226E+03  0.94662519582E+03  0.16500000000E+03 0.  0.
   -5000001    1    1    2    0    0  0.65498810340E+02 -0.90260272952E+01  0.94984060086E+03  0.96633003180E+03  0.16500000000E+03 0.  0.
<mgrwt>
<rscale>  0 0.35552798E+03</rscale>
<asrwt>0</asrwt>
<pdfrwt beam="1">  1        2 0.27089884E+00 0.35552798E+03</pdfrwt>
<pdfrwt beam="2">  1       -2 0.23805886E-02 0.35552798E+03</pdfrwt>
<totfact> 0.59408040E+03</totfact>
</mgrwt>
</event>
<event>
 4    1  0.5399378E-005  0.4448589E+03  0.7818608E-02  0.1029266E+00
         -2   -1    0    0    0  501 -0.00000000000E+00  0.00000000000E+00  0.11639802918E+03  0.11639802921E+03  0.25500000000E-02 0.  1.
          2   -1    0    0  501    0  0.00000000000E+00 -0.00000000000E+00 -0.42504891584E+03  0.42504891584E+03  0.25500000000E-02 0. -1.
    5000001    1    1    2    0    0 -0.12450215259E+03 -0.76380431907E+02 -0.11750679351E+03  0.24973506541E+03  0.16500000000E+03 0.  0.
   -5000001    1    1    2    0    0  0.12450215259E+03  0.76380431907E+02 -0.19114409315E+03  0.29171187964E+03  0.16500000000E+03 0.  0.
<mgrwt>
<rscale>  0 0.44485888E+03</rscale>
<asrwt>0</asrwt>
<pdfrwt beam="1">  1        2 0.60721273E-01 0.44485888E+03</pdfrwt>
<pdfrwt beam="2">  1       -2 0.16628290E-01 0.44485888E+03</pdfrwt>
<totfact> 0.23515850E+03</totfact>
</mgrwt>
</event>
<event>
 4    1  0.5399378E-005  0.6629791E+03  0.7818608E-02  0.9782725E-01
          2   -1    0    0  501    0  0.00000000000E+00  0.00000000000E+00  0.42342286824E+04  0.42342286824E+04  0.25500000000E-02 0.  1.
         -2   -1    0    0    0  501 -0.00000000000E+00 -0.00000000000E+00 -0.25951671383E+02  0.25951671508E+02  0.25500000000E-02 0. -1.
    5000001    1    1    2    0    0 -0.21017413005E+03 -0.19094270599E+03  0.23935163790E+04  0.24159424535E+04  0.16500000000E+03 0.  0.
   -5000001    1    1    2    0    0  0.21017413005E+03  0.19094270599E+03  0.18147606320E+04  0.18442379004E+04  0.16500000000E+03 0.  0.
<mgrwt>
<rscale>  0 0.66297907E+03</rscale>
<asrwt>0</asrwt>
<pdfrwt beam="1">  1        2 0.60488978E+00 0.66297907E+03</pdfrwt>
<pdfrwt beam="2">  1       -2 0.37073818E-02 0.66297907E+03</pdfrwt>
<totfact> 0.14154337E+02</totfact>
</mgrwt>
</event>
<event>
 4    1  0.5399378E-005  0.3730990E+03  0.7818608E-02  0.1053514E+00
          2   -1    0    0  501    0  0.00000000000E+00  0.00000000000E+00  0.14556317459E+04  0.14556317459E+04  0.25500000000E-02 0.  1.
         -2   -1    0    0    0  501 -0.00000000000E+00 -0.00000000000E+00 -0.23907641605E+02  0.23907641741E+02  0.25500000000E-02 0. -1.
    5000001    1    1    2    0    0 -0.47002464886E+02  0.73056592888E+02  0.73729972335E+03  0.76051454918E+03  0.16500000000E+03 0.  0.
   -5000001    1    1    2    0    0  0.47002464886E+02 -0.73056592888E+02  0.69442438095E+03  0.71902483847E+03  0.16500000000E+03 0.  0.
<mgrwt>
<rscale>  0 0.37309903E+03</rscale>
<asrwt>0</asrwt>
<pdfrwt beam="1">  1        2 0.20794746E+00 0.37309903E+03</pdfrwt>
<pdfrwt beam="2">  1       -2 0.34153762E-02 0.37309903E+03</pdfrwt>
<totfact> 0.57547856E+03</totfact>
</mgrwt>
</event>
<event>
 4    1  0.5399378E-005  0.4496940E+03  0.7818608E-02  0.1027813E+00
          2   -1    0    0  501    0  0.00000000000E+00  0.00000000000E+00  0.25639929218E+04  0.25639929218E+04  0.25500000000E-02 0.  1.
         -2   -1    0    0    0  501 -0.00000000000E+00 -0.00000000000E+00 -0.19717749021E+02  0.19717749186E+02  0.25500000000E-02 0. -1.
    5000001    1    1    2    0    0  0.11890074589E+03  0.92027035104E+02  0.11174562676E+04  0.11395349369E+04  0.16500000000E+03 0.  0.
   -5000001    1    1    2    0    0 -0.11890074589E+03 -0.92027035104E+02  0.14268189052E+04  0.14441757340E+04  0.16500000000E+03 0.  0.
<mgrwt>
<rscale>  0 0.44969398E+03</rscale>
<asrwt>0</asrwt>
<pdfrwt beam="1">  1        2 0.36628486E+00 0.44969398E+03</pdfrwt>
<pdfrwt beam="2">  1       -2 0.28168201E-02 0.44969398E+03</pdfrwt>
<totfact> 0.21382035E+03</totfact>
</mgrwt>
</event>
<event>
 4    1  0.5399378E-005  0.5040631E+03  0.7818608E-02  0.1012724E+00
         -2   -1    0    0    0  501 -0.00000000000E+00  0.00000000000E+00  0.31609357802E+02  0.31609357905E+02  0.25500000000E-02 0. -1.
          2   -1    0    0  501    0  0.00000000000E+00 -0.00000000000E+00 -0.20095286530E+04  0.20095286530E+04  0.25500000000E-02 0.  1.
    5000001    1    1    2    0    0 -0.15871140613E+03 -0.98386395204E+02 -0.83606083302E+03  0.87240581710E+03  0.16500000000E+03 0.  0.
   -5000001    1    1    2    0    0  0.15871140613E+03  0.98386395204E+02 -0.11418584621E+04  0.11687321938E+04  0.16500000000E+03 0.  0.
<mgrwt>
<rscale>  0 0.50406313E+03</rscale>
<asrwt>0</asrwt>
<pdfrwt beam="1">  1        2 0.28707544E+00 0.50406313E+03</pdfrwt>
<pdfrwt beam="2">  1       -2 0.45156238E-02 0.50406313E+03</pdfrwt>
<totfact> 0.19759428E+03</totfact>
</mgrwt>
</event>
<event>
 4    1  0.5399378E-005  0.5121781E+03  0.7818608E-02  0.1010648E+00
          2   -1    0    0  501    0  0.00000000000E+00  0.00000000000E+00  0.22517389553E+04  0.22517389553E+04  0.25500000000E-02 0.  1.
         -2   -1    0    0    0  501 -0.00000000000E+00 -0.00000000000E+00 -0.29124863222E+02  0.29124863334E+02  0.25500000000E-02 0. -1.
    5000001    1    1    2    0    0  0.12943978133E+03 -0.10007410088E+03  0.63194251967E+03  0.67330960993E+03  0.16500000000E+03 0.  0.
   -5000001    1    1    2    0    0 -0.12943978133E+03  0.10007410088E+03  0.15906715724E+04  0.16075542087E+04  0.16500000000E+03 0.  0.
<mgrwt>
<rscale>  0 0.51217805E+03</rscale>
<asrwt>0</asrwt>
<pdfrwt beam="1">  1        2 0.32167695E+00 0.51217805E+03</pdfrwt>
<pdfrwt beam="2">  1       -2 0.41606953E-02 0.51217805E+03</pdfrwt>
<totfact> 0.16945910E+03</totfact>
</mgrwt>
</event>
<event>
 4    1  0.5399378E-005  0.7428040E+03  0.7818608E-02  0.9646708E-01
         -2   -1    0    0    0  501 -0.00000000000E+00  0.00000000000E+00  0.14721724618E+03  0.14721724620E+03  0.25500000000E-02 0. -1.
          2   -1    0    0  501    0  0.00000000000E+00 -0.00000000000E+00 -0.93697888336E+03  0.93697888337E+03  0.25500000000E-02 0.  1.
    5000001    1    1    2    0    0  0.23733824691E+03 -0.21092120410E+03 -0.24967268271E+03  0.43632401524E+03  0.16500000000E+03 0.  0.
   -5000001    1    1    2    0    0 -0.23733824691E+03  0.21092120410E+03 -0.54008895447E+03  0.64787211433E+03  0.16500000000E+03 0.  0.
<mgrwt>
<rscale>  0 0.74280401E+03</rscale>
<asrwt>0</asrwt>
<pdfrwt beam="1">  1        2 0.13385412E+00 0.74280401E+03</pdfrwt>
<pdfrwt beam="2">  1       -2 0.21031036E-01 0.74280401E+03</pdfrwt>
<totfact> 0.60304048E+02</totfact>
</mgrwt>
</event>
<event>
 4    1  0.5399378E-005  0.4480915E+03  0.7818608E-02  0.1028293E+00
          2   -1    0    0  501    0  0.00000000000E+00  0.00000000000E+00  0.18657393291E+03  0.18657393293E+03  0.25500000000E-02 0.  1.
         -2   -1    0    0    0  501 -0.00000000000E+00 -0.00000000000E+00 -0.26904349047E+03  0.26904349049E+03  0.25500000000E-02 0. -1.
    5000001    1    1    2    0    0  0.43212457185E+02  0.82973021838E+02  0.80014246950E+02  0.20586189187E+03  0.16500000000E+03 0.  0.
   -5000001    1    1    2    0    0 -0.43212457185E+02 -0.82973021838E+02 -0.16248380451E+03  0.24975553155E+03  0.16500000000E+03 0.  0.
<mgrwt>
<rscale>  0 0.44809152E+03</rscale>
<asrwt>0</asrwt>
<pdfrwt beam="1">  1        2 0.26653419E-01 0.44809152E+03</pdfrwt>
<pdfrwt beam="2">  1       -2 0.38434784E-01 0.44809152E+03</pdfrwt>
<totfact> 0.12982646E+03</totfact>
</mgrwt>
</event>
<event>
 4    1  0.5399378E-005  0.4030094E+03  0.7818608E-02  0.1042743E+00
         -2   -1    0    0    0  501 -0.00000000000E+00  0.00000000000E+00  0.53412760734E+02  0.53412760795E+02  0.25500000000E-02 0. -1.
          2   -1    0    0  501    0  0.00000000000E+00 -0.00000000000E+00 -0.76019552760E+03  0.76019552760E+03  0.25500000000E-02 0.  1.
    5000001    1    1    2    0    0  0.96758952717E+02 -0.60493684737E+02 -0.31522739149E+03  0.37365102591E+03  0.16500000000E+03 0.  0.
   -5000001    1    1    2    0    0 -0.96758952717E+02  0.60493684737E+02 -0.39155537538E+03  0.43995726248E+03  0.16500000000E+03 0.  0.
<mgrwt>
<rscale>  0 0.40300939E+03</rscale>
<asrwt>0</asrwt>
<pdfrwt beam="1">  1        2 0.10859935E+00 0.40300939E+03</pdfrwt>
<pdfrwt beam="2">  1       -2 0.76303949E-02 0.40300939E+03</pdfrwt>
<totfact> 0.42566409E+03</totfact>
</mgrwt>
</event>
<event>
 4    1  0.5399378E-005  0.3843990E+03  0.7818608E-02  0.1049320E+00
         -2   -1    0    0    0  501 -0.00000000000E+00  0.00000000000E+00  0.14353581341E+02  0.14353581567E+02  0.25500000000E-02 0. -1.
          2   -1    0    0  501    0  0.00000000000E+00 -0.00000000000E+00 -0.25736189146E+04  0.25736189146E+04  0.25500000000E-02 0.  1.
    5000001    1    1    2    0    0 -0.18401954079E+01 -0.93135565309E+02 -0.14965439383E+04  0.15084914249E+04  0.16500000000E+03 0.  0.
   -5000001    1    1    2    0    0  0.18401954079E+01  0.93135565309E+02 -0.10627213950E+04  0.10794810713E+04  0.16500000000E+03 0.  0.
<mgrwt>
<rscale>  0 0.38439900E+03</rscale>
<asrwt>0</asrwt>
<pdfrwt beam="1">  1        2 0.36765955E+00 0.38439900E+03</pdfrwt>
<pdfrwt beam="2">  1       -2 0.20505133E-02 0.38439900E+03</pdfrwt>
<totfact> 0.34126212E+03</totfact>
</mgrwt>
</event>
<event>
 4    1  0.5399378E-005  0.6056750E+03  0.7818608E-02  0.9893702E-01
         -2   -1    0    0    0  501 -0.00000000000E+00  0.00000000000E+00  0.10938465159E+03  0.10938465162E+03  0.25500000000E-02 0. -1.
          2   -1    0    0  501    0  0.00000000000E+00 -0.00000000000E+00 -0.83842248060E+03  0.83842248061E+03  0.25500000000E-02 0.  1.
    5000001    1    1    2    0    0  0.75147809815E+02  0.21541892611E+03 -0.53900831840E+03  0.60811797733E+03  0.16500000000E+03 0.  0.
   -5000001    1    1    2    0    0 -0.75147809815E+02 -0.21541892611E+03 -0.19002951062E+03  0.33968915489E+03  0.16500000000E+03 0.  0.
<mgrwt>
<rscale>  0 0.60567500E+03</rscale>
<asrwt>0</asrwt>
<pdfrwt beam="1">  1        2 0.11977464E+00 0.60567500E+03</pdfrwt>
<pdfrwt beam="2">  1       -2 0.15626379E-01 0.60567500E+03</pdfrwt>
<totfact> 0.11717536E+03</totfact>
</mgrwt>
</event>
<event>
 4    1  0.5399378E-005  0.4060549E+03  0.7818608E-02  0.1041703E+00
          2   -1    0    0  501    0  0.00000000000E+00  0.00000000000E+00  0.46249591829E+03  0.46249591829E+03  0.25500000000E-02 0.  1.
         -2   -1    0    0    0  501 -0.00000000000E+00 -0.00000000000E+00 -0.89125423830E+02  0.89125423866E+02  0.25500000000E-02 0. -1.
    5000001    1    1    2    0    0  0.10822815922E+03 -0.37866417213E+02  0.14712672255E+03  0.24903508285E+03  0.16500000000E+03 0.  0.
   -5000001    1    1    2    0    0 -0.10822815922E+03  0.37866417213E+02  0.22624377191E+03  0.30258625931E+03  0.16500000000E+03 0.  0.
<mgrwt>
<rscale>  0 0.40605490E+03</rscale>
<asrwt>0</asrwt>
<pdfrwt beam="1">  1        2 0.66070845E-01 0.40605490E+03</pdfrwt>
<pdfrwt beam="2">  1       -2 0.12732203E-01 0.40605490E+03</pdfrwt>
<totfact> 0.33362067E+03</totfact>
</mgrwt>
</event>
<event>
 4    1  0.5399378E-005  0.5892526E+03  0.7818608E-02  0.9927958E-01
         -2   -1    0    0    0  501 -0.00000000000E+00  0.00000000000E+00  0.38248732502E+02  0.38248732587E+02  0.25500000000E-02 0. -1.
          2   -1    0    0  501    0  0.00000000000E+00 -0.00000000000E+00 -0.22694779583E+04  0.22694779583E+04  0.25500000000E-02 0.  1.
    5000001    1    1    2    0    0  0.53228267751E+02 -0.51936755763E+02 -0.20512159177E+03  0.27355171814E+03  0.16500000000E+03 0.  0.
   -5000001    1    1    2    0    0 -0.53228267751E+02  0.51936755763E+02 -0.20261076340E+04  0.20341749727E+04  0.16500000000E+03 0.  0.
<mgrwt>
<rscale>  0 0.58925260E+03</rscale>
<asrwt>0</asrwt>
<pdfrwt beam="1">  1        2 0.32421105E+00 0.58925260E+03</pdfrwt>
<pdfrwt beam="2">  1       -2 0.54641061E-02 0.58925260E+03</pdfrwt>
<totfact> 0.10845627E+03</totfact>
</mgrwt>
</event>
<event>
 4    1  0.5399378E-005  0.4180234E+03  0.7818608E-02  0.1037712E+00
         -2   -1    0    0    0  501 -0.00000000000E+00  0.00000000000E+00  0.25169371523E+03  0.25169371524E+03  0.25500000000E-02 0. -1.
          2   -1    0    0  501    0  0.00000000000E+00 -0.00000000000E+00 -0.17356765146E+03  0.17356765147E+03  0.25500000000E-02 0.  1.
    5000001    1    1    2    0    0 -0.88187104872E+02  0.92648174370E+02  0.28877817463E+02  0.21075952653E+03  0.16500000000E+03 0.  0.
   -5000001    1    1    2    0    0  0.88187104872E+02 -0.92648174370E+02  0.49248246306E+02  0.21450184019E+03  0.16500000000E+03 0.  0.
<mgrwt>
<rscale>  0 0.41802338E+03</rscale>
<asrwt>0</asrwt>
<pdfrwt beam="1">  1        2 0.24795379E-01 0.41802338E+03</pdfrwt>
<pdfrwt beam="2">  1       -2 0.35956245E-01 0.41802338E+03</pdfrwt>
<totfact> 0.15983619E+03</totfact>
</mgrwt>
</event>
<event>
 4    1  0.5399378E-005  0.5113327E+03  0.7818608E-02  0.1010863E+00
         -2   -1    0    0    0  501 -0.00000000000E+00  0.00000000000E+00  0.18942274607E+03  0.18942274609E+03  0.25500000000E-02 0. -1.
          2   -1    0    0  501    0  0.00000000000E+00 -0.00000000000E+00 -0.34507616800E+03  0.34507616801E+03  0.25500000000E-02 0.  1.
    5000001    1    1    2    0    0  0.66670143620E+02 -0.18185869040E+03 -0.51740439032E+02  0.25965277652E+03  0.16500000000E+03 0.  0.
   -5000001    1    1    2    0    0 -0.66670143620E+02  0.18185869040E+03 -0.10391298290E+03  0.27484613758E+03  0.16500000000E+03 0.  0.
<mgrwt>
<rscale>  0 0.51133267E+03</rscale>
<asrwt>0</asrwt>
<pdfrwt beam="1">  1        2 0.49296595E-01 0.51133267E+03</pdfrwt>
<pdfrwt beam="2">  1       -2 0.27060393E-01 0.51133267E+03</pdfrwt>
<totfact> 0.12643151E+03</totfact>
</mgrwt>
</event>
<event>
 4    1  0.5399378E-005  0.4743834E+03  0.7818608E-02  0.1020690E+00
          2   -1    0    0  501    0  0.00000000000E+00  0.00000000000E+00  0.12602374214E+04  0.12602374214E+04  0.25500000000E-02 0.  1.
         -2   -1    0    0    0  501 -0.00000000000E+00 -0.00000000000E+00 -0.44642307162E+02  0.44642307235E+02  0.25500000000E-02 0. -1.
    5000001    1    1    2    0    0  0.12709780764E+03  0.24193249651E+02  0.30278457516E+03  0.36829697934E+03  0.16500000000E+03 0.  0.
   -5000001    1    1    2    0    0 -0.12709780764E+03 -0.24193249651E+02  0.91281053908E+03  0.93658274930E+03  0.16500000000E+03 0.  0.
<mgrwt>
<rscale>  0 0.47438342E+03</rscale>
<asrwt>0</asrwt>
<pdfrwt beam="1">  1        2 0.18003390E+00 0.47438342E+03</pdfrwt>
<pdfrwt beam="2">  1       -2 0.63774732E-02 0.47438342E+03</pdfrwt>
<totfact> 0.28042992E+03</totfact>
</mgrwt>
</event>
<event>
 4    1  0.5399378E-005  0.4838020E+03  0.7818608E-02  0.1018095E+00
          2   -1    0    0  501    0  0.00000000000E+00  0.00000000000E+00  0.22011020981E+03  0.22011020982E+03  0.25500000000E-02 0.  1.
         -2   -1    0    0    0  501 -0.00000000000E+00 -0.00000000000E+00 -0.26584910269E+03  0.26584910270E+03  0.25500000000E-02 0. -1.
    5000001    1    1    2    0    0 -0.10619364154E+03  0.98142411234E+02  0.79477382864E+02  0.23334668794E+03  0.16500000000E+03 0.  0.
   -5000001    1    1    2    0    0  0.10619364154E+03 -0.98142411234E+02 -0.12521627575E+03  0.25261262458E+03  0.16500000000E+03 0.  0.
<mgrwt>
<rscale>  0 0.48380203E+03</rscale>
<asrwt>0</asrwt>
<pdfrwt beam="1">  1        2 0.31444316E-01 0.48380203E+03</pdfrwt>
<pdfrwt beam="2">  1       -2 0.37978443E-01 0.48380203E+03</pdfrwt>
<totfact> 0.11043271E+03</totfact>
</mgrwt>
</event>
<event>
 4    1  0.5399378E-005  0.6680103E+03  0.7818608E-02  0.9773559E-01
          2   -1    0    0  501    0  0.00000000000E+00  0.00000000000E+00  0.13081042520E+04  0.13081042520E+04  0.25500000000E-02 0.  1.
         -2   -1    0    0    0  501 -0.00000000000E+00 -0.00000000000E+00 -0.85283284369E+02  0.85283284407E+02  0.25500000000E-02 0. -1.
    5000001    1    1    2    0    0 -0.14286181700E+03 -0.23231803006E+03  0.40331076821E+03  0.51406783755E+03  0.16500000000E+03 0.  0.
   -5000001    1    1    2    0    0  0.14286181700E+03  0.23231803006E+03  0.81951019945E+03  0.87931969889E+03  0.16500000000E+03 0.  0.
<mgrwt>
<rscale>  0 0.66801026E+03</rscale>
<asrwt>0</asrwt>
<pdfrwt beam="1">  1        2 0.18687203E+00 0.66801026E+03</pdfrwt>
<pdfrwt beam="2">  1       -2 0.12183327E-01 0.66801026E+03</pdfrwt>
<totfact> 0.93054168E+02</totfact>
</mgrwt>
</event>
<event>
 4    1  0.5399378E-005  0.4176880E+03  0.7818608E-02  0.1037821E+00
         -2   -1    0    0    0  501 -0.00000000000E+00  0.00000000000E+00  0.21137926230E+03  0.21137926231E+03  0.25500000000E-02 0. -1.
          2   -1    0    0  501    0  0.00000000000E+00 -0.00000000000E+00 -0.20633911365E+03  0.20633911367E+03  0.25500000000E-02 0.  1.
    5000001    1    1    2    0    0 -0.11571485647E+03 -0.52700108416E+02 -0.12433612652E+02  0.20867875828E+03  0.16500000000E+03 0.  0.
   -5000001    1    1    2    0    0  0.11571485647E+03  0.52700108416E+02  0.17473761296E+02  0.20903961770E+03  0.16500000000E+03 0.  0.
<mgrwt>
<rscale>  0 0.41768797E+03</rscale>
<asrwt>0</asrwt>
<pdfrwt beam="1">  1        2 0.29477016E-01 0.41768797E+03</pdfrwt>
<pdfrwt beam="2">  1       -2 0.30197038E-01 0.41768797E+03</pdfrwt>
<totfact> 0.18217459E+03</totfact>
</mgrwt>
</event>
<event>
 4    1  0.5399378E-005  0.4251866E+03  0.7818608E-02  0.1035391E+00
         -2   -1    0    0    0  501 -0.00000000000E+00  0.00000000000E+00  0.19128570843E+04  0.19128570843E+04  0.25500000000E-02 0.  1.
          2   -1    0    0  501    0  0.00000000000E+00 -0.00000000000E+00 -0.23627432285E+02  0.23627432423E+02  0.25500000000E-02 0. -1.
    5000001    1    1    2    0    0  0.95753334433E+01 -0.11165926041E+03  0.60957974352E+03  0.64138283510E+03  0.16500000000E+03 0.  0.
   -5000001    1    1    2    0    0 -0.95753334433E+01  0.11165926041E+03  0.12796499085E+04  0.12951016816E+04  0.16500000000E+03 0.  0.
<mgrwt>
<rscale>  0 0.42518655E+03</rscale>
<asrwt>0</asrwt>
<pdfrwt beam="1">  1        2 0.33753470E-02 0.42518655E+03</pdfrwt>
<pdfrwt beam="2">  1       -2 0.27326534E+00 0.42518655E+03</pdfrwt>
<totfact> 0.13851839E+02</totfact>
</mgrwt>
</event>
<event>
 4    1  0.5399378E-005  0.1194548E+04  0.7818608E-02  0.9117642E-01
         -2   -1    0    0    0  501 -0.00000000000E+00  0.00000000000E+00  0.47634682274E+03  0.47634682275E+03  0.25500000000E-02 0. -1.
          2   -1    0    0  501    0  0.00000000000E+00 -0.00000000000E+00 -0.74890041010E+03  0.74890041010E+03  0.25500000000E-02 0.  1.
    5000001    1    1    2    0    0 -0.44773710394E+03  0.82239650834E+02  0.22239466082E+03  0.53283792993E+03  0.16500000000E+03 0.  0.
   -5000001    1    1    2    0    0  0.44773710394E+03 -0.82239650834E+02 -0.49494824817E+03  0.69240930293E+03  0.16500000000E+03 0.  0.
<mgrwt>
<rscale>  0 0.11945482E+04</rscale>
<asrwt>0</asrwt>
<pdfrwt beam="1">  1        2 0.10698577E+00 0.11945482E+04</pdfrwt>
<pdfrwt beam="2">  1       -2 0.68049546E-01 0.11945482E+04</pdfrwt>
<totfact> 0.80805484E+01</totfact>
</mgrwt>
</event>
<event>
 4    1  0.5399378E-005  0.5120637E+03  0.7818608E-02  0.1010677E+00
          2   -1    0    0  501    0  0.00000000000E+00  0.00000000000E+00  0.12913063148E+04  0.12913063148E+04  0.25500000000E-02 0.  1.
         -2   -1    0    0    0  501 -0.00000000000E+00 -0.00000000000E+00 -0.50764337801E+02  0.50764337866E+02  0.25500000000E-02 0. -1.
    5000001    1    1    2    0    0 -0.11601423959E+03  0.15676835143E+03  0.66503328025E+03  0.71241131633E+03  0.16500000000E+03 0.  0.
   -5000001    1    1    2    0    0  0.11601423959E+03 -0.15676835143E+03  0.57550869674E+03  0.62965933633E+03  0.16500000000E+03 0.  0.
<mgrwt>
<rscale>  0 0.51206371E+03</rscale>
<asrwt>0</asrwt>
<pdfrwt beam="1">  1        2 0.18447230E+00 0.51206371E+03</pdfrwt>
<pdfrwt beam="2">  1       -2 0.72520494E-02 0.51206371E+03</pdfrwt>
<totfact> 0.22036107E+03</totfact>
</mgrwt>
</event>
<event>
 4    1  0.5399378E-005  0.5288145E+03  0.7818608E-02  0.1006520E+00
         -2   -1    0    0    0  501 -0.00000000000E+00  0.00000000000E+00  0.80475385496E+02  0.80475385536E+02  0.25500000000E-02 0. -1.
          2   -1    0    0  501    0  0.00000000000E+00 -0.00000000000E+00 -0.86872779848E+03  0.86872779848E+03  0.25500000000E-02 0.  1.
    5000001    1    1    2    0    0  0.18662399683E+01  0.16129057229E+03 -0.62586486811E+03  0.66704569911E+03  0.16500000000E+03 0.  0.
   -5000001    1    1    2    0    0 -0.18662399683E+01 -0.16129057229E+03 -0.16238754487E+03  0.28215748491E+03  0.16500000000E+03 0.  0.
<mgrwt>
<rscale>  0 0.52881454E+03</rscale>
<asrwt>0</asrwt>
<pdfrwt beam="1">  1        2 0.12410397E+00 0.52881454E+03</pdfrwt>
<pdfrwt beam="2">  1       -2 0.11496484E-01 0.52881454E+03</pdfrwt>
<totfact> 0.18648753E+03</totfact>
</mgrwt>
</event>
<event>
 4    1  0.5399378E-005  0.8436639E+03  0.7818608E-02  0.9498881E-01
         -2   -1    0    0    0  501 -0.00000000000E+00  0.00000000000E+00  0.55039705218E+02  0.55039705277E+02  0.25500000000E-02 0. -1.
          2   -1    0    0  501    0  0.00000000000E+00 -0.00000000000E+00 -0.32329783219E+04  0.32329783219E+04  0.25500000000E-02 0.  1.
    5000001    1    1    2    0    0  0.29064735755E+03 -0.21721380442E+03 -0.21270159654E+04  0.21640424304E+04  0.16500000000E+03 0.  0.
   -5000001    1    1    2    0    0 -0.29064735755E+03  0.21721380442E+03 -0.10509226512E+04  0.11239755968E+04  0.16500000000E+03 0.  0.
<mgrwt>
<rscale>  0 0.84366385E+03</rscale>
<asrwt>0</asrwt>
<pdfrwt beam="1">  1        2 0.46185393E+00 0.84366385E+03</pdfrwt>
<pdfrwt beam="2">  1       -2 0.78628171E-02 0.84366385E+03</pdfrwt>
<totfact> 0.18347406E+02</totfact>
</mgrwt>
</event>
<event>
 4    1  0.5399378E-005  0.5553388E+03  0.7818608E-02  0.1000266E+00
          2   -1    0    0  501    0  0.00000000000E+00  0.00000000000E+00  0.13614935917E+04  0.13614935917E+04  0.25500000000E-02 0.  1.
         -2   -1    0    0    0  501 -0.00000000000E+00 -0.00000000000E+00 -0.56629201939E+02  0.56629201996E+02  0.25500000000E-02 0. -1.
    5000001    1    1    2    0    0 -0.17685801603E+02 -0.22250836553E+03  0.67094112556E+03  0.72609211143E+03  0.16500000000E+03 0.  0.
   -5000001    1    1    2    0    0  0.17685801603E+02  0.22250836553E+03  0.63392326422E+03  0.69203068229E+03  0.16500000000E+03 0.  0.
<mgrwt>
<rscale>  0 0.55533880E+03</rscale>
<asrwt>0</asrwt>
<pdfrwt beam="1">  1        2 0.19449911E+00 0.55533880E+03</pdfrwt>
<pdfrwt beam="2">  1       -2 0.80898849E-02 0.55533880E+03</pdfrwt>
<totfact> 0.16972318E+03</totfact>
</mgrwt>
</event>
<event>
 4    1  0.5399378E-005  0.5258368E+03  0.7818608E-02  0.1007247E+00
         -2   -1    0    0    0  501 -0.00000000000E+00  0.00000000000E+00  0.68392786324E+02  0.68392786372E+02  0.25500000000E-02 0. -1.
          2   -1    0    0  501    0  0.00000000000E+00 -0.00000000000E+00 -0.10107219865E+04  0.10107219865E+04  0.25500000000E-02 0.  1.
    5000001    1    1    2    0    0  0.13268882568E+03  0.16194629277E+02 -0.15302616955E+03  0.26174529422E+03  0.16500000000E+03 0.  0.
   -5000001    1    1    2    0    0 -0.13268882568E+03 -0.16194629277E+02 -0.78930303062E+03  0.81736947864E+03  0.16500000000E+03 0.  0.
<mgrwt>
<rscale>  0 0.52583683E+03</rscale>
<asrwt>0</asrwt>
<pdfrwt beam="1">  1        2 0.14438885E+00 0.52583683E+03</pdfrwt>
<pdfrwt beam="2">  1       -2 0.97703987E-02 0.52583683E+03</pdfrwt>
<totfact> 0.19780822E+03</totfact>
</mgrwt>
</event>
<event>
 4    1  0.5399378E-005  0.5481975E+03  0.7818608E-02  0.1001912E+00
         -2   -1    0    0    0  501 -0.00000000000E+00  0.00000000000E+00  0.10266108103E+03  0.10266108107E+03  0.25500000000E-02 0. -1.
          2   -1    0    0  501    0  0.00000000000E+00 -0.00000000000E+00 -0.73182668331E+03  0.73182668331E+03  0.25500000000E-02 0.  1.
    5000001    1    1    2    0    0 -0.14606642485E+03 -0.88441091648E+02 -0.10615331676E+03  0.26009758519E+03  0.16500000000E+03 0.  0.
   -5000001    1    1    2    0    0  0.14606642485E+03  0.88441091648E+02 -0.52301228551E+03  0.57439017919E+03  0.16500000000E+03 0.  0.
<mgrwt>
<rscale>  0 0.54819748E+03</rscale>
<asrwt>0</asrwt>
<pdfrwt beam="1">  1        2 0.10454667E+00 0.54819748E+03</pdfrwt>
<pdfrwt beam="2">  1       -2 0.14665869E-01 0.54819748E+03</pdfrwt>
<totfact> 0.15500213E+03</totfact>
</mgrwt>
</event>
<event>
 4    1  0.5399378E-005  0.6110778E+03  0.7818608E-02  0.9882686E-01
         -2   -1    0    0    0  501 -0.00000000000E+00  0.00000000000E+00  0.47115104607E+03  0.47115104607E+03  0.25500000000E-02 0. -1.
          2   -1    0    0  501    0  0.00000000000E+00 -0.00000000000E+00 -0.19814032717E+03  0.19814032718E+03  0.25500000000E-02 0.  1.
    5000001    1    1    2    0    0 -0.18133664224E+03 -0.84247310837E+02 -0.40604021989E+02  0.26240097904E+03  0.16500000000E+03 0.  0.
   -5000001    1    1    2    0    0  0.18133664224E+03  0.84247310837E+02  0.31361474089E+03  0.40689039422E+03  0.16500000000E+03 0.  0.
<mgrwt>
<rscale>  0 0.61107781E+03</rscale>
<asrwt>0</asrwt>
<pdfrwt beam="1">  1        2 0.28305761E-01 0.61107781E+03</pdfrwt>
<pdfrwt beam="2">  1       -2 0.67307292E-01 0.61107781E+03</pdfrwt>
<totfact> 0.38853343E+02</totfact>
</mgrwt>
</event>
<event>
 4    1  0.5399378E-005  0.4151456E+03  0.7818608E-02  0.1038658E+00
         -2   -1    0    0    0  501 -0.00000000000E+00  0.00000000000E+00  0.11992577261E+03  0.11992577263E+03  0.25500000000E-02 0. -1.
          2   -1    0    0  501    0  0.00000000000E+00 -0.00000000000E+00 -0.35927609276E+03  0.35927609277E+03  0.25500000000E-02 0.  1.
    5000001    1    1    2    0    0 -0.12117481870E+03  0.30820164649E+02 -0.13711399852E+03  0.24831123177E+03  0.16500000000E+03 0.  0.
   -5000001    1    1    2    0    0  0.12117481870E+03 -0.30820164649E+02 -0.10223632164E+03  0.23089063363E+03  0.16500000000E+03 0.  0.
<mgrwt>
<rscale>  0 0.41514558E+03</rscale>
<asrwt>0</asrwt>
<pdfrwt beam="1">  1        2 0.51325156E-01 0.41514558E+03</pdfrwt>
<pdfrwt beam="2">  1       -2 0.17132253E-01 0.41514558E+03</pdfrwt>
<totfact> 0.26870021E+03</totfact>
</mgrwt>
</event>
<event>
 4    1  0.5399378E-005  0.5105437E+03  0.7818608E-02  0.1011063E+00
          2   -1    0    0  501    0  0.00000000000E+00  0.00000000000E+00  0.10962821000E+04  0.10962821000E+04  0.25500000000E-02 0.  1.
         -2   -1    0    0    0  501 -0.00000000000E+00 -0.00000000000E+00 -0.59440653204E+02  0.59440653259E+02  0.25500000000E-02 0. -1.
    5000001    1    1    2    0    0 -0.16780458262E+02  0.18522252656E+03  0.64943762007E+03  0.69540145994E+03  0.16500000000E+03 0.  0.
   -5000001    1    1    2    0    0  0.16780458262E+02 -0.18522252656E+03  0.38740382675E+03  0.46032129335E+03  0.16500000000E+03 0.  0.
<mgrwt>
<rscale>  0 0.51054373E+03</rscale>
<asrwt>0</asrwt>
<pdfrwt beam="1">  1        2 0.15661172E+00 0.51054373E+03</pdfrwt>
<pdfrwt beam="2">  1       -2 0.84915221E-02 0.51054373E+03</pdfrwt>
<totfact> 0.22053237E+03</totfact>
</mgrwt>
</event>
<event>
 4    1  0.5399378E-005  0.4005584E+03  0.7818608E-02  0.1043586E+00
          2   -1    0    0  501    0  0.00000000000E+00  0.00000000000E+00  0.42430784857E+03  0.42430784858E+03  0.25500000000E-02 0.  1.
         -2   -1    0    0    0  501 -0.00000000000E+00 -0.00000000000E+00 -0.94534571215E+02  0.94534571250E+02  0.25500000000E-02 0. -1.
    5000001    1    1    2    0    0 -0.98084371732E+02  0.20040629621E+02  0.95559889910E+02  0.21535752453E+03  0.16500000000E+03 0.  0.
   -5000001    1    1    2    0    0  0.98084371732E+02 -0.20040629621E+02  0.23421338745E+03  0.30348489530E+03  0.16500000000E+03 0.  0.
<mgrwt>
<rscale>  0 0.40055841E+03</rscale>
<asrwt>0</asrwt>
<pdfrwt beam="1">  1        2 0.60615407E-01 0.40055841E+03</pdfrwt>
<pdfrwt beam="2">  1       -2 0.13504939E-01 0.40055841E+03</pdfrwt>
<totfact> 0.33299863E+03</totfact>
</mgrwt>
</event>
<event>
 4    1  0.5399378E-005  0.5967883E+03  0.7818608E-02  0.9912092E-01
         -2   -1    0    0    0  501 -0.00000000000E+00  0.00000000000E+00  0.11800823931E+03  0.11800823934E+03  0.25500000000E-02 0. -1.
          2   -1    0    0  501    0  0.00000000000E+00 -0.00000000000E+00 -0.75451562749E+03  0.75451562749E+03  0.25500000000E-02 0.  1.
    5000001    1    1    2    0    0 -0.74750989886E+02  0.17251426020E+03 -0.80408454757E+02  0.26275349676E+03  0.16500000000E+03 0.  0.
   -5000001    1    1    2    0    0  0.74750989886E+02 -0.17251426020E+03 -0.55609893342E+03  0.60977037007E+03  0.16500000000E+03 0.  0.
<mgrwt>
<rscale>  0 0.59678827E+03</rscale>
<asrwt>0</asrwt>
<pdfrwt beam="1">  1        2 0.10778794E+00 0.59678827E+03</pdfrwt>
<pdfrwt beam="2">  1       -2 0.16858320E-01 0.59678827E+03</pdfrwt>
<totfact> 0.11785645E+03</totfact>
</mgrwt>
</event>
<event>
 4    1  0.5399378E-005  0.8277880E+03  0.7818608E-02  0.9520644E-01
          2   -1    0    0  501    0  0.00000000000E+00  0.00000000000E+00  0.13139571371E+04  0.13139571371E+04  0.25500000000E-02 0.  1.
         -2   -1    0    0    0  501 -0.00000000000E+00 -0.00000000000E+00 -0.13037583744E+03  0.13037583746E+03  0.25500000000E-02 0. -1.
    5000001    1    1    2    0    0 -0.19084153949E+03 -0.32765837914E+03  0.62215012105E+03  0.74704503193E+03  0.16500000000E+03 0.  0.
   -5000001    1    1    2    0    0  0.19084153949E+03  0.32765837914E+03  0.56143117862E+03  0.69728794264E+03  0.16500000000E+03 0.  0.
<mgrwt>
<rscale>  0 0.82778805E+03</rscale>
<asrwt>0</asrwt>
<pdfrwt beam="1">  1        2 0.18770816E+00 0.82778805E+03</pdfrwt>
<pdfrwt beam="2">  1       -2 0.18625120E-01 0.82778805E+03</pdfrwt>
<totfact> 0.44735964E+02</totfact>
</mgrwt>
</event>
<event>
 4    1  0.5399378E-005  0.3930527E+03  0.7818608E-02  0.1046212E+00
          2   -1    0    0  501    0  0.00000000000E+00  0.00000000000E+00  0.11937703432E+04  0.11937703432E+04  0.25500000000E-02 0.  1.
         -2   -1    0    0    0  501 -0.00000000000E+00 -0.00000000000E+00 -0.32353456466E+02  0.32353456566E+02  0.25500000000E-02 0. -1.
    5000001    1    1    2    0    0  0.30441184708E+02 -0.84202599429E+02  0.39932536776E+03  0.44125105418E+03  0.16500000000E+03 0.  0.
   -5000001    1    1    2    0    0 -0.30441184708E+02  0.84202599429E+02  0.76209151895E+03  0.78487274557E+03  0.16500000000E+03 0.  0.
<mgrwt>
<rscale>  0 0.39305265E+03</rscale>
<asrwt>0</asrwt>
<pdfrwt beam="1">  1        2 0.17053864E+00 0.39305265E+03</pdfrwt>
<pdfrwt beam="2">  1       -2 0.46219218E-02 0.39305265E+03</pdfrwt>
<totfact> 0.50122419E+03</totfact>
</mgrwt>
</event>
<event>
 4    1  0.5399378E-005  0.4612964E+03  0.7818608E-02  0.1024406E+00
         -2   -1    0    0    0  501 -0.00000000000E+00  0.00000000000E+00  0.63625021701E+03  0.63625021702E+03  0.25500000000E-02 0. -1.
          2   -1    0    0  501    0  0.00000000000E+00 -0.00000000000E+00 -0.83612684127E+02  0.83612684166E+02  0.25500000000E-02 0.  1.
    5000001    1    1    2    0    0  0.79443144755E+02 -0.13368786697E+03  0.21029691567E+03  0.30924658731E+03  0.16500000000E+03 0.  0.
   -5000001    1    1    2    0    0 -0.79443144755E+02  0.13368786697E+03  0.34234061722E+03  0.41061631387E+03  0.16500000000E+03 0.  0.
<mgrwt>
<rscale>  0 0.46129638E+03</rscale>
<asrwt>0</asrwt>
<pdfrwt beam="1">  1        2 0.11944669E-01 0.46129638E+03</pdfrwt>
<pdfrwt beam="2">  1       -2 0.90892890E-01 0.46129638E+03</pdfrwt>
<totfact> 0.55288039E+02</totfact>
</mgrwt>
</event>
<event>
 4    1  0.5399378E-005  0.4129674E+03  0.7818608E-02  0.1039380E+00
         -2   -1    0    0    0  501 -0.00000000000E+00  0.00000000000E+00  0.65340465911E+02  0.65340465961E+02  0.25500000000E-02 0. -1.
          2   -1    0    0  501    0  0.00000000000E+00 -0.00000000000E+00 -0.65251309602E+03  0.65251309602E+03  0.25500000000E-02 0.  1.
    5000001    1    1    2    0    0  0.35372099583E+02 -0.10396353613E+03 -0.19296236751E+03  0.27662081908E+03  0.16500000000E+03 0.  0.
   -5000001    1    1    2    0    0 -0.35372099583E+02  0.10396353613E+03 -0.39421026260E+03  0.44123274290E+03  0.16500000000E+03 0.  0.
<mgrwt>
<rscale>  0 0.41296736E+03</rscale>
<asrwt>0</asrwt>
<pdfrwt beam="1">  1        2 0.93216153E-01 0.41296736E+03</pdfrwt>
<pdfrwt beam="2">  1       -2 0.93343527E-02 0.41296736E+03</pdfrwt>
<totfact> 0.37211876E+03</totfact>
</mgrwt>
</event>
<event>
 4    1  0.5399378E-005  0.3726678E+03  0.7818608E-02  0.1053678E+00
         -2   -1    0    0    0  501 -0.00000000000E+00  0.00000000000E+00  0.20328251365E+02  0.20328251525E+02  0.25500000000E-02 0. -1.
          2   -1    0    0  501    0  0.00000000000E+00 -0.00000000000E+00 -0.17079836353E+04  0.17079836353E+04  0.25500000000E-02 0.  1.
    5000001    1    1    2    0    0  0.85118403202E+02 -0.12694481809E+02 -0.88758639869E+03  0.90688527806E+03  0.16500000000E+03 0.  0.
   -5000001    1    1    2    0    0 -0.85118403202E+02  0.12694481809E+02 -0.80006898526E+03  0.82142660878E+03  0.16500000000E+03 0.  0.
<mgrwt>
<rscale>  0 0.37266779E+03</rscale>
<asrwt>0</asrwt>
<pdfrwt beam="1">  1        2 0.24399757E+00 0.37266779E+03</pdfrwt>
<pdfrwt beam="2">  1       -2 0.29040370E-02 0.37266779E+03</pdfrwt>
<totfact> 0.54732719E+03</totfact>
</mgrwt>
</event>
<event>
 4    1  0.5399378E-005  0.3565465E+03  0.7818608E-02  0.1059960E+00
         -2   -1    0    0    0  501 -0.00000000000E+00  0.00000000000E+00  0.28209345288E+02  0.28209345403E+02  0.25500000000E-02 0. -1.
          2   -1    0    0  501    0  0.00000000000E+00 -0.00000000000E+00 -0.11266250807E+04  0.11266250807E+04  0.25500000000E-02 0.  1.
    5000001    1    1    2    0    0 -0.23758120123E+02 -0.57312391506E+02 -0.63534171964E+03  0.65934305123E+03  0.16500000000E+03 0.  0.
   -5000001    1    1    2    0    0  0.23758120123E+02  0.57312391506E+02 -0.46307401578E+03  0.49549137488E+03  0.16500000000E+03 0.  0.
<mgrwt>
<rscale>  0 0.35654652E+03</rscale>
<asrwt>0</asrwt>
<pdfrwt beam="1">  1        2 0.16094641E+00 0.35654652E+03</pdfrwt>
<pdfrwt beam="2">  1       -2 0.40299072E-02 0.35654652E+03</pdfrwt>
<totfact> 0.67222711E+03</totfact>
</mgrwt>
</event>
<event>
 4    1  0.5399378E-005  0.1177739E+04  0.7818608E-02  0.9132568E-01
         -2   -1    0    0    0  501 -0.00000000000E+00  0.00000000000E+00  0.80279071662E+02  0.80279071702E+02  0.25500000000E-02 0. -1.
          2   -1    0    0  501    0  0.00000000000E+00 -0.00000000000E+00 -0.43195251276E+04  0.43195251276E+04  0.25500000000E-02 0.  1.
    5000001    1    1    2    0    0  0.27687824167E+03 -0.35221640600E+03 -0.83185630917E+03  0.95912870694E+03  0.16500000000E+03 0.  0.
   -5000001    1    1    2    0    0 -0.27687824167E+03  0.35221640600E+03 -0.34073897467E+04  0.34406754923E+04  0.16500000000E+03 0.  0.
<mgrwt>
<rscale>  0 0.11777393E+04</rscale>
<asrwt>0</asrwt>
<pdfrwt beam="1">  1        2 0.61707487E+00 0.11777393E+04</pdfrwt>
<pdfrwt beam="2">  1       -2 0.11468442E-01 0.11777393E+04</pdfrwt>
<totfact> 0.19029157E+01</totfact>
</mgrwt>
</event>
<event>
 4    1  0.5399378E-005  0.3579691E+03  0.7818608E-02  0.1059391E+00
          2   -1    0    0  501    0  0.00000000000E+00  0.00000000000E+00  0.51079470601E+03  0.51079470602E+03  0.25500000000E-02 0.  1.
         -2   -1    0    0    0  501 -0.00000000000E+00 -0.00000000000E+00 -0.62716905581E+02  0.62716905633E+02  0.25500000000E-02 0. -1.
    5000001    1    1    2    0    0 -0.57635742267E+02 -0.13327657159E+02  0.16603046831E+03  0.24143450797E+03  0.16500000000E+03 0.  0.
   -5000001    1    1    2    0    0  0.57635742267E+02  0.13327657159E+02  0.28204733213E+03  0.33207710369E+03  0.16500000000E+03 0.  0.
<mgrwt>
<rscale>  0 0.35796907E+03</rscale>
<asrwt>0</asrwt>
<pdfrwt beam="1">  1        2 0.72970676E-01 0.35796907E+03</pdfrwt>
<pdfrwt beam="2">  1       -2 0.89595575E-02 0.35796907E+03</pdfrwt>
<totfact> 0.52484976E+03</totfact>
</mgrwt>
</event>
<event>
 4    1  0.5399378E-005  0.7384772E+03  0.7818608E-02  0.9653603E-01
         -2   -1    0    0    0  501 -0.00000000000E+00  0.00000000000E+00  0.26051044279E+03  0.26051044280E+03  0.25500000000E-02 0. -1.
          2   -1    0    0  501    0  0.00000000000E+00 -0.00000000000E+00 -0.52334618149E+03  0.52334618150E+03  0.25500000000E-02 0.  1.
    5000001    1    1    2    0    0 -0.13269385691E+03 -0.24594555337E+03 -0.31835145054E+03  0.45460919584E+03  0.16500000000E+03 0.  0.
   -5000001    1    1    2    0    0  0.13269385691E+03  0.24594555337E+03  0.55515711839E+02  0.32924742846E+03  0.16500000000E+03 0.  0.
<mgrwt>
<rscale>  0 0.73847720E+03</rscale>
<asrwt>0</asrwt>
<pdfrwt beam="1">  1        2 0.74763740E-01 0.73847720E+03</pdfrwt>
<pdfrwt beam="2">  1       -2 0.37215778E-01 0.73847720E+03</pdfrwt>
<totfact> 0.43598486E+02</totfact>
</mgrwt>
</event>
<event>
 4    1  0.5399378E-005  0.5944584E+03  0.7818608E-02  0.9916970E-01
         -2   -1    0    0    0  501 -0.00000000000E+00  0.00000000000E+00  0.26975461943E+02  0.26975462064E+02  0.25500000000E-02 0.  1.
          2   -1    0    0  501    0  0.00000000000E+00 -0.00000000000E+00 -0.32750209701E+04  0.32750209701E+04  0.25500000000E-02 0. -1.
    5000001    1    1    2    0    0  0.16537254725E+03 -0.57899906978E+02 -0.65522581399E+03  0.69803033310E+03  0.16500000000E+03 0.  0.
   -5000001    1    1    2    0    0 -0.16537254725E+03  0.57899906978E+02 -0.25928196942E+04  0.26039660991E+04  0.16500000000E+03 0.  0.
<mgrwt>
<rscale>  0 0.59445842E+03</rscale>
<asrwt>0</asrwt>
<pdfrwt beam="1">  1        2 0.46785988E+00 0.59445842E+03</pdfrwt>
<pdfrwt beam="2">  1       -2 0.38536395E-02 0.59445842E+03</pdfrwt>
<totfact> 0.54429364E+02</totfact>
</mgrwt>
</event>
<event>
 4    1  0.5399378E-005  0.4487381E+03  0.7818608E-02  0.1028099E+00
          2   -1    0    0  501    0  0.00000000000E+00  0.00000000000E+00  0.32547416113E+03  0.32547416114E+03  0.25500000000E-02 0.  1.
         -2   -1    0    0    0  501 -0.00000000000E+00 -0.00000000000E+00 -0.15467117712E+03  0.15467117714E+03  0.25500000000E-02 0. -1.
    5000001    1    1    2    0    0  0.14164779646E+03 -0.92184923074E+01  0.27115084816E+02  0.21933833834E+03  0.16500000000E+03 0.  0.
   -5000001    1    1    2    0    0 -0.14164779646E+03  0.92184923074E+01  0.14368789920E+03  0.26080699994E+03  0.16500000000E+03 0.  0.
<mgrwt>
<rscale>  0 0.44873810E+03</rscale>
<asrwt>0</asrwt>
<pdfrwt beam="1">  1        2 0.46496308E-01 0.44873810E+03</pdfrwt>
<pdfrwt beam="2">  1       -2 0.22095883E-01 0.44873810E+03</pdfrwt>
<totfact> 0.19328301E+03</totfact>
</mgrwt>
</event>
<event>
 4    1  0.5399378E-005  0.7545146E+03  0.7818608E-02  0.9628294E-01
         -2   -1    0    0    0  501 -0.00000000000E+00  0.00000000000E+00  0.22319160640E+03  0.22319160641E+03  0.25500000000E-02 0. -1.
          2   -1    0    0  501    0  0.00000000000E+00 -0.00000000000E+00 -0.63767211966E+03  0.63767211966E+03  0.25500000000E-02 0.  1.
    5000001    1    1    2    0    0 -0.16706882901E+03 -0.25264920726E+03 -0.38160215298E+03  0.51438197744E+03  0.16500000000E+03 0.  0.
   -5000001    1    1    2    0    0  0.16706882901E+03  0.25264920726E+03 -0.32878360280E+02  0.34648174863E+03  0.16500000000E+03 0.  0.
<mgrwt>
<rscale>  0 0.75451459E+03</rscale>
<asrwt>0</asrwt>
<pdfrwt beam="1">  1        2 0.91096017E-01 0.75451459E+03</pdfrwt>
<pdfrwt beam="2">  1       -2 0.31884515E-01 0.75451459E+03</pdfrwt>
<totfact> 0.46319985E+02</totfact>
</mgrwt>
</event>
<event>
 4    1  0.5399378E-005  0.3931092E+03  0.7818608E-02  0.1046192E+00
         -2   -1    0    0    0  501 -0.00000000000E+00  0.00000000000E+00  0.21086546037E+02  0.21086546191E+02  0.25500000000E-02 0. -1.
          2   -1    0    0  501    0  0.00000000000E+00 -0.00000000000E+00 -0.18321499479E+04  0.18321499479E+04  0.25500000000E-02 0.  1.
    5000001    1    1    2    0    0 -0.94956576799E+02  0.47852366899E+02 -0.85789299148E+03  0.88006362572E+03  0.16500000000E+03 0.  0.
   -5000001    1    1    2    0    0  0.94956576799E+02 -0.47852366899E+02 -0.95317041035E+03  0.97317286834E+03  0.16500000000E+03 0.  0.
<mgrwt>
<rscale>  0 0.39310922E+03</rscale>
<asrwt>0</asrwt>
<pdfrwt beam="1">  1        2 0.26173561E+00 0.39310922E+03</pdfrwt>
<pdfrwt beam="2">  1       -2 0.30123649E-02 0.39310922E+03</pdfrwt>
<totfact> 0.44937072E+03</totfact>
</mgrwt>
</event>
<event>
 4    1  0.5399378E-005  0.5592407E+03  0.7818608E-02  0.9993774E-01
          2   -1    0    0  501    0  0.00000000000E+00  0.00000000000E+00  0.24789130997E+04  0.24789130997E+04  0.25500000000E-02 0.  1.
         -2   -1    0    0    0  501 -0.00000000000E+00 -0.00000000000E+00 -0.31541055753E+02  0.31541055856E+02  0.25500000000E-02 0. -1.
    5000001    1    1    2    0    0  0.14584332593E+03 -0.17068474921E+03  0.13298190454E+04  0.13586932151E+04  0.16500000000E+03 0.  0.
   -5000001    1    1    2    0    0 -0.14584332593E+03  0.17068474921E+03  0.11175529986E+04  0.11517609405E+04  0.16500000000E+03 0.  0.
<mgrwt>
<rscale>  0 0.55924069E+03</rscale>
<asrwt>0</asrwt>
<pdfrwt beam="1">  1        2 0.35413043E+00 0.55924069E+03</pdfrwt>
<pdfrwt beam="2">  1       -2 0.45058653E-02 0.55924069E+03</pdfrwt>
<totfact> 0.11469833E+03</totfact>
</mgrwt>
</event>
<event>
 4    1  0.5399378E-005  0.1011900E+04  0.7818608E-02  0.9295589E-01
         -2   -1    0    0    0  501 -0.00000000000E+00  0.00000000000E+00  0.19879923935E+03  0.19879923936E+03  0.25500000000E-02 0. -1.
          2   -1    0    0  501    0  0.00000000000E+00 -0.00000000000E+00 -0.12876575503E+04  0.12876575503E+04  0.25500000000E-02 0.  1.
    5000001    1    1    2    0    0  0.23635136242E+03 -0.40174589075E+03 -0.38690850442E+03  0.62784147525E+03  0.16500000000E+03 0.  0.
   -5000001    1    1    2    0    0 -0.23635136242E+03  0.40174589075E+03 -0.70194980651E+03  0.85861531440E+03  0.16500000000E+03 0.  0.
<mgrwt>
<rscale>  0 0.10118999E+04</rscale>
<asrwt>0</asrwt>
<pdfrwt beam="1">  1        2 0.18395107E+00 0.10118999E+04</pdfrwt>
<pdfrwt beam="2">  1       -2 0.28399892E-01 0.10118999E+04</pdfrwt>
<totfact> 0.21549059E+02</totfact>
</mgrwt>
</event>
<event>
 4    1  0.5399378E-005  0.5072981E+03  0.7818608E-02  0.1011891E+00
          2   -1    0    0  501    0  0.00000000000E+00  0.00000000000E+00  0.88962221297E+02  0.88962221334E+02  0.25500000000E-02 0. -1.
         -2   -1    0    0    0  501 -0.00000000000E+00 -0.00000000000E+00 -0.72320393583E+03  0.72320393584E+03  0.25500000000E-02 0.  1.
    5000001    1    1    2    0    0  0.37278223749E+02 -0.17747812334E+03 -0.21306212784E+03  0.32482090535E+03  0.16500000000E+03 0.  0.
   -5000001    1    1    2    0    0 -0.37278223749E+02  0.17747812334E+03 -0.42117958669E+03  0.48734525182E+03  0.16500000000E+03 0.  0.
<mgrwt>
<rscale>  0 0.50729805E+03</rscale>
<asrwt>0</asrwt>
<pdfrwt beam="1">  1        2 0.12708889E-01 0.50729805E+03</pdfrwt>
<pdfrwt beam="2">  1       -2 0.10331485E+00 0.50729805E+03</pdfrwt>
<totfact> 0.37982452E+02</totfact>
</mgrwt>
</event>
<event>
 4    1  0.5399378E-005  0.6182641E+03  0.7818608E-02  0.9868222E-01
          2   -1    0    0  501    0  0.00000000000E+00  0.00000000000E+00  0.34128896515E+04  0.34128896515E+04  0.25500000000E-02 0.  1.
         -2   -1    0    0    0  501 -0.00000000000E+00 -0.00000000000E+00 -0.28000500178E+02  0.28000500295E+02  0.25500000000E-02 0. -1.
    5000001    1    1    2    0    0 -0.12254962825E+03  0.21718995202E+03  0.21288139042E+04  0.21497124285E+04  0.16500000000E+03 0.  0.
   -5000001    1    1    2    0    0  0.12254962825E+03 -0.21718995202E+03  0.12560752472E+04  0.12911777233E+04  0.16500000000E+03 0.  0.
<mgrwt>
<rscale>  0 0.61826408E+03</rscale>
<asrwt>0</asrwt>
<pdfrwt beam="1">  1        2 0.48755527E+00 0.61826408E+03</pdfrwt>
<pdfrwt beam="2">  1       -2 0.40000747E-02 0.61826408E+03</pdfrwt>
<totfact> 0.42695576E+02</totfact>
</mgrwt>
</event>
<event>
 4    1  0.5399378E-005  0.5079671E+03  0.7818608E-02  0.1011720E+00
         -2   -1    0    0    0  501 -0.00000000000E+00  0.00000000000E+00  0.16765919755E+03  0.16765919757E+03  0.25500000000E-02 0. -1.
          2   -1    0    0  501    0  0.00000000000E+00 -0.00000000000E+00 -0.38475462648E+03  0.38475462649E+03  0.25500000000E-02 0.  1.
    5000001    1    1    2    0    0 -0.15433236115E+03 -0.64443434951E+02 -0.21348556673E+03  0.31744687934E+03  0.16500000000E+03 0.  0.
   -5000001    1    1    2    0    0  0.15433236115E+03  0.64443434951E+02 -0.36098622072E+01  0.23496694472E+03  0.16500000000E+03 0.  0.
<mgrwt>
<rscale>  0 0.50796713E+03</rscale>
<asrwt>0</asrwt>
<pdfrwt beam="1">  1        2 0.54964946E-01 0.50796713E+03</pdfrwt>
<pdfrwt beam="2">  1       -2 0.23951314E-01 0.50796713E+03</pdfrwt>
<totfact> 0.13959897E+03</totfact>
</mgrwt>
</event>
<event>
 4    1  0.5399378E-005  0.6392313E+03  0.7818608E-02  0.9827198E-01
          2   -1    0    0  501    0  0.00000000000E+00  0.00000000000E+00  0.99559478184E+03  0.99559478184E+03  0.25500000000E-02 0.  1.
         -2   -1    0    0    0  501 -0.00000000000E+00 -0.00000000000E+00 -0.10260615215E+03  0.10260615218E+03  0.25500000000E-02 0. -1.
    5000001    1    1    2    0    0 -0.25386466058E+03  0.13695384158E+01  0.27061910976E+03  0.40608969957E+03  0.16500000000E+03 0.  0.
   -5000001    1    1    2    0    0  0.25386466058E+03 -0.13695384158E+01  0.62236951993E+03  0.69211123446E+03  0.16500000000E+03 0.  0.
<mgrwt>
<rscale>  0 0.63923126E+03</rscale>
<asrwt>0</asrwt>
<pdfrwt beam="1">  1        2 0.14222783E+00 0.63923126E+03</pdfrwt>
<pdfrwt beam="2">  1       -2 0.14658021E-01 0.63923126E+03</pdfrwt>
<totfact> 0.10343517E+03</totfact>
</mgrwt>
</event>
<event>
 4    1  0.5399378E-005  0.7442855E+03  0.7818608E-02  0.9644358E-01
          2   -1    0    0  501    0  0.00000000000E+00  0.00000000000E+00  0.46507423412E+03  0.46507423412E+03  0.25500000000E-02 0.  1.
         -2   -1    0    0    0  501 -0.00000000000E+00 -0.00000000000E+00 -0.29778088196E+03  0.29778088197E+03  0.25500000000E-02 0. -1.
    5000001    1    1    2    0    0 -0.63663237701E+02 -0.32620489245E+03  0.11268326439E+03  0.38779525237E+03  0.16500000000E+03 0.  0.
   -5000001    1    1    2    0    0  0.63663237701E+02  0.32620489245E+03  0.54610087761E+02  0.37505986372E+03  0.16500000000E+03 0.  0.
<mgrwt>
<rscale>  0 0.74428547E+03</rscale>
<asrwt>0</asrwt>
<pdfrwt beam="1">  1        2 0.66439176E-01 0.74428547E+03</pdfrwt>
<pdfrwt beam="2">  1       -2 0.42540126E-01 0.74428547E+03</pdfrwt>
<totfact> 0.38457093E+02</totfact>
</mgrwt>
</event>
<event>
 4    1  0.5399378E-005  0.5146083E+03  0.7818608E-02  0.1010035E+00
         -2   -1    0    0    0  501 -0.00000000000E+00  0.00000000000E+00  0.13603890207E+03  0.13603890209E+03  0.25500000000E-02 0. -1.
          2   -1    0    0  501    0  0.00000000000E+00 -0.00000000000E+00 -0.48666529939E+03  0.48666529940E+03  0.25500000000E-02 0.  1.
    5000001    1    1    2    0    0 -0.10271133110E+03  0.88998892537E+02 -0.20174922983E+01  0.21377439202E+03  0.16500000000E+03 0.  0.
   -5000001    1    1    2    0    0  0.10271133110E+03 -0.88998892537E+02 -0.34860890502E+03  0.40892980947E+03  0.16500000000E+03 0.  0.
<mgrwt>
<rscale>  0 0.51460825E+03</rscale>
<asrwt>0</asrwt>
<pdfrwt beam="1">  1        2 0.69523613E-01 0.51460825E+03</pdfrwt>
<pdfrwt beam="2">  1       -2 0.19434129E-01 0.51460825E+03</pdfrwt>
<totfact> 0.15501998E+03</totfact>
</mgrwt>
</event>
<event>
 4    1  0.5399378E-005  0.3682472E+03  0.7818608E-02  0.1055365E+00
          2   -1    0    0  501    0  0.00000000000E+00  0.00000000000E+00  0.84307420901E+03  0.84307420901E+03  0.25500000000E-02 0.  1.
         -2   -1    0    0    0  501 -0.00000000000E+00 -0.00000000000E+00 -0.40211765594E+02  0.40211765675E+02  0.25500000000E-02 0. -1.
    5000001    1    1    2    0    0 -0.11985604205E+02  0.60973236088E+02  0.27416600354E+03  0.32596531675E+03  0.16500000000E+03 0.  0.
   -5000001    1    1    2    0    0  0.11985604205E+02 -0.60973236088E+02  0.52869643987E+03  0.55732065794E+03  0.16500000000E+03 0.  0.
<mgrwt>
<rscale>  0 0.36824721E+03</rscale>
<asrwt>0</asrwt>
<pdfrwt beam="1">  1        2 0.12043917E+00 0.36824721E+03</pdfrwt>
<pdfrwt beam="2">  1       -2 0.57445380E-02 0.36824721E+03</pdfrwt>
<totfact> 0.58068932E+03</totfact>
</mgrwt>
</event>
<event>
 4    1  0.5399378E-005  0.4689290E+03  0.7818608E-02  0.1022223E+00
          2   -1    0    0  501    0  0.00000000000E+00  0.00000000000E+00  0.78850638956E+03  0.78850638956E+03  0.25500000000E-02 0.  1.
         -2   -1    0    0    0  501 -0.00000000000E+00 -0.00000000000E+00 -0.69718654424E+02  0.69718654470E+02  0.25500000000E-02 0. -1.
    5000001    1    1    2    0    0  0.19458102559E+02 -0.15686196251E+03  0.26316894532E+03  0.34852142949E+03  0.16500000000E+03 0.  0.
   -5000001    1    1    2    0    0 -0.19458102559E+02  0.15686196251E+03  0.45561878982E+03  0.50970361454E+03  0.16500000000E+03 0.  0.
<mgrwt>
<rscale>  0 0.46892901E+03</rscale>
<asrwt>0</asrwt>
<pdfrwt beam="1">  1        2 0.11264377E+00 0.46892901E+03</pdfrwt>
<pdfrwt beam="2">  1       -2 0.99598082E-02 0.46892901E+03</pdfrwt>
<totfact> 0.26655143E+03</totfact>
</mgrwt>
</event>
<event>
 4    1  0.5399378E-005  0.9727686E+03  0.7818608E-02  0.9338927E-01
         -2   -1    0    0    0  501 -0.00000000000E+00  0.00000000000E+00  0.21681258526E+03  0.21681258528E+03  0.25500000000E-02 0. -1.
          2   -1    0    0  501    0  0.00000000000E+00 -0.00000000000E+00 -0.10911251832E+04  0.10911251832E+04  0.25500000000E-02 0.  1.
    5000001    1    1    2    0    0 -0.96771758609E+02  0.43718342155E+03 -0.56364822097E+03  0.73852449814E+03  0.16500000000E+03 0.  0.
   -5000001    1    1    2    0    0  0.96771758609E+02 -0.43718342155E+03 -0.31066437700E+03  0.56941327038E+03  0.16500000000E+03 0.  0.
<mgrwt>
<rscale>  0 0.97276857E+03</rscale>
<asrwt>0</asrwt>
<pdfrwt beam="1">  1        2 0.15587502E+00 0.97276857E+03</pdfrwt>
<pdfrwt beam="2">  1       -2 0.30973227E-01 0.97276857E+03</pdfrwt>
<totfact> 0.23811213E+02</totfact>
</mgrwt>
</event>
<event>
 4    1  0.5399378E-005  0.4900665E+03  0.7818608E-02  0.1016405E+00
          2   -1    0    0  501    0  0.00000000000E+00  0.00000000000E+00  0.44362328740E+03  0.44362328740E+03  0.25500000000E-02 0.  1.
         -2   -1    0    0    0  501 -0.00000000000E+00 -0.00000000000E+00 -0.13534297595E+03  0.13534297598E+03  0.25500000000E-02 0. -1.
    5000001    1    1    2    0    0  0.13389499280E+03  0.10243092134E+03  0.75807376943E+02  0.24777352793E+03  0.16500000000E+03 0.  0.
   -5000001    1    1    2    0    0 -0.13389499280E+03 -0.10243092134E+03  0.23247293450E+03  0.33119273545E+03  0.16500000000E+03 0.  0.
<mgrwt>
<rscale>  0 0.49006651E+03</rscale>
<asrwt>0</asrwt>
<pdfrwt beam="1">  1        2 0.63374756E-01 0.49006651E+03</pdfrwt>
<pdfrwt beam="2">  1       -2 0.19334711E-01 0.49006651E+03</pdfrwt>
<totfact> 0.17347290E+03</totfact>
</mgrwt>
</event>
<event>
 4    1  0.5399378E-005  0.3479869E+03  0.7818608E-02  0.1063444E+00
         -2   -1    0    0    0  501 -0.00000000000E+00  0.00000000000E+00  0.15152936649E+03  0.15152936651E+03  0.25500000000E-02 0. -1.
          2   -1    0    0  501    0  0.00000000000E+00 -0.00000000000E+00 -0.19978776898E+03  0.19978776900E+03  0.25500000000E-02 0.  1.
    5000001    1    1    2    0    0  0.21727974231E+02 -0.11448915109E+02 -0.74054781383E+02  0.18251655587E+03  0.16500000000E+03 0.  0.
   -5000001    1    1    2    0    0 -0.21727974231E+02  0.11448915109E+02  0.25796378895E+02  0.16880057964E+03  0.16500000000E+03 0.  0.
<mgrwt>
<rscale>  0 0.34798686E+03</rscale>
<asrwt>0</asrwt>
<pdfrwt beam="1">  1        2 0.28541110E-01 0.34798686E+03</pdfrwt>
<pdfrwt beam="2">  1       -2 0.21647052E-01 0.34798686E+03</pdfrwt>
<totfact> 0.34096632E+03</totfact>
</mgrwt>
</event>
<event>
 4    1  0.5399378E-005  0.6241077E+03  0.7818608E-02  0.9856615E-01
          2   -1    0    0  501    0  0.00000000000E+00  0.00000000000E+00  0.37848110953E+03  0.37848110954E+03  0.25500000000E-02 0.  1.
         -2   -1    0    0    0  501 -0.00000000000E+00 -0.00000000000E+00 -0.25728526444E+03  0.25728526445E+03  0.25500000000E-02 0. -1.
    5000001    1    1    2    0    0  0.21580764830E+03 -0.33790033628E+02 -0.91993158306E+02  0.28879482096E+03  0.16500000000E+03 0.  0.
   -5000001    1    1    2    0    0 -0.21580764830E+03  0.33790033628E+02  0.21318900340E+03  0.34697155303E+03  0.16500000000E+03 0.  0.
<mgrwt>
<rscale>  0 0.62410772E+03</rscale>
<asrwt>0</asrwt>
<pdfrwt beam="1">  1        2 0.54068730E-01 0.62410772E+03</pdfrwt>
<pdfrwt beam="2">  1       -2 0.36755038E-01 0.62410772E+03</pdfrwt>
<totfact> 0.64519362E+02</totfact>
</mgrwt>
</event>
<event>
 4    1  0.5399378E-005  0.8099006E+03  0.7818608E-02  0.9545796E-01
          2   -1    0    0  501    0  0.00000000000E+00  0.00000000000E+00  0.10123446223E+04  0.10123446223E+04  0.25500000000E-02 0.  1.
         -2   -1    0    0    0  501 -0.00000000000E+00 -0.00000000000E+00 -0.16198509287E+03  0.16198509289E+03  0.25500000000E-02 0. -1.
    5000001    1    1    2    0    0 -0.34418129954E+03  0.27909224911E+02  0.61710229462E+03  0.72614043670E+03  0.16500000000E+03 0.  0.
   -5000001    1    1    2    0    0  0.34418129954E+03 -0.27909224911E+02  0.23325723485E+03  0.44818927854E+03  0.16500000000E+03 0.  0.
<mgrwt>
<rscale>  0 0.80990058E+03</rscale>
<asrwt>0</asrwt>
<pdfrwt beam="1">  1        2 0.14462066E+00 0.80990058E+03</pdfrwt>
<pdfrwt beam="2">  1       -2 0.23140728E-01 0.80990058E+03</pdfrwt>
<totfact> 0.45570758E+02</totfact>
</mgrwt>
</event>
<event>
 4    1  0.5399378E-005  0.4880528E+03  0.7818608E-02  0.1016945E+00
         -2   -1    0    0    0  501 -0.00000000000E+00  0.00000000000E+00  0.12231428382E+03  0.12231428385E+03  0.25500000000E-02 0. -1.
          2   -1    0    0  501    0  0.00000000000E+00 -0.00000000000E+00 -0.48685148730E+03  0.48685148730E+03  0.25500000000E-02 0.  1.
    5000001    1    1    2    0    0  0.17182892763E+03 -0.51239942686E+02 -0.16584319397E+03  0.29475358705E+03  0.16500000000E+03 0.  0.
   -5000001    1    1    2    0    0 -0.17182892763E+03  0.51239942686E+02 -0.19869400951E+03  0.31441218410E+03  0.16500000000E+03 0.  0.
<mgrwt>
<rscale>  0 0.48805283E+03</rscale>
<asrwt>0</asrwt>
<pdfrwt beam="1">  1        2 0.69550211E-01 0.48805283E+03</pdfrwt>
<pdfrwt beam="2">  1       -2 0.17473469E-01 0.48805283E+03</pdfrwt>
<totfact> 0.18595686E+03</totfact>
</mgrwt>
</event>
<event>
 4    1  0.5399378E-005  0.5261995E+03  0.7818608E-02  0.1007158E+00
          2   -1    0    0  501    0  0.00000000000E+00  0.00000000000E+00  0.40761653050E+03  0.40761653051E+03  0.25500000000E-02 0.  1.
         -2   -1    0    0    0  501 -0.00000000000E+00 -0.00000000000E+00 -0.16982007371E+03  0.16982007373E+03  0.25500000000E-02 0. -1.
    5000001    1    1    2    0    0  0.37250674674E+02  0.20055729617E+03  0.97348694592E+02  0.27984390319E+03  0.16500000000E+03 0.  0.
   -5000001    1    1    2    0    0 -0.37250674674E+02 -0.20055729617E+03  0.14044776220E+03  0.29759270105E+03  0.16500000000E+03 0.  0.
<mgrwt>
<rscale>  0 0.52619947E+03</rscale>
<asrwt>0</asrwt>
<pdfrwt beam="1">  1        2 0.58230932E-01 0.52619947E+03</pdfrwt>
<pdfrwt beam="2">  1       -2 0.24260011E-01 0.52619947E+03</pdfrwt>
<totfact> 0.12801532E+03</totfact>
</mgrwt>
</event>
<event>
 4    1  0.5399378E-005  0.3462553E+03  0.7818608E-02  0.1064163E+00
         -2   -1    0    0    0  501 -0.00000000000E+00  0.00000000000E+00  0.29972132123E+02  0.29972132231E+02  0.25500000000E-02 0. -1.
          2   -1    0    0  501    0  0.00000000000E+00 -0.00000000000E+00 -0.10000350825E+04  0.10000350825E+04  0.25500000000E-02 0.  1.
    5000001    1    1    2    0    0  0.51001401048E+02  0.55196484727E+01 -0.45291372252E+03  0.48475504069E+03  0.16500000000E+03 0.  0.
   -5000001    1    1    2    0    0 -0.51001401048E+02 -0.55196484727E+01 -0.51714922790E+03  0.54525217408E+03  0.16500000000E+03 0.  0.
<mgrwt>
<rscale>  0 0.34625530E+03</rscale>
<asrwt>0</asrwt>
<pdfrwt beam="1">  1        2 0.14286213E+00 0.34625530E+03</pdfrwt>
<pdfrwt beam="2">  1       -2 0.42817338E-02 0.34625530E+03</pdfrwt>
<totfact> 0.72547201E+03</totfact>
</mgrwt>
</event>
<event>
 4    1  0.5399378E-005  0.3643718E+03  0.7818608E-02  0.1056866E+00
          2   -1    0    0  501    0  0.00000000000E+00  0.00000000000E+00  0.10372430411E+04  0.10372430411E+04  0.25500000000E-02 0.  1.
         -2   -1    0    0    0  501 -0.00000000000E+00 -0.00000000000E+00 -0.31999924645E+02  0.31999924747E+02  0.25500000000E-02 0. -1.
    5000001    1    1    2    0    0  0.74627328880E+01  0.62926017624E+02  0.37299432252E+03  0.41275312320E+03  0.16500000000E+03 0.  0.
   -5000001    1    1    2    0    0 -0.74627328880E+01 -0.62926017624E+02  0.63224879394E+03  0.65648984266E+03  0.16500000000E+03 0.  0.
<mgrwt>
<rscale>  0 0.36437178E+03</rscale>
<asrwt>0</asrwt>
<pdfrwt beam="1">  1        2 0.14817753E+00 0.36437178E+03</pdfrwt>
<pdfrwt beam="2">  1       -2 0.45714194E-02 0.36437178E+03</pdfrwt>
<totfact> 0.62486127E+03</totfact>
</mgrwt>
</event>
<event>
 4    1  0.5399378E-005  0.7128760E+03  0.7818608E-02  0.9695462E-01
         -2   -1    0    0    0  501 -0.00000000000E+00  0.00000000000E+00  0.24474152589E+03  0.24474152590E+03  0.25500000000E-02 0. -1.
          2   -1    0    0  501    0  0.00000000000E+00 -0.00000000000E+00 -0.51911114531E+03  0.51911114532E+03  0.25500000000E-02 0.  1.
    5000001    1    1    2    0    0 -0.11359958483E+03 -0.14204294805E+03  0.13963372815E+03  0.28249538545E+03  0.16500000000E+03 0.  0.
   -5000001    1    1    2    0    0  0.11359958483E+03  0.14204294805E+03 -0.41400334757E+03  0.48135728577E+03  0.16500000000E+03 0.  0.
<mgrwt>
<rscale>  0 0.71287602E+03</rscale>
<asrwt>0</asrwt>
<pdfrwt beam="1">  1        2 0.74158735E-01 0.71287602E+03</pdfrwt>
<pdfrwt beam="2">  1       -2 0.34963075E-01 0.71287602E+03</pdfrwt>
<totfact> 0.49623195E+02</totfact>
</mgrwt>
</event>
<event>
 4    1  0.5399378E-005  0.1350539E+04  0.7818608E-02  0.8990420E-01
          2   -1    0    0  501    0  0.00000000000E+00  0.00000000000E+00  0.79452458569E+03  0.79452458569E+03  0.25500000000E-02 0.  1.
         -2   -1    0    0    0  501 -0.00000000000E+00 -0.00000000000E+00 -0.57391389942E+03  0.57391389943E+03  0.25500000000E-02 0. -1.
    5000001    1    1    2    0    0  0.21717580784E+02  0.51313965893E+03 -0.30125502776E+03  0.61787017620E+03  0.16500000000E+03 0.  0.
   -5000001    1    1    2    0    0 -0.21717580784E+02 -0.51313965893E+03  0.52186571403E+03  0.75056830892E+03  0.16500000000E+03 0.  0.
<mgrwt>
<rscale>  0 0.13505387E+04</rscale>
<asrwt>0</asrwt>
<pdfrwt beam="1">  1        2 0.11350351E+00 0.13505387E+04</pdfrwt>
<pdfrwt beam="2">  1       -2 0.81987700E-01 0.13505387E+04</pdfrwt>
<totfact> 0.49071291E+01</totfact>
</mgrwt>
</event>
<event>
 4    1  0.5399378E-005  0.4001076E+03  0.7818608E-02  0.1043742E+00
          2   -1    0    0  501    0  0.00000000000E+00  0.00000000000E+00  0.19685634913E+04  0.19685634913E+04  0.25500000000E-02 0.  1.
         -2   -1    0    0    0  501 -0.00000000000E+00 -0.00000000000E+00 -0.20330319479E+02  0.20330319639E+02  0.25500000000E-02 0. -1.
    5000001    1    1    2    0    0  0.81888355669E+02 -0.40261072512E+02  0.64177695073E+03  0.66890157067E+03  0.16500000000E+03 0.  0.
   -5000001    1    1    2    0    0 -0.81888355669E+02  0.40261072512E+02  0.13064562211E+04  0.13199922403E+04  0.16500000000E+03 0.  0.
<mgrwt>
<rscale>  0 0.40010761E+03</rscale>
<asrwt>0</asrwt>
<pdfrwt beam="1">  1        2 0.28122326E+00 0.40010761E+03</pdfrwt>
<pdfrwt beam="2">  1       -2 0.29043323E-02 0.40010761E+03</pdfrwt>
<totfact> 0.40630514E+03</totfact>
</mgrwt>
</event>
<event>
 4    1  0.5399378E-005  0.5086632E+03  0.7818608E-02  0.1011542E+00
         -2   -1    0    0    0  501 -0.00000000000E+00  0.00000000000E+00  0.24863759695E+02  0.24863759826E+02  0.25500000000E-02 0. -1.
          2   -1    0    0  501    0  0.00000000000E+00 -0.00000000000E+00 -0.26015597718E+04  0.26015597718E+04  0.25500000000E-02 0.  1.
    5000001    1    1    2    0    0 -0.17822472479E+03  0.12109995453E+02 -0.16729717197E+04  0.16905531874E+04  0.16500000000E+03 0.  0.
   -5000001    1    1    2    0    0  0.17822472479E+03 -0.12109995453E+02 -0.90372429237E+03  0.93587034419E+03  0.16500000000E+03 0.  0.
<mgrwt>
<rscale>  0 0.50866318E+03</rscale>
<asrwt>0</asrwt>
<pdfrwt beam="1">  1        2 0.37165122E+00 0.50866318E+03</pdfrwt>
<pdfrwt beam="2">  1       -2 0.35519673E-02 0.50866318E+03</pdfrwt>
<totfact> 0.14337710E+03</totfact>
</mgrwt>
</event>
<event>
 4    1  0.5399378E-005  0.9375161E+03  0.7818608E-02  0.9379862E-01
          2   -1    0    0  501    0  0.00000000000E+00  0.00000000000E+00  0.52422923939E+03  0.52422923940E+03  0.25500000000E-02 0.  1.
         -2   -1    0    0    0  501 -0.00000000000E+00 -0.00000000000E+00 -0.41915657009E+03  0.41915657010E+03  0.25500000000E-02 0. -1.
    5000001    1    1    2    0    0 -0.30479977448E+03  0.11735046632E+03  0.34734689187E+03  0.50452839143E+03  0.16500000000E+03 0.  0.
   -5000001    1    1    2    0    0  0.30479977448E+03 -0.11735046632E+03 -0.24227422256E+03  0.43885741806E+03  0.16500000000E+03 0.  0.
<mgrwt>
<rscale>  0 0.93751614E+03</rscale>
<asrwt>0</asrwt>
<pdfrwt beam="1">  1        2 0.74889892E-01 0.93751614E+03</pdfrwt>
<pdfrwt beam="2">  1       -2 0.59879510E-01 0.93751614E+03</pdfrwt>
<totfact> 0.16567518E+02</totfact>
</mgrwt>
</event>
<event>
 4    1  0.5399378E-005  0.3876045E+03  0.7818608E-02  0.1048158E+00
          2   -1    0    0  501    0  0.00000000000E+00  0.00000000000E+00  0.42605928257E+03  0.42605928257E+03  0.25500000000E-02 0.  1.
         -2   -1    0    0    0  501 -0.00000000000E+00 -0.00000000000E+00 -0.88155138444E+02  0.88155138481E+02  0.25500000000E-02 0. -1.
    5000001    1    1    2    0    0 -0.18927315285E+02  0.53157364920E+02  0.28113314029E+03  0.33082441155E+03  0.16500000000E+03 0.  0.
   -5000001    1    1    2    0    0  0.18927315285E+02 -0.53157364920E+02  0.56771003831E+02  0.18339000950E+03  0.16500000000E+03 0.  0.
<mgrwt>
<rscale>  0 0.38760452E+03</rscale>
<asrwt>0</asrwt>
<pdfrwt beam="1">  1        2 0.60865611E-01 0.38760452E+03</pdfrwt>
<pdfrwt beam="2">  1       -2 0.12593591E-01 0.38760452E+03</pdfrwt>
<totfact> 0.37158223E+03</totfact>
</mgrwt>
</event>
<event>
 4    1  0.5399378E-005  0.5190038E+03  0.7818608E-02  0.1008934E+00
          2   -1    0    0  501    0  0.00000000000E+00  0.00000000000E+00  0.41244313858E+04  0.41244313858E+04  0.25500000000E-02 0.  1.
         -2   -1    0    0    0  501 -0.00000000000E+00 -0.00000000000E+00 -0.16327400229E+02  0.16327400428E+02  0.25500000000E-02 0. -1.
    5000001    1    1    2    0    0  0.19606186013E+03 -0.26601766237E+02  0.18057831164E+04  0.18240684117E+04  0.16500000000E+03 0.  0.
   -5000001    1    1    2    0    0 -0.19606186013E+03  0.26601766237E+02  0.23023208692E+04  0.23166903745E+04  0.16500000000E+03 0.  0.
<mgrwt>
<rscale>  0 0.51900382E+03</rscale>
<asrwt>0</asrwt>
<pdfrwt beam="1">  1        2 0.58920391E+00 0.51900382E+03</pdfrwt>
<pdfrwt beam="2">  1       -2 0.23324880E-02 0.51900382E+03</pdfrwt>
<totfact> 0.34927397E+02</totfact>
</mgrwt>
</event>
<event>
 4    1  0.5399378E-005  0.5516056E+03  0.7818608E-02  0.1001123E+00
         -2   -1    0    0    0  501 -0.00000000000E+00  0.00000000000E+00  0.39083875638E+02  0.39083875721E+02  0.25500000000E-02 0. -1.
          2   -1    0    0  501    0  0.00000000000E+00 -0.00000000000E+00 -0.19462550826E+04  0.19462550826E+04  0.25500000000E-02 0.  1.
    5000001    1    1    2    0    0  0.55457828723E+02 -0.10462843928E+03 -0.16251958434E+04  0.16378367472E+04  0.16500000000E+03 0.  0.
   -5000001    1    1    2    0    0 -0.55457828723E+02  0.10462843928E+03 -0.28197536351E+03  0.34750221107E+03  0.16500000000E+03 0.  0.
<mgrwt>
<rscale>  0 0.55160563E+03</rscale>
<asrwt>0</asrwt>
<pdfrwt beam="1">  1        2 0.27803638E+00 0.55160563E+03</pdfrwt>
<pdfrwt beam="2">  1       -2 0.55834120E-02 0.55160563E+03</pdfrwt>
<totfact> 0.15270438E+03</totfact>
</mgrwt>
</event>
<event>
 4    1  0.5399378E-005  0.5141927E+03  0.7818608E-02  0.1010139E+00
         -2   -1    0    0    0  501 -0.00000000000E+00  0.00000000000E+00  0.11549479233E+03  0.11549479236E+03  0.25500000000E-02 0. -1.
          2   -1    0    0  501    0  0.00000000000E+00 -0.00000000000E+00 -0.57230755546E+03  0.57230755547E+03  0.25500000000E-02 0.  1.
    5000001    1    1    2    0    0 -0.12242817356E+03  0.13885868337E+03 -0.13765247855E+03  0.28362580362E+03  0.16500000000E+03 0.  0.
   -5000001    1    1    2    0    0  0.12242817356E+03 -0.13885868337E+03 -0.31916028458E+03  0.40417654420E+03  0.16500000000E+03 0.  0.
<mgrwt>
<rscale>  0 0.51419274E+03</rscale>
<asrwt>0</asrwt>
<pdfrwt beam="1">  1        2 0.81758221E-01 0.51419274E+03</pdfrwt>
<pdfrwt beam="2">  1       -2 0.16499256E-01 0.51419274E+03</pdfrwt>
<totfact> 0.17047747E+03</totfact>
</mgrwt>
</event>
<event>
 4    1  0.5399378E-005  0.5151549E+03  0.7818608E-02  0.1009897E+00
          2   -1    0    0  501    0  0.00000000000E+00  0.00000000000E+00  0.13192747919E+04  0.13192747919E+04  0.25500000000E-02 0.  1.
         -2   -1    0    0    0  501 -0.00000000000E+00 -0.00000000000E+00 -0.50289850623E+02  0.50289850688E+02  0.25500000000E-02 0. -1.
    5000001    1    1    2    0    0 -0.22791778314E+02 -0.19464395935E+03  0.70560040228E+03  0.75066814490E+03  0.16500000000E+03 0.  0.
   -5000001    1    1    2    0    0  0.22791778314E+02  0.19464395935E+03  0.56338453895E+03  0.61889649765E+03  0.16500000000E+03 0.  0.
<mgrwt>
<rscale>  0 0.51515486E+03</rscale>
<asrwt>0</asrwt>
<pdfrwt beam="1">  1        2 0.18846786E+00 0.51515486E+03</pdfrwt>
<pdfrwt beam="2">  1       -2 0.71842630E-02 0.51515486E+03</pdfrwt>
<totfact> 0.21599611E+03</totfact>
</mgrwt>
</event>
<event>
 4    1  0.5399378E-005  0.6346443E+03  0.7818608E-02  0.9836028E-01
          2   -1    0    0  501    0  0.00000000000E+00  0.00000000000E+00  0.33902253633E+03  0.33902253634E+03  0.25500000000E-02 0. -1.
         -2   -1    0    0    0  501 -0.00000000000E+00 -0.00000000000E+00 -0.29701074074E+03  0.29701074075E+03  0.25500000000E-02 0.  1.
    5000001    1    1    2    0    0 -0.14558673733E+03  0.22744164477E+03 -0.23503616153E+01  0.31647389160E+03  0.16500000000E+03 0.  0.
   -5000001    1    1    2    0    0  0.14558673733E+03 -0.22744164477E+03  0.44362157197E+02  0.31955938549E+03  0.16500000000E+03 0.  0.
<mgrwt>
<rscale>  0 0.63464426E+03</rscale>
<asrwt>0</asrwt>
<pdfrwt beam="1">  1        2 0.48431791E-01 0.63464426E+03</pdfrwt>
<pdfrwt beam="2">  1       -2 0.42430106E-01 0.63464426E+03</pdfrwt>
<totfact> 0.55171189E+02</totfact>
</mgrwt>
</event>
<event>
 4    1  0.5399378E-005  0.6110364E+03  0.7818608E-02  0.9882770E-01
         -2   -1    0    0    0  501 -0.00000000000E+00  0.00000000000E+00  0.30525931773E+02  0.30525931879E+02  0.25500000000E-02 0. -1.
          2   -1    0    0  501    0  0.00000000000E+00 -0.00000000000E+00 -0.30577731097E+04  0.30577731097E+04  0.25500000000E-02 0.  1.
    5000001    1    1    2    0    0 -0.10786186700E+03 -0.18965627226E+03 -0.22013045747E+04  0.22182359014E+04  0.16500000000E+03 0.  0.
   -5000001    1    1    2    0    0  0.10786186700E+03  0.18965627226E+03 -0.82594260326E+03  0.87006314015E+03  0.16500000000E+03 0.  0.
<mgrwt>
<rscale>  0 0.61103641E+03</rscale>
<asrwt>0</asrwt>
<pdfrwt beam="1">  1        2 0.43682454E+00 0.61103641E+03</pdfrwt>
<pdfrwt beam="2">  1       -2 0.43608493E-02 0.61103641E+03</pdfrwt>
<totfact> 0.59413006E+02</totfact>
</mgrwt>
</event>
<event>
 4    1  0.5399378E-005  0.6942215E+03  0.7818608E-02  0.9727166E-01
          2   -1    0    0  501    0  0.00000000000E+00  0.00000000000E+00  0.57238566459E+03  0.57238566460E+03  0.25500000000E-02 0.  1.
         -2   -1    0    0    0  501 -0.00000000000E+00 -0.00000000000E+00 -0.21049769555E+03  0.21049769556E+03  0.25500000000E-02 0. -1.
    5000001    1    1    2    0    0 -0.21237839919E+03 -0.11231196120E+03  0.39354816404E+03  0.48971799894E+03  0.16500000000E+03 0.  0.
   -5000001    1    1    2    0    0  0.21237839919E+03  0.11231196120E+03 -0.31660194996E+02  0.29316536122E+03  0.16500000000E+03 0.  0.
<mgrwt>
<rscale>  0 0.69422147E+03</rscale>
<asrwt>0</asrwt>
<pdfrwt beam="1">  1        2 0.81769380E-01 0.69422147E+03</pdfrwt>
<pdfrwt beam="2">  1       -2 0.30071100E-01 0.69422147E+03</pdfrwt>
<totfact> 0.58815500E+02</totfact>
</mgrwt>
</event>
<event>
 4    1  0.5399378E-005  0.4028174E+03  0.7818608E-02  0.1042808E+00
         -2   -1    0    0    0  501 -0.00000000000E+00  0.00000000000E+00  0.19346843182E+04  0.19346843182E+04  0.25500000000E-02 0. -1.
          2   -1    0    0  501    0  0.00000000000E+00 -0.00000000000E+00 -0.20967486159E+02  0.20967486314E+02  0.25500000000E-02 0.  1.
    5000001    1    1    2    0    0 -0.44547411016E+02 -0.33785282604E+02  0.46618456904E+03  0.49767355723E+03  0.16500000000E+03 0.  0.
   -5000001    1    1    2    0    0  0.44547411016E+02  0.33785282604E+02  0.14475322630E+04  0.14579782473E+04  0.16500000000E+03 0.  0.
<mgrwt>
<rscale>  0 0.40281741E+03</rscale>
<asrwt>0</asrwt>
<pdfrwt beam="1">  1        2 0.29953558E-02 0.40281741E+03</pdfrwt>
<pdfrwt beam="2">  1       -2 0.27638342E+00 0.40281741E+03</pdfrwt>
<totfact> 0.15669277E+02</totfact>
</mgrwt>
</event>
<event>
 4    1  0.5399378E-005  0.5040581E+03  0.7818608E-02  0.1012725E+00
         -2   -1    0    0    0  501 -0.00000000000E+00  0.00000000000E+00  0.46470269403E+03  0.46470269403E+03  0.25500000000E-02 0. -1.
          2   -1    0    0  501    0  0.00000000000E+00 -0.00000000000E+00 -0.13668662278E+03  0.13668662281E+03  0.25500000000E-02 0.  1.
    5000001    1    1    2    0    0  0.12434670332E+03 -0.13652560174E+03  0.21987113583E+03  0.33116409668E+03  0.16500000000E+03 0.  0.
   -5000001    1    1    2    0    0 -0.12434670332E+03  0.13652560174E+03  0.10814493541E+03  0.27022522016E+03  0.16500000000E+03 0.  0.
<mgrwt>
<rscale>  0 0.50405810E+03</rscale>
<asrwt>0</asrwt>
<pdfrwt beam="1">  1        2 0.19526660E-01 0.50405810E+03</pdfrwt>
<pdfrwt beam="2">  1       -2 0.66386101E-01 0.50405810E+03</pdfrwt>
<totfact> 0.61399096E+02</totfact>
</mgrwt>
</event>
<event>
 4    1  0.5399378E-005  0.4411513E+03  0.7818608E-02  0.1030394E+00
         -2   -1    0    0    0  501 -0.00000000000E+00  0.00000000000E+00  0.56570217703E+03  0.56570217704E+03  0.25500000000E-02 0. -1.
          2   -1    0    0  501    0  0.00000000000E+00 -0.00000000000E+00 -0.86005697127E+02  0.86005697165E+02  0.25500000000E-02 0.  1.
    5000001    1    1    2    0    0  0.94764927002E+02  0.10750230086E+03  0.28395648585E+03  0.35832027843E+03  0.16500000000E+03 0.  0.
   -5000001    1    1    2    0    0 -0.94764927002E+02 -0.10750230086E+03  0.19573999406E+03  0.29338759577E+03  0.16500000000E+03 0.  0.
<mgrwt>
<rscale>  0 0.44115127E+03</rscale>
<asrwt>0</asrwt>
<pdfrwt beam="1">  1        2 0.12286527E-01 0.44115127E+03</pdfrwt>
<pdfrwt beam="2">  1       -2 0.80814601E-01 0.44115127E+03</pdfrwt>
<totfact> 0.69640553E+02</totfact>
</mgrwt>
</event>
<event>
 4    1  0.5399378E-005  0.4004768E+03  0.7818608E-02  0.1043615E+00
         -2   -1    0    0    0  501 -0.00000000000E+00  0.00000000000E+00  0.14648000978E+03  0.14648000980E+03  0.25500000000E-02 0. -1.
          2   -1    0    0  501    0  0.00000000000E+00 -0.00000000000E+00 -0.27372621553E+03  0.27372621554E+03  0.25500000000E-02 0.  1.
    5000001    1    1    2    0    0 -0.55086556454E+02 -0.90495947058E+02 -0.10619757838E+03  0.22299545015E+03  0.16500000000E+03 0.  0.
   -5000001    1    1    2    0    0  0.55086556454E+02  0.90495947058E+02 -0.21048627380E+02  0.19721077519E+03  0.16500000000E+03 0.  0.
<mgrwt>
<rscale>  0 0.40047681E+03</rscale>
<asrwt>0</asrwt>
<pdfrwt beam="1">  1        2 0.39103745E-01 0.40047681E+03</pdfrwt>
<pdfrwt beam="2">  1       -2 0.20925716E-01 0.40047681E+03</pdfrwt>
<totfact> 0.25642475E+03</totfact>
</mgrwt>
</event>
<event>
 4    1  0.5399378E-005  0.3610805E+03  0.7818608E-02  0.1058157E+00
          2   -1    0    0  501    0  0.00000000000E+00  0.00000000000E+00  0.15648486889E+02  0.15648487097E+02  0.25500000000E-02 0.  1.
         -2   -1    0    0    0  501 -0.00000000000E+00 -0.00000000000E+00 -0.20829345513E+04  0.20829345513E+04  0.25500000000E-02 0. -1.
    5000001    1    1    2    0    0  0.42816025294E+02  0.43961783144E+02 -0.80087997916E+03  0.81999975087E+03  0.16500000000E+03 0.  0.
   -5000001    1    1    2    0    0 -0.42816025294E+02 -0.43961783144E+02 -0.12664060853E+04  0.12785832876E+04  0.16500000000E+03 0.  0.
<mgrwt>
<rscale>  0 0.36108046E+03</rscale>
<asrwt>0</asrwt>
<pdfrwt beam="1">  1        2 0.22354995E-02 0.36108046E+03</pdfrwt>
<pdfrwt beam="2">  1       -2 0.29756190E+00 0.36108046E+03</pdfrwt>
<totfact> 0.17674317E+02</totfact>
</mgrwt>
</event>
<event>
 4    1  0.5399378E-005  0.4215765E+03  0.7818608E-02  0.1036554E+00
          2   -1    0    0  501    0  0.00000000000E+00  0.00000000000E+00  0.14847806729E+04  0.14847806729E+04  0.25500000000E-02 0.  1.
         -2   -1    0    0    0  501 -0.00000000000E+00 -0.00000000000E+00 -0.29924746976E+02  0.29924747084E+02  0.25500000000E-02 0. -1.
    5000001    1    1    2    0    0 -0.48100251371E+02  0.92588821680E+02  0.44178550470E+03  0.48299664206E+03  0.16500000000E+03 0.  0.
   -5000001    1    1    2    0    0  0.48100251371E+02 -0.92588821680E+02  0.10130704212E+04  0.10317087779E+04  0.16500000000E+03 0.  0.
<mgrwt>
<rscale>  0 0.42157650E+03</rscale>
<asrwt>0</asrwt>
<pdfrwt beam="1">  1        2 0.21211151E+00 0.42157650E+03</pdfrwt>
<pdfrwt beam="2">  1       -2 0.42749642E-02 0.42157650E+03</pdfrwt>
<totfact> 0.39566131E+03</totfact>
</mgrwt>
</event>
<event>
 4    1  0.5399378E-005  0.3812760E+03  0.7818608E-02  0.1050463E+00
         -2   -1    0    0    0  501 -0.00000000000E+00  0.00000000000E+00  0.75058073736E+02  0.75058073780E+02  0.25500000000E-02 0. -1.
          2   -1    0    0  501    0  0.00000000000E+00 -0.00000000000E+00 -0.48419631145E+03  0.48419631146E+03  0.25500000000E-02 0.  1.
    5000001    1    1    2    0    0 -0.71811001248E+02 -0.62926163613E+02 -0.20288358198E+03  0.27839409083E+03  0.16500000000E+03 0.  0.
   -5000001    1    1    2    0    0  0.71811001248E+02  0.62926163613E+02 -0.20625465573E+03  0.28086029441E+03  0.16500000000E+03 0.  0.
<mgrwt>
<rscale>  0 0.38127598E+03</rscale>
<asrwt>0</asrwt>
<pdfrwt beam="1">  1        2 0.69170900E-01 0.38127598E+03</pdfrwt>
<pdfrwt beam="2">  1       -2 0.10722582E-01 0.38127598E+03</pdfrwt>
<totfact> 0.41865286E+03</totfact>
</mgrwt>
</event>
<event>
 4    1  0.5399378E-005  0.4306361E+03  0.7818608E-02  0.1033659E+00
          2   -1    0    0  501    0  0.00000000000E+00  0.00000000000E+00  0.17861710713E+04  0.17861710713E+04  0.25500000000E-02 0.  1.
         -2   -1    0    0    0  501 -0.00000000000E+00 -0.00000000000E+00 -0.25956002497E+02  0.25956002622E+02  0.25500000000E-02 0. -1.
    5000001    1    1    2    0    0  0.53946440670E+02  0.30630337442E+02  0.14004144462E+04  0.14114652164E+04  0.16500000000E+03 0.  0.
   -5000001    1    1    2    0    0 -0.53946440670E+02 -0.30630337442E+02  0.35980062258E+03  0.40066185748E+03  0.16500000000E+03 0.  0.
<mgrwt>
<rscale>  0 0.43063609E+03</rscale>
<asrwt>0</asrwt>
<pdfrwt beam="1">  1        2 0.25516739E+00 0.43063609E+03</pdfrwt>
<pdfrwt beam="2">  1       -2 0.37079991E-02 0.43063609E+03</pdfrwt>
<totfact> 0.34587374E+03</totfact>
</mgrwt>
</event>
<event>
 4    1  0.5399378E-005  0.4016651E+03  0.7818608E-02  0.1043205E+00
         -2   -1    0    0    0  501 -0.00000000000E+00  0.00000000000E+00  0.55221387639E+03  0.55221387640E+03  0.25500000000E-02 0. -1.
          2   -1    0    0  501    0  0.00000000000E+00 -0.00000000000E+00 -0.73040038880E+02  0.73040038924E+02  0.25500000000E-02 0.  1.
    5000001    1    1    2    0    0  0.49136282566E+02 -0.97086160349E+02  0.29503150034E+03  0.35511784380E+03  0.16500000000E+03 0.  0.
   -5000001    1    1    2    0    0 -0.49136282566E+02  0.97086160349E+02  0.18414233717E+03  0.27013607152E+03  0.16500000000E+03 0.  0.
<mgrwt>
<rscale>  0 0.40166515E+03</rscale>
<asrwt>0</asrwt>
<pdfrwt beam="1">  1        2 0.10434292E-01 0.40166515E+03</pdfrwt>
<pdfrwt beam="2">  1       -2 0.78887693E-01 0.40166515E+03</pdfrwt>
<totfact> 0.89955072E+02</totfact>
</mgrwt>
</event>
<event>
 4    1  0.5399378E-005  0.4064223E+03  0.7818608E-02  0.1041578E+00
          2   -1    0    0  501    0  0.00000000000E+00  0.00000000000E+00  0.10897734415E+03  0.10897734418E+03  0.25500000000E-02 0.  1.
         -2   -1    0    0    0  501 -0.00000000000E+00 -0.00000000000E+00 -0.37892996628E+03  0.37892996629E+03  0.25500000000E-02 0. -1.
    5000001    1    1    2    0    0  0.99402494452E+02  0.61887165673E+02 -0.15771937637E+03  0.25653709061E+03  0.16500000000E+03 0.  0.
   -5000001    1    1    2    0    0 -0.99402494452E+02 -0.61887165673E+02 -0.11223324577E+03  0.23137021985E+03  0.16500000000E+03 0.  0.
<mgrwt>
<rscale>  0 0.40642235E+03</rscale>
<asrwt>0</asrwt>
<pdfrwt beam="1">  1        2 0.15568192E-01 0.40642235E+03</pdfrwt>
<pdfrwt beam="2">  1       -2 0.54132852E-01 0.40642235E+03</pdfrwt>
<totfact> 0.12288335E+03</totfact>
</mgrwt>
</event>
<event>
 4    1  0.5399378E-005  0.1035645E+04  0.7818608E-02  0.9270291E-01
          2   -1    0    0  501    0  0.00000000000E+00  0.00000000000E+00  0.25252934626E+04  0.25252934626E+04  0.25500000000E-02 0.  1.
         -2   -1    0    0    0  501 -0.00000000000E+00 -0.00000000000E+00 -0.10618179252E+03  0.10618179255E+03  0.25500000000E-02 0. -1.
    5000001    1    1    2    0    0  0.35806513072E+03  0.47160094658E+02  0.20541169970E+04  0.20921415702E+04  0.16500000000E+03 0.  0.
   -5000001    1    1    2    0    0 -0.35806513072E+03 -0.47160094658E+02  0.36499467309E+03  0.53933368497E+03  0.16500000000E+03 0.  0.
<mgrwt>
<rscale>  0 0.10356451E+04</rscale>
<asrwt>0</asrwt>
<pdfrwt beam="1">  1        2 0.36075623E+00 0.10356451E+04</pdfrwt>
<pdfrwt beam="2">  1       -2 0.15168827E-01 0.10356451E+04</pdfrwt>
<totfact> 0.14805468E+02</totfact>
</mgrwt>
</event>
<event>
 4    1  0.5399378E-005  0.3649754E+03  0.7818608E-02  0.1056631E+00
          2   -1    0    0  501    0  0.00000000000E+00  0.00000000000E+00  0.17771604531E+04  0.17771604531E+04  0.25500000000E-02 0.  1.
         -2   -1    0    0    0  501 -0.00000000000E+00 -0.00000000000E+00 -0.18738749338E+02  0.18738749512E+02  0.25500000000E-02 0. -1.
    5000001    1    1    2    0    0 -0.14459261075E+02  0.40112280975E+02  0.55809864297E+03  0.58353848253E+03  0.16500000000E+03 0.  0.
   -5000001    1    1    2    0    0  0.14459261075E+02 -0.40112280975E+02  0.12003230608E+04  0.12123607200E+04  0.16500000000E+03 0.  0.
<mgrwt>
<rscale>  0 0.36497542E+03</rscale>
<asrwt>0</asrwt>
<pdfrwt beam="1">  1        2 0.25387983E+00 0.36497542E+03</pdfrwt>
<pdfrwt beam="2">  1       -2 0.26769666E-02 0.36497542E+03</pdfrwt>
<totfact> 0.57114833E+03</totfact>
</mgrwt>
</event>
<event>
 4    1  0.5399378E-005  0.4896133E+03  0.7818608E-02  0.1016526E+00
         -2   -1    0    0    0  501 -0.00000000000E+00  0.00000000000E+00  0.11608379937E+03  0.11608379940E+03  0.25500000000E-02 0. -1.
          2   -1    0    0  501    0  0.00000000000E+00 -0.00000000000E+00 -0.51626760475E+03  0.51626760476E+03  0.25500000000E-02 0.  1.
    5000001    1    1    2    0    0 -0.10662434371E+03 -0.12315093499E+03 -0.98639587332E+02  0.25197156913E+03  0.16500000000E+03 0.  0.
   -5000001    1    1    2    0    0  0.10662434371E+03  0.12315093499E+03 -0.30154421805E+03  0.38037983503E+03  0.16500000000E+03 0.  0.
<mgrwt>
<rscale>  0 0.48961334E+03</rscale>
<asrwt>0</asrwt>
<pdfrwt beam="1">  1        2 0.73752514E-01 0.48961334E+03</pdfrwt>
<pdfrwt beam="2">  1       -2 0.16583400E-01 0.48961334E+03</pdfrwt>
<totfact> 0.19019252E+03</totfact>
</mgrwt>
</event>
<event>
 4    1  0.5399378E-005  0.5676977E+03  0.7818608E-02  0.9974786E-01
          2   -1    0    0  501    0  0.00000000000E+00  0.00000000000E+00  0.15509072977E+04  0.15509072977E+04  0.25500000000E-02 0.  1.
         -2   -1    0    0    0  501 -0.00000000000E+00 -0.00000000000E+00 -0.51950347781E+02  0.51950347843E+02  0.25500000000E-02 0. -1.
    5000001    1    1    2    0    0  0.13491377206E+03  0.42132450403E+02  0.23372177735E+03  0.31910458861E+03  0.16500000000E+03 0.  0.
   -5000001    1    1    2    0    0 -0.13491377206E+03 -0.42132450403E+02  0.12652351726E+04  0.12837530569E+04  0.16500000000E+03 0.  0.
<mgrwt>
<rscale>  0 0.56769771E+03</rscale>
<asrwt>0</asrwt>
<pdfrwt beam="1">  1        2 0.22155816E+00 0.56769771E+03</pdfrwt>
<pdfrwt beam="2">  1       -2 0.74214791E-02 0.56769771E+03</pdfrwt>
<totfact> 0.15479172E+03</totfact>
</mgrwt>
</event>
<event>
 4    1  0.5399378E-005  0.3684240E+03  0.7818608E-02  0.1055297E+00
         -2   -1    0    0    0  501 -0.00000000000E+00  0.00000000000E+00  0.14613034906E+02  0.14613035128E+02  0.25500000000E-02 0. -1.
          2   -1    0    0  501    0  0.00000000000E+00 -0.00000000000E+00 -0.23221768859E+04  0.23221768859E+04  0.25500000000E-02 0.  1.
    5000001    1    1    2    0    0 -0.77830868387E+02  0.20257758409E+02 -0.10553108825E+04  0.10711554881E+04  0.16500000000E+03 0.  0.
   -5000001    1    1    2    0    0  0.77830868387E+02 -0.20257758409E+02 -0.12522529685E+04  0.12656344330E+04  0.16500000000E+03 0.  0.
<mgrwt>
<rscale>  0 0.36842395E+03</rscale>
<asrwt>0</asrwt>
<pdfrwt beam="1">  1        2 0.33173932E+00 0.36842395E+03</pdfrwt>
<pdfrwt beam="2">  1       -2 0.20875779E-02 0.36842395E+03</pdfrwt>
<totfact> 0.44488330E+03</totfact>
</mgrwt>
</event>
<event>
 4    1  0.5399378E-005  0.4697142E+03  0.7818608E-02  0.1022001E+00
          2   -1    0    0  501    0  0.00000000000E+00  0.00000000000E+00  0.19236297951E+04  0.19236297951E+04  0.25500000000E-02 0.  1.
         -2   -1    0    0    0  501 -0.00000000000E+00 -0.00000000000E+00 -0.28673839958E+02  0.28673840071E+02  0.25500000000E-02 0. -1.
    5000001    1    1    2    0    0  0.14164541080E+03 -0.82173737882E+02  0.10863843833E+04  0.11109779359E+04  0.16500000000E+03 0.  0.
   -5000001    1    1    2    0    0 -0.14164541080E+03  0.82173737882E+02  0.80857157177E+03  0.84132569929E+03  0.16500000000E+03 0.  0.
<mgrwt>
<rscale>  0 0.46971418E+03</rscale>
<asrwt>0</asrwt>
<pdfrwt beam="1">  1        2 0.27480429E+00 0.46971418E+03</pdfrwt>
<pdfrwt beam="2">  1       -2 0.40962624E-02 0.46971418E+03</pdfrwt>
<totfact> 0.25355584E+03</totfact>
</mgrwt>
</event>
<event>
 4    1  0.5399378E-005  0.5496275E+03  0.7818608E-02  0.1001580E+00
          2   -1    0    0  501    0  0.00000000000E+00  0.00000000000E+00  0.23691187215E+04  0.23691187215E+04  0.25500000000E-02 0.  1.
         -2   -1    0    0    0  501 -0.00000000000E+00 -0.00000000000E+00 -0.31877933676E+02  0.31877933778E+02  0.25500000000E-02 0. -1.
    5000001    1    1    2    0    0 -0.21753113264E+03  0.18880927731E+02  0.12775091414E+04  0.13064956523E+04  0.16500000000E+03 0.  0.
   -5000001    1    1    2    0    0  0.21753113264E+03 -0.18880927731E+02  0.10597316464E+04  0.10945010029E+04  0.16500000000E+03 0.  0.
<mgrwt>
<rscale>  0 0.54962755E+03</rscale>
<asrwt>0</asrwt>
<pdfrwt beam="1">  1        2 0.33844559E+00 0.54962755E+03</pdfrwt>
<pdfrwt beam="2">  1       -2 0.45539897E-02 0.54962755E+03</pdfrwt>
<totfact> 0.12840684E+03</totfact>
</mgrwt>
</event>
<event>
 4    1  0.5399378E-005  0.5082903E+03  0.7818608E-02  0.1011637E+00
          2   -1    0    0  501    0  0.00000000000E+00  0.00000000000E+00  0.26682839431E+04  0.26682839431E+04  0.25500000000E-02 0.  1.
         -2   -1    0    0    0  501 -0.00000000000E+00 -0.00000000000E+00 -0.24206482869E+02  0.24206483003E+02  0.25500000000E-02 0. -1.
    5000001    1    1    2    0    0 -0.10702498524E+02 -0.18656466804E+03  0.10601724027E+04  0.10890874356E+04  0.16500000000E+03 0.  0.
   -5000001    1    1    2    0    0  0.10702498524E+02  0.18656466804E+03  0.15839050575E+04  0.16034029905E+04  0.16500000000E+03 0.  0.
<mgrwt>
<rscale>  0 0.50829035E+03</rscale>
<asrwt>0</asrwt>
<pdfrwt beam="1">  1        2 0.38118345E+00 0.50829035E+03</pdfrwt>
<pdfrwt beam="2">  1       -2 0.34580687E-02 0.50829035E+03</pdfrwt>
<totfact> 0.13794825E+03</totfact>
</mgrwt>
</event>
<event>
 4    1  0.5399378E-005  0.4528139E+03  0.7818608E-02  0.1026886E+00
          2   -1    0    0  501    0  0.00000000000E+00  0.00000000000E+00  0.12136146311E+04  0.12136146311E+04  0.25500000000E-02 0.  1.
         -2   -1    0    0    0  501 -0.00000000000E+00 -0.00000000000E+00 -0.42237544355E+02  0.42237544432E+02  0.25500000000E-02 0. -1.
    5000001    1    1    2    0    0  0.51021800112E+02 -0.14637103588E+03  0.57814517845E+03  0.62089012844E+03  0.16500000000E+03 0.  0.
   -5000001    1    1    2    0    0 -0.51021800112E+02  0.14637103588E+03  0.59323190830E+03  0.63496204710E+03  0.16500000000E+03 0.  0.
<mgrwt>
<rscale>  0 0.45281388E+03</rscale>
<asrwt>0</asrwt>
<pdfrwt beam="1">  1        2 0.17337350E+00 0.45281388E+03</pdfrwt>
<pdfrwt beam="2">  1       -2 0.60339357E-02 0.45281388E+03</pdfrwt>
<totfact> 0.32426089E+03</totfact>
</mgrwt>
</event>
<event>
 4    1  0.5399378E-005  0.4014567E+03  0.7818608E-02  0.1043276E+00
         -2   -1    0    0    0  501 -0.00000000000E+00  0.00000000000E+00  0.14577493996E+03  0.14577493999E+03  0.25500000000E-02 0. -1.
          2   -1    0    0  501    0  0.00000000000E+00 -0.00000000000E+00 -0.27639773960E+03  0.27639773961E+03  0.25500000000E-02 0.  1.
    5000001    1    1    2    0    0 -0.36405065985E+02 -0.10188614769E+03 -0.26519566961E+02  0.19908391033E+03  0.16500000000E+03 0.  0.
   -5000001    1    1    2    0    0  0.36405065985E+02  0.10188614769E+03 -0.10410323267E+03  0.22308876927E+03  0.16500000000E+03 0.  0.
<mgrwt>
<rscale>  0 0.40145667E+03</rscale>
<asrwt>0</asrwt>
<pdfrwt beam="1">  1        2 0.39485391E-01 0.40145667E+03</pdfrwt>
<pdfrwt beam="2">  1       -2 0.20824991E-01 0.40145667E+03</pdfrwt>
<totfact> 0.25585964E+03</totfact>
</mgrwt>
</event>
<event>
 4    1  0.5399378E-005  0.6496252E+03  0.7818608E-02  0.9807483E-01
          2   -1    0    0  501    0  0.00000000000E+00  0.00000000000E+00  0.16367292391E+04  0.16367292391E+04  0.25500000000E-02 0.  1.
         -2   -1    0    0    0  501 -0.00000000000E+00 -0.00000000000E+00 -0.64459794230E+02  0.64459794281E+02  0.25500000000E-02 0. -1.
    5000001    1    1    2    0    0  0.83211184333E+02  0.25101376446E+03  0.54689428644E+03  0.62948421083E+03  0.16500000000E+03 0.  0.
   -5000001    1    1    2    0    0 -0.83211184333E+02 -0.25101376446E+03  0.10253751584E+04  0.10717048225E+04  0.16500000000E+03 0.  0.
<mgrwt>
<rscale>  0 0.64962522E+03</rscale>
<asrwt>0</asrwt>
<pdfrwt beam="1">  1        2 0.23381848E+00 0.64962522E+03</pdfrwt>
<pdfrwt beam="2">  1       -2 0.92085414E-02 0.64962522E+03</pdfrwt>
<totfact> 0.98721329E+02</totfact>
</mgrwt>
</event>
<event>
 4    1  0.5399378E-005  0.7412278E+03  0.7818608E-02  0.9649214E-01
         -2   -1    0    0    0  501 -0.00000000000E+00  0.00000000000E+00  0.67290459528E+02  0.67290459576E+02  0.25500000000E-02 0. -1.
          2   -1    0    0  501    0  0.00000000000E+00 -0.00000000000E+00 -0.20412204122E+04  0.20412204122E+04  0.25500000000E-02 0.  1.
    5000001    1    1    2    0    0  0.77961797288E+02  0.32028198443E+03 -0.10960689465E+04  0.11563955754E+04  0.16500000000E+03 0.  0.
   -5000001    1    1    2    0    0 -0.77961797288E+02 -0.32028198443E+03 -0.87786100618E+03  0.95211529636E+03  0.16500000000E+03 0.  0.
<mgrwt>
<rscale>  0 0.74122779E+03</rscale>
<asrwt>0</asrwt>
<pdfrwt beam="1">  1        2 0.29160288E+00 0.74122779E+03</pdfrwt>
<pdfrwt beam="2">  1       -2 0.96129241E-02 0.74122779E+03</pdfrwt>
<totfact> 0.57109113E+02</totfact>
</mgrwt>
</event>
<event>
 4    1  0.5399378E-005  0.5428563E+03  0.7818608E-02  0.1003161E+00
          2   -1    0    0  501    0  0.00000000000E+00  0.00000000000E+00  0.22156723300E+04  0.22156723300E+04  0.25500000000E-02 0.  1.
         -2   -1    0    0    0  501 -0.00000000000E+00 -0.00000000000E+00 -0.33250962385E+02  0.33250962483E+02  0.25500000000E-02 0. -1.
    5000001    1    1    2    0    0 -0.11777246781E+03 -0.15313698319E+03  0.14869895032E+04  0.15085370637E+04  0.16500000000E+03 0.  0.
   -5000001    1    1    2    0    0  0.11777246781E+03  0.15313698319E+03  0.69543186438E+03  0.74038622879E+03  0.16500000000E+03 0.  0.
<mgrwt>
<rscale>  0 0.54285629E+03</rscale>
<asrwt>0</asrwt>
<pdfrwt beam="1">  1        2 0.31652454E+00 0.54285629E+03</pdfrwt>
<pdfrwt beam="2">  1       -2 0.47501387E-02 0.54285629E+03</pdfrwt>
<totfact> 0.14384644E+03</totfact>
</mgrwt>
</event>
<event>
 4    1  0.5399378E-005  0.6244763E+03  0.7818608E-02  0.9855888E-01
          2   -1    0    0  501    0  0.00000000000E+00  0.00000000000E+00  0.27236215324E+04  0.27236215324E+04  0.25500000000E-02 0.  1.
         -2   -1    0    0    0  501 -0.00000000000E+00 -0.00000000000E+00 -0.35795227141E+02  0.35795227231E+02  0.25500000000E-02 0. -1.
    5000001    1    1    2    0    0  0.13963850780E+03  0.18431032921E+03  0.77120171978E+03  0.82185540267E+03  0.16500000000E+03 0.  0.
   -5000001    1    1    2    0    0 -0.13963850780E+03 -0.18431032921E+03  0.19166245854E+04  0.19375613569E+04  0.16500000000E+03 0.  0.
<mgrwt>
<rscale>  0 0.62447627E+03</rscale>
<asrwt>0</asrwt>
<pdfrwt beam="1">  1        2 0.38908881E+00 0.62447627E+03</pdfrwt>
<pdfrwt beam="2">  1       -2 0.51136036E-02 0.62447627E+03</pdfrwt>
<totfact> 0.70075270E+02</totfact>
</mgrwt>
</event>
<event>
 4    1  0.5399378E-005  0.5212840E+03  0.7818608E-02  0.1008368E+00
         -2   -1    0    0    0  501 -0.00000000000E+00  0.00000000000E+00  0.46897596220E+02  0.46897596289E+02  0.25500000000E-02 0. -1.
          2   -1    0    0  501    0  0.00000000000E+00 -0.00000000000E+00 -0.14485656558E+04  0.14485656558E+04  0.25500000000E-02 0.  1.
    5000001    1    1    2    0    0  0.18066514408E+03  0.87892412949E+02 -0.64760418440E+03  0.69784034721E+03  0.16500000000E+03 0.  0.
   -5000001    1    1    2    0    0 -0.18066514408E+03 -0.87892412949E+02 -0.75406387519E+03  0.79762290489E+03  0.16500000000E+03 0.  0.
<mgrwt>
<rscale>  0 0.52128398E+03</rscale>
<asrwt>0</asrwt>
<pdfrwt beam="1">  1        2 0.20693792E+00 0.52128398E+03</pdfrwt>
<pdfrwt beam="2">  1       -2 0.66996575E-02 0.52128398E+03</pdfrwt>
<totfact> 0.20586767E+03</totfact>
</mgrwt>
</event>
<event>
 4    1  0.5399378E-005  0.4825447E+03  0.7818608E-02  0.1018438E+00
          2   -1    0    0  501    0  0.00000000000E+00  0.00000000000E+00  0.65572660212E+03  0.65572660213E+03  0.25500000000E-02 0.  1.
         -2   -1    0    0    0  501 -0.00000000000E+00 -0.00000000000E+00 -0.88775321041E+02  0.88775321078E+02  0.25500000000E-02 0. -1.
    5000001    1    1    2    0    0  0.18024166419E+02  0.17105081607E+03  0.34128862227E+03  0.41627656185E+03  0.16500000000E+03 0.  0.
   -5000001    1    1    2    0    0 -0.18024166419E+02 -0.17105081607E+03  0.22566265881E+03  0.32822536136E+03  0.16500000000E+03 0.  0.
<mgrwt>
<rscale>  0 0.48254467E+03</rscale>
<asrwt>0</asrwt>
<pdfrwt beam="1">  1        2 0.93675231E-01 0.48254467E+03</pdfrwt>
<pdfrwt beam="2">  1       -2 0.12682188E-01 0.48254467E+03</pdfrwt>
<totfact> 0.22543599E+03</totfact>
</mgrwt>
</event>
<event>
 4    1  0.5399378E-005  0.4266246E+03  0.7818608E-02  0.1034932E+00
          2   -1    0    0  501    0  0.00000000000E+00  0.00000000000E+00  0.23450346377E+03  0.23450346378E+03  0.25500000000E-02 0.  1.
         -2   -1    0    0    0  501 -0.00000000000E+00 -0.00000000000E+00 -0.19403608884E+03  0.19403608886E+03  0.25500000000E-02 0. -1.
    5000001    1    1    2    0    0 -0.12708288744E+03  0.29687273069E+02  0.55687163049E+02  0.21761767987E+03  0.16500000000E+03 0.  0.
   -5000001    1    1    2    0    0  0.12708288744E+03 -0.29687273069E+02 -0.15219788124E+02  0.21092187277E+03  0.16500000000E+03 0.  0.
<mgrwt>
<rscale>  0 0.42662459E+03</rscale>
<asrwt>0</asrwt>
<pdfrwt beam="1">  1        2 0.33500495E-01 0.42662459E+03</pdfrwt>
<pdfrwt beam="2">  1       -2 0.27719441E-01 0.42662459E+03</pdfrwt>
<totfact> 0.18482039E+03</totfact>
</mgrwt>
</event>
<event>
 4    1  0.5399378E-005  0.6896893E+03  0.7818608E-02  0.9735029E-01
         -2   -1    0    0    0  501 -0.00000000000E+00  0.00000000000E+00  0.52292905480E+02  0.52292905542E+02  0.25500000000E-02 0. -1.
          2   -1    0    0  501    0  0.00000000000E+00 -0.00000000000E+00 -0.22740719626E+04  0.22740719626E+04  0.25500000000E-02 0.  1.
    5000001    1    1    2    0    0 -0.24174765307E+02 -0.29782371987E+03 -0.12764599155E+04  0.13213093140E+04  0.16500000000E+03 0.  0.
   -5000001    1    1    2    0    0  0.24174765307E+02  0.29782371987E+03 -0.94531914165E+03  0.10050555542E+04  0.16500000000E+03 0.  0.
<mgrwt>
<rscale>  0 0.68968929E+03</rscale>
<asrwt>0</asrwt>
<pdfrwt beam="1">  1        2 0.32486736E+00 0.68968929E+03</pdfrwt>
<pdfrwt beam="2">  1       -2 0.74704165E-02 0.68968929E+03</pdfrwt>
<totfact> 0.65498247E+02</totfact>
</mgrwt>
</event>
<event>
 4    1  0.5399378E-005  0.3884305E+03  0.7818608E-02  0.1047861E+00
          2   -1    0    0  501    0  0.00000000000E+00  0.00000000000E+00  0.27840126189E+03  0.27840126190E+03  0.25500000000E-02 0.  1.
         -2   -1    0    0    0  501 -0.00000000000E+00 -0.00000000000E+00 -0.13548632338E+03  0.13548632341E+03  0.25500000000E-02 0. -1.
    5000001    1    1    2    0    0  0.82690776937E+02  0.75351512515E+01  0.13538994919E+03  0.22901960929E+03  0.16500000000E+03 0.  0.
   -5000001    1    1    2    0    0 -0.82690776937E+02 -0.75351512515E+01  0.75249893124E+01  0.18486797602E+03  0.16500000000E+03 0.  0.
<mgrwt>
<rscale>  0 0.38843050E+03</rscale>
<asrwt>0</asrwt>
<pdfrwt beam="1">  1        2 0.39771609E-01 0.38843050E+03</pdfrwt>
<pdfrwt beam="2">  1       -2 0.19355189E-01 0.38843050E+03</pdfrwt>
<totfact> 0.28787198E+03</totfact>
</mgrwt>
</event>
<event>
 4    1  0.5399378E-005  0.5802804E+03  0.7818608E-02  0.9947184E-01
          2   -1    0    0  501    0  0.00000000000E+00  0.00000000000E+00  0.16982363786E+04  0.16982363786E+04  0.25500000000E-02 0.  1.
         -2   -1    0    0    0  501 -0.00000000000E+00 -0.00000000000E+00 -0.49569856090E+02  0.49569856155E+02  0.25500000000E-02 0. -1.
    5000001    1    1    2    0    0 -0.22909313612E+03  0.58133046056E+02  0.72474490676E+03  0.77996365039E+03  0.16500000000E+03 0.  0.
   -5000001    1    1    2    0    0  0.22909313612E+03 -0.58133046056E+02  0.92392161575E+03  0.96784258437E+03  0.16500000000E+03 0.  0.
<mgrwt>
<rscale>  0 0.58028039E+03</rscale>
<asrwt>0</asrwt>
<pdfrwt beam="1">  1        2 0.24260516E+00 0.58028039E+03</pdfrwt>
<pdfrwt beam="2">  1       -2 0.70814091E-02 0.58028039E+03</pdfrwt>
<totfact> 0.14007807E+03</totfact>
</mgrwt>
</event>
<event>
 4    1  0.5399378E-005  0.4779445E+03  0.7818608E-02  0.1019702E+00
         -2   -1    0    0    0  501 -0.00000000000E+00  0.00000000000E+00  0.68794330056E+02  0.68794330103E+02  0.25500000000E-02 0. -1.
          2   -1    0    0  501    0  0.00000000000E+00 -0.00000000000E+00 -0.83012260212E+03  0.83012260212E+03  0.25500000000E-02 0.  1.
    5000001    1    1    2    0    0 -0.13535705899E+03  0.80978441204E+02 -0.51370565297E+03  0.56213658416E+03  0.16500000000E+03 0.  0.
   -5000001    1    1    2    0    0  0.13535705899E+03 -0.80978441204E+02 -0.24762261910E+03  0.33678034807E+03  0.16500000000E+03 0.  0.
<mgrwt>
<rscale>  0 0.47794447E+03</rscale>
<asrwt>0</asrwt>
<pdfrwt beam="1">  1        2 0.11858894E+00 0.47794447E+03</pdfrwt>
<pdfrwt beam="2">  1       -2 0.98277619E-02 0.47794447E+03</pdfrwt>
<totfact> 0.25512775E+03</totfact>
</mgrwt>
</event>
<event>
 4    1  0.5399378E-005  0.4667776E+03  0.7818608E-02  0.1022834E+00
          2   -1    0    0  501    0  0.00000000000E+00  0.00000000000E+00  0.14260149625E+03  0.14260149628E+03  0.25500000000E-02 0.  1.
         -2   -1    0    0    0  501 -0.00000000000E+00 -0.00000000000E+00 -0.38197595609E+03  0.38197595610E+03  0.25500000000E-02 0. -1.
    5000001    1    1    2    0    0  0.88231194957E+02  0.33703422375E+02  0.32443780785E+02  0.19286851312E+03  0.16500000000E+03 0.  0.
   -5000001    1    1    2    0    0 -0.88231194957E+02 -0.33703422375E+02 -0.27181824062E+03  0.33170893925E+03  0.16500000000E+03 0.  0.
<mgrwt>
<rscale>  0 0.46677765E+03</rscale>
<asrwt>0</asrwt>
<pdfrwt beam="1">  1        2 0.20371643E-01 0.46677765E+03</pdfrwt>
<pdfrwt beam="2">  1       -2 0.54567993E-01 0.46677765E+03</pdfrwt>
<totfact> 0.88146773E+02</totfact>
</mgrwt>
</event>
<event>
 4    1  0.5399378E-005  0.4446095E+03  0.7818608E-02  0.1029342E+00
          2   -1    0    0  501    0  0.00000000000E+00  0.00000000000E+00  0.18267875497E+03  0.18267875499E+03  0.25500000000E-02 0.  1.
         -2   -1    0    0    0  501 -0.00000000000E+00 -0.00000000000E+00 -0.27052621990E+03  0.27052621992E+03  0.25500000000E-02 0. -1.
    5000001    1    1    2    0    0 -0.78955818413E+02  0.32931356772E+02  0.80401007132E+02  0.20250387025E+03  0.16500000000E+03 0.  0.
   -5000001    1    1    2    0    0  0.78955818413E+02 -0.32931356772E+02 -0.16824847207E+03  0.25070110465E+03  0.16500000000E+03 0.  0.
<mgrwt>
<rscale>  0 0.44460946E+03</rscale>
<asrwt>0</asrwt>
<pdfrwt beam="1">  1        2 0.26096965E-01 0.44460946E+03</pdfrwt>
<pdfrwt beam="2">  1       -2 0.38646602E-01 0.44460946E+03</pdfrwt>
<totfact> 0.13155432E+03</totfact>
</mgrwt>
</event>
<event>
 4    1  0.5399378E-005  0.4446504E+03  0.7818608E-02  0.1029329E+00
         -2   -1    0    0    0  501 -0.00000000000E+00  0.00000000000E+00  0.17793926054E+03  0.17793926056E+03  0.25500000000E-02 0. -1.
          2   -1    0    0  501    0  0.00000000000E+00 -0.00000000000E+00 -0.27778295795E+03  0.27778295796E+03  0.25500000000E-02 0.  1.
    5000001    1    1    2    0    0 -0.55536198696E+02  0.10516355125E+03  0.42090275694E+02  0.20770227054E+03  0.16500000000E+03 0.  0.
   -5000001    1    1    2    0    0  0.55536198696E+02 -0.10516355125E+03 -0.14193397310E+03  0.24801994798E+03  0.16500000000E+03 0.  0.
<mgrwt>
<rscale>  0 0.44465040E+03</rscale>
<asrwt>0</asrwt>
<pdfrwt beam="1">  1        2 0.39683279E-01 0.44465040E+03</pdfrwt>
<pdfrwt beam="2">  1       -2 0.25419895E-01 0.44465040E+03</pdfrwt>
<totfact> 0.17933866E+03</totfact>
</mgrwt>
</event>
<event>
 4    1  0.5399378E-005  0.5360367E+03  0.7818608E-02  0.1004779E+00
         -2   -1    0    0    0  501 -0.00000000000E+00  0.00000000000E+00  0.10504836348E+03  0.10504836352E+03  0.25500000000E-02 0. -1.
          2   -1    0    0  501    0  0.00000000000E+00 -0.00000000000E+00 -0.68381674378E+03  0.68381674379E+03  0.25500000000E-02 0.  1.
    5000001    1    1    2    0    0 -0.19466846250E+02  0.16790700800E+03 -0.47575215951E+03  0.53116554738E+03  0.16500000000E+03 0.  0.
   -5000001    1    1    2    0    0  0.19466846250E+02 -0.16790700800E+03 -0.10301622078E+03  0.25769955992E+03  0.16500000000E+03 0.  0.
<mgrwt>
<rscale>  0 0.53603668E+03</rscale>
<asrwt>0</asrwt>
<pdfrwt beam="1">  1        2 0.97688104E-01 0.53603668E+03</pdfrwt>
<pdfrwt beam="2">  1       -2 0.15006909E-01 0.53603668E+03</pdfrwt>
<totfact> 0.16205442E+03</totfact>
</mgrwt>
</event>
<event>
 4    1  0.5399378E-005  0.8047609E+03  0.7818608E-02  0.9553151E-01
          2   -1    0    0  501    0  0.00000000000E+00  0.00000000000E+00  0.10534841456E+04  0.10534841456E+04  0.25500000000E-02 0.  1.
         -2   -1    0    0    0  501 -0.00000000000E+00 -0.00000000000E+00 -0.15369004083E+03  0.15369004086E+03  0.25500000000E-02 0. -1.
    5000001    1    1    2    0    0 -0.26293654354E+02  0.24052807037E+03  0.35983862430E+02  0.29506769944E+03  0.16500000000E+03 0.  0.
   -5000001    1    1    2    0    0  0.26293654354E+02 -0.24052807037E+03  0.86381024232E+03  0.91210648700E+03  0.16500000000E+03 0.  0.
<mgrwt>
<rscale>  0 0.80476089E+03</rscale>
<asrwt>0</asrwt>
<pdfrwt beam="1">  1        2 0.15049773E+00 0.80476089E+03</pdfrwt>
<pdfrwt beam="2">  1       -2 0.21955720E-01 0.80476089E+03</pdfrwt>
<totfact> 0.47258044E+02</totfact>
</mgrwt>
</event>
<event>
 4    1  0.5399378E-005  0.7884059E+03  0.7818608E-02  0.9576952E-01
          2   -1    0    0  501    0  0.00000000000E+00  0.00000000000E+00  0.11934141979E+04  0.11934141979E+04  0.25500000000E-02 0.  1.
         -2   -1    0    0    0  501 -0.00000000000E+00 -0.00000000000E+00 -0.13021124833E+03  0.13021124836E+03  0.25500000000E-02 0. -1.
    5000001    1    1    2    0    0 -0.32769571871E+02 -0.35627445211E+03  0.50999545116E+03  0.64445767144E+03  0.16500000000E+03 0.  0.
   -5000001    1    1    2    0    0  0.32769571871E+02  0.35627445211E+03  0.55320749842E+03  0.67916777484E+03  0.16500000000E+03 0.  0.
<mgrwt>
<rscale>  0 0.78840587E+03</rscale>
<asrwt>0</asrwt>
<pdfrwt beam="1">  1        2 0.17048776E+00 0.78840587E+03</pdfrwt>
<pdfrwt beam="2">  1       -2 0.18601606E-01 0.78840587E+03</pdfrwt>
<totfact> 0.52422073E+02</totfact>
</mgrwt>
</event>
<event>
 4    1  0.5399378E-005  0.4242817E+03  0.7818608E-02  0.1035682E+00
          2   -1    0    0  501    0  0.00000000000E+00  0.00000000000E+00  0.83914908740E+03  0.83914908741E+03  0.25500000000E-02 0.  1.
         -2   -1    0    0    0  501 -0.00000000000E+00 -0.00000000000E+00 -0.53630201223E+02  0.53630201284E+02  0.25500000000E-02 0. -1.
    5000001    1    1    2    0    0 -0.12962516377E+03 -0.23239761596E+02  0.34882394363E+03  0.40773264924E+03  0.16500000000E+03 0.  0.
   -5000001    1    1    2    0    0  0.12962516377E+03  0.23239761596E+02  0.43669494255E+03  0.48504663945E+03  0.16500000000E+03 0.  0.
<mgrwt>
<rscale>  0 0.42428167E+03</rscale>
<asrwt>0</asrwt>
<pdfrwt beam="1">  1        2 0.11987843E+00 0.42428167E+03</pdfrwt>
<pdfrwt beam="2">  1       -2 0.76614581E-02 0.42428167E+03</pdfrwt>
<totfact> 0.37371851E+03</totfact>
</mgrwt>
</event>
<event>
 4    1  0.5399378E-005  0.5986828E+03  0.7818608E-02  0.9908143E-01
          2   -1    0    0  501    0  0.00000000000E+00  0.00000000000E+00  0.20872973226E+03  0.20872973227E+03  0.25500000000E-02 0. -1.
         -2   -1    0    0    0  501 -0.00000000000E+00 -0.00000000000E+00 -0.42928848081E+03  0.42928848081E+03  0.25500000000E-02 0.  1.
    5000001    1    1    2    0    0 -0.38088597434E+02  0.22568224894E+03 -0.37247609600E+01  0.28217386942E+03  0.16500000000E+03 0.  0.
   -5000001    1    1    2    0    0  0.38088597434E+02 -0.22568224894E+03 -0.21683398759E+03  0.35584434366E+03  0.16500000000E+03 0.  0.
<mgrwt>
<rscale>  0 0.59868279E+03</rscale>
<asrwt>0</asrwt>
<pdfrwt beam="1">  1        2 0.29818533E-01 0.59868279E+03</pdfrwt>
<pdfrwt beam="2">  1       -2 0.61326926E-01 0.59868279E+03</pdfrwt>
<totfact> 0.44695962E+02</totfact>
</mgrwt>
</event>
<event>
 4    1  0.5399378E-005  0.4593964E+03  0.7818608E-02  0.1024956E+00
          2   -1    0    0  501    0  0.00000000000E+00  0.00000000000E+00  0.43259196110E+03  0.43259196111E+03  0.25500000000E-02 0.  1.
         -2   -1    0    0    0  501 -0.00000000000E+00 -0.00000000000E+00 -0.12196543872E+03  0.12196543875E+03  0.25500000000E-02 0. -1.
    5000001    1    1    2    0    0  0.85989039920E+02 -0.71115632722E+02  0.29339654751E+03  0.35462386030E+03  0.16500000000E+03 0.  0.
   -5000001    1    1    2    0    0 -0.85989039920E+02  0.71115632722E+02  0.17229974871E+02  0.19993353955E+03  0.16500000000E+03 0.  0.
<mgrwt>
<rscale>  0 0.45939642E+03</rscale>
<asrwt>0</asrwt>
<pdfrwt beam="1">  1        2 0.61798852E-01 0.45939642E+03</pdfrwt>
<pdfrwt beam="2">  1       -2 0.17423634E-01 0.45939642E+03</pdfrwt>
<totfact> 0.21312141E+03</totfact>
</mgrwt>
</event>
<event>
 4    1  0.5399378E-005  0.5985781E+03  0.7818608E-02  0.9908360E-01
          2   -1    0    0  501    0  0.00000000000E+00  0.00000000000E+00  0.15930107278E+04  0.15930107278E+04  0.25500000000E-02 0.  1.
         -2   -1    0    0    0  501 -0.00000000000E+00 -0.00000000000E+00 -0.56229344153E+02  0.56229344211E+02  0.25500000000E-02 0. -1.
    5000001    1    1    2    0    0  0.14131901947E+03 -0.20581649045E+03  0.75687926499E+03  0.81389355249E+03  0.16500000000E+03 0.  0.
   -5000001    1    1    2    0    0 -0.14131901947E+03  0.20581649045E+03  0.77990211868E+03  0.83534651955E+03  0.16500000000E+03 0.  0.
<mgrwt>
<rscale>  0 0.59857814E+03</rscale>
<asrwt>0</asrwt>
<pdfrwt beam="1">  1        2 0.22757295E+00 0.59857814E+03</pdfrwt>
<pdfrwt beam="2">  1       -2 0.80327638E-02 0.59857814E+03</pdfrwt>
<totfact> 0.12969935E+03</totfact>
</mgrwt>
</event>
<event>
 4    1  0.5399378E-005  0.4614481E+03  0.7818608E-02  0.1024362E+00
         -2   -1    0    0    0  501 -0.00000000000E+00  0.00000000000E+00  0.24253802229E+02  0.24253802363E+02  0.25500000000E-02 0. -1.
          2   -1    0    0  501    0  0.00000000000E+00 -0.00000000000E+00 -0.21948557996E+04  0.21948557996E+04  0.25500000000E-02 0.  1.
    5000001    1    1    2    0    0 -0.64374580278E+02  0.48834394423E+02 -0.17564935557E+04  0.17660757333E+04  0.16500000000E+03 0.  0.
   -5000001    1    1    2    0    0  0.64374580278E+02 -0.48834394423E+02 -0.41410844172E+03  0.45303386867E+03  0.16500000000E+03 0.  0.
<mgrwt>
<rscale>  0 0.46144815E+03</rscale>
<asrwt>0</asrwt>
<pdfrwt beam="1">  1        2 0.31355070E+00 0.46144815E+03</pdfrwt>
<pdfrwt beam="2">  1       -2 0.34648303E-02 0.46144815E+03</pdfrwt>
<totfact> 0.23982534E+03</totfact>
</mgrwt>
</event>
<event>
 4    1  0.5399378E-005  0.4329229E+03  0.7818608E-02  0.1032941E+00
          2   -1    0    0  501    0  0.00000000000E+00  0.00000000000E+00  0.49712963544E+03  0.49712963545E+03  0.25500000000E-02 0.  1.
         -2   -1    0    0    0  501 -0.00000000000E+00 -0.00000000000E+00 -0.94252210050E+02  0.94252210084E+02  0.25500000000E-02 0. -1.
    5000001    1    1    2    0    0  0.12583205054E+03 -0.38570595598E+02  0.13579616230E+03  0.25097209702E+03  0.16500000000E+03 0.  0.
   -5000001    1    1    2    0    0 -0.12583205054E+03  0.38570595598E+02  0.26708126310E+03  0.34040974852E+03  0.16500000000E+03 0.  0.
<mgrwt>
<rscale>  0 0.43292293E+03</rscale>
<asrwt>0</asrwt>
<pdfrwt beam="1">  1        2 0.71018521E-01 0.43292293E+03</pdfrwt>
<pdfrwt beam="2">  1       -2 0.13464601E-01 0.43292293E+03</pdfrwt>
<totfact> 0.28093628E+03</totfact>
</mgrwt>
</event>
<event>
 4    1  0.5399378E-005  0.6327215E+03  0.7818608E-02  0.9839752E-01
          2   -1    0    0  501    0  0.00000000000E+00  0.00000000000E+00  0.83970964995E+03  0.83970964995E+03  0.25500000000E-02 0.  1.
         -2   -1    0    0    0  501 -0.00000000000E+00 -0.00000000000E+00 -0.11918897873E+03  0.11918897876E+03  0.25500000000E-02 0. -1.
    5000001    1    1    2    0    0  0.19683965256E+03  0.14681132396E+03  0.19041638101E+03  0.35182781559E+03  0.16500000000E+03 0.  0.
   -5000001    1    1    2    0    0 -0.19683965256E+03 -0.14681132396E+03  0.53010429020E+03  0.60707081313E+03  0.16500000000E+03 0.  0.
<mgrwt>
<rscale>  0 0.63272154E+03</rscale>
<asrwt>0</asrwt>
<pdfrwt beam="1">  1        2 0.11995852E+00 0.63272154E+03</pdfrwt>
<pdfrwt beam="2">  1       -2 0.17026997E-01 0.63272154E+03</pdfrwt>
<totfact> 0.10100866E+03</totfact>
</mgrwt>
</event>
<event>
 4    1  0.5399378E-005  0.4437186E+03  0.7818608E-02  0.1029612E+00
          2   -1    0    0  501    0  0.00000000000E+00  0.00000000000E+00  0.24277198650E+03  0.24277198651E+03  0.25500000000E-02 0. -1.
         -2   -1    0    0    0  501 -0.00000000000E+00 -0.00000000000E+00 -0.20274804301E+03  0.20274804302E+03  0.25500000000E-02 0.  1.
    5000001    1    1    2    0    0  0.29022253275E+02  0.13099051671E+03 -0.43456515384E+02  0.21705823039E+03  0.16500000000E+03 0.  0.
   -5000001    1    1    2    0    0 -0.29022253275E+02 -0.13099051671E+03  0.83480458874E+02  0.22846179914E+03  0.16500000000E+03 0.  0.
<mgrwt>
<rscale>  0 0.44371858E+03</rscale>
<asrwt>0</asrwt>
<pdfrwt beam="1">  1        2 0.34681712E-01 0.44371858E+03</pdfrwt>
<pdfrwt beam="2">  1       -2 0.28964006E-01 0.44371858E+03</pdfrwt>
<totfact> 0.16429219E+03</totfact>
</mgrwt>
</event>
<event>
 4    1  0.5399378E-005  0.9430258E+03  0.7818608E-02  0.9373340E-01
         -2   -1    0    0    0  501 -0.00000000000E+00  0.00000000000E+00  0.97366388213E+02  0.97366388247E+02  0.25500000000E-02 0. -1.
          2   -1    0    0  501    0  0.00000000000E+00 -0.00000000000E+00 -0.22833797187E+04  0.22833797187E+04  0.25500000000E-02 0.  1.
    5000001    1    1    2    0    0  0.36054242676E+03 -0.17793915622E+03 -0.15547102134E+04  0.16143116280E+04  0.16500000000E+03 0.  0.
   -5000001    1    1    2    0    0 -0.36054242676E+03  0.17793915622E+03 -0.63130311713E+03  0.76643447894E+03  0.16500000000E+03 0.  0.
<mgrwt>
<rscale>  0 0.94302585E+03</rscale>
<asrwt>0</asrwt>
<pdfrwt beam="1">  1        2 0.32619707E+00 0.94302585E+03</pdfrwt>
<pdfrwt beam="2">  1       -2 0.13909485E-01 0.94302585E+03</pdfrwt>
<totfact> 0.23034198E+02</totfact>
</mgrwt>
</event>
<event>
 4    1  0.5399378E-005  0.5521182E+03  0.7818608E-02  0.1001005E+00
          2   -1    0    0  501    0  0.00000000000E+00  0.00000000000E+00  0.15678140595E+04  0.15678140595E+04  0.25500000000E-02 0.  1.
         -2   -1    0    0    0  501 -0.00000000000E+00 -0.00000000000E+00 -0.48608208489E+02  0.48608208556E+02  0.25500000000E-02 0. -1.
    5000001    1    1    2    0    0  0.19410223896E+03 -0.10416665815E+03  0.69699853761E+03  0.74937195922E+03  0.16500000000E+03 0.  0.
   -5000001    1    1    2    0    0 -0.19410223896E+03  0.10416665815E+03  0.82220731337E+03  0.86705030881E+03  0.16500000000E+03 0.  0.
<mgrwt>
<rscale>  0 0.55211822E+03</rscale>
<asrwt>0</asrwt>
<pdfrwt beam="1">  1        2 0.22397348E+00 0.55211822E+03</pdfrwt>
<pdfrwt beam="2">  1       -2 0.69440286E-02 0.55211822E+03</pdfrwt>
<totfact> 0.16861487E+03</totfact>
</mgrwt>
</event>
<event>
 4    1  0.5399378E-005  0.9487230E+03  0.7818608E-02  0.9366644E-01
          2   -1    0    0  501    0  0.00000000000E+00  0.00000000000E+00  0.72745466245E+03  0.72745466246E+03  0.25500000000E-02 0.  1.
         -2   -1    0    0    0  501 -0.00000000000E+00 -0.00000000000E+00 -0.30932349236E+03  0.30932349237E+03  0.25500000000E-02 0. -1.
    5000001    1    1    2    0    0  0.36336073530E+03 -0.10117024242E+03  0.46657908102E+03  0.62224390777E+03  0.16500000000E+03 0.  0.
   -5000001    1    1    2    0    0 -0.36336073530E+03  0.10117024242E+03 -0.48447910933E+02  0.41453424706E+03  0.16500000000E+03 0.  0.
<mgrwt>
<rscale>  0 0.94872297E+03</rscale>
<asrwt>0</asrwt>
<pdfrwt beam="1">  1        2 0.10392209E+00 0.94872297E+03</pdfrwt>
<pdfrwt beam="2">  1       -2 0.44189070E-01 0.94872297E+03</pdfrwt>
<totfact> 0.20833662E+02</totfact>
</mgrwt>
</event>
<event>
 4    1  0.5399378E-005  0.4518443E+03  0.7818608E-02  0.1027173E+00
          2   -1    0    0  501    0  0.00000000000E+00  0.00000000000E+00  0.15559794280E+03  0.15559794282E+03  0.25500000000E-02 0.  1.
         -2   -1    0    0    0  501 -0.00000000000E+00 -0.00000000000E+00 -0.32803014187E+03  0.32803014188E+03  0.25500000000E-02 0. -1.
    5000001    1    1    2    0    0  0.12819618708E+03  0.83987222078E+02 -0.66840259356E+02  0.23490580266E+03  0.16500000000E+03 0.  0.
   -5000001    1    1    2    0    0 -0.12819618708E+03 -0.83987222078E+02 -0.10559193971E+03  0.24872228204E+03  0.16500000000E+03 0.  0.
<mgrwt>
<rscale>  0 0.45184429E+03</rscale>
<asrwt>0</asrwt>
<pdfrwt beam="1">  1        2 0.22228278E-01 0.45184429E+03</pdfrwt>
<pdfrwt beam="2">  1       -2 0.46861449E-01 0.45184429E+03</pdfrwt>
<totfact> 0.10840160E+03</totfact>
</mgrwt>
</event>
<event>
 4    1  0.5399378E-005  0.8783910E+03  0.7818608E-02  0.9453004E-01
         -2   -1    0    0    0  501 -0.00000000000E+00  0.00000000000E+00  0.39425429225E+03  0.39425429226E+03  0.25500000000E-02 0. -1.
          2   -1    0    0  501    0  0.00000000000E+00 -0.00000000000E+00 -0.48925954923E+03  0.48925954924E+03  0.25500000000E-02 0.  1.
    5000001    1    1    2    0    0 -0.25410688973E+03 -0.58072996702E+02 -0.36193560962E+03  0.47556825994E+03  0.16500000000E+03 0.  0.
   -5000001    1    1    2    0    0  0.25410688973E+03  0.58072996702E+02  0.26693035264E+03  0.40794558156E+03  0.16500000000E+03 0.  0.
<mgrwt>
<rscale>  0 0.87839098E+03</rscale>
<asrwt>0</asrwt>
<pdfrwt beam="1">  1        2 0.69894221E-01 0.87839098E+03</pdfrwt>
<pdfrwt beam="2">  1       -2 0.56322042E-01 0.87839098E+03</pdfrwt>
<totfact> 0.20452324E+02</totfact>
</mgrwt>
</event>
<event>
 4    1  0.5399378E-005  0.6362402E+03  0.7818608E-02  0.9832947E-01
          2   -1    0    0  501    0  0.00000000000E+00  0.00000000000E+00  0.17364059831E+04  0.17364059831E+04  0.25500000000E-02 0.  1.
         -2   -1    0    0    0  501 -0.00000000000E+00 -0.00000000000E+00 -0.58281527209E+02  0.58281527265E+02  0.25500000000E-02 0. -1.
    5000001    1    1    2    0    0 -0.73013973469E+02 -0.24822030222E+03  0.10755873856E+04  0.11185068541E+04  0.16500000000E+03 0.  0.
   -5000001    1    1    2    0    0  0.73013973469E+02  0.24822030222E+03  0.60253707035E+03  0.67618065626E+03  0.16500000000E+03 0.  0.
<mgrwt>
<rscale>  0 0.63624018E+03</rscale>
<asrwt>0</asrwt>
<pdfrwt beam="1">  1        2 0.24805799E+00 0.63624018E+03</pdfrwt>
<pdfrwt beam="2">  1       -2 0.83259327E-02 0.63624018E+03</pdfrwt>
<totfact> 0.10329776E+03</totfact>
</mgrwt>
</event>
<event>
 4    1  0.5399378E-005  0.3519628E+03  0.7818608E-02  0.1061812E+00
          2   -1    0    0  501    0  0.00000000000E+00  0.00000000000E+00  0.36360309047E+03  0.36360309048E+03  0.25500000000E-02 0.  1.
         -2   -1    0    0    0  501 -0.00000000000E+00 -0.00000000000E+00 -0.85173782498E+02  0.85173782536E+02  0.25500000000E-02 0. -1.
    5000001    1    1    2    0    0 -0.43958035666E+02 -0.81417806221E+01  0.85937923267E+02  0.19133458691E+03  0.16500000000E+03 0.  0.
   -5000001    1    1    2    0    0  0.43958035666E+02  0.81417806221E+01  0.19249138471E+03  0.25744228611E+03  0.16500000000E+03 0.  0.
<mgrwt>
<rscale>  0 0.35196279E+03</rscale>
<asrwt>0</asrwt>
<pdfrwt beam="1">  1        2 0.51943299E-01 0.35196279E+03</pdfrwt>
<pdfrwt beam="2">  1       -2 0.12167683E-01 0.35196279E+03</pdfrwt>
<totfact> 0.46640370E+03</totfact>
</mgrwt>
</event>
<event>
 4    1  0.5399378E-005  0.5607354E+03  0.7818608E-02  0.9990392E-01
         -2   -1    0    0    0  501 -0.00000000000E+00  0.00000000000E+00  0.48435004125E+02  0.48435004192E+02  0.25500000000E-02 0. -1.
          2   -1    0    0  501    0  0.00000000000E+00 -0.00000000000E+00 -0.16229180857E+04  0.16229180857E+04  0.25500000000E-02 0.  1.
    5000001    1    1    2    0    0  0.78279037984E+00 -0.20205578693E+03 -0.10934495408E+04  0.11241370255E+04  0.16500000000E+03 0.  0.
   -5000001    1    1    2    0    0 -0.78279037984E+00  0.20205578693E+03 -0.48103354074E+03  0.54721606438E+03  0.16500000000E+03 0.  0.
<mgrwt>
<rscale>  0 0.56073539E+03</rscale>
<asrwt>0</asrwt>
<pdfrwt beam="1">  1        2 0.23184541E+00 0.56073539E+03</pdfrwt>
<pdfrwt beam="2">  1       -2 0.69192873E-02 0.56073539E+03</pdfrwt>
<totfact> 0.15883816E+03</totfact>
</mgrwt>
</event>
<event>
 4    1  0.5399378E-005  0.5386852E+03  0.7818608E-02  0.1004147E+00
          2   -1    0    0  501    0  0.00000000000E+00  0.00000000000E+00  0.41845048434E+02  0.41845048512E+02  0.25500000000E-02 0.  1.
         -2   -1    0    0    0  501 -0.00000000000E+00 -0.00000000000E+00 -0.17336685347E+04  0.17336685347E+04  0.25500000000E-02 0. -1.
    5000001    1    1    2    0    0 -0.20619610151E+03  0.23971508008E+02 -0.10015233052E+04  0.10360334919E+04  0.16500000000E+03 0.  0.
   -5000001    1    1    2    0    0  0.20619610151E+03 -0.23971508008E+02 -0.69030018105E+03  0.73948009130E+03  0.16500000000E+03 0.  0.
<mgrwt>
<rscale>  0 0.53868523E+03</rscale>
<asrwt>0</asrwt>
<pdfrwt beam="1">  1        2 0.59778652E-02 0.53868523E+03</pdfrwt>
<pdfrwt beam="2">  1       -2 0.24766689E+00 0.53868523E+03</pdfrwt>
<totfact> 0.90094642E+01</totfact>
</mgrwt>
</event>
<event>
 4    1  0.5399378E-005  0.3816991E+03  0.7818608E-02  0.1050308E+00
          2   -1    0    0  501    0  0.00000000000E+00  0.00000000000E+00  0.26593309899E+04  0.26593309899E+04  0.25500000000E-02 0.  1.
         -2   -1    0    0    0  501 -0.00000000000E+00 -0.00000000000E+00 -0.13696511246E+02  0.13696511483E+02  0.25500000000E-02 0. -1.
    5000001    1    1    2    0    0 -0.76674156220E+01  0.67817747519E+02  0.85093340821E+03  0.86946575629E+03  0.16500000000E+03 0.  0.
   -5000001    1    1    2    0    0  0.76674156220E+01 -0.67817747519E+02  0.17947010704E+04  0.18035617451E+04  0.16500000000E+03 0.  0.
<mgrwt>
<rscale>  0 0.38169913E+03</rscale>
<asrwt>0</asrwt>
<pdfrwt beam="1">  1        2 0.37990445E+00 0.38169913E+03</pdfrwt>
<pdfrwt beam="2">  1       -2 0.19566443E-02 0.38169913E+03</pdfrwt>
<totfact> 0.33082453E+03</totfact>
</mgrwt>
</event>
<event>
 4    1  0.5399378E-005  0.1169552E+04  0.7818608E-02  0.9139933E-01
          2   -1    0    0  501    0  0.00000000000E+00  0.00000000000E+00  0.23414115118E+04  0.23414115118E+04  0.25500000000E-02 0.  1.
         -2   -1    0    0    0  501 -0.00000000000E+00 -0.00000000000E+00 -0.14604993327E+03  0.14604993329E+03  0.25500000000E-02 0. -1.
    5000001    1    1    2    0    0  0.41501335058E+03 -0.35599109911E+03  0.83057478538E+03  0.10079906834E+04  0.16500000000E+03 0.  0.
   -5000001    1    1    2    0    0 -0.41501335058E+03  0.35599109911E+03  0.13647867932E+04  0.14794707617E+04  0.16500000000E+03 0.  0.
<mgrwt>
<rscale>  0 0.11695520E+04</rscale>
<asrwt>0</asrwt>
<pdfrwt beam="1">  1        2 0.33448732E+00 0.11695520E+04</pdfrwt>
<pdfrwt beam="2">  1       -2 0.20864279E-01 0.11695520E+04</pdfrwt>
<totfact> 0.10508507E+02</totfact>
</mgrwt>
</event>
<event>
 4    1  0.5399378E-005  0.3738599E+03  0.7818608E-02  0.1053227E+00
          2   -1    0    0  501    0  0.00000000000E+00  0.00000000000E+00  0.34726290892E+04  0.34726290892E+04  0.25500000000E-02 0.  1.
         -2   -1    0    0    0  501 -0.00000000000E+00 -0.00000000000E+00 -0.10062351312E+02  0.10062351635E+02  0.25500000000E-02 0. -1.
    5000001    1    1    2    0    0 -0.36803450117E+02 -0.74487257760E+02  0.19972190352E+04  0.20057446796E+04  0.16500000000E+03 0.  0.
   -5000001    1    1    2    0    0  0.36803450117E+02  0.74487257760E+02  0.14653477027E+04  0.14769467612E+04  0.16500000000E+03 0.  0.
<mgrwt>
<rscale>  0 0.37385994E+03</rscale>
<asrwt>0</asrwt>
<pdfrwt beam="1">  1        2 0.49609016E+00 0.37385994E+03</pdfrwt>
<pdfrwt beam="2">  1       -2 0.14374779E-02 0.37385994E+03</pdfrwt>
<totfact> 0.18879639E+03</totfact>
</mgrwt>
</event>
<event>
 4    1  0.5399378E-005  0.8254710E+03  0.7818608E-02  0.9523863E-01
          2   -1    0    0  501    0  0.00000000000E+00  0.00000000000E+00  0.50401113293E+03  0.50401113293E+03  0.25500000000E-02 0.  1.
         -2   -1    0    0    0  501 -0.00000000000E+00 -0.00000000000E+00 -0.33798972486E+03  0.33798972487E+03  0.25500000000E-02 0. -1.
    5000001    1    1    2    0    0  0.51070437452E+00 -0.30478136481E+03 -0.14560605415E+03  0.37592294976E+03  0.16500000000E+03 0.  0.
   -5000001    1    1    2    0    0 -0.51070437452E+00  0.30478136481E+03  0.31162746222E+03  0.46607790804E+03  0.16500000000E+03 0.  0.
<mgrwt>
<rscale>  0 0.82547098E+03</rscale>
<asrwt>0</asrwt>
<pdfrwt beam="1">  1        2 0.72001590E-01 0.82547098E+03</pdfrwt>
<pdfrwt beam="2">  1       -2 0.48284246E-01 0.82547098E+03</pdfrwt>
<totfact> 0.27175027E+02</totfact>
</mgrwt>
</event>
<event>
 4    1  0.5399378E-005  0.5940398E+03  0.7818608E-02  0.9917849E-01
          2   -1    0    0  501    0  0.00000000000E+00  0.00000000000E+00  0.41166835561E+03  0.41166835562E+03  0.25500000000E-02 0.  1.
         -2   -1    0    0    0  501 -0.00000000000E+00 -0.00000000000E+00 -0.21430071668E+03  0.21430071669E+03  0.25500000000E-02 0. -1.
    5000001    1    1    2    0    0  0.96100853399E+02  0.21394723194E+03  0.17149002518E+02  0.28727666172E+03  0.16500000000E+03 0.  0.
   -5000001    1    1    2    0    0 -0.96100853399E+02 -0.21394723194E+03  0.18021863642E+03  0.33869241059E+03  0.16500000000E+03 0.  0.
<mgrwt>
<rscale>  0 0.59403981E+03</rscale>
<asrwt>0</asrwt>
<pdfrwt beam="1">  1        2 0.58809766E-01 0.59403981E+03</pdfrwt>
<pdfrwt beam="2">  1       -2 0.30614388E-01 0.59403981E+03</pdfrwt>
<totfact> 0.82937210E+02</totfact>
</mgrwt>
</event>
<event>
 4    1  0.5399378E-005  0.4478199E+03  0.7818608E-02  0.1028374E+00
          2   -1    0    0  501    0  0.00000000000E+00  0.00000000000E+00  0.70943702419E+03  0.70943702419E+03  0.25500000000E-02 0.  1.
         -2   -1    0    0    0  501 -0.00000000000E+00 -0.00000000000E+00 -0.70669664970E+02  0.70669665016E+02  0.25500000000E-02 0. -1.
    5000001    1    1    2    0    0 -0.11051040226E+03  0.47010497151E+02  0.15889039794E+03  0.25863815342E+03  0.16500000000E+03 0.  0.
   -5000001    1    1    2    0    0  0.11051040226E+03 -0.47010497151E+02  0.47987696127E+03  0.52146853578E+03  0.16500000000E+03 0.  0.
<mgrwt>
<rscale>  0 0.44781995E+03</rscale>
<asrwt>0</asrwt>
<pdfrwt beam="1">  1        2 0.10134815E+00 0.44781995E+03</pdfrwt>
<pdfrwt beam="2">  1       -2 0.10095667E-01 0.44781995E+03</pdfrwt>
<totfact> 0.29710040E+03</totfact>
</mgrwt>
</event>
<event>
 4    1  0.5399378E-005  0.7727895E+03  0.7818608E-02  0.9600260E-01
          2   -1    0    0  501    0  0.00000000000E+00  0.00000000000E+00  0.14052832792E+04  0.14052832792E+04  0.25500000000E-02 0.  1.
         -2   -1    0    0    0  501 -0.00000000000E+00 -0.00000000000E+00 -0.10624257756E+03  0.10624257759E+03  0.25500000000E-02 0. -1.
    5000001    1    1    2    0    0  0.32278842872E+03 -0.10079501315E+03  0.82141922986E+03  0.90349684868E+03  0.16500000000E+03 0.  0.
   -5000001    1    1    2    0    0 -0.32278842872E+03  0.10079501315E+03  0.47762147176E+03  0.60802900809E+03  0.16500000000E+03 0.  0.
<mgrwt>
<rscale>  0 0.77278954E+03</rscale>
<asrwt>0</asrwt>
<pdfrwt beam="1">  1        2 0.20075476E+00 0.77278954E+03</pdfrwt>
<pdfrwt beam="2">  1       -2 0.15177511E-01 0.77278954E+03</pdfrwt>
<totfact> 0.56849989E+02</totfact>
</mgrwt>
</event>
<event>
 4    1  0.5399378E-005  0.6546025E+03  0.7818608E-02  0.9798181E-01
          2   -1    0    0  501    0  0.00000000000E+00  0.00000000000E+00  0.37342311630E+03  0.37342311631E+03  0.25500000000E-02 0.  1.
         -2   -1    0    0    0  501 -0.00000000000E+00 -0.00000000000E+00 -0.28687591510E+03  0.28687591511E+03  0.25500000000E-02 0. -1.
    5000001    1    1    2    0    0 -0.24538879654E+03  0.29446206164E+02  0.18164740472E+03  0.34828654893E+03  0.16500000000E+03 0.  0.
   -5000001    1    1    2    0    0  0.24538879654E+03 -0.29446206164E+02 -0.95100203516E+02  0.31201248250E+03  0.16500000000E+03 0.  0.
<mgrwt>
<rscale>  0 0.65460247E+03</rscale>
<asrwt>0</asrwt>
<pdfrwt beam="1">  1        2 0.53346160E-01 0.65460247E+03</pdfrwt>
<pdfrwt beam="2">  1       -2 0.40982273E-01 0.65460247E+03</pdfrwt>
<totfact> 0.53033846E+02</totfact>
</mgrwt>
</event>
<event>
 4    1  0.5399378E-005  0.8816436E+03  0.7818608E-02  0.9448823E-01
          2   -1    0    0  501    0  0.00000000000E+00  0.00000000000E+00  0.29971329766E+04  0.29971329766E+04  0.25500000000E-02 0.  1.
         -2   -1    0    0    0  501 -0.00000000000E+00 -0.00000000000E+00 -0.64836585785E+02  0.64836585835E+02  0.25500000000E-02 0. -1.
    5000001    1    1    2    0    0 -0.36606845853E+03  0.54770550420E+01  0.20976539582E+04  0.21357465305E+04  0.16500000000E+03 0.  0.
   -5000001    1    1    2    0    0  0.36606845853E+03 -0.54770550420E+01  0.83464243268E+03  0.92622303194E+03  0.16500000000E+03 0.  0.
<mgrwt>
<rscale>  0 0.88164362E+03</rscale>
<asrwt>0</asrwt>
<pdfrwt beam="1">  1        2 0.42816185E+00 0.88164362E+03</pdfrwt>
<pdfrwt beam="2">  1       -2 0.92623695E-02 0.88164362E+03</pdfrwt>
<totfact> 0.19021949E+02</totfact>
</mgrwt>
</event>
<event>
 4    1  0.5399378E-005  0.5434538E+03  0.7818608E-02  0.1003021E+00
         -2   -1    0    0    0  501 -0.00000000000E+00  0.00000000000E+00  0.13657995766E+04  0.13657995766E+04  0.25500000000E-02 0. -1.
          2   -1    0    0  501    0  0.00000000000E+00 -0.00000000000E+00 -0.54060280069E+02  0.54060280129E+02  0.25500000000E-02 0.  1.
    5000001    1    1    2    0    0  0.20144459829E+03 -0.21749690576E+01  0.45305839592E+03  0.52256250036E+03  0.16500000000E+03 0.  0.
   -5000001    1    1    2    0    0 -0.20144459829E+03  0.21749690576E+01  0.85868090057E+03  0.89729735632E+03  0.16500000000E+03 0.  0.
<mgrwt>
<rscale>  0 0.54345380E+03</rscale>
<asrwt>0</asrwt>
<pdfrwt beam="1">  1        2 0.77228966E-02 0.54345380E+03</pdfrwt>
<pdfrwt beam="2">  1       -2 0.19511424E+00 0.54345380E+03</pdfrwt>
<totfact> 0.13639752E+02</totfact>
</mgrwt>
</event>
<event>
 4    1  0.5399378E-005  0.6314641E+03  0.7818608E-02  0.9842196E-01
         -2   -1    0    0    0  501 -0.00000000000E+00  0.00000000000E+00  0.40706446001E+03  0.40706446002E+03  0.25500000000E-02 0. -1.
          2   -1    0    0  501    0  0.00000000000E+00 -0.00000000000E+00 -0.24489175670E+03  0.24489175671E+03  0.25500000000E-02 0.  1.
    5000001    1    1    2    0    0 -0.18275731293E+03 -0.14256296116E+03  0.22241273117E+03  0.36113274057E+03  0.16500000000E+03 0.  0.
   -5000001    1    1    2    0    0  0.18275731293E+03  0.14256296116E+03 -0.60240027863E+02  0.29082347615E+03  0.16500000000E+03 0.  0.
<mgrwt>
<rscale>  0 0.63146411E+03</rscale>
<asrwt>0</asrwt>
<pdfrwt beam="1">  1        2 0.34984536E-01 0.63146411E+03</pdfrwt>
<pdfrwt beam="2">  1       -2 0.58152066E-01 0.63146411E+03</pdfrwt>
<totfact> 0.41767904E+02</totfact>
</mgrwt>
</event>
<event>
 4    1  0.5399378E-005  0.4601678E+03  0.7818608E-02  0.1024733E+00
          2   -1    0    0  501    0  0.00000000000E+00  0.00000000000E+00  0.51332115614E+03  0.51332115614E+03  0.25500000000E-02 0.  1.
         -2   -1    0    0    0  501 -0.00000000000E+00 -0.00000000000E+00 -0.10312958842E+03  0.10312958846E+03  0.25500000000E-02 0. -1.
    5000001    1    1    2    0    0  0.23950502200E+01 -0.10893701519E+03  0.47494604170E+02  0.20335620711E+03  0.16500000000E+03 0.  0.
   -5000001    1    1    2    0    0 -0.23950502200E+01  0.10893701519E+03  0.36269696354E+03  0.41309453749E+03  0.16500000000E+03 0.  0.
<mgrwt>
<rscale>  0 0.46016779E+03</rscale>
<asrwt>0</asrwt>
<pdfrwt beam="1">  1        2 0.73331595E-01 0.46016779E+03</pdfrwt>
<pdfrwt beam="2">  1       -2 0.14732798E-01 0.46016779E+03</pdfrwt>
<totfact> 0.23347915E+03</totfact>
</mgrwt>
</event>
<event>
 4    1  0.5399378E-005  0.3918006E+03  0.7818608E-02  0.1046656E+00
          2   -1    0    0  501    0  0.00000000000E+00  0.00000000000E+00  0.44703569921E+02  0.44703569994E+02  0.25500000000E-02 0.  1.
         -2   -1    0    0    0  501 -0.00000000000E+00 -0.00000000000E+00 -0.85847563804E+03  0.85847563804E+03  0.25500000000E-02 0. -1.
    5000001    1    1    2    0    0 -0.91529248868E+02 -0.48983426017E+02 -0.45152286913E+03  0.49180776811E+03  0.16500000000E+03 0.  0.
   -5000001    1    1    2    0    0  0.91529248868E+02  0.48983426017E+02 -0.36224919898E+03  0.41137143993E+03  0.16500000000E+03 0.  0.
<mgrwt>
<rscale>  0 0.39180059E+03</rscale>
<asrwt>0</asrwt>
<pdfrwt beam="1">  1        2 0.63862248E-02 0.39180059E+03</pdfrwt>
<pdfrwt beam="2">  1       -2 0.12263937E+00 0.39180059E+03</pdfrwt>
<totfact> 0.60333908E+02</totfact>
</mgrwt>
</event>
<event>
 4    1  0.5399378E-005  0.1483350E+04  0.7818608E-02  0.8895601E-01
          2   -1    0    0  501    0  0.00000000000E+00  0.00000000000E+00  0.39548117964E+04  0.39548117964E+04  0.25500000000E-02 0.  1.
         -2   -1    0    0    0  501 -0.00000000000E+00 -0.00000000000E+00 -0.13909176388E+03  0.13909176390E+03  0.25500000000E-02 0. -1.
    5000001    1    1    2    0    0 -0.30989528592E+03  0.29227088806E+03  0.29526481264E+03  0.54393351600E+03  0.16500000000E+03 0.  0.
   -5000001    1    1    2    0    0  0.30989528592E+03 -0.29227088806E+03  0.35204552199E+04  0.35499700443E+04  0.16500000000E+03 0.  0.
<mgrwt>
<rscale>  0 0.14833499E+04</rscale>
<asrwt>0</asrwt>
<pdfrwt beam="1">  1        2 0.56497314E+00 0.14833499E+04</pdfrwt>
<pdfrwt beam="2">  1       -2 0.19870251E-01 0.14833499E+04</pdfrwt>
<totfact> 0.13042762E+01</totfact>
</mgrwt>
</event>
<event>
 4    1  0.5399378E-005  0.4196613E+03  0.7818608E-02  0.1037177E+00
         -2   -1    0    0    0  501 -0.00000000000E+00  0.00000000000E+00  0.12201851308E+03  0.12201851311E+03  0.25500000000E-02 0. -1.
          2   -1    0    0  501    0  0.00000000000E+00 -0.00000000000E+00 -0.36083796511E+03  0.36083796512E+03  0.25500000000E-02 0.  1.
    5000001    1    1    2    0    0 -0.53418896045E+02  0.11754525035E+03 -0.13270124262E+03  0.24800218573E+03  0.16500000000E+03 0.  0.
   -5000001    1    1    2    0    0  0.53418896045E+02 -0.11754525035E+03 -0.10611820941E+03  0.23485429250E+03  0.16500000000E+03 0.  0.
<mgrwt>
<rscale>  0 0.41966135E+03</rscale>
<asrwt>0</asrwt>
<pdfrwt beam="1">  1        2 0.51548280E-01 0.41966135E+03</pdfrwt>
<pdfrwt beam="2">  1       -2 0.17431216E-01 0.41966135E+03</pdfrwt>
<totfact> 0.25973455E+03</totfact>
</mgrwt>
</event>
<event>
 4    1  0.5399378E-005  0.4858269E+03  0.7818608E-02  0.1017546E+00
          2   -1    0    0  501    0  0.00000000000E+00  0.00000000000E+00  0.41481631106E+03  0.41481631107E+03  0.25500000000E-02 0.  1.
         -2   -1    0    0    0  501 -0.00000000000E+00 -0.00000000000E+00 -0.14224835777E+03  0.14224835780E+03  0.25500000000E-02 0. -1.
    5000001    1    1    2    0    0  0.14138169824E+03  0.90713460675E+02  0.20473918221E+03  0.31202700088E+03  0.16500000000E+03 0.  0.
   -5000001    1    1    2    0    0 -0.14138169824E+03 -0.90713460675E+02  0.67828771082E+02  0.24503766799E+03  0.16500000000E+03 0.  0.
<mgrwt>
<rscale>  0 0.48582688E+03</rscale>
<asrwt>0</asrwt>
<pdfrwt beam="1">  1        2 0.59259473E-01 0.48582688E+03</pdfrwt>
<pdfrwt beam="2">  1       -2 0.20321194E-01 0.48582688E+03</pdfrwt>
<totfact> 0.17145135E+03</totfact>
</mgrwt>
</event>
<event>
 4    1  0.5399378E-005  0.7929189E+03  0.7818608E-02  0.9570324E-01
          2   -1    0    0  501    0  0.00000000000E+00  0.00000000000E+00  0.68679456481E+03  0.68679456482E+03  0.25500000000E-02 0.  1.
         -2   -1    0    0    0  501 -0.00000000000E+00 -0.00000000000E+00 -0.22886044645E+03  0.22886044647E+03  0.25500000000E-02 0. -1.
    5000001    1    1    2    0    0  0.26654062526E+03 -0.24236888701E+03  0.21397574625E+03  0.45033010369E+03  0.16500000000E+03 0.  0.
   -5000001    1    1    2    0    0 -0.26654062526E+03  0.24236888701E+03  0.24395837211E+03  0.46532490760E+03  0.16500000000E+03 0.  0.
<mgrwt>
<rscale>  0 0.79291894E+03</rscale>
<asrwt>0</asrwt>
<pdfrwt beam="1">  1        2 0.98113510E-01 0.79291894E+03</pdfrwt>
<pdfrwt beam="2">  1       -2 0.32694349E-01 0.79291894E+03</pdfrwt>
<totfact> 0.40329475E+02</totfact>
</mgrwt>
</event>
<event>
 4    1  0.5399378E-005  0.4729206E+03  0.7818608E-02  0.1021099E+00
         -2   -1    0    0    0  501 -0.00000000000E+00  0.00000000000E+00  0.16260164329E+02  0.16260164529E+02  0.25500000000E-02 0. -1.
          2   -1    0    0  501    0  0.00000000000E+00 -0.00000000000E+00 -0.34386775968E+04  0.34386775968E+04  0.25500000000E-02 0.  1.
    5000001    1    1    2    0    0  0.10246379528E+03  0.13456076256E+03 -0.17777793339E+04  0.17934128883E+04  0.16500000000E+03 0.  0.
   -5000001    1    1    2    0    0 -0.10246379528E+03 -0.13456076256E+03 -0.16446380986E+04  0.16615248730E+04  0.16500000000E+03 0.  0.
<mgrwt>
<rscale>  0 0.47292056E+03</rscale>
<asrwt>0</asrwt>
<pdfrwt beam="1">  1        2 0.49123919E+00 0.47292056E+03</pdfrwt>
<pdfrwt beam="2">  1       -2 0.23228828E-02 0.47292056E+03</pdfrwt>
<totfact> 0.95699751E+02</totfact>
</mgrwt>
</event>
<event>
 4    1  0.5399378E-005  0.4857972E+03  0.7818608E-02  0.1017554E+00
          2   -1    0    0  501    0  0.00000000000E+00  0.00000000000E+00  0.82503281862E+03  0.82503281862E+03  0.25500000000E-02 0.  1.
         -2   -1    0    0    0  501 -0.00000000000E+00 -0.00000000000E+00 -0.71511972537E+02  0.71511972582E+02  0.25500000000E-02 0. -1.
    5000001    1    1    2    0    0 -0.16774541377E+03  0.58035507733E+02  0.40697729111E+03  0.47366882890E+03  0.16500000000E+03 0.  0.
   -5000001    1    1    2    0    0  0.16774541377E+03 -0.58035507733E+02  0.34654355497E+03  0.42287596230E+03  0.16500000000E+03 0.  0.
<mgrwt>
<rscale>  0 0.48579718E+03</rscale>
<asrwt>0</asrwt>
<pdfrwt beam="1">  1        2 0.11786183E+00 0.48579718E+03</pdfrwt>
<pdfrwt beam="2">  1       -2 0.10215996E-01 0.48579718E+03</pdfrwt>
<totfact> 0.24158788E+03</totfact>
</mgrwt>
</event>
<event>
 4    1  0.5399378E-005  0.4464665E+03  0.7818608E-02  0.1028781E+00
         -2   -1    0    0    0  501 -0.00000000000E+00  0.00000000000E+00  0.18890321339E+03  0.18890321341E+03  0.25500000000E-02 0. -1.
          2   -1    0    0  501    0  0.00000000000E+00 -0.00000000000E+00 -0.26380217895E+03  0.26380217896E+03  0.25500000000E-02 0.  1.
    5000001    1    1    2    0    0  0.67501879970E+02 -0.11431110830E+03 -0.10903738155E+03  0.23819673351E+03  0.16500000000E+03 0.  0.
   -5000001    1    1    2    0    0 -0.67501879970E+02  0.11431110830E+03  0.34138415988E+02  0.21450865886E+03  0.16500000000E+03 0.  0.
<mgrwt>
<rscale>  0 0.44646648E+03</rscale>
<asrwt>0</asrwt>
<pdfrwt beam="1">  1        2 0.37686025E-01 0.44646648E+03</pdfrwt>
<pdfrwt beam="2">  1       -2 0.26986174E-01 0.44646648E+03</pdfrwt>
<totfact> 0.17047705E+03</totfact>
</mgrwt>
</event>
<event>
 4    1  0.5399378E-005  0.1050466E+04  0.7818608E-02  0.9254863E-01
          2   -1    0    0  501    0  0.00000000000E+00  0.00000000000E+00  0.98687887316E+03  0.98687887316E+03  0.25500000000E-02 0.  1.
         -2   -1    0    0    0  501 -0.00000000000E+00 -0.00000000000E+00 -0.27953775771E+03  0.27953775772E+03  0.25500000000E-02 0. -1.
    5000001    1    1    2    0    0  0.40648474986E+03  0.19179032966E+03  0.61400657339E+03  0.77861572973E+03  0.16500000000E+03 0.  0.
   -5000001    1    1    2    0    0 -0.40648474986E+03 -0.19179032966E+03  0.93334542059E+02  0.48780090115E+03  0.16500000000E+03 0.  0.
<mgrwt>
<rscale>  0 0.10504664E+04</rscale>
<asrwt>0</asrwt>
<pdfrwt beam="1">  1        2 0.14098270E+00 0.10504664E+04</pdfrwt>
<pdfrwt beam="2">  1       -2 0.39933966E-01 0.10504664E+04</pdfrwt>
<totfact> 0.16882952E+02</totfact>
</mgrwt>
</event>
<event>
 4    1  0.5399378E-005  0.4688527E+03  0.7818608E-02  0.1022245E+00
          2   -1    0    0  501    0  0.00000000000E+00  0.00000000000E+00  0.57048785398E+03  0.57048785399E+03  0.25500000000E-02 0.  1.
         -2   -1    0    0    0  501 -0.00000000000E+00 -0.00000000000E+00 -0.96331098813E+02  0.96331098846E+02  0.25500000000E-02 0. -1.
    5000001    1    1    2    0    0 -0.13023828518E+03 -0.10187198123E+03  0.26519444103E+03  0.35340204165E+03  0.16500000000E+03 0.  0.
   -5000001    1    1    2    0    0  0.13023828518E+03  0.10187198123E+03  0.20896231414E+03  0.31341691119E+03  0.16500000000E+03 0.  0.
<mgrwt>
<rscale>  0 0.46885274E+03</rscale>
<asrwt>0</asrwt>
<pdfrwt beam="1">  1        2 0.81498266E-01 0.46885274E+03</pdfrwt>
<pdfrwt beam="2">  1       -2 0.13761585E-01 0.46885274E+03</pdfrwt>
<totfact> 0.23184840E+03</totfact>
</mgrwt>
</event>
<event>
 4    1  0.5399378E-005  0.3611824E+03  0.7818608E-02  0.1058117E+00
         -2   -1    0    0    0  501 -0.00000000000E+00  0.00000000000E+00  0.29347845908E+02  0.29347846019E+02  0.25500000000E-02 0. -1.
          2   -1    0    0  501    0  0.00000000000E+00 -0.00000000000E+00 -0.11112632440E+04  0.11112632440E+04  0.25500000000E-02 0.  1.
    5000001    1    1    2    0    0 -0.65141806049E+02  0.32978267103E+02 -0.51708162719E+03  0.54765813257E+03  0.16500000000E+03 0.  0.
   -5000001    1    1    2    0    0  0.65141806049E+02 -0.32978267103E+02 -0.56483377093E+03  0.59295295748E+03  0.16500000000E+03 0.  0.
<mgrwt>
<rscale>  0 0.36118241E+03</rscale>
<asrwt>0</asrwt>
<pdfrwt beam="1">  1        2 0.15875187E+00 0.36118241E+03</pdfrwt>
<pdfrwt beam="2">  1       -2 0.41925501E-02 0.36118241E+03</pdfrwt>
<totfact> 0.64599306E+03</totfact>
</mgrwt>
</event>
<event>
 4    1  0.5399378E-005  0.4175629E+03  0.7818608E-02  0.1037862E+00
          2   -1    0    0  501    0  0.00000000000E+00  0.00000000000E+00  0.23785069531E+03  0.23785069532E+03  0.25500000000E-02 0.  1.
         -2   -1    0    0    0  501 -0.00000000000E+00 -0.00000000000E+00 -0.18326492499E+03  0.18326492501E+03  0.25500000000E-02 0. -1.
    5000001    1    1    2    0    0  0.37193245273E+02 -0.12116897837E+03  0.98415818210E+01  0.20829574058E+03  0.16500000000E+03 0.  0.
   -5000001    1    1    2    0    0 -0.37193245273E+02  0.12116897837E+03  0.44744188496E+02  0.21281987975E+03  0.16500000000E+03 0.  0.
<mgrwt>
<rscale>  0 0.41756288E+03</rscale>
<asrwt>0</asrwt>
<pdfrwt beam="1">  1        2 0.33978671E-01 0.41756288E+03</pdfrwt>
<pdfrwt beam="2">  1       -2 0.26180704E-01 0.41756288E+03</pdfrwt>
<totfact> 0.20163023E+03</totfact>
</mgrwt>
</event>
<event>
 4    1  0.5399378E-005  0.1019040E+04  0.7818608E-02  0.9287905E-01
         -2   -1    0    0    0  501 -0.00000000000E+00  0.00000000000E+00  0.35611969605E+03  0.35611969606E+03  0.25500000000E-02 0. -1.
          2   -1    0    0  501    0  0.00000000000E+00 -0.00000000000E+00 -0.72899776746E+03  0.72899776747E+03  0.25500000000E-02 0.  1.
    5000001    1    1    2    0    0  0.46454434654E+03  0.69119241519E+02 -0.30214268443E+03  0.58231788673E+03  0.16500000000E+03 0.  0.
   -5000001    1    1    2    0    0 -0.46454434654E+03 -0.69119241519E+02 -0.70735386986E+02  0.50279957679E+03  0.16500000000E+03 0.  0.
<mgrwt>
<rscale>  0 0.10190397E+04</rscale>
<asrwt>0</asrwt>
<pdfrwt beam="1">  1        2 0.10414254E+00 0.10190397E+04</pdfrwt>
<pdfrwt beam="2">  1       -2 0.50874243E-01 0.10190397E+04</pdfrwt>
<totfact> 0.15584621E+02</totfact>
</mgrwt>
</event>
<event>
 4    1  0.5399378E-005  0.3871618E+03  0.7818608E-02  0.1048318E+00
         -2   -1    0    0    0  501 -0.00000000000E+00  0.00000000000E+00  0.82115264892E+02  0.82115264932E+02  0.25500000000E-02 0. -1.
          2   -1    0    0  501    0  0.00000000000E+00 -0.00000000000E+00 -0.45635318035E+03  0.45635318035E+03  0.25500000000E-02 0.  1.
    5000001    1    1    2    0    0  0.91893603478E+02  0.32117387453E+02 -0.22577750306E+03  0.29610208007E+03  0.16500000000E+03 0.  0.
   -5000001    1    1    2    0    0 -0.91893603478E+02 -0.32117387453E+02 -0.14846041240E+03  0.24236636521E+03  0.16500000000E+03 0.  0.
<mgrwt>
<rscale>  0 0.38716179E+03</rscale>
<asrwt>0</asrwt>
<pdfrwt beam="1">  1        2 0.65193310E-01 0.38716179E+03</pdfrwt>
<pdfrwt beam="2">  1       -2 0.11730752E-01 0.38716179E+03</pdfrwt>
<totfact> 0.38671627E+03</totfact>
</mgrwt>
</event>
<event>
 4    1  0.5399378E-005  0.3838394E+03  0.7818608E-02  0.1049524E+00
         -2   -1    0    0    0  501 -0.00000000000E+00  0.00000000000E+00  0.26279238682E+02  0.26279238806E+02  0.25500000000E-02 0. -1.
          2   -1    0    0  501    0  0.00000000000E+00 -0.00000000000E+00 -0.14016074619E+04  0.14016074619E+04  0.25500000000E-02 0.  1.
    5000001    1    1    2    0    0  0.80999372817E+02 -0.54442568343E+02 -0.72161325313E+03  0.74664287229E+03  0.16500000000E+03 0.  0.
   -5000001    1    1    2    0    0 -0.80999372817E+02  0.54442568343E+02 -0.65371497008E+03  0.68124382841E+03  0.16500000000E+03 0.  0.
<mgrwt>
<rscale>  0 0.38383943E+03</rscale>
<asrwt>0</asrwt>
<pdfrwt beam="1">  1        2 0.20022959E+00 0.38383943E+03</pdfrwt>
<pdfrwt beam="2">  1       -2 0.37541779E-02 0.38383943E+03</pdfrwt>
<totfact> 0.53217803E+03</totfact>
</mgrwt>
</event>
<event>
 4    1  0.5399378E-005  0.8452077E+03  0.7818608E-02  0.9496792E-01
         -2   -1    0    0    0  501 -0.00000000000E+00  0.00000000000E+00  0.39313741848E+02  0.39313741931E+02  0.25500000000E-02 0. -1.
          2   -1    0    0  501    0  0.00000000000E+00 -0.00000000000E+00 -0.45427882397E+04  0.45427882397E+04  0.25500000000E-02 0.  1.
    5000001    1    1    2    0    0  0.19845372156E+03 -0.32624331960E+03 -0.18478461466E+04  0.18940905376E+04  0.16500000000E+03 0.  0.
   -5000001    1    1    2    0    0 -0.19845372156E+03  0.32624331960E+03 -0.26556283513E+04  0.26880114440E+04  0.16500000000E+03 0.  0.
<mgrwt>
<rscale>  0 0.84520768E+03</rscale>
<asrwt>0</asrwt>
<pdfrwt beam="1">  1        2 0.64896942E+00 0.84520768E+03</pdfrwt>
<pdfrwt beam="2">  1       -2 0.56162517E-02 0.84520768E+03</pdfrwt>
<totfact> 0.42356488E+01</totfact>
</mgrwt>
</event>
<event>
 4    1  0.5399378E-005  0.8967688E+03  0.7818608E-02  0.9429630E-01
         -2   -1    0    0    0  501 -0.00000000000E+00  0.00000000000E+00  0.36507890666E+03  0.36507890667E+03  0.25500000000E-02 0. -1.
          2   -1    0    0  501    0  0.00000000000E+00 -0.00000000000E+00 -0.55069899884E+03  0.55069899884E+03  0.25500000000E-02 0.  1.
    5000001    1    1    2    0    0  0.32975109811E+03  0.23532156928E+03 -0.19344623153E+03  0.47828701861E+03  0.16500000000E+03 0.  0.
   -5000001    1    1    2    0    0 -0.32975109811E+03 -0.23532156928E+03  0.78261393557E+01  0.43749088691E+03  0.16500000000E+03 0.  0.
<mgrwt>
<rscale>  0 0.89676884E+03</rscale>
<asrwt>0</asrwt>
<pdfrwt beam="1">  1        2 0.78671285E-01 0.89676884E+03</pdfrwt>
<pdfrwt beam="2">  1       -2 0.52154130E-01 0.89676884E+03</pdfrwt>
<totfact> 0.20899876E+02</totfact>
</mgrwt>
</event>
<event>
 4    1  0.5399378E-005  0.5033721E+03  0.7818608E-02  0.1012902E+00
         -2   -1    0    0    0  501 -0.00000000000E+00  0.00000000000E+00  0.63006361564E+03  0.63006361564E+03  0.25500000000E-02 0. -1.
          2   -1    0    0  501    0  0.00000000000E+00 -0.00000000000E+00 -0.10053883241E+03  0.10053883244E+03  0.25500000000E-02 0.  1.
    5000001    1    1    2    0    0 -0.11029371360E+03 -0.12007409750E+03  0.40651434358E+03  0.46803995950E+03  0.16500000000E+03 0.  0.
   -5000001    1    1    2    0    0  0.11029371360E+03  0.12007409750E+03  0.12301043965E+03  0.26256248859E+03  0.16500000000E+03 0.  0.
<mgrwt>
<rscale>  0 0.50337207E+03</rscale>
<asrwt>0</asrwt>
<pdfrwt beam="1">  1        2 0.14362691E-01 0.50337207E+03</pdfrwt>
<pdfrwt beam="2">  1       -2 0.90009087E-01 0.50337207E+03</pdfrwt>
<totfact> 0.45102629E+02</totfact>
</mgrwt>
</event>
<event>
 4    1  0.5399378E-005  0.5305056E+03  0.7818608E-02  0.1006110E+00
          2   -1    0    0  501    0  0.00000000000E+00  0.00000000000E+00  0.13634347704E+04  0.13634347704E+04  0.25500000000E-02 0.  1.
         -2   -1    0    0    0  501 -0.00000000000E+00 -0.00000000000E+00 -0.51604273457E+02  0.51604273520E+02  0.25500000000E-02 0. -1.
    5000001    1    1    2    0    0 -0.14991820846E+03 -0.53434280657E+02  0.10118164956E+04  0.10374624390E+04  0.16500000000E+03 0.  0.
   -5000001    1    1    2    0    0  0.14991820846E+03  0.53434280657E+02  0.30001400135E+03  0.37757660492E+03  0.16500000000E+03 0.  0.
<mgrwt>
<rscale>  0 0.53050565E+03</rscale>
<asrwt>0</asrwt>
<pdfrwt beam="1">  1        2 0.19477644E+00 0.53050565E+03</pdfrwt>
<pdfrwt beam="2">  1       -2 0.73720375E-02 0.53050565E+03</pdfrwt>
<totfact> 0.19632758E+03</totfact>
</mgrwt>
</event>
<event>
 4    1  0.5399378E-005  0.4700672E+03  0.7818608E-02  0.1021901E+00
         -2   -1    0    0    0  501 -0.00000000000E+00  0.00000000000E+00  0.51389109817E+02  0.51389109880E+02  0.25500000000E-02 0. -1.
          2   -1    0    0  501    0  0.00000000000E+00 -0.00000000000E+00 -0.10749513538E+04  0.10749513538E+04  0.25500000000E-02 0.  1.
    5000001    1    1    2    0    0 -0.14818449698E+03  0.50655347052E+00 -0.69826214097E+03  0.73263491539E+03  0.16500000000E+03 0.  0.
   -5000001    1    1    2    0    0  0.14818449698E+03 -0.50655347052E+00 -0.32530010306E+03  0.39370554833E+03  0.16500000000E+03 0.  0.
<mgrwt>
<rscale>  0 0.47006720E+03</rscale>
<asrwt>0</asrwt>
<pdfrwt beam="1">  1        2 0.15356446E+00 0.47006720E+03</pdfrwt>
<pdfrwt beam="2">  1       -2 0.73413021E-02 0.47006720E+03</pdfrwt>
<totfact> 0.28582159E+03</totfact>
</mgrwt>
</event>
<event>
 4    1  0.5399378E-005  0.5054878E+03  0.7818608E-02  0.1012356E+00
         -2   -1    0    0    0  501 -0.00000000000E+00  0.00000000000E+00  0.85426012231E+02  0.85426012269E+02  0.25500000000E-02 0. -1.
          2   -1    0    0  501    0  0.00000000000E+00 -0.00000000000E+00 -0.74777564588E+03  0.74777564589E+03  0.25500000000E-02 0.  1.
    5000001    1    1    2    0    0  0.13888812925E+03 -0.47559793493E+02 -0.53374051864E+03  0.57762945531E+03  0.16500000000E+03 0.  0.
   -5000001    1    1    2    0    0 -0.13888812925E+03  0.47559793493E+02 -0.12860911501E+03  0.25557220285E+03  0.16500000000E+03 0.  0.
<mgrwt>
<rscale>  0 0.50548785E+03</rscale>
<asrwt>0</asrwt>
<pdfrwt beam="1">  1        2 0.10682509E+00 0.50548785E+03</pdfrwt>
<pdfrwt beam="2">  1       -2 0.12203716E-01 0.50548785E+03</pdfrwt>
<totfact> 0.20473599E+03</totfact>
</mgrwt>
</event>
<event>
 4    1  0.5399378E-005  0.4446134E+03  0.7818608E-02  0.1029341E+00
         -2   -1    0    0    0  501 -0.00000000000E+00  0.00000000000E+00  0.42118204867E+02  0.42118204945E+02  0.25500000000E-02 0. -1.
          2   -1    0    0  501    0  0.00000000000E+00 -0.00000000000E+00 -0.11733706786E+04  0.11733706786E+04  0.25500000000E-02 0.  1.
    5000001    1    1    2    0    0  0.48047666239E+02 -0.13394672494E+03 -0.44506042882E+03  0.49553414479E+03  0.16500000000E+03 0.  0.
   -5000001    1    1    2    0    0 -0.48047666239E+02  0.13394672494E+03 -0.68619204488E+03  0.71995473872E+03  0.16500000000E+03 0.  0.
<mgrwt>
<rscale>  0 0.44461339E+03</rscale>
<asrwt>0</asrwt>
<pdfrwt beam="1">  1        2 0.16762436E+00 0.44461339E+03</pdfrwt>
<pdfrwt beam="2">  1       -2 0.60168871E-02 0.44461339E+03</pdfrwt>
<totfact> 0.34287727E+03</totfact>
</mgrwt>
</event>
<event>
 4    1  0.5399378E-005  0.5007996E+03  0.7818608E-02  0.1013570E+00
         -2   -1    0    0    0  501 -0.00000000000E+00  0.00000000000E+00  0.44703251330E+02  0.44703251403E+02  0.25500000000E-02 0. -1.
          2   -1    0    0  501    0  0.00000000000E+00 -0.00000000000E+00 -0.14025837093E+04  0.14025837093E+04  0.25500000000E-02 0.  1.
    5000001    1    1    2    0    0  0.14698451840E+03 -0.11131384078E+03 -0.79011262301E+03  0.82794817279E+03  0.16500000000E+03 0.  0.
   -5000001    1    1    2    0    0 -0.14698451840E+03  0.11131384078E+03 -0.56776783501E+03  0.61933878796E+03  0.16500000000E+03 0.  0.
<mgrwt>
<rscale>  0 0.50079957E+03</rscale>
<asrwt>0</asrwt>
<pdfrwt beam="1">  1        2 0.20036907E+00 0.50079957E+03</pdfrwt>
<pdfrwt beam="2">  1       -2 0.63861797E-02 0.50079957E+03</pdfrwt>
<totfact> 0.23471784E+03</totfact>
</mgrwt>
</event>
<event>
 4    1  0.5399378E-005  0.5063792E+03  0.7818608E-02  0.1012127E+00
         -2   -1    0    0    0  501 -0.00000000000E+00  0.00000000000E+00  0.60860872315E+02  0.60860872369E+02  0.25500000000E-02 0. -1.
          2   -1    0    0  501    0  0.00000000000E+00 -0.00000000000E+00 -0.10533034088E+04  0.10533034088E+04  0.25500000000E-02 0.  1.
    5000001    1    1    2    0    0  0.17328845021E+03  0.58524129226E+02 -0.36743566593E+03  0.44236628406E+03  0.16500000000E+03 0.  0.
   -5000001    1    1    2    0    0 -0.17328845021E+03 -0.58524129226E+02 -0.62500687053E+03  0.67179799708E+03  0.16500000000E+03 0.  0.
<mgrwt>
<rscale>  0 0.50637916E+03</rscale>
<asrwt>0</asrwt>
<pdfrwt beam="1">  1        2 0.15047190E+00 0.50637916E+03</pdfrwt>
<pdfrwt beam="2">  1       -2 0.86944110E-02 0.50637916E+03</pdfrwt>
<totfact> 0.22503054E+03</totfact>
</mgrwt>
</event>
<event>
 4    1  0.5399378E-005  0.6398543E+03  0.7818608E-02  0.9826005E-01
         -2   -1    0    0    0  501 -0.00000000000E+00  0.00000000000E+00  0.26617725431E+03  0.26617725432E+03  0.25500000000E-02 0. -1.
          2   -1    0    0  501    0  0.00000000000E+00 -0.00000000000E+00 -0.38453093565E+03  0.38453093566E+03  0.25500000000E-02 0.  1.
    5000001    1    1    2    0    0  0.10357923032E+02 -0.24097407886E+03  0.73233914665E+02  0.30127064163E+03  0.16500000000E+03 0.  0.
   -5000001    1    1    2    0    0 -0.10357923032E+02  0.24097407886E+03 -0.19158759601E+03  0.34943754835E+03  0.16500000000E+03 0.  0.
<mgrwt>
<rscale>  0 0.63985432E+03</rscale>
<asrwt>0</asrwt>
<pdfrwt beam="1">  1        2 0.54932990E-01 0.63985432E+03</pdfrwt>
<pdfrwt beam="2">  1       -2 0.38025322E-01 0.63985432E+03</pdfrwt>
<totfact> 0.59373783E+02</totfact>
</mgrwt>
</event>
<event>
 4    1  0.5399378E-005  0.8972147E+03  0.7818608E-02  0.9429070E-01
          2   -1    0    0  501    0  0.00000000000E+00  0.00000000000E+00  0.93036086403E+03  0.93036086403E+03  0.25500000000E-02 0.  1.
         -2   -1    0    0    0  501 -0.00000000000E+00 -0.00000000000E+00 -0.21631236071E+03  0.21631236072E+03  0.25500000000E-02 0. -1.
    5000001    1    1    2    0    0  0.10679091069E+03  0.32224247675E+03  0.66687642313E+03  0.76628563614E+03  0.16500000000E+03 0.  0.
   -5000001    1    1    2    0    0 -0.10679091069E+03 -0.32224247675E+03  0.47172080190E+02  0.38038758862E+03  0.16500000000E+03 0.  0.
<mgrwt>
<rscale>  0 0.89721470E+03</rscale>
<asrwt>0</asrwt>
<pdfrwt beam="1">  1        2 0.13290870E+00 0.89721470E+03</pdfrwt>
<pdfrwt beam="2">  1       -2 0.30901765E-01 0.89721470E+03</pdfrwt>
<totfact> 0.30139955E+02</totfact>
</mgrwt>
</event>
<event>
 4    1  0.5399378E-005  0.6061030E+03  0.7818608E-02  0.9892825E-01
          2   -1    0    0  501    0  0.00000000000E+00  0.00000000000E+00  0.57646426854E+03  0.57646426854E+03  0.25500000000E-02 0.  1.
         -2   -1    0    0    0  501 -0.00000000000E+00 -0.00000000000E+00 -0.15931639448E+03  0.15931639450E+03  0.25500000000E-02 0. -1.
    5000001    1    1    2    0    0  0.13060789838E+03  0.16465199687E+03  0.34989217805E+02  0.26947717631E+03  0.16500000000E+03 0.  0.
   -5000001    1    1    2    0    0 -0.13060789838E+03 -0.16465199687E+03  0.38215865625E+03  0.46630348673E+03  0.16500000000E+03 0.  0.
<mgrwt>
<rscale>  0 0.60610299E+03</rscale>
<asrwt>0</asrwt>
<pdfrwt beam="1">  1        2 0.82352039E-01 0.60610299E+03</pdfrwt>
<pdfrwt beam="2">  1       -2 0.22759485E-01 0.60610299E+03</pdfrwt>
<totfact> 0.96776319E+02</totfact>
</mgrwt>
</event>
<event>
 4    1  0.5399378E-005  0.4948377E+03  0.7818608E-02  0.1015135E+00
          2   -1    0    0  501    0  0.00000000000E+00  0.00000000000E+00  0.10050853360E+04  0.10050853360E+04  0.25500000000E-02 0.  1.
         -2   -1    0    0    0  501 -0.00000000000E+00 -0.00000000000E+00 -0.60906356010E+02  0.60906356063E+02  0.25500000000E-02 0. -1.
    5000001    1    1    2    0    0  0.11971425307E+02 -0.14280366364E+03  0.72196921867E+03  0.75432138646E+03  0.16500000000E+03 0.  0.
   -5000001    1    1    2    0    0 -0.11971425307E+02  0.14280366364E+03  0.22220976136E+03  0.31167030564E+03  0.16500000000E+03 0.  0.
<mgrwt>
<rscale>  0 0.49483769E+03</rscale>
<asrwt>0</asrwt>
<pdfrwt beam="1">  1        2 0.14358362E+00 0.49483769E+03</pdfrwt>
<pdfrwt beam="2">  1       -2 0.87009082E-02 0.49483769E+03</pdfrwt>
<totfact> 0.24016475E+03</totfact>
</mgrwt>
</event>
<event>
 4    1  0.5399378E-005  0.4540367E+03  0.7818608E-02  0.1026525E+00
          2   -1    0    0  501    0  0.00000000000E+00  0.00000000000E+00  0.35011760072E+03  0.35011760073E+03  0.25500000000E-02 0.  1.
         -2   -1    0    0    0  501 -0.00000000000E+00 -0.00000000000E+00 -0.14720004058E+03  0.14720004060E+03  0.25500000000E-02 0. -1.
    5000001    1    1    2    0    0 -0.77507317422E+01 -0.15541467102E+03  0.90586268327E+02  0.24422257435E+03  0.16500000000E+03 0.  0.
   -5000001    1    1    2    0    0  0.77507317422E+01  0.15541467102E+03  0.11233129181E+03  0.25309506698E+03  0.16500000000E+03 0.  0.
<mgrwt>
<rscale>  0 0.45403667E+03</rscale>
<asrwt>0</asrwt>
<pdfrwt beam="1">  1        2 0.50016800E-01 0.45403667E+03</pdfrwt>
<pdfrwt beam="2">  1       -2 0.21028577E-01 0.45403667E+03</pdfrwt>
<totfact> 0.19459273E+03</totfact>
</mgrwt>
</event>
<event>
 4    1  0.5399378E-005  0.4363821E+03  0.7818608E-02  0.1031863E+00
          2   -1    0    0  501    0  0.00000000000E+00  0.00000000000E+00  0.37815491093E+04  0.37815491093E+04  0.25500000000E-02 0.  1.
         -2   -1    0    0    0  501 -0.00000000000E+00 -0.00000000000E+00 -0.12589373048E+02  0.12589373306E+02  0.25500000000E-02 0. -1.
    5000001    1    1    2    0    0 -0.95818361440E+02 -0.69690095178E+02  0.11919416177E+04  0.12091268287E+04  0.16500000000E+03 0.  0.
   -5000001    1    1    2    0    0  0.95818361440E+02  0.69690095178E+02  0.25770181185E+04  0.25850116539E+04  0.16500000000E+03 0.  0.
<mgrwt>
<rscale>  0 0.43638209E+03</rscale>
<asrwt>0</asrwt>
<pdfrwt beam="1">  1        2 0.54022132E+00 0.43638209E+03</pdfrwt>
<pdfrwt beam="2">  1       -2 0.17984818E-02 0.43638209E+03</pdfrwt>
<totfact> 0.87518368E+02</totfact>
</mgrwt>
</event>
<event>
 4    1  0.5399378E-005  0.4735365E+03  0.7818608E-02  0.1020927E+00
         -2   -1    0    0    0  501 -0.00000000000E+00  0.00000000000E+00  0.39968705283E+02  0.39968705364E+02  0.25500000000E-02 0.  1.
          2   -1    0    0  501    0  0.00000000000E+00 -0.00000000000E+00 -0.14025777138E+04  0.14025777138E+04  0.25500000000E-02 0. -1.
    5000001    1    1    2    0    0 -0.61236452666E+02 -0.13356140702E+03 -0.94061216791E+03  0.96621157259E+03  0.16500000000E+03 0.  0.
   -5000001    1    1    2    0    0  0.61236452666E+02  0.13356140702E+03 -0.42199684056E+03  0.47633484654E+03  0.16500000000E+03 0.  0.
<mgrwt>
<rscale>  0 0.47353655E+03</rscale>
<asrwt>0</asrwt>
<pdfrwt beam="1">  1        2 0.20036821E+00 0.47353655E+03</pdfrwt>
<pdfrwt beam="2">  1       -2 0.57098159E-02 0.47353655E+03</pdfrwt>
<totfact> 0.27957438E+03</totfact>
</mgrwt>
</event>
<event>
 4    1  0.5399378E-005  0.7133556E+03  0.7818608E-02  0.9694661E-01
          2   -1    0    0  501    0  0.00000000000E+00  0.00000000000E+00  0.66202096490E+03  0.66202096490E+03  0.25500000000E-02 0.  1.
         -2   -1    0    0    0  501 -0.00000000000E+00 -0.00000000000E+00 -0.19216771995E+03  0.19216771997E+03  0.25500000000E-02 0. -1.
    5000001    1    1    2    0    0 -0.81790431061E+01  0.17777415512E+03  0.54791832234E+03  0.59925790352E+03  0.16500000000E+03 0.  0.
   -5000001    1    1    2    0    0  0.81790431061E+01 -0.17777415512E+03 -0.78065077391E+02  0.25493078135E+03  0.16500000000E+03 0.  0.
<mgrwt>
<rscale>  0 0.71335562E+03</rscale>
<asrwt>0</asrwt>
<pdfrwt beam="1">  1        2 0.94574424E-01 0.71335562E+03</pdfrwt>
<pdfrwt beam="2">  1       -2 0.27452531E-01 0.71335562E+03</pdfrwt>
<totfact> 0.58465396E+02</totfact>
</mgrwt>
</event>
<event>
 4    1  0.5399378E-005  0.5430545E+03  0.7818608E-02  0.1003114E+00
          2   -1    0    0  501    0  0.00000000000E+00  0.00000000000E+00  0.31389671900E+03  0.31389671901E+03  0.25500000000E-02 0.  1.
         -2   -1    0    0    0  501 -0.00000000000E+00 -0.00000000000E+00 -0.23487674532E+03  0.23487674533E+03  0.25500000000E-02 0. -1.
    5000001    1    1    2    0    0 -0.20332693100E+03  0.30163217101E+02  0.10539149732E+03  0.28387326088E+03  0.16500000000E+03 0.  0.
   -5000001    1    1    2    0    0  0.20332693100E+03 -0.30163217101E+02 -0.26371523639E+02  0.26490020346E+03  0.16500000000E+03 0.  0.
<mgrwt>
<rscale>  0 0.54305447E+03</rscale>
<asrwt>0</asrwt>
<pdfrwt beam="1">  1        2 0.44842389E-01 0.54305447E+03</pdfrwt>
<pdfrwt beam="2">  1       -2 0.33553821E-01 0.54305447E+03</pdfrwt>
<totfact> 0.94366142E+02</totfact>
</mgrwt>
</event>
<event>
 4    1  0.5399378E-005  0.6930908E+03  0.7818608E-02  0.9729121E-01
         -2   -1    0    0    0  501 -0.00000000000E+00  0.00000000000E+00  0.16174312128E+03  0.16174312130E+03  0.25500000000E-02 0. -1.
          2   -1    0    0  501    0  0.00000000000E+00 -0.00000000000E+00 -0.74249656409E+03  0.74249656410E+03  0.25500000000E-02 0.  1.
    5000001    1    1    2    0    0 -0.22561415633E+03  0.19315681232E+03 -0.20134071418E+03  0.39493592501E+03  0.16500000000E+03 0.  0.
   -5000001    1    1    2    0    0  0.22561415633E+03 -0.19315681232E+03 -0.37941272864E+03  0.50930376038E+03  0.16500000000E+03 0.  0.
<mgrwt>
<rscale>  0 0.69309079E+03</rscale>
<asrwt>0</asrwt>
<pdfrwt beam="1">  1        2 0.10607094E+00 0.69309079E+03</pdfrwt>
<pdfrwt beam="2">  1       -2 0.23106161E-01 0.69309079E+03</pdfrwt>
<totfact> 0.69303990E+02</totfact>
</mgrwt>
</event>
<event>
 4    1  0.5399378E-005  0.3982421E+03  0.7818608E-02  0.1044390E+00
         -2   -1    0    0    0  501 -0.00000000000E+00  0.00000000000E+00  0.14006481241E+03  0.14006481243E+03  0.25500000000E-02 0. -1.
          2   -1    0    0  501    0  0.00000000000E+00 -0.00000000000E+00 -0.28307753771E+03  0.28307753772E+03  0.25500000000E-02 0.  1.
    5000001    1    1    2    0    0  0.45279952555E+02  0.94572274130E+02 -0.11168630205E+03  0.22515110305E+03  0.16500000000E+03 0.  0.
   -5000001    1    1    2    0    0 -0.45279952555E+02 -0.94572274130E+02 -0.31326423257E+02  0.19799124711E+03  0.16500000000E+03 0.  0.
<mgrwt>
<rscale>  0 0.39824215E+03</rscale>
<asrwt>0</asrwt>
<pdfrwt beam="1">  1        2 0.40439648E-01 0.39824215E+03</pdfrwt>
<pdfrwt beam="2">  1       -2 0.20009259E-01 0.39824215E+03</pdfrwt>
<totfact> 0.26708731E+03</totfact>
</mgrwt>
</event>
<event>
 4    1  0.5399378E-005  0.6501089E+03  0.7818608E-02  0.9806575E-01
         -2   -1    0    0    0  501 -0.00000000000E+00  0.00000000000E+00  0.24914109860E+03  0.24914109861E+03  0.25500000000E-02 0. -1.
          2   -1    0    0  501    0  0.00000000000E+00 -0.00000000000E+00 -0.42409866833E+03  0.42409866834E+03  0.25500000000E-02 0.  1.
    5000001    1    1    2    0    0 -0.19916722934E+03 -0.13031374556E+03  0.65374182548E+02  0.29689735813E+03  0.16500000000E+03 0.  0.
   -5000001    1    1    2    0    0  0.19916722934E+03  0.13031374556E+03 -0.24033175228E+03  0.37634240882E+03  0.16500000000E+03 0.  0.
<mgrwt>
<rscale>  0 0.65010894E+03</rscale>
<asrwt>0</asrwt>
<pdfrwt beam="1">  1        2 0.60585524E-01 0.65010894E+03</pdfrwt>
<pdfrwt beam="2">  1       -2 0.35591586E-01 0.65010894E+03</pdfrwt>
<totfact> 0.60405474E+02</totfact>
</mgrwt>
</event>
<event>
 4    1  0.5399378E-005  0.4285399E+03  0.7818608E-02  0.1034322E+00
         -2   -1    0    0    0  501 -0.00000000000E+00  0.00000000000E+00  0.58949853470E+03  0.58949853470E+03  0.25500000000E-02 0. -1.
          2   -1    0    0  501    0  0.00000000000E+00 -0.00000000000E+00 -0.77882493739E+02  0.77882493781E+02  0.25500000000E-02 0.  1.
    5000001    1    1    2    0    0  0.13026271117E+03 -0.36998069495E+02  0.22669852833E+03  0.31137510147E+03  0.16500000000E+03 0.  0.
   -5000001    1    1    2    0    0 -0.13026271117E+03  0.36998069495E+02  0.28491751262E+03  0.35600592701E+03  0.16500000000E+03 0.  0.
<mgrwt>
<rscale>  0 0.42853992E+03</rscale>
<asrwt>0</asrwt>
<pdfrwt beam="1">  1        2 0.11126071E-01 0.42853992E+03</pdfrwt>
<pdfrwt beam="2">  1       -2 0.84214076E-01 0.42853992E+03</pdfrwt>
<totfact> 0.71789206E+02</totfact>
</mgrwt>
</event>
<event>
 4    1  0.5399378E-005  0.3825239E+03  0.7818608E-02  0.1050005E+00
          2   -1    0    0  501    0  0.00000000000E+00  0.00000000000E+00  0.32851899594E+03  0.32851899595E+03  0.25500000000E-02 0.  1.
         -2   -1    0    0    0  501 -0.00000000000E+00 -0.00000000000E+00 -0.11135166833E+03  0.11135166836E+03  0.25500000000E-02 0. -1.
    5000001    1    1    2    0    0 -0.44965199758E+02 -0.79425810216E+02  0.14541350202E+03  0.23811848959E+03  0.16500000000E+03 0.  0.
   -5000001    1    1    2    0    0  0.44965199758E+02  0.79425810216E+02  0.71753825595E+02  0.20175217472E+03  0.16500000000E+03 0.  0.
<mgrwt>
<rscale>  0 0.38252392E+03</rscale>
<asrwt>0</asrwt>
<pdfrwt beam="1">  1        2 0.46931285E-01 0.38252392E+03</pdfrwt>
<pdfrwt beam="2">  1       -2 0.15907381E-01 0.38252392E+03</pdfrwt>
<totfact> 0.33520735E+03</totfact>
</mgrwt>
</event>
<event>
 4    1  0.5399378E-005  0.5677369E+03  0.7818608E-02  0.9974699E-01
         -2   -1    0    0    0  501 -0.00000000000E+00  0.00000000000E+00  0.19981124992E+03  0.19981124994E+03  0.25500000000E-02 0. -1.
          2   -1    0    0  501    0  0.00000000000E+00 -0.00000000000E+00 -0.40328711802E+03  0.40328711802E+03  0.25500000000E-02 0.  1.
    5000001    1    1    2    0    0 -0.21099331370E+02 -0.22990790498E+03 -0.93969690577E+02  0.29892830127E+03  0.16500000000E+03 0.  0.
   -5000001    1    1    2    0    0  0.21099331370E+02  0.22990790498E+03 -0.10950617752E+03  0.30417006669E+03  0.16500000000E+03 0.  0.
<mgrwt>
<rscale>  0 0.56773692E+03</rscale>
<asrwt>0</asrwt>
<pdfrwt beam="1">  1        2 0.57612445E-01 0.56773692E+03</pdfrwt>
<pdfrwt beam="2">  1       -2 0.28544464E-01 0.56773692E+03</pdfrwt>
<totfact> 0.96554849E+02</totfact>
</mgrwt>
</event>
<event>
 4    1  0.5399378E-005  0.5772683E+03  0.7818608E-02  0.9953723E-01
         -2   -1    0    0    0  501 -0.00000000000E+00  0.00000000000E+00  0.27918387593E+02  0.27918387709E+02  0.25500000000E-02 0. -1.
          2   -1    0    0  501    0  0.00000000000E+00 -0.00000000000E+00 -0.29840433836E+04  0.29840433836E+04  0.25500000000E-02 0.  1.
    5000001    1    1    2    0    0 -0.21818704581E+03  0.13650576994E+02 -0.10029229970E+04  0.10396496829E+04  0.16500000000E+03 0.  0.
   -5000001    1    1    2    0    0  0.21818704581E+03 -0.13650576994E+02 -0.19532019990E+04  0.19723120884E+04  0.16500000000E+03 0.  0.
<mgrwt>
<rscale>  0 0.57726833E+03</rscale>
<asrwt>0</asrwt>
<pdfrwt beam="1">  1        2 0.42629171E+00 0.57726833E+03</pdfrwt>
<pdfrwt beam="2">  1       -2 0.39883430E-02 0.57726833E+03</pdfrwt>
<totfact> 0.75020918E+02</totfact>
</mgrwt>
</event>
<event>
 4    1  0.5399378E-005  0.3576723E+03  0.7818608E-02  0.1059509E+00
          2   -1    0    0  501    0  0.00000000000E+00  0.00000000000E+00  0.14624695622E+04  0.14624695622E+04  0.25500000000E-02 0.  1.
         -2   -1    0    0    0  501 -0.00000000000E+00 -0.00000000000E+00 -0.21868738488E+02  0.21868738637E+02  0.25500000000E-02 0. -1.
    5000001    1    1    2    0    0  0.42617175084E+02  0.81439048996E+01  0.49778875376E+03  0.52621401556E+03  0.16500000000E+03 0.  0.
   -5000001    1    1    2    0    0 -0.42617175084E+02 -0.81439048996E+01  0.94281206996E+03  0.95812428529E+03  0.16500000000E+03 0.  0.
<mgrwt>
<rscale>  0 0.35767228E+03</rscale>
<asrwt>0</asrwt>
<pdfrwt beam="1">  1        2 0.20892424E+00 0.35767228E+03</pdfrwt>
<pdfrwt beam="2">  1       -2 0.31241053E-02 0.35767228E+03</pdfrwt>
<totfact> 0.65251590E+03</totfact>
</mgrwt>
</event>
<event>
 4    1  0.5399378E-005  0.6798940E+03  0.7818608E-02  0.9752248E-01
         -2   -1    0    0    0  501 -0.00000000000E+00  0.00000000000E+00  0.77907580538E+02  0.77907580580E+02  0.25500000000E-02 0. -1.
          2   -1    0    0  501    0  0.00000000000E+00 -0.00000000000E+00 -0.14833469746E+04  0.14833469747E+04  0.25500000000E-02 0.  1.
    5000001    1    1    2    0    0 -0.11082852297E+03 -0.27275141078E+03 -0.79635440714E+03  0.86491712630E+03  0.16500000000E+03 0.  0.
   -5000001    1    1    2    0    0  0.11082852297E+03  0.27275141078E+03 -0.60908498697E+03  0.69633742894E+03  0.16500000000E+03 0.  0.
<mgrwt>
<rscale>  0 0.67989403E+03</rscale>
<asrwt>0</asrwt>
<pdfrwt beam="1">  1        2 0.21190669E+00 0.67989403E+03</pdfrwt>
<pdfrwt beam="2">  1       -2 0.11129655E-01 0.67989403E+03</pdfrwt>
<totfact> 0.87010897E+02</totfact>
</mgrwt>
</event>
<event>
 4    1  0.5399378E-005  0.3790344E+03  0.7818608E-02  0.1051291E+00
         -2   -1    0    0    0  501 -0.00000000000E+00  0.00000000000E+00  0.48191184811E+02  0.48191184878E+02  0.25500000000E-02 0. -1.
          2   -1    0    0  501    0  0.00000000000E+00 -0.00000000000E+00 -0.74529768270E+03  0.74529768270E+03  0.25500000000E-02 0.  1.
    5000001    1    1    2    0    0 -0.63935388759E+02  0.12614304453E+02 -0.48812396741E+03  0.51936197605E+03  0.16500000000E+03 0.  0.
   -5000001    1    1    2    0    0  0.63935388759E+02 -0.12614304453E+02 -0.20898253048E+03  0.27412689153E+03  0.16500000000E+03 0.  0.
<mgrwt>
<rscale>  0 0.37903445E+03</rscale>
<asrwt>0</asrwt>
<pdfrwt beam="1">  1        2 0.10647109E+00 0.37903445E+03</pdfrwt>
<pdfrwt beam="2">  1       -2 0.68844554E-02 0.37903445E+03</pdfrwt>
<totfact> 0.51189273E+03</totfact>
</mgrwt>
</event>
<event>
 4    1  0.5399378E-005  0.3445957E+03  0.7818608E-02  0.1064855E+00
          2   -1    0    0  501    0  0.00000000000E+00  0.00000000000E+00  0.33014933784E+04  0.33014933784E+04  0.25500000000E-02 0.  1.
         -2   -1    0    0    0  501 -0.00000000000E+00 -0.00000000000E+00 -0.89918531243E+01  0.89918534859E+01  0.25500000000E-02 0. -1.
    5000001    1    1    2    0    0 -0.10753325850E+02  0.48433567898E+02  0.16492831439E+04  0.16582585243E+04  0.16500000000E+03 0.  0.
   -5000001    1    1    2    0    0  0.10753325850E+02 -0.48433567898E+02  0.16432183813E+04  0.16522267076E+04  0.16500000000E+03 0.  0.
<mgrwt>
<rscale>  0 0.34459567E+03</rscale>
<asrwt>0</asrwt>
<pdfrwt beam="1">  1        2 0.47164179E+00 0.34459567E+03</pdfrwt>
<pdfrwt beam="2">  1       -2 0.12845508E-02 0.34459567E+03</pdfrwt>
<totfact> 0.27988175E+03</totfact>
</mgrwt>
</event>
<event>
 4    1  0.5399378E-005  0.4988152E+03  0.7818608E-02  0.1014089E+00
         -2   -1    0    0    0  501 -0.00000000000E+00  0.00000000000E+00  0.22443352006E+02  0.22443352151E+02  0.25500000000E-02 0. -1.
          2   -1    0    0  501    0  0.00000000000E+00 -0.00000000000E+00 -0.27716068547E+04  0.27716068547E+04  0.25500000000E-02 0.  1.
    5000001    1    1    2    0    0 -0.20300471689E+02 -0.14579959054E+03 -0.72836872081E+03  0.76119355174E+03  0.16500000000E+03 0.  0.
   -5000001    1    1    2    0    0  0.20300471689E+02  0.14579959054E+03 -0.20207947819E+04  0.20328566551E+04  0.16500000000E+03 0.  0.
<mgrwt>
<rscale>  0 0.49881519E+03</rscale>
<asrwt>0</asrwt>
<pdfrwt beam="1">  1        2 0.39594362E+00 0.49881519E+03</pdfrwt>
<pdfrwt beam="2">  1       -2 0.32061949E-02 0.49881519E+03</pdfrwt>
<totfact> 0.13678564E+03</totfact>
</mgrwt>
</event>
<event>
 4    1  0.5399378E-005  0.1058970E+04  0.7818608E-02  0.9246132E-01
         -2   -1    0    0    0  501 -0.00000000000E+00  0.00000000000E+00  0.58861520254E+03  0.58861520254E+03  0.25500000000E-02 0. -1.
          2   -1    0    0  501    0  0.00000000000E+00 -0.00000000000E+00 -0.47629487886E+03  0.47629487886E+03  0.25500000000E-02 0.  1.
    5000001    1    1    2    0    0 -0.78909321237E+02 -0.46390074493E+03 -0.12288015098E+03  0.51357094313E+03  0.16500000000E+03 0.  0.
   -5000001    1    1    2    0    0  0.78909321237E+02  0.46390074493E+03  0.23520047466E+03  0.55133913828E+03  0.16500000000E+03 0.  0.
<mgrwt>
<rscale>  0 0.10589701E+04</rscale>
<asrwt>0</asrwt>
<pdfrwt beam="1">  1        2 0.68042125E-01 0.10589701E+04</pdfrwt>
<pdfrwt beam="2">  1       -2 0.84087886E-01 0.10589701E+04</pdfrwt>
<totfact> 0.87332397E+01</totfact>
</mgrwt>
</event>
<event>
 4    1  0.5399378E-005  0.4569685E+03  0.7818608E-02  0.1025664E+00
         -2   -1    0    0    0  501 -0.00000000000E+00  0.00000000000E+00  0.36985159705E+02  0.36985159793E+02  0.25500000000E-02 0. -1.
          2   -1    0    0  501    0  0.00000000000E+00 -0.00000000000E+00 -0.14115137450E+04  0.14115137450E+04  0.25500000000E-02 0.  1.
    5000001    1    1    2    0    0 -0.13161777064E+03  0.78779974660E+02 -0.56653945388E+03  0.60968965446E+03  0.16500000000E+03 0.  0.
   -5000001    1    1    2    0    0  0.13161777064E+03 -0.78779974660E+02 -0.80798913141E+03  0.83880925033E+03  0.16500000000E+03 0.  0.
<mgrwt>
<rscale>  0 0.45696854E+03</rscale>
<asrwt>0</asrwt>
<pdfrwt beam="1">  1        2 0.20164479E+00 0.45696854E+03</pdfrwt>
<pdfrwt beam="2">  1       -2 0.52835951E-02 0.45696854E+03</pdfrwt>
<totfact> 0.31192844E+03</totfact>
</mgrwt>
</event>
<event>
 4    1  0.5399378E-005  0.7792364E+03  0.7818608E-02  0.9590568E-01
         -2   -1    0    0    0  501 -0.00000000000E+00  0.00000000000E+00  0.48018753878E+03  0.48018753878E+03  0.25500000000E-02 0. -1.
          2   -1    0    0  501    0  0.00000000000E+00 -0.00000000000E+00 -0.31613135892E+03  0.31613135893E+03  0.25500000000E-02 0.  1.
    5000001    1    1    2    0    0  0.34917253115E+03  0.51473544198E+02  0.79451526458E+02  0.39762862991E+03  0.16500000000E+03 0.  0.
   -5000001    1    1    2    0    0 -0.34917253115E+03 -0.51473544198E+02  0.84604653402E+02  0.39869026780E+03  0.16500000000E+03 0.  0.
<mgrwt>
<rscale>  0 0.77923639E+03</rscale>
<asrwt>0</asrwt>
<pdfrwt beam="1">  1        2 0.45161623E-01 0.77923639E+03</pdfrwt>
<pdfrwt beam="2">  1       -2 0.68598219E-01 0.77923639E+03</pdfrwt>
<totfact> 0.22026700E+02</totfact>
</mgrwt>
</event>
<event>
 4    1  0.5399378E-005  0.3962708E+03  0.7818608E-02  0.1045079E+00
          2   -1    0    0  501    0  0.00000000000E+00  0.00000000000E+00  0.32620073179E+04  0.32620073179E+04  0.25500000000E-02 0.  1.
         -2   -1    0    0    0  501 -0.00000000000E+00 -0.00000000000E+00 -0.12034811914E+02  0.12034812185E+02  0.25500000000E-02 0. -1.
    5000001    1    1    2    0    0  0.81798765724E+02  0.57819548143E+02  0.19943420816E+04  0.20036615174E+04  0.16500000000E+03 0.  0.
   -5000001    1    1    2    0    0 -0.81798765724E+02 -0.57819548143E+02  0.12556304244E+04  0.12703806126E+04  0.16500000000E+03 0.  0.
<mgrwt>
<rscale>  0 0.39627084E+03</rscale>
<asrwt>0</asrwt>
<pdfrwt beam="1">  1        2 0.46600088E+00 0.39627084E+03</pdfrwt>
<pdfrwt beam="2">  1       -2 0.17192595E-02 0.39627084E+03</pdfrwt>
<totfact> 0.19067015E+03</totfact>
</mgrwt>
</event>
<event>
 4    1  0.5399378E-005  0.3986477E+03  0.7818608E-02  0.1044249E+00
          2   -1    0    0  501    0  0.00000000000E+00  0.00000000000E+00  0.24014105094E+04  0.24014105094E+04  0.25500000000E-02 0.  1.
         -2   -1    0    0    0  501 -0.00000000000E+00 -0.00000000000E+00 -0.16544440754E+02  0.16544440950E+02  0.25500000000E-02 0. -1.
    5000001    1    1    2    0    0 -0.37807179268E+02 -0.10479932581E+03  0.11340309373E+04  0.11513745907E+04  0.16500000000E+03 0.  0.
   -5000001    1    1    2    0    0  0.37807179268E+02  0.10479932581E+03  0.12508351314E+04  0.12665803596E+04  0.16500000000E+03 0.  0.
<mgrwt>
<rscale>  0 0.39864768E+03</rscale>
<asrwt>0</asrwt>
<pdfrwt beam="1">  1        2 0.34305858E+00 0.39864768E+03</pdfrwt>
<pdfrwt beam="2">  1       -2 0.23634920E-02 0.39864768E+03</pdfrwt>
<totfact> 0.33717492E+03</totfact>
</mgrwt>
</event>
<event>
 4    1  0.5399378E-005  0.3802579E+03  0.7818608E-02  0.1050838E+00
          2   -1    0    0  501    0  0.00000000000E+00  0.00000000000E+00  0.50964882182E+03  0.50964882183E+03  0.25500000000E-02 0. -1.
         -2   -1    0    0    0  501 -0.00000000000E+00 -0.00000000000E+00 -0.70929278372E+02  0.70929278417E+02  0.25500000000E-02 0.  1.
    5000001    1    1    2    0    0 -0.70310373278E+01  0.93988407190E+02  0.20961129552E+03  0.28292251833E+03  0.16500000000E+03 0.  0.
   -5000001    1    1    2    0    0  0.70310373278E+01 -0.93988407190E+02  0.22910824793E+03  0.29765558191E+03  0.16500000000E+03 0.  0.
<mgrwt>
<rscale>  0 0.38025793E+03</rscale>
<asrwt>0</asrwt>
<pdfrwt beam="1">  1        2 0.72806978E-01 0.38025793E+03</pdfrwt>
<pdfrwt beam="2">  1       -2 0.10132754E-01 0.38025793E+03</pdfrwt>
<totfact> 0.43296708E+03</totfact>
</mgrwt>
</event>
<event>
 4    1  0.5399378E-005  0.4261609E+03  0.7818608E-02  0.1035080E+00
          2   -1    0    0  501    0  0.00000000000E+00  0.00000000000E+00  0.12995400174E+04  0.12995400174E+04  0.25500000000E-02 0. -1.
         -2   -1    0    0    0  501 -0.00000000000E+00 -0.00000000000E+00 -0.34937953323E+02  0.34937953416E+02  0.25500000000E-02 0.  1.
    5000001    1    1    2    0    0 -0.24303328813E+02 -0.13170591570E+03  0.68093034723E+03  0.71332197344E+03  0.16500000000E+03 0.  0.
   -5000001    1    1    2    0    0  0.24303328813E+02  0.13170591570E+03  0.58367171681E+03  0.62115599734E+03  0.16500000000E+03 0.  0.
<mgrwt>
<rscale>  0 0.42616085E+03</rscale>
<asrwt>0</asrwt>
<pdfrwt beam="1">  1        2 0.18564855E+00 0.42616085E+03</pdfrwt>
<pdfrwt beam="2">  1       -2 0.49911367E-02 0.42616085E+03</pdfrwt>
<totfact> 0.39042527E+03</totfact>
</mgrwt>
</event>
<event>
 4    1  0.5399378E-005  0.4855824E+03  0.7818608E-02  0.1017612E+00
          2   -1    0    0  501    0  0.00000000000E+00  0.00000000000E+00  0.19789080469E+04  0.19789080469E+04  0.25500000000E-02 0.  1.
         -2   -1    0    0    0  501 -0.00000000000E+00 -0.00000000000E+00 -0.29787931230E+02  0.29787931339E+02  0.25500000000E-02 0. -1.
    5000001    1    1    2    0    0  0.16417685837E+03 -0.57485071172E+02  0.81628146773E+03  0.85076377966E+03  0.16500000000E+03 0.  0.
   -5000001    1    1    2    0    0 -0.16417685837E+03  0.57485071172E+02  0.11328386479E+04  0.11579321986E+04  0.16500000000E+03 0.  0.
<mgrwt>
<rscale>  0 0.48558244E+03</rscale>
<asrwt>0</asrwt>
<pdfrwt beam="1">  1        2 0.28270124E+00 0.48558244E+03</pdfrwt>
<pdfrwt beam="2">  1       -2 0.42554174E-02 0.48558244E+03</pdfrwt>
<totfact> 0.22435968E+03</totfact>
</mgrwt>
</event>
<event>
 4    1  0.5399378E-005  0.1023361E+04  0.7818608E-02  0.9283287E-01
         -2   -1    0    0    0  501 -0.00000000000E+00  0.00000000000E+00  0.10092426896E+03  0.10092426900E+03  0.25500000000E-02 0. -1.
          2   -1    0    0  501    0  0.00000000000E+00 -0.00000000000E+00 -0.25941939146E+04  0.25941939146E+04  0.25500000000E-02 0.  1.
    5000001    1    1    2    0    0 -0.45415393460E+03 -0.16469222653E+03 -0.13383504087E+04  0.14324057185E+04  0.16500000000E+03 0.  0.
   -5000001    1    1    2    0    0  0.45415393460E+03  0.16469222653E+03 -0.11549192369E+04  0.12627124652E+04  0.16500000000E+03 0.  0.
<mgrwt>
<rscale>  0 0.10233614E+04</rscale>
<asrwt>0</asrwt>
<pdfrwt beam="1">  1        2 0.37059909E+00 0.10233614E+04</pdfrwt>
<pdfrwt beam="2">  1       -2 0.14417754E-01 0.10233614E+04</pdfrwt>
<totfact> 0.14864369E+02</totfact>
</mgrwt>
</event>
<event>
 4    1  0.5399378E-005  0.5444409E+03  0.7818608E-02  0.1002789E+00
         -2   -1    0    0    0  501 -0.00000000000E+00  0.00000000000E+00  0.34247523437E+02  0.34247523532E+02  0.25500000000E-02 0. -1.
          2   -1    0    0  501    0  0.00000000000E+00 -0.00000000000E+00 -0.21637763300E+04  0.21637763300E+04  0.25500000000E-02 0.  1.
    5000001    1    1    2    0    0  0.19819977752E+03  0.35048881313E+02 -0.74261089407E+03  0.78689739857E+03  0.16500000000E+03 0.  0.
   -5000001    1    1    2    0    0 -0.19819977752E+03 -0.35048881313E+02 -0.13869179125E+04  0.14111264549E+04  0.16500000000E+03 0.  0.
<mgrwt>
<rscale>  0 0.54444093E+03</rscale>
<asrwt>0</asrwt>
<pdfrwt beam="1">  1        2 0.30911082E+00 0.54444093E+03</pdfrwt>
<pdfrwt beam="2">  1       -2 0.48925047E-02 0.54444093E+03</pdfrwt>
<totfact> 0.14591133E+03</totfact>
</mgrwt>
</event>
<event>
 4    1  0.5399378E-005  0.5761521E+03  0.7818608E-02  0.9956157E-01
         -2   -1    0    0    0  501 -0.00000000000E+00  0.00000000000E+00  0.39980008727E+02  0.39980008809E+02  0.25500000000E-02 0. -1.
          2   -1    0    0  501    0  0.00000000000E+00 -0.00000000000E+00 -0.20757324786E+04  0.20757324786E+04  0.25500000000E-02 0.  1.
    5000001    1    1    2    0    0 -0.42333668540E+02 -0.21987121884E+03 -0.12933434724E+04  0.13229126313E+04  0.16500000000E+03 0.  0.
   -5000001    1    1    2    0    0  0.42333668540E+02  0.21987121884E+03 -0.74240899741E+03  0.79279985609E+03  0.16500000000E+03 0.  0.
<mgrwt>
<rscale>  0 0.57615207E+03</rscale>
<asrwt>0</asrwt>
<pdfrwt beam="1">  1        2 0.29653314E+00 0.57615207E+03</pdfrwt>
<pdfrwt beam="2">  1       -2 0.57114311E-02 0.57615207E+03</pdfrwt>
<totfact> 0.12678780E+03</totfact>
</mgrwt>
</event>
<event>
 4    1  0.5399378E-005  0.5159875E+03  0.7818608E-02  0.1009688E+00
         -2   -1    0    0    0  501 -0.00000000000E+00  0.00000000000E+00  0.82388000327E+02  0.82388000367E+02  0.25500000000E-02 0.  1.
          2   -1    0    0  501    0  0.00000000000E+00 -0.00000000000E+00 -0.80789411896E+03  0.80789411897E+03  0.25500000000E-02 0. -1.
    5000001    1    1    2    0    0  0.18145216393E+03 -0.79910634549E+02 -0.35409445759E+03  0.43808501710E+03  0.16500000000E+03 0.  0.
   -5000001    1    1    2    0    0 -0.18145216393E+03  0.79910634549E+02 -0.37141166105E+03  0.45219710224E+03  0.16500000000E+03 0.  0.
<mgrwt>
<rscale>  0 0.51598752E+03</rscale>
<asrwt>0</asrwt>
<pdfrwt beam="1">  1        2 0.11541344E+00 0.51598752E+03</pdfrwt>
<pdfrwt beam="2">  1       -2 0.11769715E-01 0.51598752E+03</pdfrwt>
<totfact> 0.19713001E+03</totfact>
</mgrwt>
</event>
<event>
 4    1  0.5399378E-005  0.5878004E+03  0.7818608E-02  0.9931045E-01
          2   -1    0    0  501    0  0.00000000000E+00  0.00000000000E+00  0.59040618987E+03  0.59040618987E+03  0.25500000000E-02 0.  1.
         -2   -1    0    0    0  501 -0.00000000000E+00 -0.00000000000E+00 -0.14630154469E+03  0.14630154472E+03  0.25500000000E-02 0. -1.
    5000001    1    1    2    0    0 -0.17016663900E+03 -0.14663393194E+03  0.33891577321E+03  0.43880188736E+03  0.16500000000E+03 0.  0.
   -5000001    1    1    2    0    0  0.17016663900E+03  0.14663393194E+03  0.10518887197E+03  0.29790584723E+03  0.16500000000E+03 0.  0.
<mgrwt>
<rscale>  0 0.58780043E+03</rscale>
<asrwt>0</asrwt>
<pdfrwt beam="1">  1        2 0.84343742E-01 0.58780043E+03</pdfrwt>
<pdfrwt beam="2">  1       -2 0.20900220E-01 0.58780043E+03</pdfrwt>
<totfact> 0.10937707E+03</totfact>
</mgrwt>
</event>
<event>
 4    1  0.5399378E-005  0.5103426E+03  0.7818608E-02  0.1011114E+00
         -2   -1    0    0    0  501 -0.00000000000E+00  0.00000000000E+00  0.32784277207E+02  0.32784277306E+02  0.25500000000E-02 0. -1.
          2   -1    0    0  501    0  0.00000000000E+00 -0.00000000000E+00 -0.19860862273E+04  0.19860862273E+04  0.25500000000E-02 0.  1.
    5000001    1    1    2    0    0 -0.14748670233E+03  0.64398132127E+02 -0.14097818653E+04  0.14284989865E+04  0.16500000000E+03 0.  0.
   -5000001    1    1    2    0    0  0.14748670233E+03 -0.64398132127E+02 -0.54352008482E+03  0.59037151810E+03  0.16500000000E+03 0.  0.
<mgrwt>
<rscale>  0 0.51034264E+03</rscale>
<asrwt>0</asrwt>
<pdfrwt beam="1">  1        2 0.28372653E+00 0.51034264E+03</pdfrwt>
<pdfrwt beam="2">  1       -2 0.46834694E-02 0.51034264E+03</pdfrwt>
<totfact> 0.19184874E+03</totfact>
</mgrwt>
</event>
<event>
 4    1  0.5399378E-005  0.6296899E+03  0.7818608E-02  0.9845654E-01
         -2   -1    0    0    0  501 -0.00000000000E+00  0.00000000000E+00  0.67570017873E+02  0.67570017921E+02  0.25500000000E-02 0. -1.
          2   -1    0    0  501    0  0.00000000000E+00 -0.00000000000E+00 -0.14670315707E+04  0.14670315707E+04  0.25500000000E-02 0.  1.
    5000001    1    1    2    0    0  0.18351107900E+03  0.19403767376E+03 -0.75819084450E+03  0.82061275376E+03  0.16500000000E+03 0.  0.
   -5000001    1    1    2    0    0 -0.18351107900E+03 -0.19403767376E+03 -0.64127070834E+03  0.71398883487E+03  0.16500000000E+03 0.  0.
<mgrwt>
<rscale>  0 0.62968992E+03</rscale>
<asrwt>0</asrwt>
<pdfrwt beam="1">  1        2 0.20957592E+00 0.62968992E+03</pdfrwt>
<pdfrwt beam="2">  1       -2 0.96528606E-02 0.62968992E+03</pdfrwt>
<totfact> 0.11212932E+03</totfact>
</mgrwt>
</event>
<event>
 4    1  0.5399378E-005  0.5364626E+03  0.7818608E-02  0.1004677E+00
          2   -1    0    0  501    0  0.00000000000E+00  0.00000000000E+00  0.30027025391E+04  0.30027025391E+04  0.25500000000E-02 0.  1.
         -2   -1    0    0    0  501 -0.00000000000E+00 -0.00000000000E+00 -0.23961092406E+02  0.23961092542E+02  0.25500000000E-02 0. -1.
    5000001    1    1    2    0    0  0.96545868020E+02 -0.18042709360E+03  0.17904591888E+04  0.18096530462E+04  0.16500000000E+03 0.  0.
   -5000001    1    1    2    0    0 -0.96545868020E+02  0.18042709360E+03  0.11882822579E+04  0.12170105855E+04  0.16500000000E+03 0.  0.
<mgrwt>
<rscale>  0 0.53646261E+03</rscale>
<asrwt>0</asrwt>
<pdfrwt beam="1">  1        2 0.42895773E+00 0.53646261E+03</pdfrwt>
<pdfrwt beam="2">  1       -2 0.34230114E-02 0.53646261E+03</pdfrwt>
<totfact> 0.92946134E+02</totfact>
</mgrwt>
</event>
<event>
 4    1  0.5399378E-005  0.4700715E+03  0.7818608E-02  0.1021900E+00
         -2   -1    0    0    0  501 -0.00000000000E+00  0.00000000000E+00  0.80551950675E+03  0.80551950675E+03  0.25500000000E-02 0. -1.
          2   -1    0    0  501    0  0.00000000000E+00 -0.00000000000E+00 -0.68579107520E+02  0.68579107567E+02  0.25500000000E-02 0.  1.
    5000001    1    1    2    0    0  0.13984649850E+02 -0.16504038597E+03  0.41336510287E+03  0.47489957644E+03  0.16500000000E+03 0.  0.
   -5000001    1    1    2    0    0 -0.13984649850E+02  0.16504038597E+03  0.32357529636E+03  0.39919903788E+03  0.16500000000E+03 0.  0.
<mgrwt>
<rscale>  0 0.47007152E+03</rscale>
<asrwt>0</asrwt>
<pdfrwt beam="1">  1        2 0.97970156E-02 0.47007152E+03</pdfrwt>
<pdfrwt beam="2">  1       -2 0.11507421E+00 0.47007152E+03</pdfrwt>
<totfact> 0.40605888E+02</totfact>
</mgrwt>
</event>
<event>
 4    1  0.5399378E-005  0.8912015E+03  0.7818608E-02  0.9436647E-01
         -2   -1    0    0    0  501 -0.00000000000E+00  0.00000000000E+00  0.12909952244E+03  0.12909952246E+03  0.25500000000E-02 0.  1.
          2   -1    0    0  501    0  0.00000000000E+00 -0.00000000000E+00 -0.15380383869E+04  0.15380383869E+04  0.25500000000E-02 0. -1.
    5000001    1    1    2    0    0 -0.14900513036E+03 -0.75788934201E+02 -0.14128274795E+04  0.14322195985E+04  0.16500000000E+03 0.  0.
   -5000001    1    1    2    0    0  0.14900513036E+03  0.75788934201E+02  0.38886151265E+01  0.23491831080E+03  0.16500000000E+03 0.  0.
<mgrwt>
<rscale>  0 0.89120148E+03</rscale>
<asrwt>0</asrwt>
<pdfrwt beam="1">  1        2 0.21971976E+00 0.89120148E+03</pdfrwt>
<pdfrwt beam="2">  1       -2 0.18442790E-01 0.89120148E+03</pdfrwt>
<totfact> 0.34411493E+02</totfact>
</mgrwt>
</event>
<event>
 4    1  0.5399378E-005  0.4325577E+03  0.7818608E-02  0.1033055E+00
          2   -1    0    0  501    0  0.00000000000E+00  0.00000000000E+00  0.14713721558E+03  0.14713721560E+03  0.25500000000E-02 0.  1.
         -2   -1    0    0    0  501 -0.00000000000E+00 -0.00000000000E+00 -0.31791103293E+03  0.31791103294E+03  0.25500000000E-02 0. -1.
    5000001    1    1    2    0    0 -0.97710237794E+02 -0.87152484579E+02 -0.32622007165E+02  0.21314793335E+03  0.16500000000E+03 0.  0.
   -5000001    1    1    2    0    0  0.97710237794E+02  0.87152484579E+02 -0.13815181019E+03  0.25190031520E+03  0.16500000000E+03 0.  0.
<mgrwt>
<rscale>  0 0.43255771E+03</rscale>
<asrwt>0</asrwt>
<pdfrwt beam="1">  1        2 0.21019602E-01 0.43255771E+03</pdfrwt>
<pdfrwt beam="2">  1       -2 0.45415862E-01 0.43255771E+03</pdfrwt>
<totfact> 0.12298727E+03</totfact>
</mgrwt>
</event>
<event>
 4    1  0.5399378E-005  0.4313628E+03  0.7818608E-02  0.1033430E+00
          2   -1    0    0  501    0  0.00000000000E+00  0.00000000000E+00  0.14362195995E+04  0.14362195995E+04  0.25500000000E-02 0.  1.
         -2   -1    0    0    0  501 -0.00000000000E+00 -0.00000000000E+00 -0.32389515883E+02  0.32389515983E+02  0.25500000000E-02 0. -1.
    5000001    1    1    2    0    0  0.12024364735E+03 -0.59080046422E+02  0.57707920164E+03  0.61497511460E+03  0.16500000000E+03 0.  0.
   -5000001    1    1    2    0    0 -0.12024364735E+03  0.59080046422E+02  0.82675088193E+03  0.85363400084E+03  0.16500000000E+03 0.  0.
<mgrwt>
<rscale>  0 0.43136276E+03</rscale>
<asrwt>0</asrwt>
<pdfrwt beam="1">  1        2 0.20517428E+00 0.43136276E+03</pdfrwt>
<pdfrwt beam="2">  1       -2 0.46270724E-02 0.43136276E+03</pdfrwt>
<totfact> 0.37143230E+03</totfact>
</mgrwt>
</event>
<event>
 4    1  0.5399378E-005  0.5881010E+03  0.7818608E-02  0.9930405E-01
          2   -1    0    0  501    0  0.00000000000E+00  0.00000000000E+00  0.69426289819E+03  0.69426289819E+03  0.25500000000E-02 0.  1.
         -2   -1    0    0    0  501 -0.00000000000E+00 -0.00000000000E+00 -0.12454315169E+03  0.12454315172E+03  0.25500000000E-02 0. -1.
    5000001    1    1    2    0    0 -0.15133311207E+03 -0.18990799743E+03  0.26181629805E+03  0.39336946020E+03  0.16500000000E+03 0.  0.
   -5000001    1    1    2    0    0  0.15133311207E+03  0.18990799743E+03  0.30790344845E+03  0.42543658971E+03  0.16500000000E+03 0.  0.
<mgrwt>
<rscale>  0 0.58810098E+03</rscale>
<asrwt>0</asrwt>
<pdfrwt beam="1">  1        2 0.99180414E-01 0.58810098E+03</pdfrwt>
<pdfrwt beam="2">  1       -2 0.17791879E-01 0.58810098E+03</pdfrwt>
<totfact> 0.11913509E+03</totfact>
</mgrwt>
</event>
<event>
 4    1  0.5399378E-005  0.6587072E+03  0.7818608E-02  0.9790577E-01
         -2   -1    0    0    0  501 -0.00000000000E+00  0.00000000000E+00  0.96643884027E+02  0.96643884061E+02  0.25500000000E-02 0. -1.
          2   -1    0    0  501    0  0.00000000000E+00 -0.00000000000E+00 -0.11224071216E+04  0.11224071216E+04  0.25500000000E-02 0.  1.
    5000001    1    1    2    0    0 -0.14303844647E+03  0.16376919496E+03 -0.85397027091E+03  0.89653252590E+03  0.16500000000E+03 0.  0.
   -5000001    1    1    2    0    0  0.14303844647E+03 -0.16376919496E+03 -0.17179296663E+03  0.32251847974E+03  0.16500000000E+03 0.  0.
<mgrwt>
<rscale>  0 0.65870717E+03</rscale>
<asrwt>0</asrwt>
<pdfrwt beam="1">  1        2 0.16034387E+00 0.65870717E+03</pdfrwt>
<pdfrwt beam="2">  1       -2 0.13806270E-01 0.65870717E+03</pdfrwt>
<totfact> 0.96084172E+02</totfact>
</mgrwt>
</event>
<event>
 4    1  0.5399378E-005  0.4574937E+03  0.7818608E-02  0.1025511E+00
         -2   -1    0    0    0  501 -0.00000000000E+00  0.00000000000E+00  0.29289833631E+02  0.29289833742E+02  0.25500000000E-02 0. -1.
          2   -1    0    0  501    0  0.00000000000E+00 -0.00000000000E+00 -0.17864601112E+04  0.17864601112E+04  0.25500000000E-02 0.  1.
    5000001    1    1    2    0    0  0.85926650580E+02 -0.10741354862E+03 -0.11905690009E+04  0.12097936210E+04  0.16500000000E+03 0.  0.
   -5000001    1    1    2    0    0 -0.85926650580E+02  0.10741354862E+03 -0.56660127672E+03  0.60595632392E+03  0.16500000000E+03 0.  0.
<mgrwt>
<rscale>  0 0.45749369E+03</rscale>
<asrwt>0</asrwt>
<pdfrwt beam="1">  1        2 0.25520852E+00 0.45749369E+03</pdfrwt>
<pdfrwt beam="2">  1       -2 0.41842631E-02 0.45749369E+03</pdfrwt>
<totfact> 0.28745598E+03</totfact>
</mgrwt>
</event>
<event>
 4    1  0.5399378E-005  0.7703659E+03  0.7818608E-02  0.9603930E-01
          2   -1    0    0  501    0  0.00000000000E+00  0.00000000000E+00  0.18693861972E+04  0.18693861972E+04  0.25500000000E-02 0.  1.
         -2   -1    0    0    0  501 -0.00000000000E+00 -0.00000000000E+00 -0.79366116295E+02  0.79366116336E+02  0.25500000000E-02 0. -1.
    5000001    1    1    2    0    0 -0.17781329271E+03  0.17646709682E+03  0.28378417184E+03  0.41293662893E+03  0.16500000000E+03 0.  0.
   -5000001    1    1    2    0    0  0.17781329271E+03 -0.17646709682E+03  0.15062359091E+04  0.15358156846E+04  0.16500000000E+03 0.  0.
<mgrwt>
<rscale>  0 0.77036595E+03</rscale>
<asrwt>0</asrwt>
<pdfrwt beam="1">  1        2 0.26705520E+00 0.77036595E+03</pdfrwt>
<pdfrwt beam="2">  1       -2 0.11338015E-01 0.77036595E+03</pdfrwt>
<totfact> 0.53188022E+02</totfact>
</mgrwt>
</event>
<event>
 4    1  0.5399378E-005  0.4180770E+03  0.7818608E-02  0.1037694E+00
          2   -1    0    0  501    0  0.00000000000E+00  0.00000000000E+00  0.45836671339E+03  0.45836671339E+03  0.25500000000E-02 0.  1.
         -2   -1    0    0    0  501 -0.00000000000E+00 -0.00000000000E+00 -0.95332165926E+02  0.95332165960E+02  0.25500000000E-02 0. -1.
    5000001    1    1    2    0    0 -0.47833249360E+02 -0.11533782730E+03  0.14220132319E+03  0.25107180341E+03  0.16500000000E+03 0.  0.
   -5000001    1    1    2    0    0  0.47833249360E+02  0.11533782730E+03  0.22083322427E+03  0.30262707594E+03  0.16500000000E+03 0.  0.
<mgrwt>
<rscale>  0 0.41807699E+03</rscale>
<asrwt>0</asrwt>
<pdfrwt beam="1">  1        2 0.65480959E-01 0.41807699E+03</pdfrwt>
<pdfrwt beam="2">  1       -2 0.13618881E-01 0.41807699E+03</pdfrwt>
<totfact> 0.30174097E+03</totfact>
</mgrwt>
</event>
<event>
 4    1  0.5399378E-005  0.4335948E+03  0.7818608E-02  0.1032730E+00
         -2   -1    0    0    0  501 -0.00000000000E+00  0.00000000000E+00  0.48297611076E+02  0.48297611144E+02  0.25500000000E-02 0. -1.
          2   -1    0    0  501    0  0.00000000000E+00 -0.00000000000E+00 -0.97315600679E+03  0.97315600679E+03  0.25500000000E-02 0.  1.
    5000001    1    1    2    0    0  0.27326510394E+02  0.60560682943E+02 -0.17044771576E+03  0.24635697330E+03  0.16500000000E+03 0.  0.
   -5000001    1    1    2    0    0 -0.27326510394E+02 -0.60560682943E+02 -0.75441067995E+03  0.77509664463E+03  0.16500000000E+03 0.  0.
<mgrwt>
<rscale>  0 0.43359479E+03</rscale>
<asrwt>0</asrwt>
<pdfrwt beam="1">  1        2 0.13902228E+00 0.43359479E+03</pdfrwt>
<pdfrwt beam="2">  1       -2 0.68996593E-02 0.43359479E+03</pdfrwt>
<totfact> 0.36217174E+03</totfact>
</mgrwt>
</event>
<event>
 4    1  0.5399378E-005  0.1101632E+04  0.7818608E-02  0.9203602E-01
         -2   -1    0    0    0  501 -0.00000000000E+00  0.00000000000E+00  0.65802169167E+03  0.65802169168E+03  0.25500000000E-02 0. -1.
          2   -1    0    0  501    0  0.00000000000E+00 -0.00000000000E+00 -0.46107662642E+03  0.46107662642E+03  0.25500000000E-02 0.  1.
    5000001    1    1    2    0    0  0.14980549504E+03 -0.50368810960E+03  0.92906277775E+02  0.55856957897E+03  0.16500000000E+03 0.  0.
   -5000001    1    1    2    0    0 -0.14980549504E+03  0.50368810960E+03  0.10403878748E+03  0.56052873914E+03  0.16500000000E+03 0.  0.
<mgrwt>
<rscale>  0 0.11016323E+04</rscale>
<asrwt>0</asrwt>
<pdfrwt beam="1">  1        2 0.65868089E-01 0.11016323E+04</pdfrwt>
<pdfrwt beam="2">  1       -2 0.94003099E-01 0.11016323E+04</pdfrwt>
<totfact> 0.69930819E+01</totfact>
</mgrwt>
</event>
<event>
 4    1  0.5399378E-005  0.7376533E+03  0.7818608E-02  0.9654922E-01
         -2   -1    0    0    0  501 -0.00000000000E+00  0.00000000000E+00  0.14448698001E+03  0.14448698003E+03  0.25500000000E-02 0. -1.
          2   -1    0    0  501    0  0.00000000000E+00 -0.00000000000E+00 -0.94149047134E+03  0.94149047134E+03  0.25500000000E-02 0.  1.
    5000001    1    1    2    0    0 -0.26842076240E+03 -0.17693532886E+03 -0.28979454588E+03  0.46320804732E+03  0.16500000000E+03 0.  0.
   -5000001    1    1    2    0    0  0.26842076240E+03  0.17693532886E+03 -0.50720894545E+03  0.62276940405E+03  0.16500000000E+03 0.  0.
<mgrwt>
<rscale>  0 0.73765335E+03</rscale>
<asrwt>0</asrwt>
<pdfrwt beam="1">  1        2 0.13449863E+00 0.73765335E+03</pdfrwt>
<pdfrwt beam="2">  1       -2 0.20640998E-01 0.73765335E+03</pdfrwt>
<totfact> 0.61922978E+02</totfact>
</mgrwt>
</event>
<event>
 4    1  0.5399378E-005  0.5264878E+03  0.7818608E-02  0.1007087E+00
          2   -1    0    0  501    0  0.00000000000E+00  0.00000000000E+00  0.10551926583E+03  0.10551926586E+03  0.25500000000E-02 0.  1.
         -2   -1    0    0    0  501 -0.00000000000E+00 -0.00000000000E+00 -0.65672706058E+03  0.65672706058E+03  0.25500000000E-02 0. -1.
    5000001    1    1    2    0    0 -0.17344050317E+03  0.84184376473E+02 -0.17421959390E+03  0.30780851885E+03  0.16500000000E+03 0.  0.
   -5000001    1    1    2    0    0  0.17344050317E+03 -0.84184376473E+02 -0.37698820085E+03  0.45443780759E+03  0.16500000000E+03 0.  0.
<mgrwt>
<rscale>  0 0.52648782E+03</rscale>
<asrwt>0</asrwt>
<pdfrwt beam="1">  1        2 0.15074181E-01 0.52648782E+03</pdfrwt>
<pdfrwt beam="2">  1       -2 0.93818149E-01 0.52648782E+03</pdfrwt>
<totfact> 0.38656310E+02</totfact>
</mgrwt>
</event>
<event>
 4    1  0.5399378E-005  0.7326378E+03  0.7818608E-02  0.9662990E-01
          2   -1    0    0  501    0  0.00000000000E+00  0.00000000000E+00  0.12618498412E+03  0.12618498414E+03  0.25500000000E-02 0.  1.
         -2   -1    0    0    0  501 -0.00000000000E+00 -0.00000000000E+00 -0.10634349557E+04  0.10634349557E+04  0.25500000000E-02 0. -1.
    5000001    1    1    2    0    0 -0.25710986084E+03  0.17024166808E+03 -0.64558248243E+03  0.73422710909E+03  0.16500000000E+03 0.  0.
   -5000001    1    1    2    0    0  0.25710986084E+03 -0.17024166808E+03 -0.29166748918E+03  0.45539283079E+03  0.16500000000E+03 0.  0.
<mgrwt>
<rscale>  0 0.73263776E+03</rscale>
<asrwt>0</asrwt>
<pdfrwt beam="1">  1        2 0.18026427E-01 0.73263776E+03</pdfrwt>
<pdfrwt beam="2">  1       -2 0.15191927E+00 0.73263776E+03</pdfrwt>
<totfact> 0.94211842E+01</totfact>
</mgrwt>
</event>
<event>
 4    1  0.5399378E-005  0.7809951E+03  0.7818608E-02  0.9587941E-01
         -2   -1    0    0    0  501 -0.00000000000E+00  0.00000000000E+00  0.61368177777E+03  0.61368177777E+03  0.25500000000E-02 0. -1.
          2   -1    0    0  501    0  0.00000000000E+00 -0.00000000000E+00 -0.24848113853E+03  0.24848113854E+03  0.25500000000E-02 0.  1.
    5000001    1    1    2    0    0 -0.16968554208E+03 -0.14321089524E+03 -0.12165332484E+03  0.30220369811E+03  0.16500000000E+03 0.  0.
   -5000001    1    1    2    0    0  0.16968554208E+03  0.14321089524E+03  0.48685396408E+03  0.55995921820E+03  0.16500000000E+03 0.  0.
<mgrwt>
<rscale>  0 0.78099513E+03</rscale>
<asrwt>0</asrwt>
<pdfrwt beam="1">  1        2 0.35497306E-01 0.78099513E+03</pdfrwt>
<pdfrwt beam="2">  1       -2 0.87668824E-01 0.78099513E+03</pdfrwt>
<totfact> 0.16656928E+02</totfact>
</mgrwt>
</event>
<event>
 4    1  0.5399378E-005  0.3673905E+03  0.7818608E-02  0.1055695E+00
         -2   -1    0    0    0  501 -0.00000000000E+00  0.00000000000E+00  0.15002579416E+03  0.15002579418E+03  0.25500000000E-02 0. -1.
          2   -1    0    0  501    0  0.00000000000E+00 -0.00000000000E+00 -0.22492094122E+03  0.22492094123E+03  0.25500000000E-02 0.  1.
    5000001    1    1    2    0    0 -0.32409553586E+02 -0.71442588220E+02 -0.56932667476E+02  0.19136549115E+03  0.16500000000E+03 0.  0.
   -5000001    1    1    2    0    0  0.32409553586E+02  0.71442588220E+02 -0.17962479584E+02  0.18358124427E+03  0.16500000000E+03 0.  0.
<mgrwt>
<rscale>  0 0.36739049E+03</rscale>
<asrwt>0</asrwt>
<pdfrwt beam="1">  1        2 0.32131563E-01 0.36739049E+03</pdfrwt>
<pdfrwt beam="2">  1       -2 0.21432256E-01 0.36739049E+03</pdfrwt>
<totfact> 0.30466218E+03</totfact>
</mgrwt>
</event>
<event>
 4    1  0.5399378E-005  0.6370919E+03  0.7818608E-02  0.9831306E-01
          2   -1    0    0  501    0  0.00000000000E+00  0.00000000000E+00  0.53794366982E+03  0.53794366983E+03  0.25500000000E-02 0.  1.
         -2   -1    0    0    0  501 -0.00000000000E+00 -0.00000000000E+00 -0.18862850424E+03  0.18862850426E+03  0.25500000000E-02 0. -1.
    5000001    1    1    2    0    0 -0.12014684880E+03 -0.21999897201E+03  0.52828263491E+02  0.30471402722E+03  0.16500000000E+03 0.  0.
   -5000001    1    1    2    0    0  0.12014684880E+03  0.21999897201E+03  0.29648690209E+03  0.42185814686E+03  0.16500000000E+03 0.  0.
<mgrwt>
<rscale>  0 0.63709186E+03</rscale>
<asrwt>0</asrwt>
<pdfrwt beam="1">  1        2 0.76849096E-01 0.63709186E+03</pdfrwt>
<pdfrwt beam="2">  1       -2 0.26946929E-01 0.63709186E+03</pdfrwt>
<totfact> 0.77407528E+02</totfact>
</mgrwt>
</event>
<event>
 4    1  0.5399378E-005  0.4712534E+03  0.7818608E-02  0.1021567E+00
         -2   -1    0    0    0  501 -0.00000000000E+00  0.00000000000E+00  0.80451838618E+02  0.80451838659E+02  0.25500000000E-02 0. -1.
          2   -1    0    0  501    0  0.00000000000E+00 -0.00000000000E+00 -0.69010149898E+03  0.69010149898E+03  0.25500000000E-02 0.  1.
    5000001    1    1    2    0    0 -0.75596660840E+02  0.34706457699E+02 -0.65764895423E+02  0.19613621493E+03  0.16500000000E+03 0.  0.
   -5000001    1    1    2    0    0  0.75596660840E+02 -0.34706457699E+02 -0.54388476494E+03  0.57441712271E+03  0.16500000000E+03 0.  0.
<mgrwt>
<rscale>  0 0.47125337E+03</rscale>
<asrwt>0</asrwt>
<pdfrwt beam="1">  1        2 0.98585925E-01 0.47125337E+03</pdfrwt>
<pdfrwt beam="2">  1       -2 0.11493120E-01 0.47125337E+03</pdfrwt>
<totfact> 0.24910218E+03</totfact>
</mgrwt>
</event>
<event>
 4    1  0.5399378E-005  0.4719293E+03  0.7818608E-02  0.1021377E+00
         -2   -1    0    0    0  501 -0.00000000000E+00  0.00000000000E+00  0.10307743627E+03  0.10307743630E+03  0.25500000000E-02 0. -1.
          2   -1    0    0  501    0  0.00000000000E+00 -0.00000000000E+00 -0.54016970500E+03  0.54016970500E+03  0.25500000000E-02 0.  1.
    5000001    1    1    2    0    0  0.13716588889E+03  0.44095259505E+02 -0.98977422434E+02  0.24037554605E+03  0.16500000000E+03 0.  0.
   -5000001    1    1    2    0    0 -0.13716588889E+03 -0.44095259505E+02 -0.33811484629E+03  0.40287159526E+03  0.16500000000E+03 0.  0.
<mgrwt>
<rscale>  0 0.47192927E+03</rscale>
<asrwt>0</asrwt>
<pdfrwt beam="1">  1        2 0.77167100E-01 0.47192927E+03</pdfrwt>
<pdfrwt beam="2">  1       -2 0.14725348E-01 0.47192927E+03</pdfrwt>
<totfact> 0.22055647E+03</totfact>
</mgrwt>
</event>
<event>
 4    1  0.5399378E-005  0.3781122E+03  0.7818608E-02  0.1051634E+00
         -2   -1    0    0    0  501 -0.00000000000E+00  0.00000000000E+00  0.19592992329E+03  0.19592992331E+03  0.25500000000E-02 0. -1.
          2   -1    0    0  501    0  0.00000000000E+00 -0.00000000000E+00 -0.18242339653E+03  0.18242339655E+03  0.25500000000E-02 0.  1.
    5000001    1    1    2    0    0  0.67398986693E+02 -0.50991840623E+02  0.43849956064E+02  0.19050094452E+03  0.16500000000E+03 0.  0.
   -5000001    1    1    2    0    0 -0.67398986693E+02  0.50991840623E+02 -0.30343429303E+02  0.18785237534E+03  0.16500000000E+03 0.  0.
<mgrwt>
<rscale>  0 0.37811216E+03</rscale>
<asrwt>0</asrwt>
<pdfrwt beam="1">  1        2 0.26060485E-01 0.37811216E+03</pdfrwt>
<pdfrwt beam="2">  1       -2 0.27989989E-01 0.37811216E+03</pdfrwt>
<totfact> 0.23974527E+03</totfact>
</mgrwt>
</event>
<event>
 4    1  0.5399378E-005  0.4131163E+03  0.7818608E-02  0.1039330E+00
         -2   -1    0    0    0  501 -0.00000000000E+00  0.00000000000E+00  0.93159781707E+02  0.93159781742E+02  0.25500000000E-02 0. -1.
          2   -1    0    0  501    0  0.00000000000E+00 -0.00000000000E+00 -0.45799031544E+03  0.45799031545E+03  0.25500000000E-02 0.  1.
    5000001    1    1    2    0    0  0.27777926729E+02 -0.69514121526E+02 -0.31473932661E+03  0.36316617411E+03  0.16500000000E+03 0.  0.
   -5000001    1    1    2    0    0 -0.27777926729E+02  0.69514121526E+02 -0.50091207127E+02  0.18798392308E+03  0.16500000000E+03 0.  0.
<mgrwt>
<rscale>  0 0.41311634E+03</rscale>
<asrwt>0</asrwt>
<pdfrwt beam="1">  1        2 0.65427187E-01 0.41311634E+03</pdfrwt>
<pdfrwt beam="2">  1       -2 0.13308540E-01 0.41311634E+03</pdfrwt>
<totfact> 0.31367588E+03</totfact>
</mgrwt>
</event>
<event>
 4    1  0.5399378E-005  0.5979018E+03  0.7818608E-02  0.9909769E-01
          2   -1    0    0  501    0  0.00000000000E+00  0.00000000000E+00  0.33735871137E+04  0.33735871137E+04  0.25500000000E-02 0.  1.
         -2   -1    0    0    0  501 -0.00000000000E+00 -0.00000000000E+00 -0.26491574635E+02  0.26491574757E+02  0.25500000000E-02 0. -1.
    5000001    1    1    2    0    0 -0.10486610348E+03 -0.13324421898E+03  0.63433497766E+03  0.67702052069E+03  0.16500000000E+03 0.  0.
   -5000001    1    1    2    0    0  0.10486610348E+03  0.13324421898E+03  0.27127605614E+04  0.27230581678E+04  0.16500000000E+03 0.  0.
<mgrwt>
<rscale>  0 0.59790178E+03</rscale>
<asrwt>0</asrwt>
<pdfrwt beam="1">  1        2 0.48194044E+00 0.59790178E+03</pdfrwt>
<pdfrwt beam="2">  1       -2 0.37845152E-02 0.59790178E+03</pdfrwt>
<totfact> 0.49107751E+02</totfact>
</mgrwt>
</event>
<event>
 4    1  0.5399378E-005  0.3958534E+03  0.7818608E-02  0.1045225E+00
         -2   -1    0    0    0  501 -0.00000000000E+00  0.00000000000E+00  0.10838376869E+03  0.10838376872E+03  0.25500000000E-02 0. -1.
          2   -1    0    0  501    0  0.00000000000E+00 -0.00000000000E+00 -0.36144695262E+03  0.36144695263E+03  0.25500000000E-02 0.  1.
    5000001    1    1    2    0    0 -0.17544427177E+02  0.93582545579E+02 -0.62787342648E+02  0.20058103140E+03  0.16500000000E+03 0.  0.
   -5000001    1    1    2    0    0  0.17544427177E+02 -0.93582545579E+02 -0.19027584128E+03  0.26924968995E+03  0.16500000000E+03 0.  0.
<mgrwt>
<rscale>  0 0.39585342E+03</rscale>
<asrwt>0</asrwt>
<pdfrwt beam="1">  1        2 0.51635278E-01 0.39585342E+03</pdfrwt>
<pdfrwt beam="2">  1       -2 0.15483396E-01 0.39585342E+03</pdfrwt>
<totfact> 0.31625900E+03</totfact>
</mgrwt>
</event>
<event>
 4    1  0.5399378E-005  0.3869499E+03  0.7818608E-02  0.1048395E+00
         -2   -1    0    0    0  501 -0.00000000000E+00  0.00000000000E+00  0.61378212395E+02  0.61378212448E+02  0.25500000000E-02 0. -1.
          2   -1    0    0  501    0  0.00000000000E+00 -0.00000000000E+00 -0.60986729424E+03  0.60986729425E+03  0.25500000000E-02 0.  1.
    5000001    1    1    2    0    0 -0.56563004975E+02 -0.80406276263E+02 -0.23382092711E+03  0.30259175261E+03  0.16500000000E+03 0.  0.
   -5000001    1    1    2    0    0  0.56563004975E+02  0.80406276263E+02 -0.31466815474E+03  0.36865375408E+03  0.16500000000E+03 0.  0.
<mgrwt>
<rscale>  0 0.38694994E+03</rscale>
<asrwt>0</asrwt>
<pdfrwt beam="1">  1        2 0.87123895E-01 0.38694994E+03</pdfrwt>
<pdfrwt beam="2">  1       -2 0.87683165E-02 0.38694994E+03</pdfrwt>
<totfact> 0.44449797E+03</totfact>
</mgrwt>
</event>
<event>
 4    1  0.5399378E-005  0.3676983E+03  0.7818608E-02  0.1055577E+00
         -2   -1    0    0    0  501 -0.00000000000E+00  0.00000000000E+00  0.20851633770E+02  0.20851633926E+02  0.25500000000E-02 0. -1.
          2   -1    0    0  501    0  0.00000000000E+00 -0.00000000000E+00 -0.16210008330E+04  0.16210008330E+04  0.25500000000E-02 0.  1.
    5000001    1    1    2    0    0  0.36551759432E+02  0.24325808046E+02 -0.49566147520E+03  0.52424524228E+03  0.16500000000E+03 0.  0.
   -5000001    1    1    2    0    0 -0.36551759432E+02 -0.24325808046E+02 -0.11044877240E+04  0.11176072246E+04  0.16500000000E+03 0.  0.
<mgrwt>
<rscale>  0 0.36769833E+03</rscale>
<asrwt>0</asrwt>
<pdfrwt beam="1">  1        2 0.23157147E+00 0.36769833E+03</pdfrwt>
<pdfrwt beam="2">  1       -2 0.29788059E-02 0.36769833E+03</pdfrwt>
<totfact> 0.58239768E+03</totfact>
</mgrwt>
</event>
<event>
 4    1  0.5399378E-005  0.6812495E+03  0.7818608E-02  0.9749846E-01
         -2   -1    0    0    0  501 -0.00000000000E+00  0.00000000000E+00  0.90232423225E+02  0.90232423261E+02  0.25500000000E-02 0. -1.
          2   -1    0    0  501    0  0.00000000000E+00 -0.00000000000E+00 -0.12858484357E+04  0.12858484357E+04  0.25500000000E-02 0.  1.
    5000001    1    1    2    0    0  0.58189736882E+02  0.28364457731E+03 -0.45555040933E+03  0.56443907302E+03  0.16500000000E+03 0.  0.
   -5000001    1    1    2    0    0 -0.58189736882E+02 -0.28364457731E+03 -0.74006560311E+03  0.81164178590E+03  0.16500000000E+03 0.  0.
<mgrwt>
<rscale>  0 0.68124950E+03</rscale>
<asrwt>0</asrwt>
<pdfrwt beam="1">  1        2 0.18369262E+00 0.68124950E+03</pdfrwt>
<pdfrwt beam="2">  1       -2 0.12890347E-01 0.68124950E+03</pdfrwt>
<totfact> 0.87116329E+02</totfact>
</mgrwt>
</event>
<event>
 4    1  0.5399378E-005  0.5070190E+03  0.7818608E-02  0.1011963E+00
          2   -1    0    0  501    0  0.00000000000E+00  0.00000000000E+00  0.12487211600E+04  0.12487211600E+04  0.25500000000E-02 0.  1.
         -2   -1    0    0    0  501 -0.00000000000E+00 -0.00000000000E+00 -0.51466306009E+02  0.51466306073E+02  0.25500000000E-02 0. -1.
    5000001    1    1    2    0    0 -0.17884649440E+03  0.37698931595E+02  0.44402324023E+03  0.50772917571E+03  0.16500000000E+03 0.  0.
   -5000001    1    1    2    0    0  0.17884649440E+03 -0.37698931595E+02  0.75323161377E+03  0.79245829038E+03  0.16500000000E+03 0.  0.
<mgrwt>
<rscale>  0 0.50701900E+03</rscale>
<asrwt>0</asrwt>
<pdfrwt beam="1">  1        2 0.17838871E+00 0.50701900E+03</pdfrwt>
<pdfrwt beam="2">  1       -2 0.73523303E-02 0.50701900E+03</pdfrwt>
<totfact> 0.22748985E+03</totfact>
</mgrwt>
</event>
<event>
 4    1  0.5399378E-005  0.5833180E+03  0.7818608E-02  0.9940633E-01
          2   -1    0    0  501    0  0.00000000000E+00  0.00000000000E+00  0.25772573468E+03  0.25772573470E+03  0.25500000000E-02 0.  1.
         -2   -1    0    0    0  501 -0.00000000000E+00 -0.00000000000E+00 -0.33006002098E+03  0.33006002099E+03  0.25500000000E-02 0. -1.
    5000001    1    1    2    0    0 -0.21815429708E+03  0.23736625053E+02  0.63000233911E+02  0.28168910908E+03  0.16500000000E+03 0.  0.
   -5000001    1    1    2    0    0  0.21815429708E+03 -0.23736625053E+02 -0.13533452021E+03  0.30609664660E+03  0.16500000000E+03 0.  0.
<mgrwt>
<rscale>  0 0.58331796E+03</rscale>
<asrwt>0</asrwt>
<pdfrwt beam="1">  1        2 0.36817962E-01 0.58331796E+03</pdfrwt>
<pdfrwt beam="2">  1       -2 0.47151432E-01 0.58331796E+03</pdfrwt>
<totfact> 0.60654299E+02</totfact>
</mgrwt>
</event>
<event>
 4    1  0.5399378E-005  0.4932112E+03  0.7818608E-02  0.1015566E+00
         -2   -1    0    0    0  501 -0.00000000000E+00  0.00000000000E+00  0.11135647797E+03  0.11135647800E+03  0.25500000000E-02 0. -1.
          2   -1    0    0  501    0  0.00000000000E+00 -0.00000000000E+00 -0.54612287325E+03  0.54612287326E+03  0.25500000000E-02 0.  1.
    5000001    1    1    2    0    0  0.16317534182E+03 -0.32215809798E+01 -0.10622859004E+03  0.25523730939E+03  0.16500000000E+03 0.  0.
   -5000001    1    1    2    0    0 -0.16317534182E+03  0.32215809798E+01 -0.32853780525E+03  0.40224204186E+03  0.16500000000E+03 0.  0.
<mgrwt>
<rscale>  0 0.49321119E+03</rscale>
<asrwt>0</asrwt>
<pdfrwt beam="1">  1        2 0.78017552E-01 0.49321119E+03</pdfrwt>
<pdfrwt beam="2">  1       -2 0.15908069E-01 0.49321119E+03</pdfrwt>
<totfact> 0.19136713E+03</totfact>
</mgrwt>
</event>
<event>
 4    1  0.5399378E-005  0.3903121E+03  0.7818608E-02  0.1047187E+00
          2   -1    0    0  501    0  0.00000000000E+00  0.00000000000E+00  0.23263538127E+04  0.23263538127E+04  0.25500000000E-02 0.  1.
         -2   -1    0    0    0  501 -0.00000000000E+00 -0.00000000000E+00 -0.16371489973E+02  0.16371490171E+02  0.25500000000E-02 0. -1.
    5000001    1    1    2    0    0 -0.80335585947E+02 -0.61984566467E+02  0.10123226807E+04  0.10306881695E+04  0.16500000000E+03 0.  0.
   -5000001    1    1    2    0    0  0.80335585947E+02  0.61984566467E+02  0.12976596420E+04  0.13120371333E+04  0.16500000000E+03 0.  0.
<mgrwt>
<rscale>  0 0.39031207E+03</rscale>
<asrwt>0</asrwt>
<pdfrwt beam="1">  1        2 0.33233656E+00 0.39031207E+03</pdfrwt>
<pdfrwt beam="2">  1       -2 0.23387822E-02 0.39031207E+03</pdfrwt>
<totfact> 0.37357924E+03</totfact>
</mgrwt>
</event>
<event>
 4    1  0.5399378E-005  0.7072843E+03  0.7818608E-02  0.9704856E-01
         -2   -1    0    0    0  501 -0.00000000000E+00  0.00000000000E+00  0.64956199609E+02  0.64956199659E+02  0.25500000000E-02 0. -1.
          2   -1    0    0  501    0  0.00000000000E+00 -0.00000000000E+00 -0.19253400912E+04  0.19253400912E+04  0.25500000000E-02 0.  1.
    5000001    1    1    2    0    0  0.17276938113E+03  0.26042753603E+03 -0.96644937809E+03  0.10290389502E+04  0.16500000000E+03 0.  0.
   -5000001    1    1    2    0    0 -0.17276938113E+03 -0.26042753603E+03 -0.89393451346E+03  0.96125734064E+03  0.16500000000E+03 0.  0.
<mgrwt>
<rscale>  0 0.70728431E+03</rscale>
<asrwt>0</asrwt>
<pdfrwt beam="1">  1        2 0.27504855E+00 0.70728431E+03</pdfrwt>
<pdfrwt beam="2">  1       -2 0.92794583E-02 0.70728431E+03</pdfrwt>
<totfact> 0.69344981E+02</totfact>
</mgrwt>
</event>
<event>
 4    1  0.5399378E-005  0.3840269E+03  0.7818608E-02  0.1049455E+00
          2   -1    0    0  501    0  0.00000000000E+00  0.00000000000E+00  0.19286110150E+04  0.19286110150E+04  0.25500000000E-02 0.  1.
         -2   -1    0    0    0  501 -0.00000000000E+00 -0.00000000000E+00 -0.19116954521E+02  0.19116954692E+02  0.25500000000E-02 0. -1.
    5000001    1    1    2    0    0 -0.67328141947E+02  0.71431520837E+02  0.96964512834E+03  0.98846963321E+03  0.16500000000E+03 0.  0.
   -5000001    1    1    2    0    0  0.67328141947E+02 -0.71431520837E+02  0.93984893210E+03  0.95925833645E+03  0.16500000000E+03 0.  0.
<mgrwt>
<rscale>  0 0.38402692E+03</rscale>
<asrwt>0</asrwt>
<pdfrwt beam="1">  1        2 0.27551575E+00 0.38402692E+03</pdfrwt>
<pdfrwt beam="2">  1       -2 0.27309946E-02 0.38402692E+03</pdfrwt>
<totfact> 0.46644743E+03</totfact>
</mgrwt>
</event>
<event>
 4    1  0.5399378E-005  0.7122619E+03  0.7818608E-02  0.9696489E-01
         -2   -1    0    0    0  501 -0.00000000000E+00  0.00000000000E+00  0.56101836361E+02  0.56101836419E+02  0.25500000000E-02 0. -1.
          2   -1    0    0  501    0  0.00000000000E+00 -0.00000000000E+00 -0.22606970388E+04  0.22606970389E+04  0.25500000000E-02 0.  1.
    5000001    1    1    2    0    0  0.28862330407E+03  0.12480634194E+03 -0.11898330782E+04  0.12416955298E+04  0.16500000000E+03 0.  0.
   -5000001    1    1    2    0    0 -0.28862330407E+03 -0.12480634194E+03 -0.10147621243E+04  0.10751033455E+04  0.16500000000E+03 0.  0.
<mgrwt>
<rscale>  0 0.71226191E+03</rscale>
<asrwt>0</asrwt>
<pdfrwt beam="1">  1        2 0.32295666E+00 0.71226191E+03</pdfrwt>
<pdfrwt beam="2">  1       -2 0.80145495E-02 0.71226191E+03</pdfrwt>
<totfact> 0.59376535E+02</totfact>
</mgrwt>
</event>
<event>
 4    1  0.5399378E-005  0.4593664E+03  0.7818608E-02  0.1024965E+00
          2   -1    0    0  501    0  0.00000000000E+00  0.00000000000E+00  0.85550284393E+03  0.85550284394E+03  0.25500000000E-02 0.  1.
         -2   -1    0    0    0  501 -0.00000000000E+00 -0.00000000000E+00 -0.61664752572E+02  0.61664752624E+02  0.25500000000E-02 0. -1.
    5000001    1    1    2    0    0  0.45511489867E+02  0.14647813150E+03  0.48625920756E+03  0.53591058550E+03  0.16500000000E+03 0.  0.
   -5000001    1    1    2    0    0 -0.45511489867E+02 -0.14647813150E+03  0.30757888380E+03  0.38125701106E+03  0.16500000000E+03 0.  0.
<mgrwt>
<rscale>  0 0.45936640E+03</rscale>
<asrwt>0</asrwt>
<pdfrwt beam="1">  1        2 0.12221469E+00 0.45936640E+03</pdfrwt>
<pdfrwt beam="2">  1       -2 0.88092506E-02 0.45936640E+03</pdfrwt>
<totfact> 0.29236374E+03</totfact>
</mgrwt>
</event>
<event>
 4    1  0.5399378E-005  0.6384304E+03  0.7818608E-02  0.9828734E-01
         -2   -1    0    0    0  501 -0.00000000000E+00  0.00000000000E+00  0.17331635682E+03  0.17331635684E+03  0.25500000000E-02 0. -1.
          2   -1    0    0  501    0  0.00000000000E+00 -0.00000000000E+00 -0.58793256958E+03  0.58793256958E+03  0.25500000000E-02 0.  1.
    5000001    1    1    2    0    0 -0.71272916663E+02 -0.25194931240E+03 -0.30055041953E+03  0.43140913220E+03  0.16500000000E+03 0.  0.
   -5000001    1    1    2    0    0  0.71272916663E+02  0.25194931240E+03 -0.11406579323E+03  0.32983979422E+03  0.16500000000E+03 0.  0.
<mgrwt>
<rscale>  0 0.63843036E+03</rscale>
<asrwt>0</asrwt>
<pdfrwt beam="1">  1        2 0.83990366E-01 0.63843036E+03</pdfrwt>
<pdfrwt beam="2">  1       -2 0.24759480E-01 0.63843036E+03</pdfrwt>
<totfact> 0.81335583E+02</totfact>
</mgrwt>
</event>
<event>
 4    1  0.5399378E-005  0.7792893E+03  0.7818608E-02  0.9590488E-01
         -2   -1    0    0    0  501 -0.00000000000E+00  0.00000000000E+00  0.55896378383E+02  0.55896378441E+02  0.25500000000E-02 0. -1.
          2   -1    0    0  501    0  0.00000000000E+00 -0.00000000000E+00 -0.27161499404E+04  0.27161499404E+04  0.25500000000E-02 0.  1.
    5000001    1    1    2    0    0  0.23414964993E+03 -0.24236473136E+03 -0.95652097224E+03  0.10274843512E+04  0.16500000000E+03 0.  0.
   -5000001    1    1    2    0    0 -0.23414964993E+03  0.24236473136E+03 -0.17037325898E+04  0.17445619676E+04  0.16500000000E+03 0.  0.
<mgrwt>
<rscale>  0 0.77928928E+03</rscale>
<asrwt>0</asrwt>
<pdfrwt beam="1">  1        2 0.38802134E+00 0.77928928E+03</pdfrwt>
<pdfrwt beam="2">  1       -2 0.79851986E-02 0.77928928E+03</pdfrwt>
<totfact> 0.34554975E+02</totfact>
</mgrwt>
</event>
<event>
 4    1  0.5399378E-005  0.3801791E+03  0.7818608E-02  0.1050868E+00
         -2   -1    0    0    0  501 -0.00000000000E+00  0.00000000000E+00  0.91476969393E+02  0.91476969429E+02  0.25500000000E-02 0. -1.
          2   -1    0    0  501    0  0.00000000000E+00 -0.00000000000E+00 -0.39500687703E+03  0.39500687704E+03  0.25500000000E-02 0.  1.
    5000001    1    1    2    0    0  0.47065408866E+02 -0.78568337701E+02 -0.18096984314E+03  0.26146361224E+03  0.16500000000E+03 0.  0.
   -5000001    1    1    2    0    0 -0.47065408866E+02  0.78568337701E+02 -0.12256006450E+03  0.22502023422E+03  0.16500000000E+03 0.  0.
<mgrwt>
<rscale>  0 0.38017907E+03</rscale>
<asrwt>0</asrwt>
<pdfrwt beam="1">  1        2 0.56429553E-01 0.38017907E+03</pdfrwt>
<pdfrwt beam="2">  1       -2 0.13068139E-01 0.38017907E+03</pdfrwt>
<totfact> 0.37983824E+03</totfact>
</mgrwt>
</event>
<event>
 4    1  0.5399378E-005  0.4459019E+03  0.7818608E-02  0.1028951E+00
          2   -1    0    0  501    0  0.00000000000E+00  0.00000000000E+00  0.92436341543E+03  0.92436341544E+03  0.25500000000E-02 0.  1.
         -2   -1    0    0    0  501 -0.00000000000E+00 -0.00000000000E+00 -0.53774433643E+02  0.53774433703E+02  0.25500000000E-02 0. -1.
    5000001    1    1    2    0    0 -0.72184064999E+02 -0.13126668111E+03  0.42131057194E+03  0.47662257483E+03  0.16500000000E+03 0.  0.
   -5000001    1    1    2    0    0  0.72184064999E+02  0.13126668111E+03  0.44927840985E+03  0.50151527431E+03  0.16500000000E+03 0.  0.
<mgrwt>
<rscale>  0 0.44590187E+03</rscale>
<asrwt>0</asrwt>
<pdfrwt beam="1">  1        2 0.13205190E+00 0.44590187E+03</pdfrwt>
<pdfrwt beam="2">  1       -2 0.76820627E-02 0.44590187E+03</pdfrwt>
<totfact> 0.32800067E+03</totfact>
</mgrwt>
</event>
<event>
 4    1  0.5399378E-005  0.4180378E+03  0.7818608E-02  0.1037707E+00
          2   -1    0    0  501    0  0.00000000000E+00  0.00000000000E+00  0.91874095111E+03  0.91874095111E+03  0.25500000000E-02 0.  1.
         -2   -1    0    0    0  501 -0.00000000000E+00 -0.00000000000E+00 -0.47553008956E+02  0.47553009024E+02  0.25500000000E-02 0. -1.
    5000001    1    1    2    0    0  0.10726349056E+03  0.58549160413E+02  0.52602163966E+03  0.56467444247E+03  0.16500000000E+03 0.  0.
   -5000001    1    1    2    0    0 -0.10726349056E+03 -0.58549160413E+02  0.34516630249E+03  0.40161951766E+03  0.16500000000E+03 0.  0.
<mgrwt>
<rscale>  0 0.41803778E+03</rscale>
<asrwt>0</asrwt>
<pdfrwt beam="1">  1        2 0.13124870E+00 0.41803778E+03</pdfrwt>
<pdfrwt beam="2">  1       -2 0.67932876E-02 0.41803778E+03</pdfrwt>
<totfact> 0.40090377E+03</totfact>
</mgrwt>
</event>
<event>
 4    1  0.5399378E-005  0.5815099E+03  0.7818608E-02  0.9944528E-01
         -2   -1    0    0    0  501 -0.00000000000E+00  0.00000000000E+00  0.68488988464E+02  0.68488988512E+02  0.25500000000E-02 0. -1.
          2   -1    0    0  501    0  0.00000000000E+00 -0.00000000000E+00 -0.12343360575E+04  0.12343360575E+04  0.25500000000E-02 0.  1.
    5000001    1    1    2    0    0 -0.91741717828E+02  0.22110005658E+03 -0.57527644518E+03  0.64456944249E+03  0.16500000000E+03 0.  0.
   -5000001    1    1    2    0    0  0.91741717828E+02 -0.22110005658E+03 -0.59057062383E+03  0.65825560350E+03  0.16500000000E+03 0.  0.
<mgrwt>
<rscale>  0 0.58150986E+03</rscale>
<asrwt>0</asrwt>
<pdfrwt beam="1">  1        2 0.17633371E+00 0.58150986E+03</pdfrwt>
<pdfrwt beam="2">  1       -2 0.97841419E-02 0.58150986E+03</pdfrwt>
<totfact> 0.14657492E+03</totfact>
</mgrwt>
</event>
<event>
 4    1  0.5399378E-005  0.7486999E+03  0.7818608E-02  0.9637392E-01
         -2   -1    0    0    0  501 -0.00000000000E+00  0.00000000000E+00  0.13501247561E+03  0.13501247564E+03  0.25500000000E-02 0. -1.
          2   -1    0    0  501    0  0.00000000000E+00 -0.00000000000E+00 -0.10379623761E+04  0.10379623761E+04  0.25500000000E-02 0.  1.
    5000001    1    1    2    0    0  0.49583283973E+02  0.33149832840E+03 -0.48865606301E+03  0.61510925184E+03  0.16500000000E+03 0.  0.
   -5000001    1    1    2    0    0 -0.49583283973E+02 -0.33149832840E+03 -0.41429383747E+03  0.55786559989E+03  0.16500000000E+03 0.  0.
<mgrwt>
<rscale>  0 0.74869986E+03</rscale>
<asrwt>0</asrwt>
<pdfrwt beam="1">  1        2 0.14828033E+00 0.74869986E+03</pdfrwt>
<pdfrwt beam="2">  1       -2 0.19287497E-01 0.74869986E+03</pdfrwt>
<totfact> 0.60757575E+02</totfact>
</mgrwt>
</event>
<event>
 4    1  0.5399378E-005  0.7899223E+03  0.7818608E-02  0.9574720E-01
          2   -1    0    0  501    0  0.00000000000E+00  0.00000000000E+00  0.32450441055E+03  0.32450441056E+03  0.25500000000E-02 0.  1.
         -2   -1    0    0    0  501 -0.00000000000E+00 -0.00000000000E+00 -0.48071558334E+03  0.48071558335E+03  0.25500000000E-02 0. -1.
    5000001    1    1    2    0    0 -0.11686708784E+03 -0.33468386549E+03 -0.21366891961E+02  0.39160279635E+03  0.16500000000E+03 0.  0.
   -5000001    1    1    2    0    0  0.11686708784E+03  0.33468386549E+03 -0.13484428083E+03  0.41361719755E+03  0.16500000000E+03 0.  0.
<mgrwt>
<rscale>  0 0.78992234E+03</rscale>
<asrwt>0</asrwt>
<pdfrwt beam="1">  1        2 0.46357773E-01 0.78992234E+03</pdfrwt>
<pdfrwt beam="2">  1       -2 0.68673654E-01 0.78992234E+03</pdfrwt>
<totfact> 0.21337382E+02</totfact>
</mgrwt>
</event>
<event>
 4    1  0.5399378E-005  0.4942321E+03  0.7818608E-02  0.1015295E+00
          2   -1    0    0  501    0  0.00000000000E+00  0.00000000000E+00  0.37668508610E+03  0.37668508611E+03  0.25500000000E-02 0.  1.
         -2   -1    0    0    0  501 -0.00000000000E+00 -0.00000000000E+00 -0.16211507515E+03  0.16211507517E+03  0.25500000000E-02 0. -1.
    5000001    1    1    2    0    0  0.66083460408E+02 -0.10828754198E+03  0.25252055470E+03  0.32723820993E+03  0.16500000000E+03 0.  0.
   -5000001    1    1    2    0    0 -0.66083460408E+02  0.10828754198E+03 -0.37950543754E+02  0.21156195135E+03  0.16500000000E+03 0.  0.
<mgrwt>
<rscale>  0 0.49423206E+03</rscale>
<asrwt>0</asrwt>
<pdfrwt beam="1">  1        2 0.53812155E-01 0.49423206E+03</pdfrwt>
<pdfrwt beam="2">  1       -2 0.23159296E-01 0.49423206E+03</pdfrwt>
<totfact> 0.15167254E+03</totfact>
</mgrwt>
</event>
<event>
 4    1  0.5399378E-005  0.7257264E+03  0.7818608E-02  0.9674221E-01
         -2   -1    0    0    0  501 -0.00000000000E+00  0.00000000000E+00  0.20464774929E+03  0.20464774931E+03  0.25500000000E-02 0. -1.
          2   -1    0    0  501    0  0.00000000000E+00 -0.00000000000E+00 -0.64339680511E+03  0.64339680511E+03  0.25500000000E-02 0.  1.
    5000001    1    1    2    0    0  0.31603818893E+03  0.62566416495E+02 -0.24916705489E+03  0.43943590497E+03  0.16500000000E+03 0.  0.
   -5000001    1    1    2    0    0 -0.31603818893E+03 -0.62566416495E+02 -0.18958200092E+03  0.40860864945E+03  0.16500000000E+03 0.  0.
<mgrwt>
<rscale>  0 0.72572642E+03</rscale>
<asrwt>0</asrwt>
<pdfrwt beam="1">  1        2 0.91913829E-01 0.72572642E+03</pdfrwt>
<pdfrwt beam="2">  1       -2 0.29235393E-01 0.72572642E+03</pdfrwt>
<totfact> 0.53891978E+02</totfact>
</mgrwt>
</event>
<event>
 4    1  0.5399378E-005  0.1097186E+04  0.7818608E-02  0.9207939E-01
         -2   -1    0    0    0  501 -0.00000000000E+00  0.00000000000E+00  0.19345443833E+03  0.19345443835E+03  0.25500000000E-02 0. -1.
          2   -1    0    0  501    0  0.00000000000E+00 -0.00000000000E+00 -0.15556857332E+04  0.15556857332E+04  0.25500000000E-02 0.  1.
    5000001    1    1    2    0    0  0.29718719287E+03 -0.79097778882E+02 -0.13558858888E+04  0.14000815083E+04  0.16500000000E+03 0.  0.
   -5000001    1    1    2    0    0 -0.29718719287E+03  0.79097778882E+02 -0.63454060233E+01  0.34905866328E+03  0.16500000000E+03 0.  0.
<mgrwt>
<rscale>  0 0.10971861E+04</rscale>
<asrwt>0</asrwt>
<pdfrwt beam="1">  1        2 0.22224081E+00 0.10971861E+04</pdfrwt>
<pdfrwt beam="2">  1       -2 0.27636349E-01 0.10971861E+04</pdfrwt>
<totfact> 0.16167223E+02</totfact>
</mgrwt>
</event>
<event>
 4    1  0.5399378E-005  0.6408369E+03  0.7818608E-02  0.9824127E-01
          2   -1    0    0  501    0  0.00000000000E+00  0.00000000000E+00  0.28243034625E+04  0.28243034625E+04  0.25500000000E-02 0.  1.
         -2   -1    0    0    0  501 -0.00000000000E+00 -0.00000000000E+00 -0.36351614391E+02  0.36351614481E+02  0.25500000000E-02 0. -1.
    5000001    1    1    2    0    0 -0.15863732063E+02 -0.26963769202E+03  0.16165848388E+04  0.16472788725E+04  0.16500000000E+03 0.  0.
   -5000001    1    1    2    0    0  0.15863732063E+02  0.26963769202E+03  0.11713670093E+04  0.12133762044E+04  0.16500000000E+03 0.  0.
<mgrwt>
<rscale>  0 0.64083692E+03</rscale>
<asrwt>0</asrwt>
<pdfrwt beam="1">  1        2 0.40347201E+00 0.64083692E+03</pdfrwt>
<pdfrwt beam="2">  1       -2 0.51930867E-02 0.64083692E+03</pdfrwt>
<totfact> 0.60437273E+02</totfact>
</mgrwt>
</event>
<event>
 4    1  0.5399378E-005  0.7407266E+03  0.7818608E-02  0.9650012E-01
         -2   -1    0    0    0  501 -0.00000000000E+00  0.00000000000E+00  0.51827652526E+02  0.51827652589E+02  0.25500000000E-02 0. -1.
          2   -1    0    0  501    0  0.00000000000E+00 -0.00000000000E+00 -0.26466370832E+04  0.26466370832E+04  0.25500000000E-02 0.  1.
    5000001    1    1    2    0    0 -0.32981458036E+03  0.22856816502E+02 -0.12049633069E+04  0.12603418832E+04  0.16500000000E+03 0.  0.
   -5000001    1    1    2    0    0  0.32981458036E+03 -0.22856816502E+02 -0.13898461237E+04  0.14381228526E+04  0.16500000000E+03 0.  0.
<mgrwt>
<rscale>  0 0.74072664E+03</rscale>
<asrwt>0</asrwt>
<pdfrwt beam="1">  1        2 0.37809093E+00 0.74072664E+03</pdfrwt>
<pdfrwt beam="2">  1       -2 0.74039520E-02 0.74072664E+03</pdfrwt>
<totfact> 0.42550697E+02</totfact>
</mgrwt>
</event>
<event>
 4    1  0.5399378E-005  0.5372181E+03  0.7818608E-02  0.1004496E+00
         -2   -1    0    0    0  501 -0.00000000000E+00  0.00000000000E+00  0.18238730452E+03  0.18238730453E+03  0.25500000000E-02 0. -1.
          2   -1    0    0  501    0  0.00000000000E+00 -0.00000000000E+00 -0.39559119944E+03  0.39559119945E+03  0.25500000000E-02 0.  1.
    5000001    1    1    2    0    0  0.11162275993E+03 -0.17893744170E+03 -0.12936280627E+03  0.29738524547E+03  0.16500000000E+03 0.  0.
   -5000001    1    1    2    0    0 -0.11162275993E+03  0.17893744170E+03 -0.83841088650E+02  0.28059325851E+03  0.16500000000E+03 0.  0.
<mgrwt>
<rscale>  0 0.53721807E+03</rscale>
<asrwt>0</asrwt>
<pdfrwt beam="1">  1        2 0.56513028E-01 0.53721807E+03</pdfrwt>
<pdfrwt beam="2">  1       -2 0.26055329E-01 0.53721807E+03</pdfrwt>
<totfact> 0.11643636E+03</totfact>
</mgrwt>
</event>
<event>
 4    1  0.5399378E-005  0.3623663E+03  0.7818608E-02  0.1057651E+00
         -2   -1    0    0    0  501 -0.00000000000E+00  0.00000000000E+00  0.11786192422E+03  0.11786192425E+03  0.25500000000E-02 0. -1.
          2   -1    0    0  501    0  0.00000000000E+00 -0.00000000000E+00 -0.27852362107E+03  0.27852362108E+03  0.25500000000E-02 0.  1.
    5000001    1    1    2    0    0 -0.49544168444E+02 -0.56104411385E+02 -0.80311165906E+02  0.19818479501E+03  0.16500000000E+03 0.  0.
   -5000001    1    1    2    0    0  0.49544168444E+02  0.56104411385E+02 -0.80350530947E+02  0.19820075032E+03  0.16500000000E+03 0.  0.
<mgrwt>
<rscale>  0 0.36236628E+03</rscale>
<asrwt>0</asrwt>
<pdfrwt beam="1">  1        2 0.39789089E-01 0.36236628E+03</pdfrwt>
<pdfrwt beam="2">  1       -2 0.16837418E-01 0.36236628E+03</pdfrwt>
<totfact> 0.36417385E+03</totfact>
</mgrwt>
</event>
<event>
 4    1  0.5399378E-005  0.3929016E+03  0.7818608E-02  0.1046266E+00
          2   -1    0    0  501    0  0.00000000000E+00  0.00000000000E+00  0.22105684008E+04  0.22105684008E+04  0.25500000000E-02 0.  1.
         -2   -1    0    0    0  501 -0.00000000000E+00 -0.00000000000E+00 -0.17458367046E+02  0.17458367232E+02  0.25500000000E-02 0. -1.
    5000001    1    1    2    0    0  0.19825598901E+02 -0.10055211492E+03  0.12632516390E+04  0.12780976041E+04  0.16500000000E+03 0.  0.
   -5000001    1    1    2    0    0 -0.19825598901E+02  0.10055211492E+03  0.92985839483E+03  0.94992916400E+03  0.16500000000E+03 0.  0.
<mgrwt>
<rscale>  0 0.39290159E+03</rscale>
<asrwt>0</asrwt>
<pdfrwt beam="1">  1        2 0.31579561E+00 0.39290159E+03</pdfrwt>
<pdfrwt beam="2">  1       -2 0.24940515E-02 0.39290159E+03</pdfrwt>
<totfact> 0.38749337E+03</totfact>
</mgrwt>
</event>
<event>
 4    1  0.5399378E-005  0.6823034E+03  0.7818608E-02  0.9747984E-01
          2   -1    0    0  501    0  0.00000000000E+00  0.00000000000E+00  0.32780457617E+03  0.32780457618E+03  0.25500000000E-02 0.  1.
         -2   -1    0    0    0  501 -0.00000000000E+00 -0.00000000000E+00 -0.35504227680E+03  0.35504227680E+03  0.25500000000E-02 0. -1.
    5000001    1    1    2    0    0  0.22146481235E+02  0.29314962920E+03  0.38694299315E+02  0.33933673619E+03  0.16500000000E+03 0.  0.
   -5000001    1    1    2    0    0 -0.22146481235E+02 -0.29314962920E+03 -0.65931999936E+02  0.34351011680E+03  0.16500000000E+03 0.  0.
<mgrwt>
<rscale>  0 0.68230340E+03</rscale>
<asrwt>0</asrwt>
<pdfrwt beam="1">  1        2 0.46829225E-01 0.68230340E+03</pdfrwt>
<pdfrwt beam="2">  1       -2 0.50720325E-01 0.68230340E+03</pdfrwt>
<totfact> 0.40034405E+02</totfact>
</mgrwt>
</event>
<event>
 4    1  0.5399378E-005  0.5036469E+03  0.7818608E-02  0.1012831E+00
          2   -1    0    0  501    0  0.00000000000E+00  0.00000000000E+00  0.30089061837E+03  0.30089061838E+03  0.25500000000E-02 0.  1.
         -2   -1    0    0    0  501 -0.00000000000E+00 -0.00000000000E+00 -0.21075780568E+03  0.21075780569E+03  0.25500000000E-02 0. -1.
    5000001    1    1    2    0    0  0.50178325213E+02 -0.18171679331E+03  0.19142581479E+02  0.25125742918E+03  0.16500000000E+03 0.  0.
   -5000001    1    1    2    0    0 -0.50178325213E+02  0.18171679331E+03  0.70990231212E+02  0.26039099489E+03  0.16500000000E+03 0.  0.
<mgrwt>
<rscale>  0 0.50364689E+03</rscale>
<asrwt>0</asrwt>
<pdfrwt beam="1">  1        2 0.42984374E-01 0.50364689E+03</pdfrwt>
<pdfrwt beam="2">  1       -2 0.30108258E-01 0.50364689E+03</pdfrwt>
<totfact> 0.12093227E+03</totfact>
</mgrwt>
</event>
<event>
 4    1  0.5399378E-005  0.5951232E+03  0.7818608E-02  0.9915576E-01
          2   -1    0    0  501    0  0.00000000000E+00  0.00000000000E+00  0.10039211987E+04  0.10039211987E+04  0.25500000000E-02 0.  1.
         -2   -1    0    0    0  501 -0.00000000000E+00 -0.00000000000E+00 -0.88197079745E+02  0.88197079782E+02  0.25500000000E-02 0. -1.
    5000001    1    1    2    0    0  0.68504940906E+02 -0.22027370209E+03  0.62306795338E+03  0.68458170097E+03  0.16500000000E+03 0.  0.
   -5000001    1    1    2    0    0 -0.68504940906E+02  0.22027370209E+03  0.29265616554E+03  0.40753657749E+03  0.16500000000E+03 0.  0.
<mgrwt>
<rscale>  0 0.59512324E+03</rscale>
<asrwt>0</asrwt>
<pdfrwt beam="1">  1        2 0.14341732E+00 0.59512324E+03</pdfrwt>
<pdfrwt beam="2">  1       -2 0.12599583E-01 0.59512324E+03</pdfrwt>
<totfact> 0.13171060E+03</totfact>
</mgrwt>
</event>
<event>
 4    1  0.5399378E-005  0.7237928E+03  0.7818608E-02  0.9677387E-01
          2   -1    0    0  501    0  0.00000000000E+00  0.00000000000E+00  0.19063020046E+04  0.19063020046E+04  0.25500000000E-02 0.  1.
         -2   -1    0    0    0  501 -0.00000000000E+00 -0.00000000000E+00 -0.68703179644E+02  0.68703179692E+02  0.25500000000E-02 0. -1.
    5000001    1    1    2    0    0  0.30727099382E+03 -0.78615935599E+02  0.76569882258E+03  0.84505361716E+03  0.16500000000E+03 0.  0.
   -5000001    1    1    2    0    0 -0.30727099382E+03  0.78615935599E+02  0.10719000023E+04  0.11299515671E+04  0.16500000000E+03 0.  0.
<mgrwt>
<rscale>  0 0.72379281E+03</rscale>
<asrwt>0</asrwt>
<pdfrwt beam="1">  1        2 0.27232884E+00 0.72379281E+03</pdfrwt>
<pdfrwt beam="2">  1       -2 0.98147405E-02 0.72379281E+03</pdfrwt>
<totfact> 0.64676386E+02</totfact>
</mgrwt>
</event>
<event>
 4    1  0.5399378E-005  0.8393968E+03  0.7818608E-02  0.9504680E-01
         -2   -1    0    0    0  501 -0.00000000000E+00  0.00000000000E+00  0.44670490523E+03  0.44670490524E+03  0.25500000000E-02 0. -1.
          2   -1    0    0  501    0  0.00000000000E+00 -0.00000000000E+00 -0.39432459518E+03  0.39432459518E+03  0.25500000000E-02 0.  1.
    5000001    1    1    2    0    0 -0.34054671024E+03  0.83250691870E+02 -0.13542763679E+03  0.41044900336E+03  0.16500000000E+03 0.  0.
   -5000001    1    1    2    0    0  0.34054671024E+03 -0.83250691870E+02  0.18780794684E+03  0.43058049706E+03  0.16500000000E+03 0.  0.
<mgrwt>
<rscale>  0 0.83939676E+03</rscale>
<asrwt>0</asrwt>
<pdfrwt beam="1">  1        2 0.56332085E-01 0.83939676E+03</pdfrwt>
<pdfrwt beam="2">  1       -2 0.63814986E-01 0.83939676E+03</pdfrwt>
<totfact> 0.20078294E+02</totfact>
</mgrwt>
</event>
<event>
 4    1  0.5399378E-005  0.4320655E+03  0.7818608E-02  0.1033209E+00
         -2   -1    0    0    0  501 -0.00000000000E+00  0.00000000000E+00  0.15438006080E+03  0.15438006082E+03  0.25500000000E-02 0. -1.
          2   -1    0    0  501    0  0.00000000000E+00 -0.00000000000E+00 -0.30230688832E+03  0.30230688833E+03  0.25500000000E-02 0.  1.
    5000001    1    1    2    0    0  0.78742908350E+02 -0.46787962711E+02  0.37173945764E+02  0.19234464202E+03  0.16500000000E+03 0.  0.
   -5000001    1    1    2    0    0 -0.78742908350E+02  0.46787962711E+02 -0.18510077328E+03  0.26434230713E+03  0.16500000000E+03 0.  0.
<mgrwt>
<rscale>  0 0.43206553E+03</rscale>
<asrwt>0</asrwt>
<pdfrwt beam="1">  1        2 0.43186698E-01 0.43206553E+03</pdfrwt>
<pdfrwt beam="2">  1       -2 0.22054294E-01 0.43206553E+03</pdfrwt>
<totfact> 0.21014033E+03</totfact>
</mgrwt>
</event>
<event>
 4    1  0.5399378E-005  0.5431090E+03  0.7818608E-02  0.1003102E+00
         -2   -1    0    0    0  501 -0.00000000000E+00  0.00000000000E+00  0.18010087797E+04  0.18010087797E+04  0.25500000000E-02 0. -1.
          2   -1    0    0  501    0  0.00000000000E+00 -0.00000000000E+00 -0.40944751711E+02  0.40944751791E+02  0.25500000000E-02 0.  1.
    5000001    1    1    2    0    0  0.14428002536E+03 -0.15362921108E+03  0.72468075153E+03  0.77253210409E+03  0.16500000000E+03 0.  0.
   -5000001    1    1    2    0    0 -0.14428002536E+03  0.15362921108E+03  0.10353832765E+04  0.10694214274E+04  0.16500000000E+03 0.  0.
<mgrwt>
<rscale>  0 0.54310904E+03</rscale>
<asrwt>0</asrwt>
<pdfrwt beam="1">  1        2 0.58492497E-02 0.54310904E+03</pdfrwt>
<pdfrwt beam="2">  1       -2 0.25728699E+00 0.54310904E+03</pdfrwt>
<totfact> 0.81188201E+01</totfact>
</mgrwt>
</event>
<event>
 4    1  0.5399378E-005  0.3878229E+03  0.7818608E-02  0.1048080E+00
         -2   -1    0    0    0  501 -0.00000000000E+00  0.00000000000E+00  0.17819652556E+02  0.17819652739E+02  0.25500000000E-02 0. -1.
          2   -1    0    0  501    0  0.00000000000E+00 -0.00000000000E+00 -0.21101227003E+04  0.21101227003E+04  0.25500000000E-02 0.  1.
    5000001    1    1    2    0    0 -0.26736329474E+02 -0.92954840738E+02 -0.87080950130E+03  0.89156582555E+03  0.16500000000E+03 0.  0.
   -5000001    1    1    2    0    0  0.26736329474E+02  0.92954840738E+02 -0.12214935464E+04  0.12363765275E+04  0.16500000000E+03 0.  0.
<mgrwt>
<rscale>  0 0.38782292E+03</rscale>
<asrwt>0</asrwt>
<pdfrwt beam="1">  1        2 0.30144594E+00 0.38782292E+03</pdfrwt>
<pdfrwt beam="2">  1       -2 0.25456660E-02 0.38782292E+03</pdfrwt>
<totfact> 0.42147968E+03</totfact>
</mgrwt>
</event>
<event>
 4    1  0.5399378E-005  0.5289474E+03  0.7818608E-02  0.1006488E+00
         -2   -1    0    0    0  501 -0.00000000000E+00  0.00000000000E+00  0.21103953009E+02  0.21103953163E+02  0.25500000000E-02 0. -1.
          2   -1    0    0  501    0  0.00000000000E+00 -0.00000000000E+00 -0.33143718461E+04  0.33143718461E+04  0.25500000000E-02 0.  1.
    5000001    1    1    2    0    0 -0.16525574114E+03  0.96216298268E+02 -0.11519417858E+04  0.11793056914E+04  0.16500000000E+03 0.  0.
   -5000001    1    1    2    0    0  0.16525574114E+03 -0.96216298268E+02 -0.21413261073E+04  0.21561701078E+04  0.16500000000E+03 0.  0.
<mgrwt>
<rscale>  0 0.52894744E+03</rscale>
<asrwt>0</asrwt>
<pdfrwt beam="1">  1        2 0.47348136E+00 0.52894744E+03</pdfrwt>
<pdfrwt beam="2">  1       -2 0.30148526E-02 0.52894744E+03</pdfrwt>
<totfact> 0.75698138E+02</totfact>
</mgrwt>
</event>
<event>
 4    1  0.5399378E-005  0.5303627E+03  0.7818608E-02  0.1006144E+00
          2   -1    0    0  501    0  0.00000000000E+00  0.00000000000E+00  0.11133916169E+04  0.11133916170E+04  0.25500000000E-02 0.  1.
         -2   -1    0    0    0  501 -0.00000000000E+00 -0.00000000000E+00 -0.63159412752E+02  0.63159412804E+02  0.25500000000E-02 0. -1.
    5000001    1    1    2    0    0  0.29293037901E+02 -0.15312945455E+03  0.22103125637E+03  0.31683833135E+03  0.16500000000E+03 0.  0.
   -5000001    1    1    2    0    0 -0.29293037901E+02  0.15312945455E+03  0.82920094783E+03  0.85971269840E+03  0.16500000000E+03 0.  0.
<mgrwt>
<rscale>  0 0.53036275E+03</rscale>
<asrwt>0</asrwt>
<pdfrwt beam="1">  1        2 0.15905594E+00 0.53036275E+03</pdfrwt>
<pdfrwt beam="2">  1       -2 0.90227733E-02 0.53036275E+03</pdfrwt>
<totfact> 0.19559785E+03</totfact>
</mgrwt>
</event>
<event>
 4    1  0.5399378E-005  0.5572052E+03  0.7818608E-02  0.9998398E-01
          2   -1    0    0  501    0  0.00000000000E+00  0.00000000000E+00  0.67524102399E+03  0.67524102400E+03  0.25500000000E-02 0.  1.
         -2   -1    0    0    0  501 -0.00000000000E+00 -0.00000000000E+00 -0.11495065660E+03  0.11495065662E+03  0.25500000000E-02 0. -1.
    5000001    1    1    2    0    0  0.90635359205E+02 -0.49723870364E+02 -0.24415521668E+01  0.19472594280E+03  0.16500000000E+03 0.  0.
   -5000001    1    1    2    0    0 -0.90635359205E+02  0.49723870364E+02  0.56273191956E+03  0.59546573782E+03  0.16500000000E+03 0.  0.
<mgrwt>
<rscale>  0 0.55720517E+03</rscale>
<asrwt>0</asrwt>
<pdfrwt beam="1">  1        2 0.96463000E-01 0.55720517E+03</pdfrwt>
<pdfrwt beam="2">  1       -2 0.16421523E-01 0.55720517E+03</pdfrwt>
<totfact> 0.14131828E+03</totfact>
</mgrwt>
</event>
<event>
 4    1  0.5399378E-005  0.6138957E+03  0.7818608E-02  0.9876989E-01
          2   -1    0    0  501    0  0.00000000000E+00  0.00000000000E+00  0.19127605125E+04  0.19127605125E+04  0.25500000000E-02 0.  1.
         -2   -1    0    0    0  501 -0.00000000000E+00 -0.00000000000E+00 -0.49257075360E+02  0.49257075426E+02  0.25500000000E-02 0. -1.
    5000001    1    1    2    0    0  0.86417977209E+02 -0.24395051061E+03  0.92064799809E+03  0.97046259835E+03  0.16500000000E+03 0.  0.
   -5000001    1    1    2    0    0 -0.86417977209E+02  0.24395051061E+03  0.94285543910E+03  0.99155498962E+03  0.16500000000E+03 0.  0.
<mgrwt>
<rscale>  0 0.61389572E+03</rscale>
<asrwt>0</asrwt>
<pdfrwt beam="1">  1        2 0.27325145E+00 0.61389572E+03</pdfrwt>
<pdfrwt beam="2">  1       -2 0.70367265E-02 0.61389572E+03</pdfrwt>
<totfact> 0.11007290E+03</totfact>
</mgrwt>
</event>
<event>
 4    1  0.5399378E-005  0.4528315E+03  0.7818608E-02  0.1026881E+00
         -2   -1    0    0    0  501 -0.00000000000E+00  0.00000000000E+00  0.61847642229E+02  0.61847642281E+02  0.25500000000E-02 0.  1.
          2   -1    0    0  501    0  0.00000000000E+00 -0.00000000000E+00 -0.82887707394E+03  0.82887707394E+03  0.25500000000E-02 0. -1.
    5000001    1    1    2    0    0 -0.65416364917E+02 -0.12768576022E+03 -0.26787621733E+03  0.34578262243E+03  0.16500000000E+03 0.  0.
   -5000001    1    1    2    0    0  0.65416364917E+02  0.12768576022E+03 -0.49915321438E+03  0.54494209380E+03  0.16500000000E+03 0.  0.
<mgrwt>
<rscale>  0 0.45283150E+03</rscale>
<asrwt>0</asrwt>
<pdfrwt beam="1">  1        2 0.11841100E+00 0.45283150E+03</pdfrwt>
<pdfrwt beam="2">  1       -2 0.88353780E-02 0.45283150E+03</pdfrwt>
<totfact> 0.30306080E+03</totfact>
</mgrwt>
</event>
<event>
 4    1  0.5399378E-005  0.4682795E+03  0.7818608E-02  0.1022407E+00
          2   -1    0    0  501    0  0.00000000000E+00  0.00000000000E+00  0.80605841581E+03  0.80605841582E+03  0.25500000000E-02 0.  1.
         -2   -1    0    0    0  501 -0.00000000000E+00 -0.00000000000E+00 -0.68011711986E+02  0.68011712034E+02  0.25500000000E-02 0. -1.
    5000001    1    1    2    0    0  0.78665158525E+02  0.14384444328E+03  0.41900323554E+03  0.47923704200E+03  0.16500000000E+03 0.  0.
   -5000001    1    1    2    0    0 -0.78665158525E+02 -0.14384444328E+03  0.31904346829E+03  0.39483308585E+03  0.16500000000E+03 0.  0.
<mgrwt>
<rscale>  0 0.46827946E+03</rscale>
<asrwt>0</asrwt>
<pdfrwt beam="1">  1        2 0.11515120E+00 0.46827946E+03</pdfrwt>
<pdfrwt beam="2">  1       -2 0.97159589E-02 0.46827946E+03</pdfrwt>
<totfact> 0.26978327E+03</totfact>
</mgrwt>
</event>
<event>
 4    1  0.5399378E-005  0.6199377E+03  0.7818608E-02  0.9864884E-01
         -2   -1    0    0    0  501 -0.00000000000E+00  0.00000000000E+00  0.59733894123E+02  0.59733894178E+02  0.25500000000E-02 0. -1.
          2   -1    0    0  501    0  0.00000000000E+00 -0.00000000000E+00 -0.16084786223E+04  0.16084786223E+04  0.25500000000E-02 0.  1.
    5000001    1    1    2    0    0  0.18272730218E+03  0.18673827945E+03 -0.70872016185E+03  0.77315568923E+03  0.16500000000E+03 0.  0.
   -5000001    1    1    2    0    0 -0.18272730218E+03 -0.18673827945E+03 -0.84002456632E+03  0.89505682725E+03  0.16500000000E+03 0.  0.
<mgrwt>
<rscale>  0 0.61993771E+03</rscale>
<asrwt>0</asrwt>
<pdfrwt beam="1">  1        2 0.22978263E+00 0.61993771E+03</pdfrwt>
<pdfrwt beam="2">  1       -2 0.85334145E-02 0.61993771E+03</pdfrwt>
<totfact> 0.11551668E+03</totfact>
</mgrwt>
</event>
<event>
 4    1  0.5399378E-005  0.4055285E+03  0.7818608E-02  0.1041882E+00
          2   -1    0    0  501    0  0.00000000000E+00  0.00000000000E+00  0.11861751708E+03  0.11861751710E+03  0.25500000000E-02 0.  1.
         -2   -1    0    0    0  501 -0.00000000000E+00 -0.00000000000E+00 -0.34660427175E+03  0.34660427176E+03  0.25500000000E-02 0. -1.
    5000001    1    1    2    0    0  0.27731787197E+02 -0.60092512306E+02 -0.21301644062E+01  0.17779116867E+03  0.16500000000E+03 0.  0.
   -5000001    1    1    2    0    0 -0.27731787197E+02  0.60092512306E+02 -0.22585659027E+03  0.28743062019E+03  0.16500000000E+03 0.  0.
<mgrwt>
<rscale>  0 0.40552849E+03</rscale>
<asrwt>0</asrwt>
<pdfrwt beam="1">  1        2 0.16945360E-01 0.40552849E+03</pdfrwt>
<pdfrwt beam="2">  1       -2 0.49514895E-01 0.40552849E+03</pdfrwt>
<totfact> 0.13310171E+03</totfact>
</mgrwt>
</event>
<event>
 4    1  0.5399378E-005  0.4762592E+03  0.7818608E-02  0.1020168E+00
         -2   -1    0    0    0  501 -0.00000000000E+00  0.00000000000E+00  0.49667932316E+02  0.49667932382E+02  0.25500000000E-02 0. -1.
          2   -1    0    0  501    0  0.00000000000E+00 -0.00000000000E+00 -0.11416966991E+04  0.11416966991E+04  0.25500000000E-02 0.  1.
    5000001    1    1    2    0    0 -0.10219138642E+03 -0.12468374037E+03 -0.39820107862E+03  0.46019366965E+03  0.16500000000E+03 0.  0.
   -5000001    1    1    2    0    0  0.10219138642E+03  0.12468374037E+03 -0.69382768819E+03  0.73117096187E+03  0.16500000000E+03 0.  0.
<mgrwt>
<rscale>  0 0.47625923E+03</rscale>
<asrwt>0</asrwt>
<pdfrwt beam="1">  1        2 0.16309951E+00 0.47625923E+03</pdfrwt>
<pdfrwt beam="2">  1       -2 0.70954196E-02 0.47625923E+03</pdfrwt>
<totfact> 0.27608254E+03</totfact>
</mgrwt>
</event>
<event>
 4    1  0.5399378E-005  0.8160835E+03  0.7818608E-02  0.9537024E-01
         -2   -1    0    0    0  501 -0.00000000000E+00  0.00000000000E+00  0.88035723256E+02  0.88035723293E+02  0.25500000000E-02 0. -1.
          2   -1    0    0  501    0  0.00000000000E+00 -0.00000000000E+00 -0.18912556762E+04  0.18912556762E+04  0.25500000000E-02 0.  1.
    5000001    1    1    2    0    0 -0.15361649675E+02 -0.35554405056E+03 -0.62908920955E+03  0.74136751058E+03  0.16500000000E+03 0.  0.
   -5000001    1    1    2    0    0  0.15361649675E+02  0.35554405056E+03 -0.11741307434E+04  0.12379238889E+04  0.16500000000E+03 0.  0.
<mgrwt>
<rscale>  0 0.81608348E+03</rscale>
<asrwt>0</asrwt>
<pdfrwt beam="1">  1        2 0.27017936E+00 0.81608348E+03</pdfrwt>
<pdfrwt beam="2">  1       -2 0.12576533E-01 0.81608348E+03</pdfrwt>
<totfact> 0.43552843E+02</totfact>
</mgrwt>
</event>
<event>
 4    1  0.5399378E-005  0.4150245E+03  0.7818608E-02  0.1038698E+00
          2   -1    0    0  501    0  0.00000000000E+00  0.00000000000E+00  0.75245540456E+03  0.75245540456E+03  0.25500000000E-02 0.  1.
         -2   -1    0    0    0  501 -0.00000000000E+00 -0.00000000000E+00 -0.57227744812E+02  0.57227744869E+02  0.25500000000E-02 0. -1.
    5000001    1    1    2    0    0 -0.33940768246E+01  0.12374088697E+03  0.39180135516E+03  0.44278282348E+03  0.16500000000E+03 0.  0.
   -5000001    1    1    2    0    0  0.33940768246E+01 -0.12374088697E+03  0.30342630458E+03  0.36690032595E+03  0.16500000000E+03 0.  0.
<mgrwt>
<rscale>  0 0.41502446E+03</rscale>
<asrwt>0</asrwt>
<pdfrwt beam="1">  1        2 0.10749363E+00 0.41502446E+03</pdfrwt>
<pdfrwt beam="2">  1       -2 0.81753920E-02 0.41502446E+03</pdfrwt>
<totfact> 0.38678994E+03</totfact>
</mgrwt>
</event>
<event>
 4    1  0.5399378E-005  0.4309309E+03  0.7818608E-02  0.1033566E+00
         -2   -1    0    0    0  501 -0.00000000000E+00  0.00000000000E+00  0.45221254759E+03  0.45221254760E+03  0.25500000000E-02 0. -1.
          2   -1    0    0  501    0  0.00000000000E+00 -0.00000000000E+00 -0.10266267984E+03  0.10266267987E+03  0.25500000000E-02 0.  1.
    5000001    1    1    2    0    0  0.22740166318E+01 -0.11057931904E+03  0.67296097562E+02  0.20973011634E+03  0.16500000000E+03 0.  0.
   -5000001    1    1    2    0    0 -0.22740166318E+01  0.11057931904E+03  0.28225377020E+03  0.34514511113E+03  0.16500000000E+03 0.  0.
<mgrwt>
<rscale>  0 0.43093086E+03</rscale>
<asrwt>0</asrwt>
<pdfrwt beam="1">  1        2 0.14666097E-01 0.43093086E+03</pdfrwt>
<pdfrwt beam="2">  1       -2 0.64601791E-01 0.43093086E+03</pdfrwt>
<totfact> 0.91378392E+02</totfact>
</mgrwt>
</event>
<event>
 4    1  0.5399378E-005  0.4184802E+03  0.7818608E-02  0.1037562E+00
         -2   -1    0    0    0  501 -0.00000000000E+00  0.00000000000E+00  0.11535021296E+03  0.11535021299E+03  0.25500000000E-02 0. -1.
          2   -1    0    0  501    0  0.00000000000E+00 -0.00000000000E+00 -0.37955212404E+03  0.37955212405E+03  0.25500000000E-02 0.  1.
    5000001    1    1    2    0    0  0.86001310949E+02 -0.95696951893E+02 -0.13031279129E+03  0.24649656318E+03  0.16500000000E+03 0.  0.
   -5000001    1    1    2    0    0 -0.86001310949E+02  0.95696951893E+02 -0.13388911979E+03  0.24840577385E+03  0.16500000000E+03 0.  0.
<mgrwt>
<rscale>  0 0.41848019E+03</rscale>
<asrwt>0</asrwt>
<pdfrwt beam="1">  1        2 0.54221732E-01 0.41848019E+03</pdfrwt>
<pdfrwt beam="2">  1       -2 0.16478602E-01 0.41848019E+03</pdfrwt>
<totfact> 0.27025307E+03</totfact>
</mgrwt>
</event>
<event>
 4    1  0.5399378E-005  0.5321970E+03  0.7818608E-02  0.1005701E+00
          2   -1    0    0  501    0  0.00000000000E+00  0.00000000000E+00  0.73468842540E+03  0.73468842540E+03  0.25500000000E-02 0.  1.
         -2   -1    0    0    0  501 -0.00000000000E+00 -0.00000000000E+00 -0.96378836586E+02  0.96378836619E+02  0.25500000000E-02 0. -1.
    5000001    1    1    2    0    0 -0.61967546413E+02  0.15376771441E+03  0.12101932348E+03  0.26335368511E+03  0.16500000000E+03 0.  0.
   -5000001    1    1    2    0    0  0.61967546413E+02 -0.15376771441E+03  0.51729026533E+03  0.56771357691E+03  0.16500000000E+03 0.  0.
<mgrwt>
<rscale>  0 0.53219702E+03</rscale>
<asrwt>0</asrwt>
<pdfrwt beam="1">  1        2 0.10495549E+00 0.53219702E+03</pdfrwt>
<pdfrwt beam="2">  1       -2 0.13768405E-01 0.53219702E+03</pdfrwt>
<totfact> 0.17142566E+03</totfact>
</mgrwt>
</event>
<event>
 4    1  0.5399378E-005  0.6527163E+03  0.7818608E-02  0.9801696E-01
          2   -1    0    0  501    0  0.00000000000E+00  0.00000000000E+00  0.22435730585E+03  0.22435730587E+03  0.25500000000E-02 0.  1.
         -2   -1    0    0    0  501 -0.00000000000E+00 -0.00000000000E+00 -0.47473221331E+03  0.47473221331E+03  0.25500000000E-02 0. -1.
    5000001    1    1    2    0    0 -0.11467348961E+03 -0.23810214647E+03 -0.22926099006E+03  0.38681810058E+03  0.16500000000E+03 0.  0.
   -5000001    1    1    2    0    0  0.11467348961E+03  0.23810214647E+03 -0.21113917394E+02  0.31227141861E+03  0.16500000000E+03 0.  0.
<mgrwt>
<rscale>  0 0.65271629E+03</rscale>
<asrwt>0</asrwt>
<pdfrwt beam="1">  1        2 0.32051044E-01 0.65271629E+03</pdfrwt>
<pdfrwt beam="2">  1       -2 0.67818887E-01 0.65271629E+03</pdfrwt>
<totfact> 0.33204184E+02</totfact>
</mgrwt>
</event>
<event>
 4    1  0.5399378E-005  0.6426045E+03  0.7818608E-02  0.9820756E-01
          2   -1    0    0  501    0  0.00000000000E+00  0.00000000000E+00  0.27362140075E+04  0.27362140075E+04  0.25500000000E-02 0.  1.
         -2   -1    0    0    0  501 -0.00000000000E+00 -0.00000000000E+00 -0.37729190465E+02  0.37729190552E+02  0.25500000000E-02 0. -1.
    5000001    1    1    2    0    0  0.21511534137E+03 -0.16181524983E+03  0.16064896936E+04  0.16372210971E+04  0.16500000000E+03 0.  0.
   -5000001    1    1    2    0    0 -0.21511534137E+03  0.16181524983E+03  0.10919951234E+04  0.11367221009E+04  0.16500000000E+03 0.  0.
<mgrwt>
<rscale>  0 0.64260451E+03</rscale>
<asrwt>0</asrwt>
<pdfrwt beam="1">  1        2 0.39088770E+00 0.64260451E+03</pdfrwt>
<pdfrwt beam="2">  1       -2 0.53898846E-02 0.64260451E+03</pdfrwt>
<totfact> 0.63489378E+02</totfact>
</mgrwt>
</event>
<event>
 4    1  0.5399378E-005  0.5329318E+03  0.7818608E-02  0.1005524E+00
         -2   -1    0    0    0  501 -0.00000000000E+00  0.00000000000E+00  0.45364653899E+02  0.45364653971E+02  0.25500000000E-02 0. -1.
          2   -1    0    0  501    0  0.00000000000E+00 -0.00000000000E+00 -0.15651847494E+04  0.15651847494E+04  0.25500000000E-02 0.  1.
    5000001    1    1    2    0    0 -0.23490031476E+02  0.16271018743E+03 -0.36875893591E+03  0.43615884662E+03  0.16500000000E+03 0.  0.
   -5000001    1    1    2    0    0  0.23490031476E+02 -0.16271018743E+03 -0.11510611596E+04  0.11743905568E+04  0.16500000000E+03 0.  0.
<mgrwt>
<rscale>  0 0.53293176E+03</rscale>
<asrwt>0</asrwt>
<pdfrwt beam="1">  1        2 0.22359779E+00 0.53293176E+03</pdfrwt>
<pdfrwt beam="2">  1       -2 0.64806658E-02 0.53293176E+03</pdfrwt>
<totfact> 0.18865619E+03</totfact>
</mgrwt>
</event>
<event>
 4    1  0.5399378E-005  0.5900641E+03  0.7818608E-02  0.9926237E-01
          2   -1    0    0  501    0  0.00000000000E+00  0.00000000000E+00  0.16655000852E+03  0.16655000854E+03  0.25500000000E-02 0.  1.
         -2   -1    0    0    0  501 -0.00000000000E+00 -0.00000000000E+00 -0.52262935746E+03  0.52262935747E+03  0.25500000000E-02 0. -1.
    5000001    1    1    2    0    0  0.16939105940E+03  0.17633330699E+03 -0.17141634842E+03  0.34116759908E+03  0.16500000000E+03 0.  0.
   -5000001    1    1    2    0    0 -0.16939105940E+03 -0.17633330699E+03 -0.18466300052E+03  0.34801176693E+03  0.16500000000E+03 0.  0.
<mgrwt>
<rscale>  0 0.59006415E+03</rscale>
<asrwt>0</asrwt>
<pdfrwt beam="1">  1        2 0.23792859E-01 0.59006415E+03</pdfrwt>
<pdfrwt beam="2">  1       -2 0.74661336E-01 0.59006415E+03</pdfrwt>
<totfact> 0.37792287E+02</totfact>
</mgrwt>
</event>
<event>
 4    1  0.5399378E-005  0.6180034E+03  0.7818608E-02  0.9868743E-01
          2   -1    0    0  501    0  0.00000000000E+00  0.00000000000E+00  0.63115663701E+03  0.63115663702E+03  0.25500000000E-02 0.  1.
         -2   -1    0    0    0  501 -0.00000000000E+00 -0.00000000000E+00 -0.15128106628E+03  0.15128106630E+03  0.25500000000E-02 0. -1.
    5000001    1    1    2    0    0 -0.23281989892E+03  0.10371159053E+03  0.31262241943E+03  0.43579694408E+03  0.16500000000E+03 0.  0.
   -5000001    1    1    2    0    0  0.23281989892E+03 -0.10371159053E+03  0.16725315130E+03  0.34664075923E+03  0.16500000000E+03 0.  0.
<mgrwt>
<rscale>  0 0.61800339E+03</rscale>
<asrwt>0</asrwt>
<pdfrwt beam="1">  1        2 0.90165234E-01 0.61800339E+03</pdfrwt>
<pdfrwt beam="2">  1       -2 0.21611581E-01 0.61800339E+03</pdfrwt>
<totfact> 0.95274980E+02</totfact>
</mgrwt>
</event>
<event>
 4    1  0.5399378E-005  0.6070853E+03  0.7818608E-02  0.9890814E-01
          2   -1    0    0  501    0  0.00000000000E+00  0.00000000000E+00  0.18083268604E+04  0.18083268604E+04  0.25500000000E-02 0.  1.
         -2   -1    0    0    0  501 -0.00000000000E+00 -0.00000000000E+00 -0.50952150376E+02  0.50952150439E+02  0.25500000000E-02 0. -1.
    5000001    1    1    2    0    0 -0.53189411379E+02  0.22912087097E+03  0.57880490623E+03  0.64619316499E+03  0.16500000000E+03 0.  0.
   -5000001    1    1    2    0    0  0.53189411379E+02 -0.22912087097E+03  0.11785698038E+04  0.12130858459E+04  0.16500000000E+03 0.  0.
<mgrwt>
<rscale>  0 0.60708531E+03</rscale>
<asrwt>0</asrwt>
<pdfrwt beam="1">  1        2 0.25833240E+00 0.60708531E+03</pdfrwt>
<pdfrwt beam="2">  1       -2 0.72788789E-02 0.60708531E+03</pdfrwt>
<totfact> 0.11781480E+03</totfact>
</mgrwt>
</event>
<event>
 4    1  0.5399378E-005  0.8440120E+03  0.7818608E-02  0.9498409E-01
          2   -1    0    0  501    0  0.00000000000E+00  0.00000000000E+00  0.97665144696E+03  0.97665144696E+03  0.25500000000E-02 0.  1.
         -2   -1    0    0    0  501 -0.00000000000E+00 -0.00000000000E+00 -0.18234661409E+03  0.18234661411E+03  0.25500000000E-02 0. -1.
    5000001    1    1    2    0    0 -0.11490458243E+03  0.26056011218E+03  0.75986841427E+03  0.82808190545E+03  0.16500000000E+03 0.  0.
   -5000001    1    1    2    0    0  0.11490458243E+03 -0.26056011218E+03  0.34436418596E+02  0.33091615562E+03  0.16500000000E+03 0.  0.
<mgrwt>
<rscale>  0 0.84401205E+03</rscale>
<asrwt>0</asrwt>
<pdfrwt beam="1">  1        2 0.13952164E+00 0.84401205E+03</pdfrwt>
<pdfrwt beam="2">  1       -2 0.26049516E-01 0.84401205E+03</pdfrwt>
<totfact> 0.38682868E+02</totfact>
</mgrwt>
</event>
<event>
 4    1  0.5399378E-005  0.3924349E+03  0.7818608E-02  0.1046431E+00
          2   -1    0    0  501    0  0.00000000000E+00  0.00000000000E+00  0.14870927613E+04  0.14870927613E+04  0.25500000000E-02 0.  1.
         -2   -1    0    0    0  501 -0.00000000000E+00 -0.00000000000E+00 -0.25890306020E+02  0.25890306146E+02  0.25500000000E-02 0. -1.
    5000001    1    1    2    0    0 -0.13022952725E+02  0.99769589833E+02  0.59970471829E+03  0.63007485071E+03  0.16500000000E+03 0.  0.
   -5000001    1    1    2    0    0  0.13022952725E+02 -0.99769589833E+02  0.86149773700E+03  0.88290821676E+03  0.16500000000E+03 0.  0.
<mgrwt>
<rscale>  0 0.39243490E+03</rscale>
<asrwt>0</asrwt>
<pdfrwt beam="1">  1        2 0.21244185E+00 0.39243490E+03</pdfrwt>
<pdfrwt beam="2">  1       -2 0.36986147E-02 0.39243490E+03</pdfrwt>
<totfact> 0.49168919E+03</totfact>
</mgrwt>
</event>
<event>
 4    1  0.5399378E-005  0.7616243E+03  0.7818608E-02  0.9617288E-01
          2   -1    0    0  501    0  0.00000000000E+00  0.00000000000E+00  0.23806639872E+04  0.23806639872E+04  0.25500000000E-02 0.  1.
         -2   -1    0    0    0  501 -0.00000000000E+00 -0.00000000000E+00 -0.60914889736E+02  0.60914889789E+02  0.25500000000E-02 0. -1.
    5000001    1    1    2    0    0 -0.60379669126E+02 -0.30180596500E+03  0.16466882898E+04  0.16833121721E+04  0.16500000000E+03 0.  0.
   -5000001    1    1    2    0    0  0.60379669126E+02  0.30180596500E+03  0.67306080773E+03  0.75826670496E+03  0.16500000000E+03 0.  0.
<mgrwt>
<rscale>  0 0.76162428E+03</rscale>
<asrwt>0</asrwt>
<pdfrwt beam="1">  1        2 0.34009488E+00 0.76162428E+03</pdfrwt>
<pdfrwt beam="2">  1       -2 0.87021264E-02 0.76162428E+03</pdfrwt>
<totfact> 0.45029813E+02</totfact>
</mgrwt>
</event>
<event>
 4    1  0.5399378E-005  0.6924849E+03  0.7818608E-02  0.9730171E-01
         -2   -1    0    0    0  501 -0.00000000000E+00  0.00000000000E+00  0.20760955107E+03  0.20760955108E+03  0.25500000000E-02 0. -1.
          2   -1    0    0  501    0  0.00000000000E+00 -0.00000000000E+00 -0.57744862604E+03  0.57744862605E+03  0.25500000000E-02 0.  1.
    5000001    1    1    2    0    0 -0.99635268815E+02  0.27400811822E+03 -0.28408414344E+03  0.43924530299E+03  0.16500000000E+03 0.  0.
   -5000001    1    1    2    0    0  0.99635268815E+02 -0.27400811822E+03 -0.85754931536E+02  0.34581287415E+03  0.16500000000E+03 0.  0.
<mgrwt>
<rscale>  0 0.69248495E+03</rscale>
<asrwt>0</asrwt>
<pdfrwt beam="1">  1        2 0.82492660E-01 0.69248495E+03</pdfrwt>
<pdfrwt beam="2">  1       -2 0.29658507E-01 0.69248495E+03</pdfrwt>
<totfact> 0.59721973E+02</totfact>
</mgrwt>
</event>
<event>
 4    1  0.5399378E-005  0.6063396E+03  0.7818608E-02  0.9892340E-01
          2   -1    0    0  501    0  0.00000000000E+00  0.00000000000E+00  0.15417541002E+04  0.15417541002E+04  0.25500000000E-02 0.  1.
         -2   -1    0    0    0  501 -0.00000000000E+00 -0.00000000000E+00 -0.59615172289E+02  0.59615172343E+02  0.25500000000E-02 0. -1.
    5000001    1    1    2    0    0 -0.19245482204E+03  0.89726844574E+02  0.11107888564E+04  0.11428764800E+04  0.16500000000E+03 0.  0.
   -5000001    1    1    2    0    0  0.19245482204E+03 -0.89726844574E+02  0.37135007157E+03  0.45849279254E+03  0.16500000000E+03 0.  0.
<mgrwt>
<rscale>  0 0.60633963E+03</rscale>
<asrwt>0</asrwt>
<pdfrwt beam="1">  1        2 0.22025061E+00 0.60633963E+03</pdfrwt>
<pdfrwt beam="2">  1       -2 0.85164523E-02 0.60633963E+03</pdfrwt>
<totfact> 0.12551487E+03</totfact>
</mgrwt>
</event>
<event>
 4    1  0.5399378E-005  0.4433146E+03  0.7818608E-02  0.1029735E+00
          2   -1    0    0  501    0  0.00000000000E+00  0.00000000000E+00  0.51190212843E+03  0.51190212844E+03  0.25500000000E-02 0.  1.
         -2   -1    0    0    0  501 -0.00000000000E+00 -0.00000000000E+00 -0.95979184082E+02  0.95979184116E+02  0.25500000000E-02 0. -1.
    5000001    1    1    2    0    0 -0.81151070311E+02 -0.10325261166E+03  0.11435279729E+03  0.23989197626E+03  0.16500000000E+03 0.  0.
   -5000001    1    1    2    0    0  0.81151070311E+02  0.10325261166E+03  0.30157014706E+03  0.36798933629E+03  0.16500000000E+03 0.  0.
<mgrwt>
<rscale>  0 0.44331455E+03</rscale>
<asrwt>0</asrwt>
<pdfrwt beam="1">  1        2 0.73128875E-01 0.44331455E+03</pdfrwt>
<pdfrwt beam="2">  1       -2 0.13711312E-01 0.44331455E+03</pdfrwt>
<totfact> 0.26384327E+03</totfact>
</mgrwt>
</event>
<event>
 4    1  0.5399378E-005  0.6178885E+03  0.7818608E-02  0.9868973E-01
         -2   -1    0    0    0  501 -0.00000000000E+00  0.00000000000E+00  0.47644847778E+02  0.47644847846E+02  0.25500000000E-02 0. -1.
          2   -1    0    0  501    0  0.00000000000E+00 -0.00000000000E+00 -0.20032924390E+04  0.20032924390E+04  0.25500000000E-02 0.  1.
    5000001    1    1    2    0    0 -0.15895140009E+03 -0.10479358639E+03 -0.38429349394E+03  0.45951467096E+03  0.16500000000E+03 0.  0.
   -5000001    1    1    2    0    0  0.15895140009E+03  0.10479358639E+03 -0.15713540973E+04  0.15914226159E+04  0.16500000000E+03 0.  0.
<mgrwt>
<rscale>  0 0.61788854E+03</rscale>
<asrwt>0</asrwt>
<pdfrwt beam="1">  1        2 0.28618458E+00 0.61788854E+03</pdfrwt>
<pdfrwt beam="2">  1       -2 0.68064081E-02 0.61788854E+03</pdfrwt>
<totfact> 0.10444830E+03</totfact>
</mgrwt>
</event>
<event>
 4    1  0.5399378E-005  0.4656041E+03  0.7818608E-02  0.1023168E+00
          2   -1    0    0  501    0  0.00000000000E+00  0.00000000000E+00  0.26885674016E+03  0.26885674017E+03  0.25500000000E-02 0.  1.
         -2   -1    0    0    0  501 -0.00000000000E+00 -0.00000000000E+00 -0.20158244761E+03  0.20158244763E+03  0.25500000000E-02 0. -1.
    5000001    1    1    2    0    0 -0.59409190444E+02  0.58147186191E+02 -0.10947144194E+03  0.21475461292E+03  0.16500000000E+03 0.  0.
   -5000001    1    1    2    0    0  0.59409190444E+02 -0.58147186191E+02  0.17674573448E+03  0.25568457488E+03  0.16500000000E+03 0.  0.
<mgrwt>
<rscale>  0 0.46560412E+03</rscale>
<asrwt>0</asrwt>
<pdfrwt beam="1">  1        2 0.38408106E-01 0.46560412E+03</pdfrwt>
<pdfrwt beam="2">  1       -2 0.28797493E-01 0.46560412E+03</pdfrwt>
<totfact> 0.14843103E+03</totfact>
</mgrwt>
</event>
<event>
 4    1  0.5399378E-005  0.7439234E+03  0.7818608E-02  0.9644932E-01
          2   -1    0    0  501    0  0.00000000000E+00  0.00000000000E+00  0.11832800637E+04  0.11832800637E+04  0.25500000000E-02 0.  1.
         -2   -1    0    0    0  501 -0.00000000000E+00 -0.00000000000E+00 -0.11692539650E+03  0.11692539653E+03  0.25500000000E-02 0. -1.
    5000001    1    1    2    0    0 -0.10240281413E+03 -0.20465179756E+03  0.10950381341E+03  0.30262977338E+03  0.16500000000E+03 0.  0.
   -5000001    1    1    2    0    0  0.10240281413E+03  0.20465179756E+03  0.95685085384E+03  0.99757568689E+03  0.16500000000E+03 0.  0.
<mgrwt>
<rscale>  0 0.74392336E+03</rscale>
<asrwt>0</asrwt>
<pdfrwt beam="1">  1        2 0.16904001E+00 0.74392336E+03</pdfrwt>
<pdfrwt beam="2">  1       -2 0.16703628E-01 0.74392336E+03</pdfrwt>
<totfact> 0.64054327E+02</totfact>
</mgrwt>
</event>
<event>
 4    1  0.5399378E-005  0.5906199E+03  0.7818608E-02  0.9925060E-01
          2   -1    0    0  501    0  0.00000000000E+00  0.00000000000E+00  0.14473101633E+04  0.14473101633E+04  0.25500000000E-02 0.  1.
         -2   -1    0    0    0  501 -0.00000000000E+00 -0.00000000000E+00 -0.60255212020E+02  0.60255212074E+02  0.25500000000E-02 0. -1.
    5000001    1    1    2    0    0  0.17570796402E+03  0.10007854036E+03  0.34081871141E+03  0.42926844388E+03  0.16500000000E+03 0.  0.
   -5000001    1    1    2    0    0 -0.17570796402E+03 -0.10007854036E+03  0.10462362399E+04  0.10782969315E+04  0.16500000000E+03 0.  0.
<mgrwt>
<rscale>  0 0.59061995E+03</rscale>
<asrwt>0</asrwt>
<pdfrwt beam="1">  1        2 0.20675862E+00 0.59061995E+03</pdfrwt>
<pdfrwt beam="2">  1       -2 0.86078863E-02 0.59061995E+03</pdfrwt>
<totfact> 0.13829018E+03</totfact>
</mgrwt>
</event>
<event>
 4    1  0.5399378E-005  0.4599519E+03  0.7818608E-02  0.1024795E+00
          2   -1    0    0  501    0  0.00000000000E+00  0.00000000000E+00  0.13727056698E+04  0.13727056698E+04  0.25500000000E-02 0.  1.
         -2   -1    0    0    0  501 -0.00000000000E+00 -0.00000000000E+00 -0.38528973230E+02  0.38528973314E+02  0.25500000000E-02 0. -1.
    5000001    1    1    2    0    0  0.19061725920E+02 -0.80482596242E+02  0.24613606922E+03  0.30765038967E+03  0.16500000000E+03 0.  0.
   -5000001    1    1    2    0    0 -0.19061725920E+02  0.80482596242E+02  0.10880406274E+04  0.11035842535E+04  0.16500000000E+03 0.  0.
<mgrwt>
<rscale>  0 0.45995191E+03</rscale>
<asrwt>0</asrwt>
<pdfrwt beam="1">  1        2 0.19610075E+00 0.45995191E+03</pdfrwt>
<pdfrwt beam="2">  1       -2 0.55041408E-02 0.45995191E+03</pdfrwt>
<totfact> 0.30690537E+03</totfact>
</mgrwt>
</event>
<event>
 4    1  0.5399378E-005  0.7439476E+03  0.7818608E-02  0.9644894E-01
          2   -1    0    0  501    0  0.00000000000E+00  0.00000000000E+00  0.95186957369E+03  0.95186957369E+03  0.25500000000E-02 0.  1.
         -2   -1    0    0    0  501 -0.00000000000E+00 -0.00000000000E+00 -0.14536079728E+03  0.14536079730E+03  0.25500000000E-02 0. -1.
    5000001    1    1    2    0    0 -0.18314261064E+03 -0.27835945814E+03  0.38748518713E+03  0.53702418383E+03  0.16500000000E+03 0.  0.
   -5000001    1    1    2    0    0  0.18314261064E+03  0.27835945814E+03  0.41902358927E+03  0.56020618716E+03  0.16500000000E+03 0.  0.
<mgrwt>
<rscale>  0 0.74394763E+03</rscale>
<asrwt>0</asrwt>
<pdfrwt beam="1">  1        2 0.13598136E+00 0.74394763E+03</pdfrwt>
<pdfrwt beam="2">  1       -2 0.20765829E-01 0.74394763E+03</pdfrwt>
<totfact> 0.60339057E+02</totfact>
</mgrwt>
</event>
<event>
 4    1  0.5399378E-005  0.4779334E+03  0.7818608E-02  0.1019705E+00
         -2   -1    0    0    0  501 -0.00000000000E+00  0.00000000000E+00  0.93906331413E+02  0.93906331448E+02  0.25500000000E-02 0. -1.
          2   -1    0    0  501    0  0.00000000000E+00 -0.00000000000E+00 -0.60810673957E+03  0.60810673957E+03  0.25500000000E-02 0.  1.
    5000001    1    1    2    0    0 -0.13628118095E+03  0.94184224694E+02 -0.32960918008E+03  0.40411686436E+03  0.16500000000E+03 0.  0.
   -5000001    1    1    2    0    0  0.13628118095E+03 -0.94184224694E+02 -0.18459122807E+03  0.29789620667E+03  0.16500000000E+03 0.  0.
<mgrwt>
<rscale>  0 0.47793336E+03</rscale>
<asrwt>0</asrwt>
<pdfrwt beam="1">  1        2 0.86872389E-01 0.47793336E+03</pdfrwt>
<pdfrwt beam="2">  1       -2 0.13415191E-01 0.47793336E+03</pdfrwt>
<totfact> 0.22458661E+03</totfact>
</mgrwt>
</event>
<event>
 4    1  0.5399378E-005  0.5030521E+03  0.7818608E-02  0.1012985E+00
         -2   -1    0    0    0  501 -0.00000000000E+00  0.00000000000E+00  0.72081197122E+02  0.72081197167E+02  0.25500000000E-02 0. -1.
          2   -1    0    0  501    0  0.00000000000E+00 -0.00000000000E+00 -0.87769560200E+03  0.87769560200E+03  0.25500000000E-02 0.  1.
    5000001    1    1    2    0    0  0.16513501757E+03  0.90121829955E+02 -0.45089939253E+03  0.51568089013E+03  0.16500000000E+03 0.  0.
   -5000001    1    1    2    0    0 -0.16513501757E+03 -0.90121829955E+02 -0.35471501234E+03  0.43409590904E+03  0.16500000000E+03 0.  0.
<mgrwt>
<rscale>  0 0.50305208E+03</rscale>
<asrwt>0</asrwt>
<pdfrwt beam="1">  1        2 0.12538508E+00 0.50305208E+03</pdfrwt>
<pdfrwt beam="2">  1       -2 0.10297314E-01 0.50305208E+03</pdfrwt>
<totfact> 0.22011041E+03</totfact>
</mgrwt>
</event>
<event>
 4    1  0.5399378E-005  0.3716184E+03  0.7818608E-02  0.1054076E+00
          2   -1    0    0  501    0  0.00000000000E+00  0.00000000000E+00  0.21392707514E+04  0.21392707514E+04  0.25500000000E-02 0. -1.
         -2   -1    0    0    0  501 -0.00000000000E+00 -0.00000000000E+00 -0.16138707992E+02  0.16138708193E+02  0.25500000000E-02 0.  1.
    5000001    1    1    2    0    0 -0.83523370672E+02  0.17987105426E+02  0.10651262378E+04  0.10812116314E+04  0.16500000000E+03 0.  0.
   -5000001    1    1    2    0    0  0.83523370672E+02 -0.17987105426E+02  0.10580058056E+04  0.10741978282E+04  0.16500000000E+03 0.  0.
<mgrwt>
<rscale>  0 0.37161844E+03</rscale>
<asrwt>0</asrwt>
<pdfrwt beam="1">  1        2 0.30561027E+00 0.37161844E+03</pdfrwt>
<pdfrwt beam="2">  1       -2 0.23055285E-02 0.37161844E+03</pdfrwt>
<totfact> 0.47285880E+03</totfact>
</mgrwt>
</event>
<event>
 4    1  0.5399378E-005  0.5577562E+03  0.7818608E-02  0.9997145E-01
          2   -1    0    0  501    0  0.00000000000E+00  0.00000000000E+00  0.49315255909E+03  0.49315255910E+03  0.25500000000E-02 0.  1.
         -2   -1    0    0    0  501 -0.00000000000E+00 -0.00000000000E+00 -0.15770574723E+03  0.15770574725E+03  0.25500000000E-02 0. -1.
    5000001    1    1    2    0    0  0.75020675210E+02 -0.14848245848E+03 -0.87593176453E+01  0.23447146485E+03  0.16500000000E+03 0.  0.
   -5000001    1    1    2    0    0 -0.75020675210E+02  0.14848245848E+03  0.34420612951E+03  0.41638684150E+03  0.16500000000E+03 0.  0.
<mgrwt>
<rscale>  0 0.55775619E+03</rscale>
<asrwt>0</asrwt>
<pdfrwt beam="1">  1        2 0.70450366E-01 0.55775619E+03</pdfrwt>
<pdfrwt beam="2">  1       -2 0.22529392E-01 0.55775619E+03</pdfrwt>
<totfact> 0.11794486E+03</totfact>
</mgrwt>
</event>
<event>
 4    1  0.5399378E-005  0.4547126E+03  0.7818608E-02  0.1026326E+00
          2   -1    0    0  501    0  0.00000000000E+00  0.00000000000E+00  0.21047484694E+04  0.21047484694E+04  0.25500000000E-02 0.  1.
         -2   -1    0    0    0  501 -0.00000000000E+00 -0.00000000000E+00 -0.24559175376E+02  0.24559175509E+02  0.25500000000E-02 0. -1.
    5000001    1    1    2    0    0 -0.88779108989E+02 -0.14632431001E+02  0.44095727333E+03  0.47933720400E+03  0.16500000000E+03 0.  0.
   -5000001    1    1    2    0    0  0.88779108989E+02  0.14632431001E+02  0.16392320207E+04  0.16499704409E+04  0.16500000000E+03 0.  0.
<mgrwt>
<rscale>  0 0.45471260E+03</rscale>
<asrwt>0</asrwt>
<pdfrwt beam="1">  1        2 0.30067839E+00 0.45471260E+03</pdfrwt>
<pdfrwt beam="2">  1       -2 0.35084532E-02 0.45471260E+03</pdfrwt>
<totfact> 0.26101280E+03</totfact>
</mgrwt>
</event>
<event>
 4    1  0.5399378E-005  0.5579595E+03  0.7818608E-02  0.9996682E-01
         -2   -1    0    0    0  501 -0.00000000000E+00  0.00000000000E+00  0.88665560176E+02  0.88665560213E+02  0.25500000000E-02 0. -1.
          2   -1    0    0  501    0  0.00000000000E+00 -0.00000000000E+00 -0.87778964326E+03  0.87778964327E+03  0.25500000000E-02 0.  1.
    5000001    1    1    2    0    0  0.19096628631E+02 -0.22340941439E+03 -0.42594470916E+03  0.50885198528E+03  0.16500000000E+03 0.  0.
   -5000001    1    1    2    0    0 -0.19096628631E+02  0.22340941439E+03 -0.36317937392E+03  0.45760321820E+03  0.16500000000E+03 0.  0.
<mgrwt>
<rscale>  0 0.55795953E+03</rscale>
<asrwt>0</asrwt>
<pdfrwt beam="1">  1        2 0.12539852E+00 0.55795953E+03</pdfrwt>
<pdfrwt beam="2">  1       -2 0.12666509E-01 0.55795953E+03</pdfrwt>
<totfact> 0.15683424E+03</totfact>
</mgrwt>
</event>
<event>
 4    1  0.5399378E-005  0.1909215E+04  0.7818608E-02  0.8650283E-01
         -2   -1    0    0    0  501 -0.00000000000E+00  0.00000000000E+00  0.14492227560E+04  0.14492227560E+04  0.25500000000E-02 0. -1.
          2   -1    0    0  501    0  0.00000000000E+00 -0.00000000000E+00 -0.62880315860E+03  0.62880315860E+03  0.25500000000E-02 0.  1.
    5000001    1    1    2    0    0  0.12258115432E+03  0.71009939295E+03  0.10675855227E+04  0.12985496276E+04  0.16500000000E+03 0.  0.
   -5000001    1    1    2    0    0 -0.12258115432E+03 -0.71009939295E+03 -0.24716592529E+03  0.77947628693E+03  0.16500000000E+03 0.  0.
<mgrwt>
<rscale>  0 0.19092154E+04</rscale>
<asrwt>0</asrwt>
<pdfrwt beam="1">  1        2 0.89829023E-01 0.19092154E+04</pdfrwt>
<pdfrwt beam="2">  1       -2 0.20703182E+00 0.19092154E+04</pdfrwt>
<totfact> 0.57605616E+00</totfact>
</mgrwt>
</event>
<event>
 4    1  0.5399378E-005  0.5107604E+03  0.7818608E-02  0.1011008E+00
          2   -1    0    0  501    0  0.00000000000E+00  0.00000000000E+00  0.38294305182E+03  0.38294305183E+03  0.25500000000E-02 0. -1.
         -2   -1    0    0    0  501 -0.00000000000E+00 -0.00000000000E+00 -0.17031004835E+03  0.17031004837E+03  0.25500000000E-02 0.  1.
    5000001    1    1    2    0    0  0.13921809412E+03 -0.25299856156E+02  0.25153044771E+03  0.33243695128E+03  0.16500000000E+03 0.  0.
   -5000001    1    1    2    0    0 -0.13921809412E+03  0.25299856156E+02 -0.38897444241E+02  0.22081614891E+03  0.16500000000E+03 0.  0.
<mgrwt>
<rscale>  0 0.51076041E+03</rscale>
<asrwt>0</asrwt>
<pdfrwt beam="1">  1        2 0.54706151E-01 0.51076041E+03</pdfrwt>
<pdfrwt beam="2">  1       -2 0.24330007E-01 0.51076041E+03</pdfrwt>
<totfact> 0.13646471E+03</totfact>
</mgrwt>
</event>
<event>
 4    1  0.5399378E-005  0.3555493E+03  0.7818608E-02  0.1060360E+00
         -2   -1    0    0    0  501 -0.00000000000E+00  0.00000000000E+00  0.12210438117E+02  0.12210438384E+02  0.25500000000E-02 0. -1.
          2   -1    0    0  501    0  0.00000000000E+00 -0.00000000000E+00 -0.25882626575E+04  0.25882626575E+04  0.25500000000E-02 0.  1.
    5000001    1    1    2    0    0 -0.42023267447E+02 -0.33332389749E+02 -0.10045860415E+04  0.10194582473E+04  0.16500000000E+03 0.  0.
   -5000001    1    1    2    0    0  0.42023267447E+02  0.33332389749E+02 -0.15714661778E+04  0.15810148485E+04  0.16500000000E+03 0.  0.
<mgrwt>
<rscale>  0 0.35554927E+03</rscale>
<asrwt>0</asrwt>
<pdfrwt beam="1">  1        2 0.36975146E+00 0.35554927E+03</pdfrwt>
<pdfrwt beam="2">  1       -2 0.17443500E-02 0.35554927E+03</pdfrwt>
<totfact> 0.42687016E+03</totfact>
</mgrwt>
</event>
<event>
 4    1  0.5399378E-005  0.6726554E+03  0.7818608E-02  0.9765173E-01
          2   -1    0    0  501    0  0.00000000000E+00  0.00000000000E+00  0.33420292813E+04  0.33420292813E+04  0.25500000000E-02 0.  1.
         -2   -1    0    0    0  501 -0.00000000000E+00 -0.00000000000E+00 -0.33846597515E+02  0.33846597611E+02  0.25500000000E-02 0. -1.
    5000001    1    1    2    0    0 -0.31875408155E+02 -0.16404732954E+03  0.28623838595E+04  0.28720017282E+04  0.16500000000E+03 0.  0.
   -5000001    1    1    2    0    0  0.31875408155E+02  0.16404732954E+03  0.44579882434E+03  0.50387415071E+03  0.16500000000E+03 0.  0.
<mgrwt>
<rscale>  0 0.67265540E+03</rscale>
<asrwt>0</asrwt>
<pdfrwt beam="1">  1        2 0.47743271E+00 0.67265540E+03</pdfrwt>
<pdfrwt beam="2">  1       -2 0.48352287E-02 0.67265540E+03</pdfrwt>
<totfact> 0.34809414E+02</totfact>
</mgrwt>
</event>
<event>
 4    1  0.5399378E-005  0.4739963E+03  0.7818608E-02  0.1020798E+00
         -2   -1    0    0    0  501 -0.00000000000E+00  0.00000000000E+00  0.48990287270E+03  0.48990287271E+03  0.25500000000E-02 0. -1.
          2   -1    0    0  501    0  0.00000000000E+00 -0.00000000000E+00 -0.11465155557E+03  0.11465155560E+03  0.25500000000E-02 0.  1.
    5000001    1    1    2    0    0  0.42120058571E+02  0.15096744665E+03  0.10323561015E+03  0.24989569921E+03  0.16500000000E+03 0.  0.
   -5000001    1    1    2    0    0 -0.42120058571E+02 -0.15096744665E+03  0.27201570698E+03  0.35465872910E+03  0.16500000000E+03 0.  0.
<mgrwt>
<rscale>  0 0.47399631E+03</rscale>
<asrwt>0</asrwt>
<pdfrwt beam="1">  1        2 0.16378794E-01 0.47399631E+03</pdfrwt>
<pdfrwt beam="2">  1       -2 0.69986124E-01 0.47399631E+03</pdfrwt>
<totfact> 0.67445692E+02</totfact>
</mgrwt>
</event>
<event>
 4    1  0.5399378E-005  0.6234443E+03  0.7818608E-02  0.9857926E-01
          2   -1    0    0  501    0  0.00000000000E+00  0.00000000000E+00  0.13569427752E+04  0.13569427752E+04  0.25500000000E-02 0.  1.
         -2   -1    0    0    0  501 -0.00000000000E+00 -0.00000000000E+00 -0.71610027590E+02  0.71610027636E+02  0.25500000000E-02 0. -1.
    5000001    1    1    2    0    0  0.23814922895E+02 -0.18892957415E+03  0.22212224642E+03  0.33589407095E+03  0.16500000000E+03 0.  0.
   -5000001    1    1    2    0    0 -0.23814922895E+02  0.18892957415E+03  0.10632105012E+04  0.10926587319E+04  0.16500000000E+03 0.  0.
<mgrwt>
<rscale>  0 0.62344433E+03</rscale>
<asrwt>0</asrwt>
<pdfrwt beam="1">  1        2 0.19384895E+00 0.62344433E+03</pdfrwt>
<pdfrwt beam="2">  1       -2 0.10230005E-01 0.62344433E+03</pdfrwt>
<totfact> 0.11677448E+03</totfact>
</mgrwt>
</event>
<event>
 4    1  0.5399378E-005  0.6716077E+03  0.7818608E-02  0.9767058E-01
         -2   -1    0    0    0  501 -0.00000000000E+00  0.00000000000E+00  0.27822555372E+03  0.27822555373E+03  0.25500000000E-02 0. -1.
          2   -1    0    0  501    0  0.00000000000E+00 -0.00000000000E+00 -0.40529787377E+03  0.40529787378E+03  0.25500000000E-02 0.  1.
    5000001    1    1    2    0    0  0.20303462640E+03  0.18863714924E+03  0.31567968563E+02  0.32408111675E+03  0.16500000000E+03 0.  0.
   -5000001    1    1    2    0    0 -0.20303462640E+03 -0.18863714924E+03 -0.15864028861E+03  0.35944231076E+03  0.16500000000E+03 0.  0.
<mgrwt>
<rscale>  0 0.67160770E+03</rscale>
<asrwt>0</asrwt>
<pdfrwt beam="1">  1        2 0.57899696E-01 0.67160770E+03</pdfrwt>
<pdfrwt beam="2">  1       -2 0.39746508E-01 0.67160770E+03</pdfrwt>
<totfact> 0.51366110E+02</totfact>
</mgrwt>
</event>
<event>
 4    1  0.5399378E-005  0.3912861E+03  0.7818608E-02  0.1046839E+00
          2   -1    0    0  501    0  0.00000000000E+00  0.00000000000E+00  0.25082262382E+03  0.25082262383E+03  0.25500000000E-02 0.  1.
         -2   -1    0    0    0  501 -0.00000000000E+00 -0.00000000000E+00 -0.15260269373E+03  0.15260269376E+03  0.25500000000E-02 0. -1.
    5000001    1    1    2    0    0  0.79024125135E+02 -0.54078070891E+02  0.43825645724E+01  0.19082310389E+03  0.16500000000E+03 0.  0.
   -5000001    1    1    2    0    0 -0.79024125135E+02  0.54078070891E+02  0.93837365516E+02  0.21260221370E+03  0.16500000000E+03 0.  0.
<mgrwt>
<rscale>  0 0.39128613E+03</rscale>
<asrwt>0</asrwt>
<pdfrwt beam="1">  1        2 0.35831803E-01 0.39128613E+03</pdfrwt>
<pdfrwt beam="2">  1       -2 0.21800385E-01 0.39128613E+03</pdfrwt>
<totfact> 0.26266820E+03</totfact>
</mgrwt>
</event>
<event>
 4    1  0.5399378E-005  0.4305453E+03  0.7818608E-02  0.1033688E+00
         -2   -1    0    0    0  501 -0.00000000000E+00  0.00000000000E+00  0.70416175976E+02  0.70416176022E+02  0.25500000000E-02 0. -1.
          2   -1    0    0  501    0  0.00000000000E+00 -0.00000000000E+00 -0.65812042624E+03  0.65812042624E+03  0.25500000000E-02 0.  1.
    5000001    1    1    2    0    0  0.13562995543E+03 -0.15162562843E+02 -0.25632142881E+03  0.33399260919E+03  0.16500000000E+03 0.  0.
   -5000001    1    1    2    0    0 -0.13562995543E+03  0.15162562843E+02 -0.33138282145E+03  0.39454399308E+03  0.16500000000E+03 0.  0.
<mgrwt>
<rscale>  0 0.43054535E+03</rscale>
<asrwt>0</asrwt>
<pdfrwt beam="1">  1        2 0.94017200E-01 0.43054535E+03</pdfrwt>
<pdfrwt beam="2">  1       -2 0.10059454E-01 0.43054535E+03</pdfrwt>
<totfact> 0.32690289E+03</totfact>
</mgrwt>
</event>
<event>
 4    1  0.5399378E-005  0.7597603E+03  0.7818608E-02  0.9620161E-01
          2   -1    0    0  501    0  0.00000000000E+00  0.00000000000E+00  0.26282524176E+03  0.26282524178E+03  0.25500000000E-02 0.  1.
         -2   -1    0    0    0  501 -0.00000000000E+00 -0.00000000000E+00 -0.54906800620E+03  0.54906800621E+03  0.25500000000E-02 0. -1.
    5000001    1    1    2    0    0 -0.24255339947E+03  0.21603294044E+01  0.11478348023E+03  0.31501915172E+03  0.16500000000E+03 0.  0.
   -5000001    1    1    2    0    0  0.24255339947E+03 -0.21603294044E+01 -0.40102624467E+03  0.49687409626E+03  0.16500000000E+03 0.  0.
<mgrwt>
<rscale>  0 0.75976031E+03</rscale>
<asrwt>0</asrwt>
<pdfrwt beam="1">  1        2 0.37546463E-01 0.75976031E+03</pdfrwt>
<pdfrwt beam="2">  1       -2 0.78438286E-01 0.75976031E+03</pdfrwt>
<totfact> 0.20141572E+02</totfact>
</mgrwt>
</event>
<event>
 4    1  0.5399378E-005  0.6233206E+03  0.7818608E-02  0.9858171E-01
         -2   -1    0    0    0  501 -0.00000000000E+00  0.00000000000E+00  0.89528383521E+02  0.89528383558E+02  0.25500000000E-02 0. -1.
          2   -1    0    0  501    0  0.00000000000E+00 -0.00000000000E+00 -0.10849312808E+04  0.10849312808E+04  0.25500000000E-02 0.  1.
    5000001    1    1    2    0    0  0.63247274323E+02  0.18823686623E+03 -0.82662122693E+03  0.86600288010E+03  0.16500000000E+03 0.  0.
   -5000001    1    1    2    0    0 -0.63247274323E+02 -0.18823686623E+03 -0.16878167036E+03  0.30845678428E+03  0.16500000000E+03 0.  0.
<mgrwt>
<rscale>  0 0.62332060E+03</rscale>
<asrwt>0</asrwt>
<pdfrwt beam="1">  1        2 0.15499018E+00 0.62332060E+03</pdfrwt>
<pdfrwt beam="2">  1       -2 0.12789770E-01 0.62332060E+03</pdfrwt>
<totfact> 0.11487273E+03</totfact>
</mgrwt>
</event>
<event>
 4    1  0.5399378E-005  0.4835846E+03  0.7818608E-02  0.1018155E+00
          2   -1    0    0  501    0  0.00000000000E+00  0.00000000000E+00  0.20056896037E+04  0.20056896037E+04  0.25500000000E-02 0.  1.
         -2   -1    0    0    0  501 -0.00000000000E+00 -0.00000000000E+00 -0.29148839299E+02  0.29148839411E+02  0.25500000000E-02 0. -1.
    5000001    1    1    2    0    0  0.17345557406E+03 -0.29996334060E+02  0.10550552813E+04  0.10822907478E+04  0.16500000000E+03 0.  0.
   -5000001    1    1    2    0    0 -0.17345557406E+03  0.29996334060E+02  0.92148548305E+03  0.95254769524E+03  0.16500000000E+03 0.  0.
<mgrwt>
<rscale>  0 0.48358463E+03</rscale>
<asrwt>0</asrwt>
<pdfrwt beam="1">  1        2 0.28652708E+00 0.48358463E+03</pdfrwt>
<pdfrwt beam="2">  1       -2 0.41641200E-02 0.48358463E+03</pdfrwt>
<totfact> 0.22493617E+03</totfact>
</mgrwt>
</event>
<event>
 4    1  0.5399378E-005  0.4301686E+03  0.7818608E-02  0.1033807E+00
          2   -1    0    0  501    0  0.00000000000E+00  0.00000000000E+00  0.27402883705E+04  0.27402883705E+04  0.25500000000E-02 0.  1.
         -2   -1    0    0    0  501 -0.00000000000E+00 -0.00000000000E+00 -0.16881893088E+02  0.16881893280E+02  0.25500000000E-02 0. -1.
    5000001    1    1    2    0    0 -0.12821044092E+03  0.44558788538E-01  0.10349856066E+04  0.10558684222E+04  0.16500000000E+03 0.  0.
   -5000001    1    1    2    0    0  0.12821044092E+03 -0.44558788538E-01  0.16884208709E+04  0.17013018416E+04  0.16500000000E+03 0.  0.
<mgrwt>
<rscale>  0 0.43016860E+03</rscale>
<asrwt>0</asrwt>
<pdfrwt beam="1">  1        2 0.39146977E+00 0.43016860E+03</pdfrwt>
<pdfrwt beam="2">  1       -2 0.24116990E-02 0.43016860E+03</pdfrwt>
<totfact> 0.21930095E+03</totfact>
</mgrwt>
</event>
<event>
 4    1  0.5399378E-005  0.4500171E+03  0.7818608E-02  0.1027717E+00
          2   -1    0    0  501    0  0.00000000000E+00  0.00000000000E+00  0.27426704385E+04  0.27426704385E+04  0.25500000000E-02 0.  1.
         -2   -1    0    0    0  501 -0.00000000000E+00 -0.00000000000E+00 -0.18459693150E+02  0.18459693326E+02  0.25500000000E-02 0. -1.
    5000001    1    1    2    0    0  0.90720108410E+02  0.20277410380E+02  0.61662120859E+03  0.64504885577E+03  0.16500000000E+03 0.  0.
   -5000001    1    1    2    0    0 -0.90720108410E+02 -0.20277410380E+02  0.21075895368E+04  0.21160812761E+04  0.16500000000E+03 0.  0.
<mgrwt>
<rscale>  0 0.45001713E+03</rscale>
<asrwt>0</asrwt>
<pdfrwt beam="1">  1        2 0.39181035E+00 0.45001713E+03</pdfrwt>
<pdfrwt beam="2">  1       -2 0.26370971E-02 0.45001713E+03</pdfrwt>
<totfact> 0.19096899E+03</totfact>
</mgrwt>
</event>
<event>
 4    1  0.5399378E-005  0.6761815E+03  0.7818608E-02  0.9758855E-01
          2   -1    0    0  501    0  0.00000000000E+00  0.00000000000E+00  0.27351500070E+03  0.27351500071E+03  0.25500000000E-02 0.  1.
         -2   -1    0    0    0  501 -0.00000000000E+00 -0.00000000000E+00 -0.41791255034E+03  0.41791255035E+03  0.25500000000E-02 0. -1.
    5000001    1    1    2    0    0 -0.13192823368E+03  0.23119319760E+03 -0.20244817438E+03  0.37291502621E+03  0.16500000000E+03 0.  0.
   -5000001    1    1    2    0    0  0.13192823368E+03 -0.23119319760E+03  0.58050624742E+02  0.31851252486E+03  0.16500000000E+03 0.  0.
<mgrwt>
<rscale>  0 0.67618149E+03</rscale>
<asrwt>0</asrwt>
<pdfrwt beam="1">  1        2 0.39073572E-01 0.67618149E+03</pdfrwt>
<pdfrwt beam="2">  1       -2 0.59701793E-01 0.67618149E+03</pdfrwt>
<totfact> 0.34916781E+02</totfact>
</mgrwt>
</event>
<event>
 4    1  0.5399378E-005  0.5087181E+03  0.7818608E-02  0.1011528E+00
         -2   -1    0    0    0  501 -0.00000000000E+00  0.00000000000E+00  0.51899010126E+02  0.51899010189E+02  0.25500000000E-02 0. -1.
          2   -1    0    0  501    0  0.00000000000E+00 -0.00000000000E+00 -0.12466235250E+04  0.12466235251E+04  0.25500000000E-02 0.  1.
    5000001    1    1    2    0    0 -0.17027047695E+03  0.81729763566E+02 -0.48901496878E+03  0.54957477132E+03  0.16500000000E+03 0.  0.
   -5000001    1    1    2    0    0  0.17027047695E+03 -0.81729763566E+02 -0.70570954614E+03  0.74894776392E+03  0.16500000000E+03 0.  0.
<mgrwt>
<rscale>  0 0.50871810E+03</rscale>
<asrwt>0</asrwt>
<pdfrwt beam="1">  1        2 0.17808906E+00 0.50871810E+03</pdfrwt>
<pdfrwt beam="2">  1       -2 0.74141450E-02 0.50871810E+03</pdfrwt>
<totfact> 0.22509208E+03</totfact>
</mgrwt>
</event>
<event>
 4    1  0.5399378E-005  0.7818537E+03  0.7818608E-02  0.9586661E-01
         -2   -1    0    0    0  501 -0.00000000000E+00  0.00000000000E+00  0.10777771320E+03  0.10777771323E+03  0.25500000000E-02 0. -1.
          2   -1    0    0  501    0  0.00000000000E+00 -0.00000000000E+00 -0.14179538172E+04  0.14179538172E+04  0.25500000000E-02 0.  1.
    5000001    1    1    2    0    0  0.28987956224E+03  0.11707066746E+02 -0.10522964967E+04  0.11039565811E+04  0.16500000000E+03 0.  0.
   -5000001    1    1    2    0    0 -0.28987956224E+03 -0.11707066746E+02 -0.25787960733E+03  0.42177494934E+03  0.16500000000E+03 0.  0.
<mgrwt>
<rscale>  0 0.78185375E+03</rscale>
<asrwt>0</asrwt>
<pdfrwt beam="1">  1        2 0.20256482E+00 0.78185375E+03</pdfrwt>
<pdfrwt beam="2">  1       -2 0.15396817E-01 0.78185375E+03</pdfrwt>
<totfact> 0.54602064E+02</totfact>
</mgrwt>
</event>
<event>
 4    1  0.5399378E-005  0.1317572E+04  0.7818608E-02  0.9015745E-01
          2   -1    0    0  501    0  0.00000000000E+00  0.00000000000E+00  0.89640493548E+03  0.89640493549E+03  0.25500000000E-02 0.  1.
         -2   -1    0    0    0  501 -0.00000000000E+00 -0.00000000000E+00 -0.48415522373E+03  0.48415522373E+03  0.25500000000E-02 0. -1.
    5000001    1    1    2    0    0 -0.56469058310E+03 -0.29647685264E+03  0.20571460458E+03  0.69015757428E+03  0.16500000000E+03 0.  0.
   -5000001    1    1    2    0    0  0.56469058310E+03  0.29647685264E+03  0.20653510717E+03  0.69040258494E+03  0.16500000000E+03 0.  0.
<mgrwt>
<rscale>  0 0.13175722E+04</rscale>
<asrwt>0</asrwt>
<pdfrwt beam="1">  1        2 0.12805785E+00 0.13175722E+04</pdfrwt>
<pdfrwt beam="2">  1       -2 0.69165032E-01 0.13175722E+04</pdfrwt>
<totfact> 0.61163536E+01</totfact>
</mgrwt>
</event>
<event>
 4    1  0.5399378E-005  0.7153210E+03  0.7818608E-02  0.9691384E-01
          2   -1    0    0  501    0  0.00000000000E+00  0.00000000000E+00  0.98763963595E+03  0.98763963595E+03  0.25500000000E-02 0.  1.
         -2   -1    0    0    0  501 -0.00000000000E+00 -0.00000000000E+00 -0.12952196300E+03  0.12952196303E+03  0.25500000000E-02 0. -1.
    5000001    1    1    2    0    0  0.73348201022E+02  0.19560449634E+03  0.80210423849E+03  0.84512560426E+03  0.16500000000E+03 0.  0.
   -5000001    1    1    2    0    0 -0.73348201022E+02 -0.19560449634E+03  0.56013434458E+02  0.27203599472E+03  0.16500000000E+03 0.  0.
<mgrwt>
<rscale>  0 0.71532098E+03</rscale>
<asrwt>0</asrwt>
<pdfrwt beam="1">  1        2 0.14109138E+00 0.71532098E+03</pdfrwt>
<pdfrwt beam="2">  1       -2 0.18503137E-01 0.71532098E+03</pdfrwt>
<totfact> 0.70159605E+02</totfact>
</mgrwt>
</event>
<event>
 4    1  0.5399378E-005  0.5452593E+03  0.7818608E-02  0.1002597E+00
          2   -1    0    0  501    0  0.00000000000E+00  0.00000000000E+00  0.26938622504E+03  0.26938622505E+03  0.25500000000E-02 0.  1.
         -2   -1    0    0    0  501 -0.00000000000E+00 -0.00000000000E+00 -0.27591213292E+03  0.27591213293E+03  0.25500000000E-02 0. -1.
    5000001    1    1    2    0    0 -0.17783582816E+03  0.12345481598E+03 -0.18602063057E+02  0.27283275118E+03  0.16500000000E+03 0.  0.
   -5000001    1    1    2    0    0  0.17783582816E+03 -0.12345481598E+03  0.12076155177E+02  0.27246560680E+03  0.16500000000E+03 0.  0.
<mgrwt>
<rscale>  0 0.54525931E+03</rscale>
<asrwt>0</asrwt>
<pdfrwt beam="1">  1        2 0.38483746E-01 0.54525931E+03</pdfrwt>
<pdfrwt beam="2">  1       -2 0.39416019E-01 0.54525931E+03</pdfrwt>
<totfact> 0.82182232E+02</totfact>
</mgrwt>
</event>
<event>
 4    1  0.5399378E-005  0.5417374E+03  0.7818608E-02  0.1003425E+00
          2   -1    0    0  501    0  0.00000000000E+00  0.00000000000E+00  0.22412373850E+04  0.22412373850E+04  0.25500000000E-02 0.  1.
         -2   -1    0    0    0  501 -0.00000000000E+00 -0.00000000000E+00 -0.32736311721E+02  0.32736311821E+02  0.25500000000E-02 0. -1.
    5000001    1    1    2    0    0  0.12811935382E+03 -0.79275334672E+02  0.46152105090E+03  0.51276293542E+03  0.16500000000E+03 0.  0.
   -5000001    1    1    2    0    0 -0.12811935382E+03  0.79275334672E+02  0.17469800224E+04  0.17612107614E+04  0.16500000000E+03 0.  0.
<mgrwt>
<rscale>  0 0.54173737E+03</rscale>
<asrwt>0</asrwt>
<pdfrwt beam="1">  1        2 0.32017697E+00 0.54173737E+03</pdfrwt>
<pdfrwt beam="2">  1       -2 0.46766130E-02 0.54173737E+03</pdfrwt>
<totfact> 0.14306541E+03</totfact>
</mgrwt>
</event>
<event>
 4    1  0.5399378E-005  0.5349908E+03  0.7818608E-02  0.1005029E+00
          2   -1    0    0  501    0  0.00000000000E+00  0.00000000000E+00  0.17258994763E+04  0.17258994763E+04  0.25500000000E-02 0.  1.
         -2   -1    0    0    0  501 -0.00000000000E+00 -0.00000000000E+00 -0.41458839974E+02  0.41458840053E+02  0.25500000000E-02 0. -1.
    5000001    1    1    2    0    0 -0.32316606022E+02 -0.20177653035E+03  0.10097148099E+04  0.10433154502E+04  0.16500000000E+03 0.  0.
   -5000001    1    1    2    0    0  0.32316606022E+02  0.20177653035E+03  0.67472582635E+03  0.72404286612E+03  0.16500000000E+03 0.  0.
<mgrwt>
<rscale>  0 0.53499080E+03</rscale>
<asrwt>0</asrwt>
<pdfrwt beam="1">  1        2 0.24655707E+00 0.53499080E+03</pdfrwt>
<pdfrwt beam="2">  1       -2 0.59226913E-02 0.53499080E+03</pdfrwt>
<totfact> 0.17987519E+03</totfact>
</mgrwt>
</event>
<event>
 4    1  0.5399378E-005  0.5476503E+03  0.7818608E-02  0.1002039E+00
          2   -1    0    0  501    0  0.00000000000E+00  0.00000000000E+00  0.20610185902E+03  0.20610185903E+03  0.25500000000E-02 0.  1.
         -2   -1    0    0    0  501 -0.00000000000E+00 -0.00000000000E+00 -0.36380173812E+03  0.36380173813E+03  0.25500000000E-02 0. -1.
    5000001    1    1    2    0    0  0.12124761707E+03 -0.12819738680E+03 -0.21300563950E+03  0.32207445892E+03  0.16500000000E+03 0.  0.
   -5000001    1    1    2    0    0 -0.12124761707E+03  0.12819738680E+03  0.55305760398E+02  0.24782913824E+03  0.16500000000E+03 0.  0.
<mgrwt>
<rscale>  0 0.54765031E+03</rscale>
<asrwt>0</asrwt>
<pdfrwt beam="1">  1        2 0.29443123E-01 0.54765031E+03</pdfrwt>
<pdfrwt beam="2">  1       -2 0.51971677E-01 0.54765031E+03</pdfrwt>
<totfact> 0.63959403E+02</totfact>
</mgrwt>
</event>
<event>
 4    1  0.5399378E-005  0.5527863E+03  0.7818608E-02  0.1000851E+00
          2   -1    0    0  501    0  0.00000000000E+00  0.00000000000E+00  0.29119785278E+03  0.29119785279E+03  0.25500000000E-02 0.  1.
         -2   -1    0    0    0  501 -0.00000000000E+00 -0.00000000000E+00 -0.26234110152E+03  0.26234110153E+03  0.25500000000E-02 0. -1.
    5000001    1    1    2    0    0 -0.15844167005E+03 -0.15160729975E+03 -0.18474077226E+02  0.27505422679E+03  0.16500000000E+03 0.  0.
   -5000001    1    1    2    0    0  0.15844167005E+03  0.15160729975E+03  0.47330828482E+02  0.27848472753E+03  0.16500000000E+03 0.  0.
<mgrwt>
<rscale>  0 0.55278627E+03</rscale>
<asrwt>0</asrwt>
<pdfrwt beam="1">  1        2 0.41599693E-01 0.55278627E+03</pdfrwt>
<pdfrwt beam="2">  1       -2 0.37477300E-01 0.55278627E+03</pdfrwt>
<totfact> 0.83099905E+02</totfact>
</mgrwt>
</event>
<event>
 4    1  0.5399378E-005  0.9392891E+03  0.7818608E-02  0.9377758E-01
          2   -1    0    0  501    0  0.00000000000E+00  0.00000000000E+00  0.22247889122E+04  0.22247889122E+04  0.25500000000E-02 0.  1.
         -2   -1    0    0    0  501 -0.00000000000E+00 -0.00000000000E+00 -0.99140188353E+02  0.99140188385E+02  0.25500000000E-02 0. -1.
    5000001    1    1    2    0    0 -0.28345784383E+03 -0.33424426749E+03  0.97453505314E+03  0.10812081897E+04  0.16500000000E+03 0.  0.
   -5000001    1    1    2    0    0  0.28345784383E+03  0.33424426749E+03  0.11511136707E+04  0.12427209109E+04  0.16500000000E+03 0.  0.
<mgrwt>
<rscale>  0 0.93928908E+03</rscale>
<asrwt>0</asrwt>
<pdfrwt beam="1">  1        2 0.31782697E+00 0.93928908E+03</pdfrwt>
<pdfrwt beam="2">  1       -2 0.14162885E-01 0.93928908E+03</pdfrwt>
<totfact> 0.23948594E+02</totfact>
</mgrwt>
</event>
<event>
 4    1  0.5399378E-005  0.4902316E+03  0.7818608E-02  0.1016361E+00
          2   -1    0    0  501    0  0.00000000000E+00  0.00000000000E+00  0.12980400280E+04  0.12980400280E+04  0.25500000000E-02 0. -1.
         -2   -1    0    0    0  501 -0.00000000000E+00 -0.00000000000E+00 -0.46286527797E+02  0.46286527868E+02  0.25500000000E-02 0.  1.
    5000001    1    1    2    0    0  0.14026330644E+03 -0.46552884172E+02  0.33806305606E+03  0.40416901914E+03  0.16500000000E+03 0.  0.
   -5000001    1    1    2    0    0 -0.14026330644E+03  0.46552884172E+02  0.91369044416E+03  0.94015753675E+03  0.16500000000E+03 0.  0.
<mgrwt>
<rscale>  0 0.49023164E+03</rscale>
<asrwt>0</asrwt>
<pdfrwt beam="1">  1        2 0.18543431E+00 0.49023164E+03</pdfrwt>
<pdfrwt beam="2">  1       -2 0.66123604E-02 0.49023164E+03</pdfrwt>
<totfact> 0.25274604E+03</totfact>
</mgrwt>
</event>
<event>
 4    1  0.5399378E-005  0.1011180E+04  0.7818608E-02  0.9296367E-01
          2   -1    0    0  501    0  0.00000000000E+00  0.00000000000E+00  0.81237155571E+03  0.81237155571E+03  0.25500000000E-02 0.  1.
         -2   -1    0    0    0  501 -0.00000000000E+00 -0.00000000000E+00 -0.31466057274E+03  0.31466057275E+03  0.25500000000E-02 0. -1.
    5000001    1    1    2    0    0 -0.29318307370E+03  0.69522499351E+02 -0.16459872431E+03  0.38092969517E+03  0.16500000000E+03 0.  0.
   -5000001    1    1    2    0    0  0.29318307370E+03 -0.69522499351E+02  0.66230970727E+03  0.74610243330E+03  0.16500000000E+03 0.  0.
<mgrwt>
<rscale>  0 0.10111801E+04</rscale>
<asrwt>0</asrwt>
<pdfrwt beam="1">  1        2 0.11605308E+00 0.10111801E+04</pdfrwt>
<pdfrwt beam="2">  1       -2 0.44951511E-01 0.10111801E+04</pdfrwt>
<totfact> 0.17434617E+02</totfact>
</mgrwt>
</event>
<event>
 4    1  0.5399378E-005  0.4124302E+03  0.7818608E-02  0.1039559E+00
         -2   -1    0    0    0  501 -0.00000000000E+00  0.00000000000E+00  0.18150441421E+03  0.18150441422E+03  0.25500000000E-02 0. -1.
          2   -1    0    0  501    0  0.00000000000E+00 -0.00000000000E+00 -0.23428998996E+03  0.23428998997E+03  0.25500000000E-02 0.  1.
    5000001    1    1    2    0    0  0.11181623644E+03  0.51096171717E+02 -0.12644176278E+02  0.20615180011E+03  0.16500000000E+03 0.  0.
   -5000001    1    1    2    0    0 -0.11181623644E+03 -0.51096171717E+02 -0.40141399474E+02  0.20964260408E+03  0.16500000000E+03 0.  0.
<mgrwt>
<rscale>  0 0.41243020E+03</rscale>
<asrwt>0</asrwt>
<pdfrwt beam="1">  1        2 0.33469998E-01 0.41243020E+03</pdfrwt>
<pdfrwt beam="2">  1       -2 0.25929202E-01 0.41243020E+03</pdfrwt>
<totfact> 0.20855964E+03</totfact>
</mgrwt>
</event>
<event>
 4    1  0.5399378E-005  0.4577267E+03  0.7818608E-02  0.1025443E+00
         -2   -1    0    0    0  501 -0.00000000000E+00  0.00000000000E+00  0.65413387031E+02  0.65413387081E+02  0.25500000000E-02 0. -1.
          2   -1    0    0  501    0  0.00000000000E+00 -0.00000000000E+00 -0.80072957689E+03  0.80072957689E+03  0.25500000000E-02 0.  1.
    5000001    1    1    2    0    0  0.32691058404E+02 -0.11209979035E+03 -0.16457266861E+03  0.26066114316E+03  0.16500000000E+03 0.  0.
   -5000001    1    1    2    0    0 -0.32691058404E+02  0.11209979035E+03 -0.57074352124E+03  0.60548182082E+03  0.16500000000E+03 0.  0.
<mgrwt>
<rscale>  0 0.45772670E+03</rscale>
<asrwt>0</asrwt>
<pdfrwt beam="1">  1        2 0.11438993E+00 0.45772670E+03</pdfrwt>
<pdfrwt beam="2">  1       -2 0.93447701E-02 0.45772670E+03</pdfrwt>
<totfact> 0.28956802E+03</totfact>
</mgrwt>
</event>
<event>
 4    1  0.5399378E-005  0.6393826E+03  0.7818608E-02  0.9826908E-01
         -2   -1    0    0    0  501 -0.00000000000E+00  0.00000000000E+00  0.34758100278E+02  0.34758100371E+02  0.25500000000E-02 0. -1.
          2   -1    0    0  501    0  0.00000000000E+00 -0.00000000000E+00 -0.29403947792E+04  0.29403947792E+04  0.25500000000E-02 0.  1.
    5000001    1    1    2    0    0 -0.23502717385E+03  0.49424310818E+02 -0.84084307481E+03  0.88990033791E+03  0.16500000000E+03 0.  0.
   -5000001    1    1    2    0    0  0.23502717385E+03 -0.49424310818E+02 -0.20647936041E+04  0.20852525416E+04  0.16500000000E+03 0.  0.
<mgrwt>
<rscale>  0 0.63938263E+03</rscale>
<asrwt>0</asrwt>
<pdfrwt beam="1">  1        2 0.42005624E+00 0.63938263E+03</pdfrwt>
<pdfrwt beam="2">  1       -2 0.49654448E-02 0.63938263E+03</pdfrwt>
<totfact> 0.56153755E+02</totfact>
</mgrwt>
</event>
<event>
 4    1  0.5399378E-005  0.5384423E+03  0.7818608E-02  0.1004205E+00
         -2   -1    0    0    0  501 -0.00000000000E+00  0.00000000000E+00  0.99281913690E+02  0.99281913723E+02  0.25500000000E-02 0. -1.
          2   -1    0    0  501    0  0.00000000000E+00 -0.00000000000E+00 -0.73004271618E+03  0.73004271619E+03  0.25500000000E-02 0.  1.
    5000001    1    1    2    0    0  0.19779073304E+03 -0.37507970578E+02 -0.42127624106E+03  0.49520368861E+03  0.16500000000E+03 0.  0.
   -5000001    1    1    2    0    0 -0.19779073304E+03  0.37507970578E+02 -0.20948456143E+03  0.33412094130E+03  0.16500000000E+03 0.  0.
<mgrwt>
<rscale>  0 0.53844234E+03</rscale>
<asrwt>0</asrwt>
<pdfrwt beam="1">  1        2 0.10429181E+00 0.53844234E+03</pdfrwt>
<pdfrwt beam="2">  1       -2 0.14183131E-01 0.53844234E+03</pdfrwt>
<totfact> 0.16443160E+03</totfact>
</mgrwt>
</event>
<event>
 4    1  0.5399378E-005  0.1248349E+04  0.7818608E-02  0.9071558E-01
          2   -1    0    0  501    0  0.00000000000E+00  0.00000000000E+00  0.22573116539E+03  0.22573116540E+03  0.25500000000E-02 0.  1.
         -2   -1    0    0    0  501 -0.00000000000E+00 -0.00000000000E+00 -0.17259197535E+04  0.17259197535E+04  0.25500000000E-02 0. -1.
    5000001    1    1    2    0    0  0.25101929373E+02  0.59813234504E+03 -0.65150838488E+03  0.90004476812E+03  0.16500000000E+03 0.  0.
   -5000001    1    1    2    0    0 -0.25101929373E+02 -0.59813234504E+03 -0.84868020325E+03  0.10516061508E+04  0.16500000000E+03 0.  0.
<mgrwt>
<rscale>  0 0.12483491E+04</rscale>
<asrwt>0</asrwt>
<pdfrwt beam="1">  1        2 0.32247310E-01 0.12483491E+04</pdfrwt>
<pdfrwt beam="2">  1       -2 0.24655996E+00 0.12483491E+04</pdfrwt>
<totfact> 0.10927044E+01</totfact>
</mgrwt>
</event>
<event>
 4    1  0.5399378E-005  0.5706024E+03  0.7818608E-02  0.9968347E-01
          2   -1    0    0  501    0  0.00000000000E+00  0.00000000000E+00  0.26822632075E+03  0.26822632076E+03  0.25500000000E-02 0.  1.
         -2   -1    0    0    0  501 -0.00000000000E+00 -0.00000000000E+00 -0.30346301062E+03  0.30346301063E+03  0.25500000000E-02 0. -1.
    5000001    1    1    2    0    0 -0.53271263450E+02  0.19904954584E+03 -0.12605213073E+03  0.29252809929E+03  0.16500000000E+03 0.  0.
   -5000001    1    1    2    0    0  0.53271263450E+02 -0.19904954584E+03  0.90815440869E+02  0.27916123211E+03  0.16500000000E+03 0.  0.
<mgrwt>
<rscale>  0 0.57060237E+03</rscale>
<asrwt>0</asrwt>
<pdfrwt beam="1">  1        2 0.38318046E-01 0.57060237E+03</pdfrwt>
<pdfrwt beam="2">  1       -2 0.43351858E-01 0.57060237E+03</pdfrwt>
<totfact> 0.68570856E+02</totfact>
</mgrwt>
</event>
<event>
 4    1  0.5399378E-005  0.5673833E+03  0.7818608E-02  0.9975486E-01
         -2   -1    0    0    0  501 -0.00000000000E+00  0.00000000000E+00  0.88718993409E+02  0.88718993446E+02  0.25500000000E-02 0. -1.
          2   -1    0    0  501    0  0.00000000000E+00 -0.00000000000E+00 -0.90714471482E+03  0.90714471482E+03  0.25500000000E-02 0.  1.
    5000001    1    1    2    0    0  0.19698271385E+03  0.26584646246E+02 -0.61500453850E+03  0.66705660581E+03  0.16500000000E+03 0.  0.
   -5000001    1    1    2    0    0 -0.19698271385E+03 -0.26584646246E+02 -0.20342118291E+03  0.32880710246E+03  0.16500000000E+03 0.  0.
<mgrwt>
<rscale>  0 0.56738335E+03</rscale>
<asrwt>0</asrwt>
<pdfrwt beam="1">  1        2 0.12959210E+00 0.56738335E+03</pdfrwt>
<pdfrwt beam="2">  1       -2 0.12674142E-01 0.56738335E+03</pdfrwt>
<totfact> 0.14995489E+03</totfact>
</mgrwt>
</event>
<event>
 4    1  0.5399378E-005  0.4605422E+03  0.7818608E-02  0.1024624E+00
          2   -1    0    0  501    0  0.00000000000E+00  0.00000000000E+00  0.19203035191E+04  0.19203035191E+04  0.25500000000E-02 0.  1.
         -2   -1    0    0    0  501 -0.00000000000E+00 -0.00000000000E+00 -0.27612709203E+02  0.27612709321E+02  0.25500000000E-02 0. -1.
    5000001    1    1    2    0    0  0.63829542464E+02 -0.14593428441E+03  0.10339256990E+04  0.10590554173E+04  0.16500000000E+03 0.  0.
   -5000001    1    1    2    0    0 -0.63829542464E+02  0.14593428441E+03  0.85876511085E+03  0.88886081108E+03  0.16500000000E+03 0.  0.
<mgrwt>
<rscale>  0 0.46054221E+03</rscale>
<asrwt>0</asrwt>
<pdfrwt beam="1">  1        2 0.27432905E+00 0.46054221E+03</pdfrwt>
<pdfrwt beam="2">  1       -2 0.39446731E-02 0.46054221E+03</pdfrwt>
<totfact> 0.26968947E+03</totfact>
</mgrwt>
</event>
<event>
 4    1  0.5399378E-005  0.5065097E+03  0.7818608E-02  0.1012094E+00
          2   -1    0    0  501    0  0.00000000000E+00  0.00000000000E+00  0.77092263092E+03  0.77092263093E+03  0.25500000000E-02 0.  1.
         -2   -1    0    0    0  501 -0.00000000000E+00 -0.00000000000E+00 -0.83196443216E+02  0.83196443255E+02  0.25500000000E-02 0. -1.
    5000001    1    1    2    0    0  0.14775936202E+03 -0.10870986716E+03  0.24754755370E+03  0.34950744717E+03  0.16500000000E+03 0.  0.
   -5000001    1    1    2    0    0 -0.14775936202E+03  0.10870986716E+03  0.44017863400E+03  0.50461162701E+03  0.16500000000E+03 0.  0.
<mgrwt>
<rscale>  0 0.50650971E+03</rscale>
<asrwt>0</asrwt>
<pdfrwt beam="1">  1        2 0.11013180E+00 0.50650971E+03</pdfrwt>
<pdfrwt beam="2">  1       -2 0.11885206E-01 0.50650971E+03</pdfrwt>
<totfact> 0.20583668E+03</totfact>
</mgrwt>
</event>
<event>
 4    1  0.5399378E-005  0.6559310E+03  0.7818608E-02  0.9795713E-01
         -2   -1    0    0    0  501 -0.00000000000E+00  0.00000000000E+00  0.56448421212E+02  0.56448421269E+02  0.25500000000E-02 0. -1.
          2   -1    0    0  501    0  0.00000000000E+00 -0.00000000000E+00 -0.19054803822E+04  0.19054803822E+04  0.25500000000E-02 0.  1.
    5000001    1    1    2    0    0  0.54307102431E+02  0.17469924568E+03 -0.27698590933E+03  0.37069567273E+03  0.16500000000E+03 0.  0.
   -5000001    1    1    2    0    0 -0.54307102431E+02 -0.17469924568E+03 -0.15720460516E+04  0.15912331307E+04  0.16500000000E+03 0.  0.
<mgrwt>
<rscale>  0 0.65593097E+03</rscale>
<asrwt>0</asrwt>
<pdfrwt beam="1">  1        2 0.27221144E+00 0.65593097E+03</pdfrwt>
<pdfrwt beam="2">  1       -2 0.80640614E-02 0.65593097E+03</pdfrwt>
<totfact> 0.89186116E+02</totfact>
</mgrwt>
</event>
<event>
 4    1  0.5399378E-005  0.4610669E+03  0.7818608E-02  0.1024472E+00
         -2   -1    0    0    0  501 -0.00000000000E+00  0.00000000000E+00  0.31799886948E+02  0.31799887050E+02  0.25500000000E-02 0.  1.
          2   -1    0    0  501    0  0.00000000000E+00 -0.00000000000E+00 -0.16712534261E+04  0.16712534261E+04  0.25500000000E-02 0. -1.
    5000001    1    1    2    0    0 -0.48740170580E+02  0.13155953798E+03 -0.11114409441E+04  0.11323468940E+04  0.16500000000E+03 0.  0.
   -5000001    1    1    2    0    0  0.48740170580E+02 -0.13155953798E+03 -0.52801259506E+03  0.57070641910E+03  0.16500000000E+03 0.  0.
<mgrwt>
<rscale>  0 0.46106689E+03</rscale>
<asrwt>0</asrwt>
<pdfrwt beam="1">  1        2 0.23875043E+00 0.46106689E+03</pdfrwt>
<pdfrwt beam="2">  1       -2 0.45428420E-02 0.46106689E+03</pdfrwt>
<totfact> 0.28955084E+03</totfact>
</mgrwt>
</event>
<event>
 4    1  0.5399378E-005  0.7037496E+03  0.7818608E-02  0.9710841E-01
         -2   -1    0    0    0  501 -0.00000000000E+00  0.00000000000E+00  0.52535725924E+03  0.52535725925E+03  0.25500000000E-02 0. -1.
          2   -1    0    0  501    0  0.00000000000E+00 -0.00000000000E+00 -0.23567938487E+03  0.23567938488E+03  0.25500000000E-02 0.  1.
    5000001    1    1    2    0    0  0.14565121117E+03  0.98941597388E+02  0.42178603691E+03  0.48593433295E+03  0.16500000000E+03 0.  0.
   -5000001    1    1    2    0    0 -0.14565121117E+03 -0.98941597388E+02 -0.13210816254E+03  0.27510231118E+03  0.16500000000E+03 0.  0.
<mgrwt>
<rscale>  0 0.70374960E+03</rscale>
<asrwt>0</asrwt>
<pdfrwt beam="1">  1        2 0.33668484E-01 0.70374960E+03</pdfrwt>
<pdfrwt beam="2">  1       -2 0.75051037E-01 0.70374960E+03</pdfrwt>
<totfact> 0.25143019E+02</totfact>
</mgrwt>
</event>
<event>
 4    1  0.5399378E-005  0.5770598E+03  0.7818608E-02  0.9954177E-01
          2   -1    0    0  501    0  0.00000000000E+00  0.00000000000E+00  0.25685316793E+04  0.25685316793E+04  0.25500000000E-02 0.  1.
         -2   -1    0    0    0  501 -0.00000000000E+00 -0.00000000000E+00 -0.32411319773E+02  0.32411319873E+02  0.25500000000E-02 0. -1.
    5000001    1    1    2    0    0  0.15316635988E+03  0.14463138800E+03  0.17544724868E+04  0.17747610766E+04  0.16500000000E+03 0.  0.
   -5000001    1    1    2    0    0 -0.15316635988E+03 -0.14463138800E+03  0.78164787272E+03  0.82618192253E+03  0.16500000000E+03 0.  0.
<mgrwt>
<rscale>  0 0.57705979E+03</rscale>
<asrwt>0</asrwt>
<pdfrwt beam="1">  1        2 0.36693305E+00 0.57705979E+03</pdfrwt>
<pdfrwt beam="2">  1       -2 0.46301891E-02 0.57705979E+03</pdfrwt>
<totfact> 0.98796767E+02</totfact>
</mgrwt>
</event>
<event>
 4    1  0.5399378E-005  0.5343430E+03  0.7818608E-02  0.1005184E+00
         -2   -1    0    0    0  501 -0.00000000000E+00  0.00000000000E+00  0.36962749070E+02  0.36962749158E+02  0.25500000000E-02 0. -1.
          2   -1    0    0  501    0  0.00000000000E+00 -0.00000000000E+00 -0.19311501672E+04  0.19311501672E+04  0.25500000000E-02 0.  1.
    5000001    1    1    2    0    0  0.79923464898E+02  0.16643138411E+03 -0.57751134414E+03  0.62835620349E+03  0.16500000000E+03 0.  0.
   -5000001    1    1    2    0    0 -0.79923464898E+02 -0.16643138411E+03 -0.13166760740E+04  0.13397567129E+04  0.16500000000E+03 0.  0.
<mgrwt>
<rscale>  0 0.53434303E+03</rscale>
<asrwt>0</asrwt>
<pdfrwt beam="1">  1        2 0.27587853E+00 0.53434303E+03</pdfrwt>
<pdfrwt beam="2">  1       -2 0.52803940E-02 0.53434303E+03</pdfrwt>
<totfact> 0.16959720E+03</totfact>
</mgrwt>
</event>
<event>
 4    1  0.5399378E-005  0.4951897E+03  0.7818608E-02  0.1015042E+00
         -2   -1    0    0    0  501 -0.00000000000E+00  0.00000000000E+00  0.45432567948E+02  0.45432568020E+02  0.25500000000E-02 0. -1.
          2   -1    0    0  501    0  0.00000000000E+00 -0.00000000000E+00 -0.13493228110E+04  0.13493228110E+04  0.25500000000E-02 0.  1.
    5000001    1    1    2    0    0  0.18288556022E+03 -0.65639946959E+01 -0.72024344397E+03  0.76122653182E+03  0.16500000000E+03 0.  0.
   -5000001    1    1    2    0    0 -0.18288556022E+03  0.65639946959E+01 -0.58364679910E+03  0.63352884722E+03  0.16500000000E+03 0.  0.
<mgrwt>
<rscale>  0 0.49518966E+03</rscale>
<asrwt>0</asrwt>
<pdfrwt beam="1">  1        2 0.19276038E+00 0.49518966E+03</pdfrwt>
<pdfrwt beam="2">  1       -2 0.64903677E-02 0.49518966E+03</pdfrwt>
<totfact> 0.24423892E+03</totfact>
</mgrwt>
</event>
<event>
 4    1  0.5399378E-005  0.4823588E+03  0.7818608E-02  0.1018489E+00
          2   -1    0    0  501    0  0.00000000000E+00  0.00000000000E+00  0.20899111951E+02  0.20899112106E+02  0.25500000000E-02 0.  1.
         -2   -1    0    0    0  501 -0.00000000000E+00 -0.00000000000E+00 -0.27832517944E+04  0.27832517944E+04  0.25500000000E-02 0. -1.
    5000001    1    1    2    0    0 -0.17406200126E+03  0.23826393977E+02 -0.14322595859E+04  0.14523972593E+04  0.16500000000E+03 0.  0.
   -5000001    1    1    2    0    0  0.17406200126E+03 -0.23826393977E+02 -0.13300930965E+04  0.13517536472E+04  0.16500000000E+03 0.  0.
<mgrwt>
<rscale>  0 0.48235875E+03</rscale>
<asrwt>0</asrwt>
<pdfrwt beam="1">  1        2 0.29855892E-02 0.48235875E+03</pdfrwt>
<pdfrwt beam="2">  1       -2 0.39760716E+00 0.48235875E+03</pdfrwt>
<totfact> 0.28462970E+01</totfact>
</mgrwt>
</event>
<event>
 4    1  0.5399378E-005  0.4267173E+03  0.7818608E-02  0.1034902E+00
         -2   -1    0    0    0  501 -0.00000000000E+00  0.00000000000E+00  0.23286519198E+02  0.23286519338E+02  0.25500000000E-02 0. -1.
          2   -1    0    0  501    0  0.00000000000E+00 -0.00000000000E+00 -0.19548615501E+04  0.19548615501E+04  0.25500000000E-02 0.  1.
    5000001    1    1    2    0    0  0.12229929747E+03 -0.10532450119E+02 -0.70237050141E+03  0.73185884700E+03  0.16500000000E+03 0.  0.
   -5000001    1    1    2    0    0 -0.12229929747E+03  0.10532450119E+02 -0.12292045295E+04  0.12462892224E+04  0.16500000000E+03 0.  0.
<mgrwt>
<rscale>  0 0.42671734E+03</rscale>
<asrwt>0</asrwt>
<pdfrwt beam="1">  1        2 0.27926583E+00 0.42671734E+03</pdfrwt>
<pdfrwt beam="2">  1       -2 0.33266469E-02 0.42671734E+03</pdfrwt>
<totfact> 0.33612504E+03</totfact>
</mgrwt>
</event>
<event>
 4    1  0.5399378E-005  0.4882960E+03  0.7818608E-02  0.1016880E+00
         -2   -1    0    0    0  501 -0.00000000000E+00  0.00000000000E+00  0.46846208615E+02  0.46846208685E+02  0.25500000000E-02 0. -1.
          2   -1    0    0  501    0  0.00000000000E+00 -0.00000000000E+00 -0.12724239336E+04  0.12724239336E+04  0.25500000000E-02 0.  1.
    5000001    1    1    2    0    0  0.17914036557E+03 -0.17076068942E+02 -0.61113572912E+03  0.65809934061E+03  0.16500000000E+03 0.  0.
   -5000001    1    1    2    0    0 -0.17914036557E+03  0.17076068942E+02 -0.61444199586E+03  0.66117080167E+03  0.16500000000E+03 0.  0.
<mgrwt>
<rscale>  0 0.48829596E+03</rscale>
<asrwt>0</asrwt>
<pdfrwt beam="1">  1        2 0.18177483E+00 0.48829596E+03</pdfrwt>
<pdfrwt beam="2">  1       -2 0.66923163E-02 0.48829596E+03</pdfrwt>
<totfact> 0.25608700E+03</totfact>
</mgrwt>
</event>
<event>
 4    1  0.5399378E-005  0.7420967E+03  0.7818608E-02  0.9647832E-01
          2   -1    0    0  501    0  0.00000000000E+00  0.00000000000E+00  0.12177224223E+04  0.12177224223E+04  0.25500000000E-02 0.  1.
         -2   -1    0    0    0  501 -0.00000000000E+00 -0.00000000000E+00 -0.11306097636E+03  0.11306097639E+03  0.25500000000E-02 0. -1.
    5000001    1    1    2    0    0 -0.66203683837E+02 -0.32558068840E+03  0.56691850597E+03  0.67750077847E+03  0.16500000000E+03 0.  0.
   -5000001    1    1    2    0    0  0.66203683837E+02  0.32558068840E+03  0.53774294001E+03  0.65328262027E+03  0.16500000000E+03 0.  0.
<mgrwt>
<rscale>  0 0.74209672E+03</rscale>
<asrwt>0</asrwt>
<pdfrwt beam="1">  1        2 0.17396034E+00 0.74209672E+03</pdfrwt>
<pdfrwt beam="2">  1       -2 0.16151569E-01 0.74209672E+03</pdfrwt>
<totfact> 0.64871353E+02</totfact>
</mgrwt>
</event>
<event>
 4    1  0.5399378E-005  0.4227647E+03  0.7818608E-02  0.1036170E+00
         -2   -1    0    0    0  501 -0.00000000000E+00  0.00000000000E+00  0.25761759785E+02  0.25761759911E+02  0.25500000000E-02 0. -1.
          2   -1    0    0  501    0  0.00000000000E+00 -0.00000000000E+00 -0.17344505279E+04  0.17344505279E+04  0.25500000000E-02 0.  1.
    5000001    1    1    2    0    0 -0.23222702055E+02  0.10993237085E+03 -0.56489126813E+03  0.59912566700E+03  0.16500000000E+03 0.  0.
   -5000001    1    1    2    0    0  0.23222702055E+02 -0.10993237085E+03 -0.11437975000E+04  0.11610866209E+04  0.16500000000E+03 0.  0.
<mgrwt>
<rscale>  0 0.42276470E+03</rscale>
<asrwt>0</asrwt>
<pdfrwt beam="1">  1        2 0.24777857E+00 0.42276470E+03</pdfrwt>
<pdfrwt beam="2">  1       -2 0.36802525E-02 0.42276470E+03</pdfrwt>
<totfact> 0.37133809E+03</totfact>
</mgrwt>
</event>
<event>
 4    1  0.5399378E-005  0.7768656E+03  0.7818608E-02  0.9594120E-01
         -2   -1    0    0    0  501 -0.00000000000E+00  0.00000000000E+00  0.51355541951E+02  0.51355542014E+02  0.25500000000E-02 0. -1.
          2   -1    0    0  501    0  0.00000000000E+00 -0.00000000000E+00 -0.29379502624E+04  0.29379502624E+04  0.25500000000E-02 0.  1.
    5000001    1    1    2    0    0 -0.34551110014E+03  0.41500368296E+02 -0.16377909238E+04  0.16824637622E+04  0.16500000000E+03 0.  0.
   -5000001    1    1    2    0    0  0.34551110014E+03 -0.41500368296E+02 -0.12488037966E+04  0.13068420422E+04  0.16500000000E+03 0.  0.
<mgrwt>
<rscale>  0 0.77686557E+03</rscale>
<asrwt>0</asrwt>
<pdfrwt beam="1">  1        2 0.41970708E+00 0.77686557E+03</pdfrwt>
<pdfrwt beam="2">  1       -2 0.73365078E-02 0.77686557E+03</pdfrwt>
<totfact> 0.30101580E+02</totfact>
</mgrwt>
</event>
<event>
 4    1  0.5399378E-005  0.5000130E+03  0.7818608E-02  0.1013776E+00
         -2   -1    0    0    0  501 -0.00000000000E+00  0.00000000000E+00  0.92313143751E+02  0.92313143786E+02  0.25500000000E-02 0. -1.
          2   -1    0    0  501    0  0.00000000000E+00 -0.00000000000E+00 -0.67707860130E+03  0.67707860131E+03  0.25500000000E-02 0.  1.
    5000001    1    1    2    0    0  0.15781494554E+03 -0.10177682586E+03 -0.28658941616E+03  0.38029274615E+03  0.16500000000E+03 0.  0.
   -5000001    1    1    2    0    0 -0.15781494554E+03  0.10177682586E+03 -0.29817604139E+03  0.38909899894E+03  0.16500000000E+03 0.  0.
<mgrwt>
<rscale>  0 0.50001302E+03</rscale>
<asrwt>0</asrwt>
<pdfrwt beam="1">  1        2 0.96725512E-01 0.50001302E+03</pdfrwt>
<pdfrwt beam="2">  1       -2 0.13187592E-01 0.50001302E+03</pdfrwt>
<totfact> 0.20342265E+03</totfact>
</mgrwt>
</event>
<event>
 4    1  0.5399378E-005  0.3910385E+03  0.7818608E-02  0.1046928E+00
         -2   -1    0    0    0  501 -0.00000000000E+00  0.00000000000E+00  0.25965422249E+02  0.25965422374E+02  0.25500000000E-02 0. -1.
          2   -1    0    0  501    0  0.00000000000E+00 -0.00000000000E+00 -0.14722573202E+04  0.14722573202E+04  0.25500000000E-02 0.  1.
    5000001    1    1    2    0    0 -0.73941342901E+01  0.10143113179E+03 -0.82156396913E+03  0.84411806229E+03  0.16500000000E+03 0.  0.
   -5000001    1    1    2    0    0  0.73941342901E+01 -0.10143113179E+03 -0.62472792879E+03  0.65410468025E+03  0.16500000000E+03 0.  0.
<mgrwt>
<rscale>  0 0.39103853E+03</rscale>
<asrwt>0</asrwt>
<pdfrwt beam="1">  1        2 0.21032242E+00 0.39103853E+03</pdfrwt>
<pdfrwt beam="2">  1       -2 0.37093470E-02 0.39103853E+03</pdfrwt>
<totfact> 0.49820356E+03</totfact>
</mgrwt>
</event>
<event>
 4    1  0.5399378E-005  0.8287196E+03  0.7818608E-02  0.9519352E-01
          2   -1    0    0  501    0  0.00000000000E+00  0.00000000000E+00  0.31202502918E+03  0.31202502919E+03  0.25500000000E-02 0.  1.
         -2   -1    0    0    0  501 -0.00000000000E+00 -0.00000000000E+00 -0.55025723377E+03  0.55025723378E+03  0.25500000000E-02 0. -1.
    5000001    1    1    2    0    0 -0.15873963425E+03  0.33589849261E+03 -0.35597234405E+02  0.40806645527E+03  0.16500000000E+03 0.  0.
   -5000001    1    1    2    0    0  0.15873963425E+03 -0.33589849261E+03 -0.20263497019E+03  0.45421580770E+03  0.16500000000E+03 0.  0.
<mgrwt>
<rscale>  0 0.82871957E+03</rscale>
<asrwt>0</asrwt>
<pdfrwt beam="1">  1        2 0.44575004E-01 0.82871957E+03</pdfrwt>
<pdfrwt beam="2">  1       -2 0.78608176E-01 0.82871957E+03</pdfrwt>
<totfact> 0.16519485E+02</totfact>
</mgrwt>
</event>
<event>
 4    1  0.5399378E-005  0.3525926E+03  0.7818608E-02  0.1061556E+00
          2   -1    0    0  501    0  0.00000000000E+00  0.00000000000E+00  0.41538801762E+03  0.41538801763E+03  0.25500000000E-02 0.  1.
         -2   -1    0    0    0  501 -0.00000000000E+00 -0.00000000000E+00 -0.74822529004E+02  0.74822529048E+02  0.25500000000E-02 0. -1.
    5000001    1    1    2    0    0  0.38690539134E+02 -0.38693473211E+02  0.12948168807E+03  0.21675942940E+03  0.16500000000E+03 0.  0.
   -5000001    1    1    2    0    0 -0.38690539134E+02  0.38693473211E+02  0.21108380054E+03  0.27345111728E+03  0.16500000000E+03 0.  0.
<mgrwt>
<rscale>  0 0.35259258E+03</rscale>
<asrwt>0</asrwt>
<pdfrwt beam="1">  1        2 0.59341147E-01 0.35259258E+03</pdfrwt>
<pdfrwt beam="2">  1       -2 0.10688932E-01 0.35259258E+03</pdfrwt>
<totfact> 0.49744061E+03</totfact>
</mgrwt>
</event>
<event>
 4    1  0.5399378E-005  0.3990105E+03  0.7818608E-02  0.1044123E+00
         -2   -1    0    0    0  501 -0.00000000000E+00  0.00000000000E+00  0.24742605696E+02  0.24742605827E+02  0.25500000000E-02 0. -1.
          2   -1    0    0  501    0  0.00000000000E+00 -0.00000000000E+00 -0.16086557783E+04  0.16086557783E+04  0.25500000000E-02 0.  1.
    5000001    1    1    2    0    0  0.34011539733E+02  0.10269310704E+03 -0.91302521311E+03  0.93409994050E+03  0.16500000000E+03 0.  0.
   -5000001    1    1    2    0    0 -0.34011539733E+02 -0.10269310704E+03 -0.67088795952E+03  0.69929844366E+03  0.16500000000E+03 0.  0.
<mgrwt>
<rscale>  0 0.39901045E+03</rscale>
<asrwt>0</asrwt>
<pdfrwt beam="1">  1        2 0.22980790E+00 0.39901045E+03</pdfrwt>
<pdfrwt beam="2">  1       -2 0.35346590E-02 0.39901045E+03</pdfrwt>
<totfact> 0.45668548E+03</totfact>
</mgrwt>
</event>
<event>
 4    1  0.5399378E-005  0.4623325E+03  0.7818608E-02  0.1024107E+00
         -2   -1    0    0    0  501 -0.00000000000E+00  0.00000000000E+00  0.77445488723E+02  0.77445488765E+02  0.25500000000E-02 0. -1.
          2   -1    0    0  501    0  0.00000000000E+00 -0.00000000000E+00 -0.69000581983E+03  0.69000581984E+03  0.25500000000E-02 0.  1.
    5000001    1    1    2    0    0 -0.14650022672E+03  0.14604201360E+02 -0.19446718718E+03  0.29447934735E+03  0.16500000000E+03 0.  0.
   -5000001    1    1    2    0    0  0.14650022672E+03 -0.14604201360E+02 -0.41809314393E+03  0.47297196125E+03  0.16500000000E+03 0.  0.
<mgrwt>
<rscale>  0 0.46233251E+03</rscale>
<asrwt>0</asrwt>
<pdfrwt beam="1">  1        2 0.98572257E-01 0.46233251E+03</pdfrwt>
<pdfrwt beam="2">  1       -2 0.11063642E-01 0.46233251E+03</pdfrwt>
<totfact> 0.26503874E+03</totfact>
</mgrwt>
</event>
<event>
 4    1  0.5399378E-005  0.5376428E+03  0.7818608E-02  0.1004395E+00
          2   -1    0    0  501    0  0.00000000000E+00  0.00000000000E+00  0.12274166684E+04  0.12274166684E+04  0.25500000000E-02 0.  1.
         -2   -1    0    0    0  501 -0.00000000000E+00 -0.00000000000E+00 -0.58875634230E+02  0.58875634285E+02  0.25500000000E-02 0. -1.
    5000001    1    1    2    0    0 -0.20016261131E+03 -0.29747880284E+02  0.73727482986E+03  0.78214396507E+03  0.16500000000E+03 0.  0.
   -5000001    1    1    2    0    0  0.20016261131E+03  0.29747880284E+02  0.43126620435E+03  0.50414833766E+03  0.16500000000E+03 0.  0.
<mgrwt>
<rscale>  0 0.53764276E+03</rscale>
<asrwt>0</asrwt>
<pdfrwt beam="1">  1        2 0.17534521E+00 0.53764276E+03</pdfrwt>
<pdfrwt beam="2">  1       -2 0.84108060E-02 0.53764276E+03</pdfrwt>
<totfact> 0.18870729E+03</totfact>
</mgrwt>
</event>
<event>
 4    1  0.5399378E-005  0.5034727E+03  0.7818608E-02  0.1012876E+00
         -2   -1    0    0    0  501 -0.00000000000E+00  0.00000000000E+00  0.30517326081E+03  0.30517326082E+03  0.25500000000E-02 0. -1.
          2   -1    0    0  501    0  0.00000000000E+00 -0.00000000000E+00 -0.20765643873E+03  0.20765643875E+03  0.25500000000E-02 0.  1.
    5000001    1    1    2    0    0  0.12282670954E+03  0.10164175431E+03 -0.56746265331E+02  0.23635267171E+03  0.16500000000E+03 0.  0.
   -5000001    1    1    2    0    0 -0.12282670954E+03 -0.10164175431E+03  0.15426308741E+03  0.27647702786E+03  0.16500000000E+03 0.  0.
<mgrwt>
<rscale>  0 0.50347271E+03</rscale>
<asrwt>0</asrwt>
<pdfrwt beam="1">  1        2 0.29665206E-01 0.50347271E+03</pdfrwt>
<pdfrwt beam="2">  1       -2 0.43596180E-01 0.50347271E+03</pdfrwt>
<totfact> 0.90183757E+02</totfact>
</mgrwt>
</event>
<event>
 4    1  0.5399378E-005  0.4089597E+03  0.7818608E-02  0.1040721E+00
         -2   -1    0    0    0  501 -0.00000000000E+00  0.00000000000E+00  0.59458840534E+02  0.59458840589E+02  0.25500000000E-02 0. -1.
          2   -1    0    0  501    0  0.00000000000E+00 -0.00000000000E+00 -0.70320926355E+03  0.70320926355E+03  0.25500000000E-02 0.  1.
    5000001    1    1    2    0    0  0.99954156958E+01  0.12032820308E+03 -0.31652757117E+03  0.37682023314E+03  0.16500000000E+03 0.  0.
   -5000001    1    1    2    0    0 -0.99954156958E+01 -0.12032820308E+03 -0.32722285184E+03  0.38584787100E+03  0.16500000000E+03 0.  0.
<mgrwt>
<rscale>  0 0.40895969E+03</rscale>
<asrwt>0</asrwt>
<pdfrwt beam="1">  1        2 0.10045846E+00 0.40895969E+03</pdfrwt>
<pdfrwt beam="2">  1       -2 0.84941205E-02 0.40895969E+03</pdfrwt>
<totfact> 0.39533589E+03</totfact>
</mgrwt>
</event>
<event>
 4    1  0.5399378E-005  0.5510354E+03  0.7818608E-02  0.1001255E+00
          2   -1    0    0  501    0  0.00000000000E+00  0.00000000000E+00  0.19538637975E+04  0.19538637975E+04  0.25500000000E-02 0.  1.
         -2   -1    0    0    0  501 -0.00000000000E+00 -0.00000000000E+00 -0.38851227320E+02  0.38851227403E+02  0.25500000000E-02 0. -1.
    5000001    1    1    2    0    0  0.14218368575E+03 -0.16871440516E+03  0.95004613397E+03  0.98918825694E+03  0.16500000000E+03 0.  0.
   -5000001    1    1    2    0    0 -0.14218368575E+03  0.16871440516E+03  0.96496643620E+03  0.10035267679E+04  0.16500000000E+03 0.  0.
<mgrwt>
<rscale>  0 0.55103541E+03</rscale>
<asrwt>0</asrwt>
<pdfrwt beam="1">  1        2 0.27912340E+00 0.55103541E+03</pdfrwt>
<pdfrwt beam="2">  1       -2 0.55501754E-02 0.55103541E+03</pdfrwt>
<totfact> 0.15278760E+03</totfact>
</mgrwt>
</event>
<event>
 4    1  0.5399378E-005  0.5042740E+03  0.7818608E-02  0.1012669E+00
         -2   -1    0    0    0  501 -0.00000000000E+00  0.00000000000E+00  0.43197073921E+03  0.43197073921E+03  0.25500000000E-02 0.  1.
          2   -1    0    0  501    0  0.00000000000E+00 -0.00000000000E+00 -0.14716986658E+03  0.14716986660E+03  0.25500000000E-02 0. -1.
    5000001    1    1    2    0    0 -0.15567326711E+03 -0.10752669576E+03  0.11541960398E+03  0.27630208356E+03  0.16500000000E+03 0.  0.
   -5000001    1    1    2    0    0  0.15567326711E+03  0.10752669576E+03  0.16938126865E+03  0.30283852226E+03  0.16500000000E+03 0.  0.
<mgrwt>
<rscale>  0 0.50427404E+03</rscale>
<asrwt>0</asrwt>
<pdfrwt beam="1">  1        2 0.21024267E-01 0.50427404E+03</pdfrwt>
<pdfrwt beam="2">  1       -2 0.61710106E-01 0.50427404E+03</pdfrwt>
<totfact> 0.65797098E+02</totfact>
</mgrwt>
</event>
<event>
 4    1  0.5399378E-005  0.8586781E+03  0.7818608E-02  0.9478763E-01
         -2   -1    0    0    0  501 -0.00000000000E+00  0.00000000000E+00  0.11182276904E+03  0.11182276907E+03  0.25500000000E-02 0. -1.
          2   -1    0    0  501    0  0.00000000000E+00 -0.00000000000E+00 -0.16484302816E+04  0.16484302816E+04  0.25500000000E-02 0.  1.
    5000001    1    1    2    0    0 -0.34986402676E+03 -0.14258103498E+03 -0.10140665540E+04  0.10946644074E+04  0.16500000000E+03 0.  0.
   -5000001    1    1    2    0    0  0.34986402676E+03  0.14258103498E+03 -0.52254095854E+03  0.66558864331E+03  0.16500000000E+03 0.  0.
<mgrwt>
<rscale>  0 0.85867814E+03</rscale>
<asrwt>0</asrwt>
<pdfrwt beam="1">  1        2 0.23549003E+00 0.85867814E+03</pdfrwt>
<pdfrwt beam="2">  1       -2 0.15974682E-01 0.85867814E+03</pdfrwt>
<totfact> 0.38664888E+02</totfact>
</mgrwt>
</event>
<event>
 4    1  0.5399378E-005  0.5293460E+03  0.7818608E-02  0.1006391E+00
         -2   -1    0    0    0  501 -0.00000000000E+00  0.00000000000E+00  0.36649176821E+02  0.36649176909E+02  0.25500000000E-02 0. -1.
          2   -1    0    0  501    0  0.00000000000E+00 -0.00000000000E+00 -0.19114152437E+04  0.19114152437E+04  0.25500000000E-02 0.  1.
    5000001    1    1    2    0    0  0.18763884243E+03 -0.85893560247E+02 -0.88028085875E+03  0.91907857616E+03  0.16500000000E+03 0.  0.
   -5000001    1    1    2    0    0 -0.18763884243E+03  0.85893560247E+02 -0.99448520810E+03  0.10289858444E+04  0.16500000000E+03 0.  0.
<mgrwt>
<rscale>  0 0.52934599E+03</rscale>
<asrwt>0</asrwt>
<pdfrwt beam="1">  1        2 0.27305926E+00 0.52934599E+03</pdfrwt>
<pdfrwt beam="2">  1       -2 0.52355979E-02 0.52934599E+03</pdfrwt>
<totfact> 0.17584443E+03</totfact>
</mgrwt>
</event>
<event>
 4    1  0.5399378E-005  0.9007726E+03  0.7818608E-02  0.9424616E-01
          2   -1    0    0  501    0  0.00000000000E+00  0.00000000000E+00  0.14197984100E+04  0.14197984100E+04  0.25500000000E-02 0.  1.
         -2   -1    0    0    0  501 -0.00000000000E+00 -0.00000000000E+00 -0.14287085562E+03  0.14287085564E+03  0.25500000000E-02 0. -1.
    5000001    1    1    2    0    0  0.10742936249E+03  0.29832745368E+03  0.11138222100E+04  0.11697714533E+04  0.16500000000E+03 0.  0.
   -5000001    1    1    2    0    0 -0.10742936249E+03 -0.29832745368E+03  0.16310534435E+03  0.39289781229E+03  0.16500000000E+03 0.  0.
<mgrwt>
<rscale>  0 0.90077259E+03</rscale>
<asrwt>0</asrwt>
<pdfrwt beam="1">  1        2 0.20282834E+00 0.90077259E+03</pdfrwt>
<pdfrwt beam="2">  1       -2 0.20410123E-01 0.90077259E+03</pdfrwt>
<totfact> 0.33287223E+02</totfact>
</mgrwt>
</event>
<event>
 4    1  0.5399378E-005  0.4818607E+03  0.7818608E-02  0.1018625E+00
         -2   -1    0    0    0  501 -0.00000000000E+00  0.00000000000E+00  0.18364469624E+03  0.18364469626E+03  0.25500000000E-02 0. -1.
          2   -1    0    0  501    0  0.00000000000E+00 -0.00000000000E+00 -0.31608559051E+03  0.31608559052E+03  0.25500000000E-02 0.  1.
    5000001    1    1    2    0    0 -0.15362155270E+03  0.37721976097E+02 -0.14520185723E+03  0.27079717185E+03  0.16500000000E+03 0.  0.
   -5000001    1    1    2    0    0  0.15362155270E+03 -0.37721976097E+02  0.12760962965E+02  0.22893311493E+03  0.16500000000E+03 0.  0.
<mgrwt>
<rscale>  0 0.48186074E+03</rscale>
<asrwt>0</asrwt>
<pdfrwt beam="1">  1        2 0.45155084E-01 0.48186074E+03</pdfrwt>
<pdfrwt beam="2">  1       -2 0.26234957E-01 0.48186074E+03</pdfrwt>
<totfact> 0.14719474E+03</totfact>
</mgrwt>
</event>
<event>
 4    1  0.5399378E-005  0.4726198E+03  0.7818608E-02  0.1021183E+00
         -2   -1    0    0    0  501 -0.00000000000E+00  0.00000000000E+00  0.52646325036E+02  0.52646325098E+02  0.25500000000E-02 0. -1.
          2   -1    0    0  501    0  0.00000000000E+00 -0.00000000000E+00 -0.10607077599E+04  0.10607077599E+04  0.25500000000E-02 0.  1.
    5000001    1    1    2    0    0  0.16389458104E+03 -0.38728385378E+02 -0.54172528006E+03  0.59080673709E+03  0.16500000000E+03 0.  0.
   -5000001    1    1    2    0    0 -0.16389458104E+03  0.38728385378E+02 -0.46633615475E+03  0.52254734786E+03  0.16500000000E+03 0.  0.
<mgrwt>
<rscale>  0 0.47261979E+03</rscale>
<asrwt>0</asrwt>
<pdfrwt beam="1">  1        2 0.15152967E+00 0.47261979E+03</pdfrwt>
<pdfrwt beam="2">  1       -2 0.75209042E-02 0.47261979E+03</pdfrwt>
<totfact> 0.28045868E+03</totfact>
</mgrwt>
</event>
<event>
 4    1  0.5399378E-005  0.3490061E+03  0.7818608E-02  0.1063024E+00
         -2   -1    0    0    0  501 -0.00000000000E+00  0.00000000000E+00  0.10362890776E+03  0.10362890779E+03  0.25500000000E-02 0. -1.
          2   -1    0    0  501    0  0.00000000000E+00 -0.00000000000E+00 -0.29384956412E+03  0.29384956413E+03  0.25500000000E-02 0.  1.
    5000001    1    1    2    0    0 -0.31106815361E+02 -0.26061085030E+01 -0.14915508924E+03  0.22460335352E+03  0.16500000000E+03 0.  0.
   -5000001    1    1    2    0    0  0.31106815361E+02  0.26061085030E+01 -0.41065567117E+02  0.17287511841E+03  0.16500000000E+03 0.  0.
<mgrwt>
<rscale>  0 0.34900607E+03</rscale>
<asrwt>0</asrwt>
<pdfrwt beam="1">  1        2 0.41978509E-01 0.34900607E+03</pdfrwt>
<pdfrwt beam="2">  1       -2 0.14804130E-01 0.34900607E+03</pdfrwt>
<totfact> 0.42570840E+03</totfact>
</mgrwt>
</event>
<event>
 4    1  0.5399378E-005  0.5124245E+03  0.7818608E-02  0.1010586E+00
          2   -1    0    0  501    0  0.00000000000E+00  0.00000000000E+00  0.51301882579E+03  0.51301882580E+03  0.25500000000E-02 0.  1.
         -2   -1    0    0    0  501 -0.00000000000E+00 -0.00000000000E+00 -0.12795772730E+03  0.12795772733E+03  0.25500000000E-02 0. -1.
    5000001    1    1    2    0    0  0.21103325772E+02 -0.18810179741E+03  0.25621552389E+03  0.35874647208E+03  0.16500000000E+03 0.  0.
   -5000001    1    1    2    0    0 -0.21103325772E+02  0.18810179741E+03  0.12884557460E+03  0.28223008104E+03  0.16500000000E+03 0.  0.
<mgrwt>
<rscale>  0 0.51242452E+03</rscale>
<asrwt>0</asrwt>
<pdfrwt beam="1">  1        2 0.73288403E-01 0.51242452E+03</pdfrwt>
<pdfrwt beam="2">  1       -2 0.18279676E-01 0.51242452E+03</pdfrwt>
<totfact> 0.16228196E+03</totfact>
</mgrwt>
</event>
<event>
 4    1  0.5399378E-005  0.3976409E+03  0.7818608E-02  0.1044600E+00
         -2   -1    0    0    0  501 -0.00000000000E+00  0.00000000000E+00  0.28844758182E+02  0.28844758295E+02  0.25500000000E-02 0. -1.
          2   -1    0    0  501    0  0.00000000000E+00 -0.00000000000E+00 -0.13704244825E+04  0.13704244825E+04  0.25500000000E-02 0.  1.
    5000001    1    1    2    0    0  0.62483863837E+02 -0.80345066324E+02 -0.51559759258E+03  0.55084066697E+03  0.16500000000E+03 0.  0.
   -5000001    1    1    2    0    0 -0.62483863837E+02  0.80345066324E+02 -0.82598213173E+03  0.84842857381E+03  0.16500000000E+03 0.  0.
<mgrwt>
<rscale>  0 0.39764086E+03</rscale>
<asrwt>0</asrwt>
<pdfrwt beam="1">  1        2 0.19577489E+00 0.39764086E+03</pdfrwt>
<pdfrwt beam="2">  1       -2 0.41206806E-02 0.39764086E+03</pdfrwt>
<totfact> 0.47982213E+03</totfact>
</mgrwt>
</event>
<event>
 4    1  0.5399378E-005  0.4084927E+03  0.7818608E-02  0.1040878E+00
         -2   -1    0    0    0  501 -0.00000000000E+00  0.00000000000E+00  0.63797514362E+02  0.63797514413E+02  0.25500000000E-02 0. -1.
          2   -1    0    0  501    0  0.00000000000E+00 -0.00000000000E+00 -0.65389007425E+03  0.65389007426E+03  0.25500000000E-02 0.  1.
    5000001    1    1    2    0    0  0.20176811690E+02  0.73905037817E+02 -0.45818906328E+03  0.49298202407E+03  0.16500000000E+03 0.  0.
   -5000001    1    1    2    0    0 -0.20176811690E+02 -0.73905037817E+02 -0.13190349661E+03  0.22470556460E+03  0.16500000000E+03 0.  0.
<mgrwt>
<rscale>  0 0.40849265E+03</rscale>
<asrwt>0</asrwt>
<pdfrwt beam="1">  1        2 0.93412864E-01 0.40849265E+03</pdfrwt>
<pdfrwt beam="2">  1       -2 0.91139310E-02 0.40849265E+03</pdfrwt>
<totfact> 0.38555988E+03</totfact>
</mgrwt>
</event>
<event>
 4    1  0.5399378E-005  0.3924919E+03  0.7818608E-02  0.1046411E+00
         -2   -1    0    0    0  501 -0.00000000000E+00  0.00000000000E+00  0.56300894608E+02  0.56300894666E+02  0.25500000000E-02 0. -1.
          2   -1    0    0  501    0  0.00000000000E+00 -0.00000000000E+00 -0.68404730259E+03  0.68404730260E+03  0.25500000000E-02 0.  1.
    5000001    1    1    2    0    0  0.19959449472E+02 -0.10040031490E+03 -0.26022622356E+03  0.32468644918E+03  0.16500000000E+03 0.  0.
   -5000001    1    1    2    0    0 -0.19959449472E+02  0.10040031490E+03 -0.36752018443E+03  0.41566174808E+03  0.16500000000E+03 0.  0.
<mgrwt>
<rscale>  0 0.39249191E+03</rscale>
<asrwt>0</asrwt>
<pdfrwt beam="1">  1        2 0.97721038E-01 0.39249191E+03</pdfrwt>
<pdfrwt beam="2">  1       -2 0.80429854E-02 0.39249191E+03</pdfrwt>
<totfact> 0.44521750E+03</totfact>
</mgrwt>
</event>
<event>
 4    1  0.5399378E-005  0.6381811E+03  0.7818608E-02  0.9829213E-01
         -2   -1    0    0    0  501 -0.00000000000E+00  0.00000000000E+00  0.87470365468E+02  0.87470365506E+02  0.25500000000E-02 0. -1.
          2   -1    0    0  501    0  0.00000000000E+00 -0.00000000000E+00 -0.11640376020E+04  0.11640376020E+04  0.25500000000E-02 0.  1.
    5000001    1    1    2    0    0 -0.26641136002E+03  0.42348940029E+02 -0.62206791068E+03  0.69782657656E+03  0.16500000000E+03 0.  0.
   -5000001    1    1    2    0    0  0.26641136002E+03 -0.42348940029E+02 -0.45449932583E+03  0.55368139091E+03  0.16500000000E+03 0.  0.
<mgrwt>
<rscale>  0 0.63818115E+03</rscale>
<asrwt>0</asrwt>
<pdfrwt beam="1">  1        2 0.16629108E+00 0.63818115E+03</pdfrwt>
<pdfrwt beam="2">  1       -2 0.12495767E-01 0.63818115E+03</pdfrwt>
<totfact> 0.10742267E+03</totfact>
</mgrwt>
</event>
<event>
 4    1  0.5399378E-005  0.4098623E+03  0.7818608E-02  0.1040417E+00
          2   -1    0    0  501    0  0.00000000000E+00  0.00000000000E+00  0.11486116959E+04  0.11486116959E+04  0.25500000000E-02 0.  1.
         -2   -1    0    0    0  501 -0.00000000000E+00 -0.00000000000E+00 -0.36563079397E+02  0.36563079486E+02  0.25500000000E-02 0. -1.
    5000001    1    1    2    0    0  0.62679806842E+02  0.11341940359E+02  0.25670965068E+03  0.31174066553E+03  0.16500000000E+03 0.  0.
   -5000001    1    1    2    0    0 -0.62679806842E+02 -0.11341940359E+02  0.85533896580E+03  0.87343410982E+03  0.16500000000E+03 0.  0.
<mgrwt>
<rscale>  0 0.40986232E+03</rscale>
<asrwt>0</asrwt>
<pdfrwt beam="1">  1        2 0.16408740E+00 0.40986232E+03</pdfrwt>
<pdfrwt beam="2">  1       -2 0.52232967E-02 0.40986232E+03</pdfrwt>
<totfact> 0.44040932E+03</totfact>
</mgrwt>
</event>
<event>
 4    1  0.5399378E-005  0.5849392E+03  0.7818608E-02  0.9937155E-01
         -2   -1    0    0    0  501 -0.00000000000E+00  0.00000000000E+00  0.16922477641E+03  0.16922477643E+03  0.25500000000E-02 0. -1.
          2   -1    0    0  501    0  0.00000000000E+00 -0.00000000000E+00 -0.50547243866E+03  0.50547243867E+03  0.25500000000E-02 0.  1.
    5000001    1    1    2    0    0 -0.23221872425E+03 -0.61614712242E+02 -0.19617781774E+03  0.35132982343E+03  0.16500000000E+03 0.  0.
   -5000001    1    1    2    0    0  0.23221872425E+03  0.61614712242E+02 -0.14006984451E+03  0.32336739167E+03  0.16500000000E+03 0.  0.
<mgrwt>
<rscale>  0 0.58493918E+03</rscale>
<asrwt>0</asrwt>
<pdfrwt beam="1">  1        2 0.72210348E-01 0.58493918E+03</pdfrwt>
<pdfrwt beam="2">  1       -2 0.24174968E-01 0.58493918E+03</pdfrwt>
<totfact> 0.10116732E+03</totfact>
</mgrwt>
</event>
<event>
 4    1  0.5399378E-005  0.6906410E+03  0.7818608E-02  0.9733373E-01
          2   -1    0    0  501    0  0.00000000000E+00  0.00000000000E+00  0.39526451816E+03  0.39526451817E+03  0.25500000000E-02 0.  1.
         -2   -1    0    0    0  501 -0.00000000000E+00 -0.00000000000E+00 -0.30168720071E+03  0.30168720072E+03  0.25500000000E-02 0. -1.
    5000001    1    1    2    0    0 -0.28804660700E+03  0.76541156142E+01 -0.48902974471E+02  0.33562767198E+03  0.16500000000E+03 0.  0.
   -5000001    1    1    2    0    0  0.28804660700E+03 -0.76541156142E+01  0.14248029192E+03  0.36132404691E+03  0.16500000000E+03 0.  0.
<mgrwt>
<rscale>  0 0.69064100E+03</rscale>
<asrwt>0</asrwt>
<pdfrwt beam="1">  1        2 0.56466360E-01 0.69064100E+03</pdfrwt>
<pdfrwt beam="2">  1       -2 0.43098172E-01 0.69064100E+03</pdfrwt>
<totfact> 0.45060698E+02</totfact>
</mgrwt>
</event>
<event>
 4    1  0.5399378E-005  0.3479360E+03  0.7818608E-02  0.1063465E+00
          2   -1    0    0  501    0  0.00000000000E+00  0.00000000000E+00  0.12035317100E+03  0.12035317102E+03  0.25500000000E-02 0.  1.
         -2   -1    0    0    0  501 -0.00000000000E+00 -0.00000000000E+00 -0.25146714208E+03  0.25146714209E+03  0.25500000000E-02 0. -1.
    5000001    1    1    2    0    0  0.38038813851E+02  0.20325651195E+02 -0.28851153906E+02  0.17296668043E+03  0.16500000000E+03 0.  0.
   -5000001    1    1    2    0    0 -0.38038813851E+02 -0.20325651195E+02 -0.10226281718E+03  0.19885363269E+03  0.16500000000E+03 0.  0.
<mgrwt>
<rscale>  0 0.34793602E+03</rscale>
<asrwt>0</asrwt>
<pdfrwt beam="1">  1        2 0.17193310E-01 0.34793602E+03</pdfrwt>
<pdfrwt beam="2">  1       -2 0.35923877E-01 0.34793602E+03</pdfrwt>
<totfact> 0.24349997E+03</totfact>
</mgrwt>
</event>
<event>
 4    1  0.5399378E-005  0.6408688E+03  0.7818608E-02  0.9824066E-01
         -2   -1    0    0    0  501 -0.00000000000E+00  0.00000000000E+00  0.85562975256E+02  0.85562975294E+02  0.25500000000E-02 0. -1.
          2   -1    0    0  501    0  0.00000000000E+00 -0.00000000000E+00 -0.12000308778E+04  0.12000308778E+04  0.25500000000E-02 0.  1.
    5000001    1    1    2    0    0  0.26972089827E+03 -0.20096324886E+02 -0.46102901833E+03  0.55939787359E+03  0.16500000000E+03 0.  0.
   -5000001    1    1    2    0    0 -0.26972089827E+03  0.20096324886E+02 -0.65343888421E+03  0.72619597950E+03  0.16500000000E+03 0.  0.
<mgrwt>
<rscale>  0 0.64086882E+03</rscale>
<asrwt>0</asrwt>
<pdfrwt beam="1">  1        2 0.17143297E+00 0.64086882E+03</pdfrwt>
<pdfrwt beam="2">  1       -2 0.12223283E-01 0.64086882E+03</pdfrwt>
<totfact> 0.10630209E+03</totfact>
</mgrwt>
</event>
<event>
 4    1  0.5399378E-005  0.6135207E+03  0.7818608E-02  0.9877745E-01
          2   -1    0    0  501    0  0.00000000000E+00  0.00000000000E+00  0.11866878517E+03  0.11866878519E+03  0.25500000000E-02 0.  1.
         -2   -1    0    0    0  501 -0.00000000000E+00 -0.00000000000E+00 -0.79297950678E+03  0.79297950679E+03  0.25500000000E-02 0. -1.
    5000001    1    1    2    0    0  0.46336223090E+02  0.24924002731E+03 -0.26125247817E+03  0.39968174106E+03  0.16500000000E+03 0.  0.
   -5000001    1    1    2    0    0 -0.46336223090E+02 -0.24924002731E+03 -0.41305824344E+03  0.51196655092E+03  0.16500000000E+03 0.  0.
<mgrwt>
<rscale>  0 0.61352071E+03</rscale>
<asrwt>0</asrwt>
<pdfrwt beam="1">  1        2 0.16952684E-01 0.61352071E+03</pdfrwt>
<pdfrwt beam="2">  1       -2 0.11328278E+00 0.61352071E+03</pdfrwt>
<totfact> 0.21419389E+02</totfact>
</mgrwt>
</event>
<event>
 4    1  0.5399378E-005  0.5216087E+03  0.7818608E-02  0.1008288E+00
          2   -1    0    0  501    0  0.00000000000E+00  0.00000000000E+00  0.50906750006E+03  0.50906750007E+03  0.25500000000E-02 0. -1.
         -2   -1    0    0    0  501 -0.00000000000E+00 -0.00000000000E+00 -0.13361469277E+03  0.13361469279E+03  0.25500000000E-02 0.  1.
    5000001    1    1    2    0    0 -0.51008460889E+02 -0.14820797690E+03  0.30775807843E+02  0.22965107848E+03  0.16500000000E+03 0.  0.
   -5000001    1    1    2    0    0  0.51008460889E+02  0.14820797690E+03  0.34467699945E+03  0.41303111438E+03  0.16500000000E+03 0.  0.
<mgrwt>
<rscale>  0 0.52160866E+03</rscale>
<asrwt>0</asrwt>
<pdfrwt beam="1">  1        2 0.72723930E-01 0.52160866E+03</pdfrwt>
<pdfrwt beam="2">  1       -2 0.19087813E-01 0.52160866E+03</pdfrwt>
<totfact> 0.15197286E+03</totfact>
</mgrwt>
</event>
<event>
 4    1  0.5399378E-005  0.7768660E+03  0.7818608E-02  0.9594120E-01
          2   -1    0    0  501    0  0.00000000000E+00  0.00000000000E+00  0.96790617586E+03  0.96790617586E+03  0.25500000000E-02 0.  1.
         -2   -1    0    0    0  501 -0.00000000000E+00 -0.00000000000E+00 -0.15588307352E+03  0.15588307354E+03  0.25500000000E-02 0. -1.
    5000001    1    1    2    0    0  0.28828702810E+03 -0.91289506174E+02  0.66563723076E+03  0.74949390090E+03  0.16500000000E+03 0.  0.
   -5000001    1    1    2    0    0 -0.28828702810E+03  0.91289506174E+02  0.14638587157E+03  0.37429534850E+03  0.16500000000E+03 0.  0.
<mgrwt>
<rscale>  0 0.77686598E+03</rscale>
<asrwt>0</asrwt>
<pdfrwt beam="1">  1        2 0.13827231E+00 0.77686598E+03</pdfrwt>
<pdfrwt beam="2">  1       -2 0.22269010E-01 0.77686598E+03</pdfrwt>
<totfact> 0.52048850E+02</totfact>
</mgrwt>
</event>
<event>
 4    1  0.5399378E-005  0.5328507E+03  0.7818608E-02  0.1005543E+00
          2   -1    0    0  501    0  0.00000000000E+00  0.00000000000E+00  0.32820202571E+04  0.32820202571E+04  0.25500000000E-02 0.  1.
         -2   -1    0    0    0  501 -0.00000000000E+00 -0.00000000000E+00 -0.21627674093E+02  0.21627674244E+02  0.25500000000E-02 0. -1.
    5000001    1    1    2    0    0  0.16634234750E+03 -0.11053151680E+03  0.20159145418E+04  0.20324919269E+04  0.16500000000E+03 0.  0.
   -5000001    1    1    2    0    0 -0.16634234750E+03  0.11053151680E+03  0.12444780412E+04  0.12711560045E+04  0.16500000000E+03 0.  0.
<mgrwt>
<rscale>  0 0.53285069E+03</rscale>
<asrwt>0</asrwt>
<pdfrwt beam="1">  1        2 0.46885994E+00 0.53285069E+03</pdfrwt>
<pdfrwt beam="2">  1       -2 0.30896684E-02 0.53285069E+03</pdfrwt>
<totfact> 0.76061691E+02</totfact>
</mgrwt>
</event>
<event>
 4    1  0.5399378E-005  0.3668468E+03  0.7818608E-02  0.1055905E+00
         -2   -1    0    0    0  501 -0.00000000000E+00  0.00000000000E+00  0.86821966979E+02  0.86821967016E+02  0.25500000000E-02 0. -1.
          2   -1    0    0  501    0  0.00000000000E+00 -0.00000000000E+00 -0.38750718920E+03  0.38750718921E+03  0.25500000000E-02 0.  1.
    5000001    1    1    2    0    0 -0.49326526756E+02 -0.35020772044E+02 -0.21826552159E+03  0.28022205237E+03  0.16500000000E+03 0.  0.
   -5000001    1    1    2    0    0  0.49326526756E+02  0.35020772044E+02 -0.82419700626E+02  0.19410710386E+03  0.16500000000E+03 0.  0.
<mgrwt>
<rscale>  0 0.36684676E+03</rscale>
<asrwt>0</asrwt>
<pdfrwt beam="1">  1        2 0.55358169E-01 0.36684676E+03</pdfrwt>
<pdfrwt beam="2">  1       -2 0.12403138E-01 0.36684676E+03</pdfrwt>
<totfact> 0.42217156E+03</totfact>
</mgrwt>
</event>
<event>
 4    1  0.5399378E-005  0.5288172E+03  0.7818608E-02  0.1006519E+00
         -2   -1    0    0    0  501 -0.00000000000E+00  0.00000000000E+00  0.16334453153E+03  0.16334453155E+03  0.25500000000E-02 0. -1.
          2   -1    0    0  501    0  0.00000000000E+00 -0.00000000000E+00 -0.42800281966E+03  0.42800281967E+03  0.25500000000E-02 0.  1.
    5000001    1    1    2    0    0 -0.19418920971E+03 -0.70201248701E+02 -0.12448103886E+03  0.29216124576E+03  0.16500000000E+03 0.  0.
   -5000001    1    1    2    0    0  0.19418920971E+03  0.70201248701E+02 -0.14017724927E+03  0.29918610546E+03  0.16500000000E+03 0.  0.
<mgrwt>
<rscale>  0 0.52881725E+03</rscale>
<asrwt>0</asrwt>
<pdfrwt beam="1">  1        2 0.61143259E-01 0.52881725E+03</pdfrwt>
<pdfrwt beam="2">  1       -2 0.23334933E-01 0.52881725E+03</pdfrwt>
<totfact> 0.12994327E+03</totfact>
</mgrwt>
</event>
<event>
 4    1  0.5399378E-005  0.5690175E+03  0.7818608E-02  0.9971855E-01
         -2   -1    0    0    0  501 -0.00000000000E+00  0.00000000000E+00  0.16463919230E+03  0.16463919232E+03  0.25500000000E-02 0. -1.
          2   -1    0    0  501    0  0.00000000000E+00 -0.00000000000E+00 -0.49165231536E+03  0.49165231537E+03  0.25500000000E-02 0.  1.
    5000001    1    1    2    0    0 -0.17538027086E+03 -0.11202450194E+03 -0.45814036220E+02  0.26950260547E+03  0.16500000000E+03 0.  0.
   -5000001    1    1    2    0    0  0.17538027086E+03  0.11202450194E+03 -0.28119908684E+03  0.38678890222E+03  0.16500000000E+03 0.  0.
<mgrwt>
<rscale>  0 0.56901754E+03</rscale>
<asrwt>0</asrwt>
<pdfrwt beam="1">  1        2 0.70236044E-01 0.56901754E+03</pdfrwt>
<pdfrwt beam="2">  1       -2 0.23519885E-01 0.56901754E+03</pdfrwt>
<totfact> 0.10965630E+03</totfact>
</mgrwt>
</event>
<event>
 4    1  0.5399378E-005  0.4751548E+03  0.7818608E-02  0.1020475E+00
         -2   -1    0    0    0  501 -0.00000000000E+00  0.00000000000E+00  0.41517814135E+02  0.41517814213E+02  0.25500000000E-02 0. -1.
          2   -1    0    0  501    0  0.00000000000E+00 -0.00000000000E+00 -0.13594891468E+04  0.13594891468E+04  0.25500000000E-02 0.  1.
    5000001    1    1    2    0    0 -0.16550243468E+03 -0.42725653003E+02 -0.66257326719E+03  0.70387844952E+03  0.16500000000E+03 0.  0.
   -5000001    1    1    2    0    0  0.16550243468E+03  0.42725653003E+02 -0.65539806552E+03  0.69712851153E+03  0.16500000000E+03 0.  0.
<mgrwt>
<rscale>  0 0.47515479E+03</rscale>
<asrwt>0</asrwt>
<pdfrwt beam="1">  1        2 0.19421271E+00 0.47515479E+03</pdfrwt>
<pdfrwt beam="2">  1       -2 0.59311172E-02 0.47515479E+03</pdfrwt>
<totfact> 0.27770957E+03</totfact>
</mgrwt>
</event>
<event>
 4    1  0.5399378E-005  0.6697072E+03  0.7818608E-02  0.9770487E-01
          2   -1    0    0  501    0  0.00000000000E+00  0.00000000000E+00  0.17406416472E+04  0.17406416472E+04  0.25500000000E-02 0.  1.
         -2   -1    0    0    0  501 -0.00000000000E+00 -0.00000000000E+00 -0.64417011861E+02  0.64417011912E+02  0.25500000000E-02 0. -1.
    5000001    1    1    2    0    0 -0.26330175575E+03  0.67065115729E+02  0.11217771245E+04  0.11659478811E+04  0.16500000000E+03 0.  0.
   -5000001    1    1    2    0    0  0.26330175575E+03 -0.67065115729E+02  0.55444751083E+03  0.63911077803E+03  0.16500000000E+03 0.  0.
<mgrwt>
<rscale>  0 0.66970720E+03</rscale>
<asrwt>0</asrwt>
<pdfrwt beam="1">  1        2 0.24866304E+00 0.66970720E+03</pdfrwt>
<pdfrwt beam="2">  1       -2 0.92024322E-02 0.66970720E+03</pdfrwt>
<totfact> 0.87370709E+02</totfact>
</mgrwt>
</event>
<event>
 4    1  0.5399378E-005  0.4594973E+03  0.7818608E-02  0.1024927E+00
         -2   -1    0    0    0  501 -0.00000000000E+00  0.00000000000E+00  0.81511360767E+02  0.81511360807E+02  0.25500000000E-02 0. -1.
          2   -1    0    0  501    0  0.00000000000E+00 -0.00000000000E+00 -0.64757151634E+03  0.64757151634E+03  0.25500000000E-02 0.  1.
    5000001    1    1    2    0    0  0.58476202793E+02 -0.11402001665E+03 -0.13134148437E+03  0.24677037101E+03  0.16500000000E+03 0.  0.
   -5000001    1    1    2    0    0 -0.58476202793E+02  0.11402001665E+03 -0.43471867120E+03  0.48231250614E+03  0.16500000000E+03 0.  0.
<mgrwt>
<rscale>  0 0.45949727E+03</rscale>
<asrwt>0</asrwt>
<pdfrwt beam="1">  1        2 0.92510214E-01 0.45949727E+03</pdfrwt>
<pdfrwt beam="2">  1       -2 0.11644480E-01 0.45949727E+03</pdfrwt>
<totfact> 0.26308493E+03</totfact>
</mgrwt>
</event>
<event>
 4    1  0.5399378E-005  0.9370895E+03  0.7818608E-02  0.9380370E-01
          2   -1    0    0  501    0  0.00000000000E+00  0.00000000000E+00  0.11577299932E+04  0.11577299932E+04  0.25500000000E-02 0.  1.
         -2   -1    0    0    0  501 -0.00000000000E+00 -0.00000000000E+00 -0.18962468639E+03  0.18962468640E+03  0.25500000000E-02 0. -1.
    5000001    1    1    2    0    0  0.22705470309E+03 -0.32943683112E+03  0.74216509112E+03  0.85913705913E+03  0.16500000000E+03 0.  0.
   -5000001    1    1    2    0    0 -0.22705470309E+03  0.32943683112E+03  0.22594021573E+03  0.48821762051E+03  0.16500000000E+03 0.  0.
<mgrwt>
<rscale>  0 0.93708951E+03</rscale>
<asrwt>0</asrwt>
<pdfrwt beam="1">  1        2 0.16539000E+00 0.93708951E+03</pdfrwt>
<pdfrwt beam="2">  1       -2 0.27089240E-01 0.93708951E+03</pdfrwt>
<totfact> 0.27943512E+02</totfact>
</mgrwt>
</event>
<event>
 4    1  0.5399378E-005  0.6218299E+03  0.7818608E-02  0.9861123E-01
          2   -1    0    0  501    0  0.00000000000E+00  0.00000000000E+00  0.18122448331E+04  0.18122448331E+04  0.25500000000E-02 0.  1.
         -2   -1    0    0    0  501 -0.00000000000E+00 -0.00000000000E+00 -0.53341645162E+02  0.53341645223E+02  0.25500000000E-02 0. -1.
    5000001    1    1    2    0    0 -0.23179461266E+03 -0.98103591386E+02  0.64532288400E+03  0.71205314529E+03  0.16500000000E+03 0.  0.
   -5000001    1    1    2    0    0  0.23179461266E+03  0.98103591386E+02  0.11135803039E+04  0.11535333330E+04  0.16500000000E+03 0.  0.
<mgrwt>
<rscale>  0 0.62182995E+03</rscale>
<asrwt>0</asrwt>
<pdfrwt beam="1">  1        2 0.25889220E+00 0.62182995E+03</pdfrwt>
<pdfrwt beam="2">  1       -2 0.76202325E-02 0.62182995E+03</pdfrwt>
<totfact> 0.10897306E+03</totfact>
</mgrwt>
</event>
<event>
 4    1  0.5399378E-005  0.3825369E+03  0.7818608E-02  0.1050000E+00
          2   -1    0    0  501    0  0.00000000000E+00  0.00000000000E+00  0.28000489977E+04  0.28000489977E+04  0.25500000000E-02 0.  1.
         -2   -1    0    0    0  501 -0.00000000000E+00 -0.00000000000E+00 -0.13065347395E+02  0.13065347644E+02  0.25500000000E-02 0. -1.
    5000001    1    1    2    0    0  0.74066116617E+01 -0.93033915657E+02  0.12062292652E+04  0.12210340730E+04  0.16500000000E+03 0.  0.
   -5000001    1    1    2    0    0 -0.74066116617E+01  0.93033915657E+02  0.15807543852E+04  0.15920802723E+04  0.16500000000E+03 0.  0.
<mgrwt>
<rscale>  0 0.38253686E+03</rscale>
<asrwt>0</asrwt>
<pdfrwt beam="1">  1        2 0.40000729E+00 0.38253686E+03</pdfrwt>
<pdfrwt beam="2">  1       -2 0.18664769E-02 0.38253686E+03</pdfrwt>
<totfact> 0.30004999E+03</totfact>
</mgrwt>
</event>
<event>
 4    1  0.5399378E-005  0.3936365E+03  0.7818608E-02  0.1046006E+00
          2   -1    0    0  501    0  0.00000000000E+00  0.00000000000E+00  0.99234408487E+03  0.99234408488E+03  0.25500000000E-02 0.  1.
         -2   -1    0    0    0  501 -0.00000000000E+00 -0.00000000000E+00 -0.39036289094E+02  0.39036289177E+02  0.25500000000E-02 0. -1.
    5000001    1    1    2    0    0 -0.65145070735E+02 -0.19426771300E+02  0.25914884884E+03  0.31464965524E+03  0.16500000000E+03 0.  0.
   -5000001    1    1    2    0    0  0.65145070735E+02  0.19426771300E+02  0.69415894693E+03  0.71673071882E+03  0.16500000000E+03 0.  0.
<mgrwt>
<rscale>  0 0.39363654E+03</rscale>
<asrwt>0</asrwt>
<pdfrwt beam="1">  1        2 0.14176343E+00 0.39363654E+03</pdfrwt>
<pdfrwt beam="2">  1       -2 0.55766133E-02 0.39363654E+03</pdfrwt>
<totfact> 0.49041599E+03</totfact>
</mgrwt>
</event>
<event>
 4    1  0.5399378E-005  0.3700655E+03  0.7818608E-02  0.1054668E+00
         -2   -1    0    0    0  501 -0.00000000000E+00  0.00000000000E+00  0.59371032595E+02  0.59371032650E+02  0.25500000000E-02 0. -1.
          2   -1    0    0  501    0  0.00000000000E+00 -0.00000000000E+00 -0.57666373495E+03  0.57666373496E+03  0.25500000000E-02 0.  1.
    5000001    1    1    2    0    0  0.52412436500E+02  0.64749042565E+02 -0.24400002846E+03  0.30610539998E+03  0.16500000000E+03 0.  0.
   -5000001    1    1    2    0    0 -0.52412436500E+02 -0.64749042565E+02 -0.27329267390E+03  0.32992936763E+03  0.16500000000E+03 0.  0.
<mgrwt>
<rscale>  0 0.37006552E+03</rscale>
<asrwt>0</asrwt>
<pdfrwt beam="1">  1        2 0.82380530E-01 0.37006552E+03</pdfrwt>
<pdfrwt beam="2">  1       -2 0.84815764E-02 0.37006552E+03</pdfrwt>
<totfact> 0.49933189E+03</totfact>
</mgrwt>
</event>
<event>
 4    1  0.5399378E-005  0.5069040E+03  0.7818608E-02  0.1011992E+00
          2   -1    0    0  501    0  0.00000000000E+00  0.00000000000E+00  0.10723387793E+04  0.10723387793E+04  0.25500000000E-02 0.  1.
         -2   -1    0    0    0  501 -0.00000000000E+00 -0.00000000000E+00 -0.59904495492E+02  0.59904495546E+02  0.25500000000E-02 0. -1.
    5000001    1    1    2    0    0 -0.13671388087E+03  0.12428896356E+03  0.62597219036E+03  0.67320473468E+03  0.16500000000E+03 0.  0.
   -5000001    1    1    2    0    0  0.13671388087E+03 -0.12428896356E+03  0.38646209343E+03  0.45903854015E+03  0.16500000000E+03 0.  0.
<mgrwt>
<rscale>  0 0.50690399E+03</rscale>
<asrwt>0</asrwt>
<pdfrwt beam="1">  1        2 0.15319125E+00 0.50690399E+03</pdfrwt>
<pdfrwt beam="2">  1       -2 0.85577853E-02 0.50690399E+03</pdfrwt>
<totfact> 0.22492407E+03</totfact>
</mgrwt>
</event>
<event>
 4    1  0.5399378E-005  0.6026840E+03  0.7818608E-02  0.9899853E-01
         -2   -1    0    0    0  501 -0.00000000000E+00  0.00000000000E+00  0.11381490350E+04  0.11381490350E+04  0.25500000000E-02 0.  1.
          2   -1    0    0  501    0  0.00000000000E+00 -0.00000000000E+00 -0.79784811816E+02  0.79784811856E+02  0.25500000000E-02 0. -1.
    5000001    1    1    2    0    0  0.23151407243E+03 -0.68438704185E+02  0.38207057030E+03  0.48112944480E+03  0.16500000000E+03 0.  0.
   -5000001    1    1    2    0    0 -0.23151407243E+03  0.68438704185E+02  0.67629365290E+03  0.73680440208E+03  0.16500000000E+03 0.  0.
<mgrwt>
<rscale>  0 0.60268402E+03</rscale>
<asrwt>0</asrwt>
<pdfrwt beam="1">  1        2 0.11397831E-01 0.60268402E+03</pdfrwt>
<pdfrwt beam="2">  1       -2 0.16259272E+00 0.60268402E+03</pdfrwt>
<totfact> 0.13823524E+02</totfact>
</mgrwt>
</event>
<event>
 4    1  0.5399378E-005  0.3696244E+03  0.7818608E-02  0.1054837E+00
          2   -1    0    0  501    0  0.00000000000E+00  0.00000000000E+00  0.17145861196E+04  0.17145861196E+04  0.25500000000E-02 0. -1.
         -2   -1    0    0    0  501 -0.00000000000E+00 -0.00000000000E+00 -0.19920577299E+02  0.19920577463E+02  0.25500000000E-02 0.  1.
    5000001    1    1    2    0    0  0.43313138282E+02 -0.69857464802E+02  0.78535249277E+03  0.80669674057E+03  0.16500000000E+03 0.  0.
   -5000001    1    1    2    0    0 -0.43313138282E+02  0.69857464802E+02  0.90931304957E+03  0.92780995654E+03  0.16500000000E+03 0.  0.
<mgrwt>
<rscale>  0 0.36962438E+03</rscale>
<asrwt>0</asrwt>
<pdfrwt beam="1">  1        2 0.24494090E+00 0.36962438E+03</pdfrwt>
<pdfrwt beam="2">  1       -2 0.28457965E-02 0.36962438E+03</pdfrwt>
<totfact> 0.55992472E+03</totfact>
</mgrwt>
</event>
<event>
 4    1  0.5399378E-005  0.6492004E+03  0.7818608E-02  0.9808281E-01
         -2   -1    0    0    0  501 -0.00000000000E+00  0.00000000000E+00  0.81108233307E+02  0.81108233347E+02  0.25500000000E-02 0. -1.
          2   -1    0    0  501    0  0.00000000000E+00 -0.00000000000E+00 -0.12990700493E+04  0.12990700493E+04  0.25500000000E-02 0.  1.
    5000001    1    1    2    0    0 -0.24622204820E+02  0.23549929594E+03 -0.92484335308E+03  0.96882733193E+03  0.16500000000E+03 0.  0.
   -5000001    1    1    2    0    0  0.24622204820E+02 -0.23549929594E+03 -0.29311846292E+03  0.41135095073E+03  0.16500000000E+03 0.  0.
<mgrwt>
<rscale>  0 0.64920036E+03</rscale>
<asrwt>0</asrwt>
<pdfrwt beam="1">  1        2 0.18558142E+00 0.64920036E+03</pdfrwt>
<pdfrwt beam="2">  1       -2 0.11586891E-01 0.64920036E+03</pdfrwt>
<totfact> 0.10230034E+03</totfact>
</mgrwt>
</event>
<event>
 4    1  0.5399378E-005  0.4777601E+03  0.7818608E-02  0.1019753E+00
          2   -1    0    0  501    0  0.00000000000E+00  0.00000000000E+00  0.38414766875E+03  0.38414766875E+03  0.25500000000E-02 0.  1.
         -2   -1    0    0    0  501 -0.00000000000E+00 -0.00000000000E+00 -0.14854619580E+03  0.14854619582E+03  0.25500000000E-02 0. -1.
    5000001    1    1    2    0    0 -0.56420469331E+02 -0.16179533559E+03  0.14216952944E+03  0.27712483663E+03  0.16500000000E+03 0.  0.
   -5000001    1    1    2    0    0  0.56420469331E+02  0.16179533559E+03  0.93431943506E+02  0.25556902794E+03  0.16500000000E+03 0.  0.
<mgrwt>
<rscale>  0 0.47776009E+03</rscale>
<asrwt>0</asrwt>
<pdfrwt beam="1">  1        2 0.54878238E-01 0.47776009E+03</pdfrwt>
<pdfrwt beam="2">  1       -2 0.21220885E-01 0.47776009E+03</pdfrwt>
<totfact> 0.17304165E+03</totfact>
</mgrwt>
</event>
<event>
 4    1  0.5399378E-005  0.4598574E+03  0.7818608E-02  0.1024823E+00
         -2   -1    0    0    0  501 -0.00000000000E+00  0.00000000000E+00  0.29272557467E+02  0.29272557578E+02  0.25500000000E-02 0. -1.
          2   -1    0    0  501    0  0.00000000000E+00 -0.00000000000E+00 -0.18060333423E+04  0.18060333423E+04  0.25500000000E-02 0.  1.
    5000001    1    1    2    0    0  0.13688956458E+03 -0.81226734205E+02 -0.81860239183E+03  0.85010082411E+03  0.16500000000E+03 0.  0.
   -5000001    1    1    2    0    0 -0.13688956458E+03  0.81226734205E+02 -0.95815839297E+03  0.98520507574E+03  0.16500000000E+03 0.  0.
<mgrwt>
<rscale>  0 0.45985743E+03</rscale>
<asrwt>0</asrwt>
<pdfrwt beam="1">  1        2 0.25800469E+00 0.45985743E+03</pdfrwt>
<pdfrwt beam="2">  1       -2 0.41817951E-02 0.45985743E+03</pdfrwt>
<totfact> 0.28128627E+03</totfact>
</mgrwt>
</event>
<event>
 4    1  0.5399378E-005  0.5412618E+03  0.7818608E-02  0.1003537E+00
         -2   -1    0    0    0  501 -0.00000000000E+00  0.00000000000E+00  0.11480498587E+03  0.11480498590E+03  0.25500000000E-02 0. -1.
          2   -1    0    0  501    0  0.00000000000E+00 -0.00000000000E+00 -0.63796071503E+03  0.63796071504E+03  0.25500000000E-02 0.  1.
    5000001    1    1    2    0    0 -0.18839743564E+03  0.30484760618E+02 -0.12536025681E+03  0.28171458672E+03  0.16500000000E+03 0.  0.
   -5000001    1    1    2    0    0  0.18839743564E+03 -0.30484760618E+02 -0.39779547235E+03  0.47105111422E+03  0.16500000000E+03 0.  0.
<mgrwt>
<rscale>  0 0.54126175E+03</rscale>
<asrwt>0</asrwt>
<pdfrwt beam="1">  1        2 0.91137243E-01 0.54126175E+03</pdfrwt>
<pdfrwt beam="2">  1       -2 0.16400713E-01 0.54126175E+03</pdfrwt>
<totfact> 0.15161082E+03</totfact>
</mgrwt>
</event>
<event>
 4    1  0.5399378E-005  0.4375972E+03  0.7818608E-02  0.1031487E+00
         -2   -1    0    0    0  501 -0.00000000000E+00  0.00000000000E+00  0.16268258552E+03  0.16268258554E+03  0.25500000000E-02 0. -1.
          2   -1    0    0  501    0  0.00000000000E+00 -0.00000000000E+00 -0.29427131947E+03  0.29427131948E+03  0.25500000000E-02 0.  1.
    5000001    1    1    2    0    0  0.12013551045E+03  0.10087879431E+02  0.15853212324E+02  0.20496494950E+03  0.16500000000E+03 0.  0.
   -5000001    1    1    2    0    0 -0.12013551045E+03 -0.10087879431E+02 -0.14744194627E+03  0.25198895552E+03  0.16500000000E+03 0.  0.
<mgrwt>
<rscale>  0 0.43759716E+03</rscale>
<asrwt>0</asrwt>
<pdfrwt beam="1">  1        2 0.42038760E-01 0.43759716E+03</pdfrwt>
<pdfrwt beam="2">  1       -2 0.23240369E-01 0.43759716E+03</pdfrwt>
<totfact> 0.19740526E+03</totfact>
</mgrwt>
</event>
<event>
 4    1  0.5399378E-005  0.7348693E+03  0.7818608E-02  0.9659392E-01
          2   -1    0    0  501    0  0.00000000000E+00  0.00000000000E+00  0.33756449299E+04  0.33756449299E+04  0.25500000000E-02 0.  1.
         -2   -1    0    0    0  501 -0.00000000000E+00 -0.00000000000E+00 -0.39994796946E+02  0.39994797027E+02  0.25500000000E-02 0. -1.
    5000001    1    1    2    0    0  0.11484222219E+03 -0.22445139650E+03  0.69047084325E+03  0.75335393459E+03  0.16500000000E+03 0.  0.
   -5000001    1    1    2    0    0 -0.11484222219E+03  0.22445139650E+03  0.26451792897E+04  0.26622857924E+04  0.16500000000E+03 0.  0.
<mgrwt>
<rscale>  0 0.73486933E+03</rscale>
<asrwt>0</asrwt>
<pdfrwt beam="1">  1        2 0.48223489E+00 0.73486933E+03</pdfrwt>
<pdfrwt beam="2">  1       -2 0.57135437E-02 0.73486933E+03</pdfrwt>
<totfact> 0.25473830E+02</totfact>
</mgrwt>
</event>
<event>
 4    1  0.5399378E-005  0.6207177E+03  0.7818608E-02  0.9863332E-01
          2   -1    0    0  501    0  0.00000000000E+00  0.00000000000E+00  0.55473627532E+03  0.55473627533E+03  0.25500000000E-02 0.  1.
         -2   -1    0    0    0  501 -0.00000000000E+00 -0.00000000000E+00 -0.17363675632E+03  0.17363675634E+03  0.25500000000E-02 0. -1.
    5000001    1    1    2    0    0  0.12801001556E+03 -0.45241197188E+02 -0.73575947934E+02  0.22599059741E+03  0.16500000000E+03 0.  0.
   -5000001    1    1    2    0    0 -0.12801001556E+03  0.45241197188E+02  0.45467546694E+03  0.50238243425E+03  0.16500000000E+03 0.  0.
<mgrwt>
<rscale>  0 0.62071767E+03</rscale>
<asrwt>0</asrwt>
<pdfrwt beam="1">  1        2 0.79248039E-01 0.62071767E+03</pdfrwt>
<pdfrwt beam="2">  1       -2 0.24805251E-01 0.62071767E+03</pdfrwt>
<totfact> 0.86780090E+02</totfact>
</mgrwt>
</event>
<event>
 4    1  0.5399378E-005  0.5154681E+03  0.7818608E-02  0.1009819E+00
         -2   -1    0    0    0  501 -0.00000000000E+00  0.00000000000E+00  0.37545220486E+02  0.37545220573E+02  0.25500000000E-02 0. -1.
          2   -1    0    0  501    0  0.00000000000E+00 -0.00000000000E+00 -0.17692486819E+04  0.17692486819E+04  0.25500000000E-02 0.  1.
    5000001    1    1    2    0    0  0.39404571693E+02  0.18440223689E+03 -0.65423439144E+03  0.70057443871E+03  0.16500000000E+03 0.  0.
   -5000001    1    1    2    0    0 -0.39404571693E+02 -0.18440223689E+03 -0.10774690700E+04  0.11062194637E+04  0.16500000000E+03 0.  0.
<mgrwt>
<rscale>  0 0.51546807E+03</rscale>
<asrwt>0</asrwt>
<pdfrwt beam="1">  1        2 0.25274976E+00 0.51546807E+03</pdfrwt>
<pdfrwt beam="2">  1       -2 0.53636040E-02 0.51546807E+03</pdfrwt>
<totfact> 0.19971384E+03</totfact>
</mgrwt>
</event>
<event>
 4    1  0.5399378E-005  0.7798990E+03  0.7818608E-02  0.9589577E-01
          2   -1    0    0  501    0  0.00000000000E+00  0.00000000000E+00  0.16354367843E+04  0.16354367843E+04  0.25500000000E-02 0.  1.
         -2   -1    0    0    0  501 -0.00000000000E+00 -0.00000000000E+00 -0.92978586468E+02  0.92978586503E+02  0.25500000000E-02 0. -1.
    5000001    1    1    2    0    0  0.15545114088E+03  0.23001792896E+03  0.28688683228E+03  0.43197495226E+03  0.16500000000E+03 0.  0.
   -5000001    1    1    2    0    0 -0.15545114088E+03 -0.23001792896E+03  0.12555713656E+04  0.12964404186E+04  0.16500000000E+03 0.  0.
<mgrwt>
<rscale>  0 0.77989897E+03</rscale>
<asrwt>0</asrwt>
<pdfrwt beam="1">  1        2 0.23363382E+00 0.77989897E+03</pdfrwt>
<pdfrwt beam="2">  1       -2 0.13282655E-01 0.77989897E+03</pdfrwt>
<totfact> 0.53855437E+02</totfact>
</mgrwt>
</event>
<event>
 4    1  0.5399378E-005  0.3773032E+03  0.7818608E-02  0.1051935E+00
         -2   -1    0    0    0  501 -0.00000000000E+00  0.00000000000E+00  0.82560563468E+01  0.82560567406E+01  0.25500000000E-02 0. -1.
          2   -1    0    0  501    0  0.00000000000E+00 -0.00000000000E+00 -0.43107062793E+04  0.43107062793E+04  0.25500000000E-02 0.  1.
    5000001    1    1    2    0    0 -0.26140244122E+02  0.60394214084E+02 -0.14242181131E+04  0.14352536386E+04  0.16500000000E+03 0.  0.
   -5000001    1    1    2    0    0  0.26140244122E+02 -0.60394214084E+02 -0.28782321099E+04  0.28837086975E+04  0.16500000000E+03 0.  0.
<mgrwt>
<rscale>  0 0.37730325E+03</rscale>
<asrwt>0</asrwt>
<pdfrwt beam="1">  1        2 0.61581374E+00 0.37730325E+03</pdfrwt>
<pdfrwt beam="2">  1       -2 0.11794394E-02 0.37730325E+03</pdfrwt>
<totfact> 0.72929787E+02</totfact>
</mgrwt>
</event>
<event>
 4    1  0.5399378E-005  0.4040889E+03  0.7818608E-02  0.1042373E+00
         -2   -1    0    0    0  501 -0.00000000000E+00  0.00000000000E+00  0.14487373177E+03  0.14487373179E+03  0.25500000000E-02 0. -1.
          2   -1    0    0  501    0  0.00000000000E+00 -0.00000000000E+00 -0.28177612009E+03  0.28177612011E+03  0.25500000000E-02 0.  1.
    5000001    1    1    2    0    0 -0.93131655078E+02 -0.32300316856E+02 -0.26826058883E+01  0.19222125798E+03  0.16500000000E+03 0.  0.
   -5000001    1    1    2    0    0  0.93131655078E+02  0.32300316856E+02 -0.13421978244E+03  0.23442859391E+03  0.16500000000E+03 0.  0.
<mgrwt>
<rscale>  0 0.40408889E+03</rscale>
<asrwt>0</asrwt>
<pdfrwt beam="1">  1        2 0.40253731E-01 0.40408889E+03</pdfrwt>
<pdfrwt beam="2">  1       -2 0.20696247E-01 0.40408889E+03</pdfrwt>
<totfact> 0.25326929E+03</totfact>
</mgrwt>
</event>
<event>
 4    1  0.5399378E-005  0.6025474E+03  0.7818608E-02  0.9900135E-01
          2   -1    0    0  501    0  0.00000000000E+00  0.00000000000E+00  0.22101989875E+04  0.22101989875E+04  0.25500000000E-02 0. -1.
         -2   -1    0    0    0  501 -0.00000000000E+00 -0.00000000000E+00 -0.41066823388E+02  0.41066823468E+02  0.25500000000E-02 0.  1.
    5000001    1    1    2    0    0  0.10780350339E+03  0.10916743406E+03  0.33730061855E+03  0.40563016564E+03  0.16500000000E+03 0.  0.
   -5000001    1    1    2    0    0 -0.10780350339E+03 -0.10916743406E+03  0.18318315455E+04  0.18456356453E+04  0.16500000000E+03 0.  0.
<mgrwt>
<rscale>  0 0.60254743E+03</rscale>
<asrwt>0</asrwt>
<pdfrwt beam="1">  1        2 0.31574283E+00 0.60254743E+03</pdfrwt>
<pdfrwt beam="2">  1       -2 0.58666869E-02 0.60254743E+03</pdfrwt>
<totfact> 0.10389812E+03</totfact>
</mgrwt>
</event>
<event>
 4    1  0.5399378E-005  0.8687630E+03  0.7818608E-02  0.9465494E-01
         -2   -1    0    0    0  501 -0.00000000000E+00  0.00000000000E+00  0.96316374417E+03  0.96316374417E+03  0.25500000000E-02 0. -1.
          2   -1    0    0  501    0  0.00000000000E+00 -0.00000000000E+00 -0.19590362849E+03  0.19590362850E+03  0.25500000000E-02 0.  1.
    5000001    1    1    2    0    0  0.45677260810E+02  0.19667645230E+03 -0.79870906466E+02  0.27271303736E+03  0.16500000000E+03 0.  0.
   -5000001    1    1    2    0    0 -0.45677260810E+02 -0.19667645230E+03  0.84713102215E+03  0.88635433532E+03  0.16500000000E+03 0.  0.
<mgrwt>
<rscale>  0 0.86876296E+03</rscale>
<asrwt>0</asrwt>
<pdfrwt beam="1">  1        2 0.27986232E-01 0.86876296E+03</pdfrwt>
<pdfrwt beam="2">  1       -2 0.13759482E+00 0.86876296E+03</pdfrwt>
<totfact> 0.72701489E+01</totfact>
</mgrwt>
</event>
<event>
 4    1  0.5399378E-005  0.4510017E+03  0.7818608E-02  0.1027424E+00
         -2   -1    0    0    0  501 -0.00000000000E+00  0.00000000000E+00  0.27889762246E+02  0.27889762363E+02  0.25500000000E-02 0. -1.
          2   -1    0    0  501    0  0.00000000000E+00 -0.00000000000E+00 -0.18232720916E+04  0.18232720916E+04  0.25500000000E-02 0.  1.
    5000001    1    1    2    0    0 -0.55876550152E+02 -0.13931156550E+03 -0.10335590631E+04  0.10573548307E+04  0.16500000000E+03 0.  0.
   -5000001    1    1    2    0    0  0.55876550152E+02  0.13931156550E+03 -0.76182326627E+03  0.79380702325E+03  0.16500000000E+03 0.  0.
<mgrwt>
<rscale>  0 0.45100166E+03</rscale>
<asrwt>0</asrwt>
<pdfrwt beam="1">  1        2 0.26046736E+00 0.45100166E+03</pdfrwt>
<pdfrwt beam="2">  1       -2 0.39842529E-02 0.45100166E+03</pdfrwt>
<totfact> 0.29697693E+03</totfact>
</mgrwt>
</event>
<event>
 4    1  0.5399378E-005  0.6842552E+03  0.7818608E-02  0.9744543E-01
          2   -1    0    0  501    0  0.00000000000E+00  0.00000000000E+00  0.52522991652E+03  0.52522991652E+03  0.25500000000E-02 0.  1.
         -2   -1    0    0    0  501 -0.00000000000E+00 -0.00000000000E+00 -0.22285725915E+03  0.22285725917E+03  0.25500000000E-02 0. -1.
    5000001    1    1    2    0    0 -0.26239155430E+03 -0.13092513164E+03  0.21889584581E+03  0.40141139642E+03  0.16500000000E+03 0.  0.
   -5000001    1    1    2    0    0  0.26239155430E+03  0.13092513164E+03  0.83476811555E+02  0.34667577927E+03  0.16500000000E+03 0.  0.
<mgrwt>
<rscale>  0 0.68425521E+03</rscale>
<asrwt>0</asrwt>
<pdfrwt beam="1">  1        2 0.75032845E-01 0.68425521E+03</pdfrwt>
<pdfrwt beam="2">  1       -2 0.31836751E-01 0.68425521E+03</pdfrwt>
<totfact> 0.58454268E+02</totfact>
</mgrwt>
</event>
<event>
 4    1  0.5399378E-005  0.6719118E+03  0.7818608E-02  0.9766510E-01
          2   -1    0    0  501    0  0.00000000000E+00  0.00000000000E+00  0.71501972761E+02  0.71501972807E+02  0.25500000000E-02 0.  1.
         -2   -1    0    0    0  501 -0.00000000000E+00 -0.00000000000E+00 -0.15785072232E+04  0.15785072232E+04  0.25500000000E-02 0. -1.
    5000001    1    1    2    0    0 -0.25955433356E+03  0.59793408154E+01 -0.42187334842E+03  0.52211715802E+03  0.16500000000E+03 0.  0.
   -5000001    1    1    2    0    0  0.25955433356E+03 -0.59793408154E+01 -0.10851319020E+04  0.11278920380E+04  0.16500000000E+03 0.  0.
<mgrwt>
<rscale>  0 0.67191184E+03</rscale>
<asrwt>0</asrwt>
<pdfrwt beam="1">  1        2 0.10214568E-01 0.67191184E+03</pdfrwt>
<pdfrwt beam="2">  1       -2 0.22550101E+00 0.67191184E+03</pdfrwt>
<totfact> 0.60671199E+01</totfact>
</mgrwt>
</event>
<event>
 4    1  0.5399378E-005  0.4083401E+03  0.7818608E-02  0.1040929E+00
         -2   -1    0    0    0  501 -0.00000000000E+00  0.00000000000E+00  0.20220143275E+02  0.20220143436E+02  0.25500000000E-02 0. -1.
          2   -1    0    0  501    0  0.00000000000E+00 -0.00000000000E+00 -0.20615783607E+04  0.20615783607E+04  0.25500000000E-02 0.  1.
    5000001    1    1    2    0    0  0.48064218062E+02  0.10641320189E+03 -0.87411400729E+03  0.89718127284E+03  0.16500000000E+03 0.  0.
   -5000001    1    1    2    0    0 -0.48064218062E+02 -0.10641320189E+03 -0.11672442101E+04  0.11846172313E+04  0.16500000000E+03 0.  0.
<mgrwt>
<rscale>  0 0.40834010E+03</rscale>
<asrwt>0</asrwt>
<pdfrwt beam="1">  1        2 0.29451106E+00 0.40834010E+03</pdfrwt>
<pdfrwt beam="2">  1       -2 0.28885932E-02 0.40834010E+03</pdfrwt>
<totfact> 0.36837465E+03</totfact>
</mgrwt>
</event>
<event>
 4    1  0.5399378E-005  0.1628365E+04  0.7818608E-02  0.8803310E-01
          2   -1    0    0  501    0  0.00000000000E+00  0.00000000000E+00  0.33635659426E+03  0.33635659427E+03  0.25500000000E-02 0.  1.
         -2   -1    0    0    0  501 -0.00000000000E+00 -0.00000000000E+00 -0.19708038231E+04  0.19708038231E+04  0.25500000000E-02 0. -1.
    5000001    1    1    2    0    0  0.53326883878E+03 -0.45834995386E+03 -0.28480277076E+03  0.77640063939E+03  0.16500000000E+03 0.  0.
   -5000001    1    1    2    0    0 -0.53326883878E+03  0.45834995386E+03 -0.13496444581E+04  0.15307597780E+04  0.16500000000E+03 0.  0.
<mgrwt>
<rscale>  0 0.16283647E+04</rscale>
<asrwt>0</asrwt>
<pdfrwt beam="1">  1        2 0.48050943E-01 0.16283647E+04</pdfrwt>
<pdfrwt beam="2">  1       -2 0.28154340E+00 0.16283647E+04</pdfrwt>
<totfact> 0.41562654E+00</totfact>
</mgrwt>
</event>
<event>
 4    1  0.5399378E-005  0.5425959E+03  0.7818608E-02  0.1003222E+00
         -2   -1    0    0    0  501 -0.00000000000E+00  0.00000000000E+00  0.69641384872E+02  0.69641384919E+02  0.25500000000E-02 0. -1.
          2   -1    0    0  501    0  0.00000000000E+00 -0.00000000000E+00 -0.10568799066E+04  0.10568799066E+04  0.25500000000E-02 0.  1.
    5000001    1    1    2    0    0 -0.27485150401E+02  0.13051594681E+03 -0.14258237051E+03  0.25562585598E+03  0.16500000000E+03 0.  0.
   -5000001    1    1    2    0    0  0.27485150401E+02 -0.13051594681E+03 -0.84465615124E+03  0.87089543557E+03  0.16500000000E+03 0.  0.
<mgrwt>
<rscale>  0 0.54259591E+03</rscale>
<asrwt>0</asrwt>
<pdfrwt beam="1">  1        2 0.15098283E+00 0.54259591E+03</pdfrwt>
<pdfrwt beam="2">  1       -2 0.99487699E-02 0.54259591E+03</pdfrwt>
<totfact> 0.18027461E+03</totfact>
</mgrwt>
</event>
<event>
 4    1  0.5399378E-005  0.4944799E+03  0.7818608E-02  0.1015230E+00
          2   -1    0    0  501    0  0.00000000000E+00  0.00000000000E+00  0.10506350621E+04  0.10506350621E+04  0.25500000000E-02 0.  1.
         -2   -1    0    0    0  501 -0.00000000000E+00 -0.00000000000E+00 -0.58181565470E+02  0.58181565526E+02  0.25500000000E-02 0. -1.
    5000001    1    1    2    0    0 -0.18300088363E+03 -0.20208071732E+02  0.50119206588E+03  0.55885255342E+03  0.16500000000E+03 0.  0.
   -5000001    1    1    2    0    0  0.18300088363E+03  0.20208071732E+02  0.49126143075E+03  0.54996407421E+03  0.16500000000E+03 0.  0.
<mgrwt>
<rscale>  0 0.49447990E+03</rscale>
<asrwt>0</asrwt>
<pdfrwt beam="1">  1        2 0.15009072E+00 0.49447990E+03</pdfrwt>
<pdfrwt beam="2">  1       -2 0.83116526E-02 0.49447990E+03</pdfrwt>
<totfact> 0.24266405E+03</totfact>
</mgrwt>
</event>
<event>
 4    1  0.5399378E-005  0.5193984E+03  0.7818608E-02  0.1008836E+00
          2   -1    0    0  501    0  0.00000000000E+00  0.00000000000E+00  0.80547863827E+02  0.80547863867E+02  0.25500000000E-02 0.  1.
         -2   -1    0    0    0  501 -0.00000000000E+00 -0.00000000000E+00 -0.83731179902E+03  0.83731179903E+03  0.25500000000E-02 0. -1.
    5000001    1    1    2    0    0 -0.18456833192E+03  0.56149410246E+02 -0.47518054294E+03  0.53873905911E+03  0.16500000000E+03 0.  0.
   -5000001    1    1    2    0    0  0.18456833192E+03 -0.56149410246E+02 -0.28158339226E+03  0.37912060379E+03  0.16500000000E+03 0.  0.
<mgrwt>
<rscale>  0 0.51939841E+03</rscale>
<asrwt>0</asrwt>
<pdfrwt beam="1">  1        2 0.11506838E-01 0.51939841E+03</pdfrwt>
<pdfrwt beam="2">  1       -2 0.11961597E+00 0.51939841E+03</pdfrwt>
<totfact> 0.30173161E+02</totfact>
</mgrwt>
</event>
<event>
 4    1  0.5399378E-005  0.4004011E+03  0.7818608E-02  0.1043641E+00
          2   -1    0    0  501    0  0.00000000000E+00  0.00000000000E+00  0.34153416931E+03  0.34153416932E+03  0.25500000000E-02 0.  1.
         -2   -1    0    0    0  501 -0.00000000000E+00 -0.00000000000E+00 -0.11735358553E+03  0.11735358556E+03  0.25500000000E-02 0. -1.
    5000001    1    1    2    0    0  0.11206619324E+03 -0.14478395797E+00  0.92359012677E+02  0.21980454921E+03  0.16500000000E+03 0.  0.
   -5000001    1    1    2    0    0 -0.11206619324E+03  0.14478395797E+00  0.13182157110E+03  0.23908320568E+03  0.16500000000E+03 0.  0.
<mgrwt>
<rscale>  0 0.40040110E+03</rscale>
<asrwt>0</asrwt>
<pdfrwt beam="1">  1        2 0.48790595E-01 0.40040110E+03</pdfrwt>
<pdfrwt beam="2">  1       -2 0.16764798E-01 0.40040110E+03</pdfrwt>
<totfact> 0.29441066E+03</totfact>
</mgrwt>
</event>
<event>
 4    1  0.5399378E-005  0.4461211E+03  0.7818608E-02  0.1028885E+00
          2   -1    0    0  501    0  0.00000000000E+00  0.00000000000E+00  0.21781808415E+04  0.21781808415E+04  0.25500000000E-02 0.  1.
         -2   -1    0    0    0  501 -0.00000000000E+00 -0.00000000000E+00 -0.22842917101E+02  0.22842917243E+02  0.25500000000E-02 0. -1.
    5000001    1    1    2    0    0  0.13611010737E+03 -0.51900944406E+02  0.89900833920E+03  0.92555964871E+03  0.16500000000E+03 0.  0.
   -5000001    1    1    2    0    0 -0.13611010737E+03  0.51900944406E+02  0.12563295852E+04  0.12754641100E+04  0.16500000000E+03 0.  0.
<mgrwt>
<rscale>  0 0.44612108E+03</rscale>
<asrwt>0</asrwt>
<pdfrwt beam="1">  1        2 0.31116871E+00 0.44612108E+03</pdfrwt>
<pdfrwt beam="2">  1       -2 0.32632737E-02 0.44612108E+03</pdfrwt>
<totfact> 0.26788481E+03</totfact>
</mgrwt>
</event>
<event>
 4    1  0.5399378E-005  0.5964684E+03  0.7818608E-02  0.9912760E-01
          2   -1    0    0  501    0  0.00000000000E+00  0.00000000000E+00  0.24073289908E+03  0.24073289909E+03  0.25500000000E-02 0.  1.
         -2   -1    0    0    0  501 -0.00000000000E+00 -0.00000000000E+00 -0.36947023376E+03  0.36947023377E+03  0.25500000000E-02 0. -1.
    5000001    1    1    2    0    0  0.22976818698E+03 -0.82058703228E+02 -0.11226107163E+03  0.31520564514E+03  0.16500000000E+03 0.  0.
   -5000001    1    1    2    0    0 -0.22976818698E+03  0.82058703228E+02 -0.16476263050E+02  0.29499748773E+03  0.16500000000E+03 0.  0.
<mgrwt>
<rscale>  0 0.59646841E+03</rscale>
<asrwt>0</asrwt>
<pdfrwt beam="1">  1        2 0.34390414E-01 0.59646841E+03</pdfrwt>
<pdfrwt beam="2">  1       -2 0.52781462E-01 0.59646841E+03</pdfrwt>
<totfact> 0.52061670E+02</totfact>
</mgrwt>
</event>
<event>
 4    1  0.5399378E-005  0.6329333E+03  0.7818608E-02  0.9839341E-01
          2   -1    0    0  501    0  0.00000000000E+00  0.00000000000E+00  0.25787438916E+04  0.25787438916E+04  0.25500000000E-02 0.  1.
         -2   -1    0    0    0  501 -0.00000000000E+00 -0.00000000000E+00 -0.38837180643E+02  0.38837180727E+02  0.25500000000E-02 0. -1.
    5000001    1    1    2    0    0 -0.56554287096E+02  0.13594271520E+03  0.33373354286E+03  0.40035220349E+03  0.16500000000E+03 0.  0.
   -5000001    1    1    2    0    0  0.56554287096E+02 -0.13594271520E+03  0.22061731681E+04  0.22172288688E+04  0.16500000000E+03 0.  0.
<mgrwt>
<rscale>  0 0.63293331E+03</rscale>
<asrwt>0</asrwt>
<pdfrwt beam="1">  1        2 0.36839196E+00 0.63293331E+03</pdfrwt>
<pdfrwt beam="2">  1       -2 0.55481690E-02 0.63293331E+03</pdfrwt>
<totfact> 0.73388230E+02</totfact>
</mgrwt>
</event>
<event>
 4    1  0.5399378E-005  0.1349746E+04  0.7818608E-02  0.8991020E-01
          2   -1    0    0  501    0  0.00000000000E+00  0.00000000000E+00  0.16313572146E+04  0.16313572146E+04  0.25500000000E-02 0.  1.
         -2   -1    0    0    0  501 -0.00000000000E+00 -0.00000000000E+00 -0.27918700324E+03  0.27918700325E+03  0.25500000000E-02 0. -1.
    5000001    1    1    2    0    0  0.61442420216E+03  0.13993932206E+03  0.42634695890E+03  0.77852221768E+03  0.16500000000E+03 0.  0.
   -5000001    1    1    2    0    0 -0.61442420216E+03 -0.13993932206E+03  0.92582325243E+03  0.11320220001E+04  0.16500000000E+03 0.  0.
<mgrwt>
<rscale>  0 0.13497462E+04</rscale>
<asrwt>0</asrwt>
<pdfrwt beam="1">  1        2 0.23305103E+00 0.13497462E+04</pdfrwt>
<pdfrwt beam="2">  1       -2 0.39883858E-01 0.13497462E+04</pdfrwt>
<totfact> 0.72403971E+01</totfact>
</mgrwt>
</event>
<event>
 4    1  0.5399378E-005  0.7526981E+03  0.7818608E-02  0.9631127E-01
          2   -1    0    0  501    0  0.00000000000E+00  0.00000000000E+00  0.12595460688E+04  0.12595460688E+04  0.25500000000E-02 0.  1.
         -2   -1    0    0    0  501 -0.00000000000E+00 -0.00000000000E+00 -0.11245209809E+03  0.11245209812E+03  0.25500000000E-02 0. -1.
    5000001    1    1    2    0    0 -0.22004394680E+03 -0.22349363695E+03  0.34265938613E+03  0.49295963241E+03  0.16500000000E+03 0.  0.
   -5000001    1    1    2    0    0  0.22004394680E+03  0.22349363695E+03  0.80443458457E+03  0.87903853450E+03  0.16500000000E+03 0.  0.
<mgrwt>
<rscale>  0 0.75269808E+03</rscale>
<asrwt>0</asrwt>
<pdfrwt beam="1">  1        2 0.17993514E+00 0.75269808E+03</pdfrwt>
<pdfrwt beam="2">  1       -2 0.16064586E-01 0.75269808E+03</pdfrwt>
<totfact> 0.62019407E+02</totfact>
</mgrwt>
</event>
<event>
 4    1  0.5399378E-005  0.7544702E+03  0.7818608E-02  0.9628363E-01
          2   -1    0    0  501    0  0.00000000000E+00  0.00000000000E+00  0.12662152646E+03  0.12662152648E+03  0.25500000000E-02 0.  1.
         -2   -1    0    0    0  501 -0.00000000000E+00 -0.00000000000E+00 -0.11238713605E+04  0.11238713605E+04  0.25500000000E-02 0. -1.
    5000001    1    1    2    0    0 -0.21050954893E+02  0.20014750017E+03 -0.45990212828E+02  0.26427687035E+03  0.16500000000E+03 0.  0.
   -5000001    1    1    2    0    0  0.21050954893E+02 -0.20014750017E+03 -0.95125962118E+03  0.98621601661E+03  0.16500000000E+03 0.  0.
<mgrwt>
<rscale>  0 0.75447016E+03</rscale>
<asrwt>0</asrwt>
<pdfrwt beam="1">  1        2 0.18088790E-01 0.75447016E+03</pdfrwt>
<pdfrwt beam="2">  1       -2 0.16055305E+00 0.75447016E+03</pdfrwt>
<totfact> 0.80815358E+01</totfact>
</mgrwt>
</event>
<event>
 4    1  0.5399378E-005  0.4937070E+03  0.7818608E-02  0.1015435E+00
         -2   -1    0    0    0  501 -0.00000000000E+00  0.00000000000E+00  0.76339567909E+02  0.76339567952E+02  0.25500000000E-02 0. -1.
          2   -1    0    0  501    0  0.00000000000E+00 -0.00000000000E+00 -0.79823157815E+03  0.79823157815E+03  0.25500000000E-02 0.  1.
    5000001    1    1    2    0    0 -0.44040513253E+02  0.15653222814E+03 -0.51198376733E+03  0.56195576629E+03  0.16500000000E+03 0.  0.
   -5000001    1    1    2    0    0  0.44040513253E+02 -0.15653222814E+03 -0.20990824291E+03  0.31261537981E+03  0.16500000000E+03 0.  0.
<mgrwt>
<rscale>  0 0.49370701E+03</rscale>
<asrwt>0</asrwt>
<pdfrwt beam="1">  1        2 0.11403308E+00 0.49370701E+03</pdfrwt>
<pdfrwt beam="2">  1       -2 0.10905653E-01 0.49370701E+03</pdfrwt>
<totfact> 0.22667683E+03</totfact>
</mgrwt>
</event>
<event>
 4    1  0.5399378E-005  0.4629387E+03  0.7818608E-02  0.1023932E+00
         -2   -1    0    0    0  501 -0.00000000000E+00  0.00000000000E+00  0.92770169143E+02  0.92770169178E+02  0.25500000000E-02 0. -1.
          2   -1    0    0  501    0  0.00000000000E+00 -0.00000000000E+00 -0.57753545728E+03  0.57753545728E+03  0.25500000000E-02 0.  1.
    5000001    1    1    2    0    0  0.56238940812E+02 -0.11208989367E+03 -0.39164019269E+03  0.44309593009E+03  0.16500000000E+03 0.  0.
   -5000001    1    1    2    0    0 -0.56238940812E+02  0.11208989367E+03 -0.93125095440E+02  0.22720969637E+03  0.16500000000E+03 0.  0.
<mgrwt>
<rscale>  0 0.46293871E+03</rscale>
<asrwt>0</asrwt>
<pdfrwt beam="1">  1        2 0.82505063E-01 0.46293871E+03</pdfrwt>
<pdfrwt beam="2">  1       -2 0.13252882E-01 0.46293871E+03</pdfrwt>
<totfact> 0.24326665E+03</totfact>
</mgrwt>
</event>
<event>
 4    1  0.5399378E-005  0.5228441E+03  0.7818608E-02  0.1007982E+00
         -2   -1    0    0    0  501 -0.00000000000E+00  0.00000000000E+00  0.36111573915E+02  0.36111574005E+02  0.25500000000E-02 0. -1.
          2   -1    0    0  501    0  0.00000000000E+00 -0.00000000000E+00 -0.18925091741E+04  0.18925091741E+04  0.25500000000E-02 0.  1.
    5000001    1    1    2    0    0 -0.19791772868E+03  0.30800977546E+02 -0.10446334450E+04  0.10763847648E+04  0.16500000000E+03 0.  0.
   -5000001    1    1    2    0    0  0.19791772868E+03 -0.30800977546E+02 -0.81176415517E+03  0.85223598326E+03  0.16500000000E+03 0.  0.
<mgrwt>
<rscale>  0 0.52284409E+03</rscale>
<asrwt>0</asrwt>
<pdfrwt beam="1">  1        2 0.27035839E+00 0.52284409E+03</pdfrwt>
<pdfrwt beam="2">  1       -2 0.51587975E-02 0.52284409E+03</pdfrwt>
<totfact> 0.18393084E+03</totfact>
</mgrwt>
</event>
<event>
 4    1  0.5399378E-005  0.4421308E+03  0.7818608E-02  0.1030095E+00
          2   -1    0    0  501    0  0.00000000000E+00  0.00000000000E+00  0.16351983241E+03  0.16351983243E+03  0.25500000000E-02 0.  1.
         -2   -1    0    0    0  501 -0.00000000000E+00 -0.00000000000E+00 -0.29886234773E+03  0.29886234774E+03  0.25500000000E-02 0. -1.
    5000001    1    1    2    0    0 -0.32294080574E+00  0.13078370681E+03  0.27979170996E+01  0.21056426714E+03  0.16500000000E+03 0.  0.
   -5000001    1    1    2    0    0  0.32294080574E+00 -0.13078370681E+03 -0.13814043241E+03  0.25181791303E+03  0.16500000000E+03 0.  0.
<mgrwt>
<rscale>  0 0.44213084E+03</rscale>
<asrwt>0</asrwt>
<pdfrwt beam="1">  1        2 0.23359976E-01 0.44213084E+03</pdfrwt>
<pdfrwt beam="2">  1       -2 0.42694621E-01 0.44213084E+03</pdfrwt>
<totfact> 0.12302867E+03</totfact>
</mgrwt>
</event>
<event>
 4    1  0.5399378E-005  0.4066195E+03  0.7818608E-02  0.1041511E+00
          2   -1    0    0  501    0  0.00000000000E+00  0.00000000000E+00  0.80051467972E+03  0.80051467973E+03  0.25500000000E-02 0.  1.
         -2   -1    0    0    0  501 -0.00000000000E+00 -0.00000000000E+00 -0.51635337530E+02  0.51635337593E+02  0.25500000000E-02 0. -1.
    5000001    1    1    2    0    0 -0.85050333423E+01 -0.74248031561E+02  0.18094523996E+03  0.25602985304E+03  0.16500000000E+03 0.  0.
   -5000001    1    1    2    0    0  0.85050333423E+01  0.74248031561E+02  0.56793410224E+03  0.59612016428E+03  0.16500000000E+03 0.  0.
<mgrwt>
<rscale>  0 0.40661946E+03</rscale>
<asrwt>0</asrwt>
<pdfrwt beam="1">  1        2 0.11435924E+00 0.40661946E+03</pdfrwt>
<pdfrwt beam="2">  1       -2 0.73764765E-02 0.40661946E+03</pdfrwt>
<totfact> 0.42094927E+03</totfact>
</mgrwt>
</event>
<event>
 4    1  0.5399378E-005  0.4244143E+03  0.7818608E-02  0.1035639E+00
          2   -1    0    0  501    0  0.00000000000E+00  0.00000000000E+00  0.39550515866E+03  0.39550515867E+03  0.25500000000E-02 0.  1.
         -2   -1    0    0    0  501 -0.00000000000E+00 -0.00000000000E+00 -0.11385911829E+03  0.11385911832E+03  0.25500000000E-02 0. -1.
    5000001    1    1    2    0    0 -0.46231595182E+02  0.12488515917E+03  0.15109158404E+03  0.26036000104E+03  0.16500000000E+03 0.  0.
   -5000001    1    1    2    0    0  0.46231595182E+02 -0.12488515917E+03  0.13055445632E+03  0.24900427595E+03  0.16500000000E+03 0.  0.
<mgrwt>
<rscale>  0 0.42441427E+03</rscale>
<asrwt>0</asrwt>
<pdfrwt beam="1">  1        2 0.56500736E-01 0.42441427E+03</pdfrwt>
<pdfrwt beam="2">  1       -2 0.16265588E-01 0.42441427E+03</pdfrwt>
<totfact> 0.26408819E+03</totfact>
</mgrwt>
</event>
<event>
 4    1  0.5399378E-005  0.6655968E+03  0.7818608E-02  0.9777945E-01
         -2   -1    0    0    0  501 -0.00000000000E+00  0.00000000000E+00  0.12647662584E+03  0.12647662586E+03  0.25500000000E-02 0. -1.
          2   -1    0    0  501    0  0.00000000000E+00 -0.00000000000E+00 -0.87569374374E+03  0.87569374374E+03  0.25500000000E-02 0.  1.
    5000001    1    1    2    0    0 -0.10190452377E+01 -0.14128729241E+03 -0.75422496602E+03  0.78488434614E+03  0.16500000000E+03 0.  0.
   -5000001    1    1    2    0    0  0.10190452377E+01  0.14128729241E+03  0.50078481155E+01  0.21728602346E+03  0.16500000000E+03 0.  0.
<mgrwt>
<rscale>  0 0.66559684E+03</rscale>
<asrwt>0</asrwt>
<pdfrwt beam="1">  1        2 0.12509910E+00 0.66559684E+03</pdfrwt>
<pdfrwt beam="2">  1       -2 0.18068090E-01 0.66559684E+03</pdfrwt>
<totfact> 0.86263735E+02</totfact>
</mgrwt>
</event>
<event>
 4    1  0.5399378E-005  0.5427930E+03  0.7818608E-02  0.1003176E+00
         -2   -1    0    0    0  501 -0.00000000000E+00  0.00000000000E+00  0.17494377629E+03  0.17494377631E+03  0.25500000000E-02 0. -1.
          2   -1    0    0  501    0  0.00000000000E+00 -0.00000000000E+00 -0.42102708758E+03  0.42102708759E+03  0.25500000000E-02 0.  1.
    5000001    1    1    2    0    0  0.13530718434E+03  0.11649519054E+03 -0.25549126806E+03  0.35267541962E+03  0.16500000000E+03 0.  0.
   -5000001    1    1    2    0    0 -0.13530718434E+03 -0.11649519054E+03  0.94079567668E+01  0.24329544427E+03  0.16500000000E+03 0.  0.
<mgrwt>
<rscale>  0 0.54279303E+03</rscale>
<asrwt>0</asrwt>
<pdfrwt beam="1">  1        2 0.60146727E-01 0.54279303E+03</pdfrwt>
<pdfrwt beam="2">  1       -2 0.24991968E-01 0.54279303E+03</pdfrwt>
<totfact> 0.11710591E+03</totfact>
</mgrwt>
</event>
<event>
 4    1  0.5399378E-005  0.3788840E+03  0.7818608E-02  0.1051347E+00
          2   -1    0    0  501    0  0.00000000000E+00  0.00000000000E+00  0.15584255915E+04  0.15584255915E+04  0.25500000000E-02 0.  1.
         -2   -1    0    0    0  501 -0.00000000000E+00 -0.00000000000E+00 -0.23028539513E+02  0.23028539654E+02  0.25500000000E-02 0. -1.
    5000001    1    1    2    0    0 -0.51979697131E+02  0.71327127863E+02  0.89108305284E+03  0.91051823438E+03  0.16500000000E+03 0.  0.
   -5000001    1    1    2    0    0  0.51979697131E+02 -0.71327127863E+02  0.64431399912E+03  0.67093589675E+03  0.16500000000E+03 0.  0.
<mgrwt>
<rscale>  0 0.37888397E+03</rscale>
<asrwt>0</asrwt>
<pdfrwt beam="1">  1        2 0.22263217E+00 0.37888397E+03</pdfrwt>
<pdfrwt beam="2">  1       -2 0.32897922E-02 0.37888397E+03</pdfrwt>
<totfact> 0.53957569E+03</totfact>
</mgrwt>
</event>
<event>
 4    1  0.5399378E-005  0.5734150E+03  0.7818608E-02  0.9962150E-01
         -2   -1    0    0    0  501 -0.00000000000E+00  0.00000000000E+00  0.13976718735E+03  0.13976718737E+03  0.25500000000E-02 0. -1.
          2   -1    0    0  501    0  0.00000000000E+00 -0.00000000000E+00 -0.58812941115E+03  0.58812941115E+03  0.25500000000E-02 0.  1.
    5000001    1    1    2    0    0 -0.23307868928E+03  0.20749078601E+02 -0.24300919027E+03  0.37554582439E+03  0.16500000000E+03 0.  0.
   -5000001    1    1    2    0    0  0.23307868928E+03 -0.20749078601E+02 -0.20535303353E+03  0.35235077414E+03  0.16500000000E+03 0.  0.
<mgrwt>
<rscale>  0 0.57341501E+03</rscale>
<asrwt>0</asrwt>
<pdfrwt beam="1">  1        2 0.84018486E-01 0.57341501E+03</pdfrwt>
<pdfrwt beam="2">  1       -2 0.19966741E-01 0.57341501E+03</pdfrwt>
<totfact> 0.11900896E+03</totfact>
</mgrwt>
</event>
<event>
 4    1  0.5399378E-005  0.5513222E+03  0.7818608E-02  0.1001188E+00
          2   -1    0    0  501    0  0.00000000000E+00  0.00000000000E+00  0.12115504155E+04  0.12115504156E+04  0.25500000000E-02 0.  1.
         -2   -1    0    0    0  501 -0.00000000000E+00 -0.00000000000E+00 -0.62720484336E+02  0.62720484388E+02  0.25500000000E-02 0. -1.
    5000001    1    1    2    0    0 -0.11541056586E+03 -0.49579359034E+02  0.15463351993E+03  0.25867786345E+03  0.16500000000E+03 0.  0.
   -5000001    1    1    2    0    0  0.11541056586E+03  0.49579359034E+02  0.99419641128E+03  0.10155930365E+04  0.16500000000E+03 0.  0.
<mgrwt>
<rscale>  0 0.55132215E+03</rscale>
<asrwt>0</asrwt>
<pdfrwt beam="1">  1        2 0.17307862E+00 0.55132215E+03</pdfrwt>
<pdfrwt beam="2">  1       -2 0.89600695E-02 0.55132215E+03</pdfrwt>
<totfact> 0.17399484E+03</totfact>
</mgrwt>
</event>
<event>
 4    1  0.5399378E-005  0.1031533E+04  0.7818608E-02  0.9274621E-01
          2   -1    0    0  501    0  0.00000000000E+00  0.00000000000E+00  0.63357073910E+03  0.63357073911E+03  0.25500000000E-02 0.  1.
         -2   -1    0    0    0  501 -0.00000000000E+00 -0.00000000000E+00 -0.41986623493E+03  0.41986623494E+03  0.25500000000E-02 0. -1.
    5000001    1    1    2    0    0  0.47860847772E+03 -0.80907193989E+02  0.16442228149E+03  0.53839737707E+03  0.16500000000E+03 0.  0.
   -5000001    1    1    2    0    0 -0.47860847772E+03  0.80907193989E+02  0.49282222676E+02  0.51503959698E+03  0.16500000000E+03 0.  0.
<mgrwt>
<rscale>  0 0.10315328E+04</rscale>
<asrwt>0</asrwt>
<pdfrwt beam="1">  1        2 0.90510107E-01 0.10315328E+04</pdfrwt>
<pdfrwt beam="2">  1       -2 0.59980890E-01 0.10315328E+04</pdfrwt>
<totfact> 0.13139794E+02</totfact>
</mgrwt>
</event>
<event>
 4    1  0.5399378E-005  0.5967925E+03  0.7818608E-02  0.9912083E-01
         -2   -1    0    0    0  501 -0.00000000000E+00  0.00000000000E+00  0.37496962758E+03  0.37496962758E+03  0.25500000000E-02 0. -1.
          2   -1    0    0  501    0  0.00000000000E+00 -0.00000000000E+00 -0.23746008834E+03  0.23746008835E+03  0.25500000000E-02 0.  1.
    5000001    1    1    2    0    0 -0.23730797720E+03  0.36535809808E+02  0.13498559791E+03  0.32108574102E+03  0.16500000000E+03 0.  0.
   -5000001    1    1    2    0    0  0.23730797720E+03 -0.36535809808E+02  0.25239413283E+01  0.29134397492E+03  0.16500000000E+03 0.  0.
<mgrwt>
<rscale>  0 0.59679250E+03</rscale>
<asrwt>0</asrwt>
<pdfrwt beam="1">  1        2 0.33922870E-01 0.59679250E+03</pdfrwt>
<pdfrwt beam="2">  1       -2 0.53567090E-01 0.59679250E+03</pdfrwt>
<totfact> 0.51283301E+02</totfact>
</mgrwt>
</event>
<event>
 4    1  0.5399378E-005  0.4979078E+03  0.7818608E-02  0.1014326E+00
          2   -1    0    0  501    0  0.00000000000E+00  0.00000000000E+00  0.71850919237E+03  0.71850919238E+03  0.25500000000E-02 0.  1.
         -2   -1    0    0    0  501 -0.00000000000E+00 -0.00000000000E+00 -0.86259215205E+02  0.86259215243E+02  0.25500000000E-02 0. -1.
    5000001    1    1    2    0    0  0.15615667835E+03 -0.53457094450E+02  0.17605162304E+03  0.29233840513E+03  0.16500000000E+03 0.  0.
   -5000001    1    1    2    0    0 -0.15615667835E+03  0.53457094450E+02  0.45619835413E+03  0.51243000249E+03  0.16500000000E+03 0.  0.
<mgrwt>
<rscale>  0 0.49790778E+03</rscale>
<asrwt>0</asrwt>
<pdfrwt beam="1">  1        2 0.10264418E+00 0.49790778E+03</pdfrwt>
<pdfrwt beam="2">  1       -2 0.12322744E-01 0.49790778E+03</pdfrwt>
<totfact> 0.21165917E+03</totfact>
</mgrwt>
</event>
<event>
 4    1  0.5399378E-005  0.6423710E+03  0.7818608E-02  0.9821201E-01
          2   -1    0    0  501    0  0.00000000000E+00  0.00000000000E+00  0.11615636780E+04  0.11615636780E+04  0.25500000000E-02 0.  1.
         -2   -1    0    0    0  501 -0.00000000000E+00 -0.00000000000E+00 -0.88811417864E+02  0.88811417901E+02  0.25500000000E-02 0. -1.
    5000001    1    1    2    0    0  0.15253052240E+03  0.73737236762E+02  0.11334307229E+03  0.26224872237E+03  0.16500000000E+03 0.  0.
   -5000001    1    1    2    0    0 -0.15253052240E+03 -0.73737236762E+02  0.95940918781E+03  0.98812637350E+03  0.16500000000E+03 0.  0.
<mgrwt>
<rscale>  0 0.64237097E+03</rscale>
<asrwt>0</asrwt>
<pdfrwt beam="1">  1        2 0.16593767E+00 0.64237097E+03</pdfrwt>
<pdfrwt beam="2">  1       -2 0.12687345E-01 0.64237097E+03</pdfrwt>
<totfact> 0.10507708E+03</totfact>
</mgrwt>
</event>
<event>
 4    1  0.5399378E-005  0.4881192E+03  0.7818608E-02  0.1016927E+00
         -2   -1    0    0    0  501 -0.00000000000E+00  0.00000000000E+00  0.42847724973E+02  0.42847725049E+02  0.25500000000E-02 0. -1.
          2   -1    0    0  501    0  0.00000000000E+00 -0.00000000000E+00 -0.13901578137E+04  0.13901578137E+04  0.25500000000E-02 0.  1.
    5000001    1    1    2    0    0  0.23616962894E+02 -0.17827446008E+03 -0.67146661531E+03  0.71444521101E+03  0.16500000000E+03 0.  0.
   -5000001    1    1    2    0    0 -0.23616962894E+02  0.17827446008E+03 -0.67584347346E+03  0.71856032779E+03  0.16500000000E+03 0.  0.
<mgrwt>
<rscale>  0 0.48811925E+03</rscale>
<asrwt>0</asrwt>
<pdfrwt beam="1">  1        2 0.19859394E+00 0.48811925E+03</pdfrwt>
<pdfrwt beam="2">  1       -2 0.61211044E-02 0.48811925E+03</pdfrwt>
<totfact> 0.25465728E+03</totfact>
</mgrwt>
</event>
<event>
 4    1  0.5399378E-005  0.4583672E+03  0.7818608E-02  0.1025256E+00
          2   -1    0    0  501    0  0.00000000000E+00  0.00000000000E+00  0.39582717523E+04  0.39582717523E+04  0.25500000000E-02 0.  1.
         -2   -1    0    0    0  501 -0.00000000000E+00 -0.00000000000E+00 -0.13269710024E+02  0.13269710269E+02  0.25500000000E-02 0. -1.
    5000001    1    1    2    0    0 -0.13887357782E+03 -0.13574217010E+02  0.26340765695E+04  0.26429253686E+04  0.16500000000E+03 0.  0.
   -5000001    1    1    2    0    0  0.13887357782E+03  0.13574217010E+02  0.13109254727E+04  0.13286160939E+04  0.16500000000E+03 0.  0.
<mgrwt>
<rscale>  0 0.45836718E+03</rscale>
<asrwt>0</asrwt>
<pdfrwt beam="1">  1        2 0.56546746E+00 0.45836718E+03</pdfrwt>
<pdfrwt beam="2">  1       -2 0.18956727E-02 0.45836718E+03</pdfrwt>
<totfact> 0.62167988E+02</totfact>
</mgrwt>
</event>
<event>
 4    1  0.5399378E-005  0.1017404E+04  0.7818608E-02  0.9289660E-01
          2   -1    0    0  501    0  0.00000000000E+00  0.00000000000E+00  0.43431450131E+03  0.43431450132E+03  0.25500000000E-02 0.  1.
         -2   -1    0    0    0  501 -0.00000000000E+00 -0.00000000000E+00 -0.59582989620E+03  0.59582989620E+03  0.25500000000E-02 0. -1.
    5000001    1    1    2    0    0  0.43542961881E+03 -0.19165116010E+03 -0.75792357475E+01  0.50359861489E+03  0.16500000000E+03 0.  0.
   -5000001    1    1    2    0    0 -0.43542961881E+03  0.19165116010E+03 -0.15393615914E+03  0.52654578262E+03  0.16500000000E+03 0.  0.
<mgrwt>
<rscale>  0 0.10174037E+04</rscale>
<asrwt>0</asrwt>
<pdfrwt beam="1">  1        2 0.62044929E-01 0.10174037E+04</pdfrwt>
<pdfrwt beam="2">  1       -2 0.85118556E-01 0.10174037E+04</pdfrwt>
<totfact> 0.94531160E+01</totfact>
</mgrwt>
</event>
<event>
 4    1  0.5399378E-005  0.4920388E+03  0.7818608E-02  0.1015878E+00
          2   -1    0    0  501    0  0.00000000000E+00  0.00000000000E+00  0.81374670164E+03  0.81374670165E+03  0.25500000000E-02 0.  1.
         -2   -1    0    0    0  501 -0.00000000000E+00 -0.00000000000E+00 -0.74378847034E+02  0.74378847078E+02  0.25500000000E-02 0. -1.
    5000001    1    1    2    0    0 -0.14772608647E+03  0.10540076792E+03  0.33504770941E+03  0.41522799289E+03  0.16500000000E+03 0.  0.
   -5000001    1    1    2    0    0  0.14772608647E+03 -0.10540076792E+03  0.40432014520E+03  0.47289755584E+03  0.16500000000E+03 0.  0.
<mgrwt>
<rscale>  0 0.49203878E+03</rscale>
<asrwt>0</asrwt>
<pdfrwt beam="1">  1        2 0.11624953E+00 0.49203878E+03</pdfrwt>
<pdfrwt beam="2">  1       -2 0.10625550E-01 0.49203878E+03</pdfrwt>
<totfact> 0.23073550E+03</totfact>
</mgrwt>
</event>
<event>
 4    1  0.5399378E-005  0.4369208E+03  0.7818608E-02  0.1031696E+00
          2   -1    0    0  501    0  0.00000000000E+00  0.00000000000E+00  0.34797857335E+03  0.34797857336E+03  0.25500000000E-02 0.  1.
         -2   -1    0    0    0  501 -0.00000000000E+00 -0.00000000000E+00 -0.13714908824E+03  0.13714908827E+03  0.25500000000E-02 0. -1.
    5000001    1    1    2    0    0 -0.13789673434E+03 -0.39153607365E+01  0.14797259457E+03  0.26105885952E+03  0.16500000000E+03 0.  0.
   -5000001    1    1    2    0    0  0.13789673434E+03  0.39153607365E+01  0.62856890539E+02  0.22406880211E+03  0.16500000000E+03 0.  0.
<mgrwt>
<rscale>  0 0.43692079E+03</rscale>
<asrwt>0</asrwt>
<pdfrwt beam="1">  1        2 0.49711224E-01 0.43692079E+03</pdfrwt>
<pdfrwt beam="2">  1       -2 0.19592727E-01 0.43692079E+03</pdfrwt>
<totfact> 0.22136990E+03</totfact>
</mgrwt>
</event>
<event>
 4    1  0.5399378E-005  0.4005835E+03  0.7818608E-02  0.1043578E+00
          2   -1    0    0  501    0  0.00000000000E+00  0.00000000000E+00  0.23774108537E+04  0.23774108537E+04  0.25500000000E-02 0.  1.
         -2   -1    0    0    0  501 -0.00000000000E+00 -0.00000000000E+00 -0.16874151518E+02  0.16874151711E+02  0.25500000000E-02 0. -1.
    5000001    1    1    2    0    0 -0.94824109292E+02  0.50059485369E+02  0.14034454181E+04  0.14171738091E+04  0.16500000000E+03 0.  0.
   -5000001    1    1    2    0    0  0.94824109292E+02 -0.50059485369E+02  0.95709128407E+03  0.97711119624E+03  0.16500000000E+03 0.  0.
<mgrwt>
<rscale>  0 0.40058353E+03</rscale>
<asrwt>0</asrwt>
<pdfrwt beam="1">  1        2 0.33963050E+00 0.40058353E+03</pdfrwt>
<pdfrwt beam="2">  1       -2 0.24105904E-02 0.40058353E+03</pdfrwt>
<totfact> 0.33655129E+03</totfact>
</mgrwt>
</event>
<event>
 4    1  0.5399378E-005  0.6242594E+03  0.7818608E-02  0.9856316E-01
          2   -1    0    0  501    0  0.00000000000E+00  0.00000000000E+00  0.40097743586E+03  0.40097743587E+03  0.25500000000E-02 0.  1.
         -2   -1    0    0    0  501 -0.00000000000E+00 -0.00000000000E+00 -0.24296868330E+03  0.24296868331E+03  0.25500000000E-02 0. -1.
    5000001    1    1    2    0    0  0.21467802729E+03  0.84999879385E+02  0.21305773596E+03  0.35486650131E+03  0.16500000000E+03 0.  0.
   -5000001    1    1    2    0    0 -0.21467802729E+03 -0.84999879385E+02 -0.55048983401E+02  0.28907961788E+03  0.16500000000E+03 0.  0.
<mgrwt>
<rscale>  0 0.62425943E+03</rscale>
<asrwt>0</asrwt>
<pdfrwt beam="1">  1        2 0.57282490E-01 0.62425943E+03</pdfrwt>
<pdfrwt beam="2">  1       -2 0.34709813E-01 0.62425943E+03</pdfrwt>
<totfact> 0.67472939E+02</totfact>
</mgrwt>
</event>
<event>
 4    1  0.5399378E-005  0.5136897E+03  0.7818608E-02  0.1010266E+00
         -2   -1    0    0    0  501 -0.00000000000E+00  0.00000000000E+00  0.16940786275E+03  0.16940786277E+03  0.25500000000E-02 0. -1.
          2   -1    0    0  501    0  0.00000000000E+00 -0.00000000000E+00 -0.38941099814E+03  0.38941099815E+03  0.25500000000E-02 0.  1.
    5000001    1    1    2    0    0  0.13532992546E+03 -0.13870653370E+03 -0.72465224139E+02  0.26463163062E+03  0.16500000000E+03 0.  0.
   -5000001    1    1    2    0    0 -0.13532992546E+03  0.13870653370E+03 -0.14753791125E+03  0.29418723030E+03  0.16500000000E+03 0.  0.
<mgrwt>
<rscale>  0 0.51368973E+03</rscale>
<asrwt>0</asrwt>
<pdfrwt beam="1">  1        2 0.55630143E-01 0.51368973E+03</pdfrwt>
<pdfrwt beam="2">  1       -2 0.24201123E-01 0.51368973E+03</pdfrwt>
<totfact> 0.13523776E+03</totfact>
</mgrwt>
</event>
<event>
 4    1  0.5399378E-005  0.5651327E+03  0.7818608E-02  0.9980507E-01
          2   -1    0    0  501    0  0.00000000000E+00  0.00000000000E+00  0.12808335087E+04  0.12808335087E+04  0.25500000000E-02 0.  1.
         -2   -1    0    0    0  501 -0.00000000000E+00 -0.00000000000E+00 -0.62337335795E+02  0.62337335847E+02  0.25500000000E-02 0. -1.
    5000001    1    1    2    0    0  0.11069188573E+03  0.19526459179E+03  0.72168032887E+03  0.77358157388E+03  0.16500000000E+03 0.  0.
   -5000001    1    1    2    0    0 -0.11069188573E+03 -0.19526459179E+03  0.49681584404E+03  0.56958927067E+03  0.16500000000E+03 0.  0.
<mgrwt>
<rscale>  0 0.56513272E+03</rscale>
<asrwt>0</asrwt>
<pdfrwt beam="1">  1        2 0.18297621E+00 0.56513272E+03</pdfrwt>
<pdfrwt beam="2">  1       -2 0.89053337E-02 0.56513272E+03</pdfrwt>
<totfact> 0.16088380E+03</totfact>
</mgrwt>
</event>
<event>
 4    1  0.5399378E-005  0.5278811E+03  0.7818608E-02  0.1006747E+00
          2   -1    0    0  501    0  0.00000000000E+00  0.00000000000E+00  0.18598541263E+04  0.18598541263E+04  0.25500000000E-02 0.  1.
         -2   -1    0    0    0  501 -0.00000000000E+00 -0.00000000000E+00 -0.37457026757E+02  0.37457026844E+02  0.25500000000E-02 0. -1.
    5000001    1    1    2    0    0 -0.96258031207E+02  0.14114989093E+03  0.49746382385E+03  0.55125688777E+03  0.16500000000E+03 0.  0.
   -5000001    1    1    2    0    0  0.96258031207E+02 -0.14114989093E+03  0.13249332757E+04  0.13460542654E+04  0.16500000000E+03 0.  0.
<mgrwt>
<rscale>  0 0.52788107E+03</rscale>
<asrwt>0</asrwt>
<pdfrwt beam="1">  1        2 0.26569354E+00 0.52788107E+03</pdfrwt>
<pdfrwt beam="2">  1       -2 0.53510020E-02 0.52788107E+03</pdfrwt>
<totfact> 0.18042345E+03</totfact>
</mgrwt>
</event>
<event>
 4    1  0.5399378E-005  0.5286476E+03  0.7818608E-02  0.1006561E+00
          2   -1    0    0  501    0  0.00000000000E+00  0.00000000000E+00  0.65103426432E+03  0.65103426432E+03  0.25500000000E-02 0.  1.
         -2   -1    0    0    0  501 -0.00000000000E+00 -0.00000000000E+00 -0.10731704739E+03  0.10731704742E+03  0.25500000000E-02 0. -1.
    5000001    1    1    2    0    0  0.95666421263E+02  0.18004049797E+03  0.22481558476E+03  0.34544709033E+03  0.16500000000E+03 0.  0.
   -5000001    1    1    2    0    0 -0.95666421263E+02 -0.18004049797E+03  0.31890163216E+03  0.41290422141E+03  0.16500000000E+03 0.  0.
<mgrwt>
<rscale>  0 0.52864761E+03</rscale>
<asrwt>0</asrwt>
<pdfrwt beam="1">  1        2 0.93004895E-01 0.52864761E+03</pdfrwt>
<pdfrwt beam="2">  1       -2 0.15331007E-01 0.52864761E+03</pdfrwt>
<totfact> 0.16585348E+03</totfact>
</mgrwt>
</event>
<event>
 4    1  0.5399378E-005  0.4566246E+03  0.7818608E-02  0.1025765E+00
          2   -1    0    0  501    0  0.00000000000E+00  0.00000000000E+00  0.28078680584E+04  0.28078680584E+04  0.25500000000E-02 0.  1.
         -2   -1    0    0    0  501 -0.00000000000E+00 -0.00000000000E+00 -0.18564441677E+02  0.18564441852E+02  0.25500000000E-02 0. -1.
    5000001    1    1    2    0    0  0.14882412716E+03 -0.49047564804E+02  0.12793115746E+04  0.12993911610E+04  0.16500000000E+03 0.  0.
   -5000001    1    1    2    0    0 -0.14882412716E+03  0.49047564804E+02  0.15099920421E+04  0.15270413392E+04  0.16500000000E+03 0.  0.
<mgrwt>
<rscale>  0 0.45662459E+03</rscale>
<asrwt>0</asrwt>
<pdfrwt beam="1">  1        2 0.40112406E+00 0.45662459E+03</pdfrwt>
<pdfrwt beam="2">  1       -2 0.26520628E-02 0.45662459E+03</pdfrwt>
<totfact> 0.17496319E+03</totfact>
</mgrwt>
</event>
<event>
 4    1  0.5399378E-005  0.5981021E+03  0.7818608E-02  0.9909351E-01
         -2   -1    0    0    0  501 -0.00000000000E+00  0.00000000000E+00  0.14192460926E+03  0.14192460928E+03  0.25500000000E-02 0.  1.
          2   -1    0    0  501    0  0.00000000000E+00 -0.00000000000E+00 -0.63013400041E+03  0.63013400042E+03  0.25500000000E-02 0. -1.
    5000001    1    1    2    0    0  0.69475776389E+00 -0.15702551770E+03 -0.49423960193E+03  0.54420150681E+03  0.16500000000E+03 0.  0.
   -5000001    1    1    2    0    0 -0.69475776389E+00  0.15702551770E+03  0.60302107799E+01  0.22785710289E+03  0.16500000000E+03 0.  0.
<mgrwt>
<rscale>  0 0.59810207E+03</rscale>
<asrwt>0</asrwt>
<pdfrwt beam="1">  1        2 0.90019142E-01 0.59810207E+03</pdfrwt>
<pdfrwt beam="2">  1       -2 0.20274944E-01 0.59810207E+03</pdfrwt>
<totfact> 0.10679307E+03</totfact>
</mgrwt>
</event>
<event>
 4    1  0.5399378E-005  0.1573568E+04  0.7818608E-02  0.8836953E-01
          2   -1    0    0  501    0  0.00000000000E+00  0.00000000000E+00  0.43324748118E+03  0.43324748118E+03  0.25500000000E-02 0.  1.
         -2   -1    0    0    0  501 -0.00000000000E+00 -0.00000000000E+00 -0.14288107923E+04  0.14288107923E+04  0.25500000000E-02 0. -1.
    5000001    1    1    2    0    0 -0.33335443700E+03 -0.54160828338E+03 -0.10099608644E+04  0.12048695618E+04  0.16500000000E+03 0.  0.
   -5000001    1    1    2    0    0  0.33335443700E+03  0.54160828338E+03  0.14397553242E+02  0.65718871174E+03  0.16500000000E+03 0.  0.
<mgrwt>
<rscale>  0 0.15735675E+04</rscale>
<asrwt>0</asrwt>
<pdfrwt beam="1">  1        2 0.61892498E-01 0.15735675E+04</pdfrwt>
<pdfrwt beam="2">  1       -2 0.20411583E+00 0.15735675E+04</pdfrwt>
<totfact> 0.95064510E+00</totfact>
</mgrwt>
</event>
<event>
 4    1  0.5399378E-005  0.1203405E+04  0.7818608E-02  0.9109881E-01
          2   -1    0    0  501    0  0.00000000000E+00  0.00000000000E+00  0.27308008431E+03  0.27308008432E+03  0.25500000000E-02 0.  1.
         -2   -1    0    0    0  501 -0.00000000000E+00 -0.00000000000E+00 -0.13257866067E+04  0.13257866067E+04  0.25500000000E-02 0. -1.
    5000001    1    1    2    0    0 -0.28229499475E+03  0.31153611256E+03 -0.10545953420E+04  0.11472321251E+04  0.16500000000E+03 0.  0.
   -5000001    1    1    2    0    0  0.28229499475E+03 -0.31153611256E+03  0.18888196138E+01  0.45163456591E+03  0.16500000000E+03 0.  0.
<mgrwt>
<rscale>  0 0.12034050E+04</rscale>
<asrwt>0</asrwt>
<pdfrwt beam="1">  1        2 0.39011441E-01 0.12034050E+04</pdfrwt>
<pdfrwt beam="2">  1       -2 0.18939808E+00 0.12034050E+04</pdfrwt>
<totfact> 0.20451455E+01</totfact>
</mgrwt>
</event>
<event>
 4    1  0.5399378E-005  0.5160425E+03  0.7818608E-02  0.1009674E+00
         -2   -1    0    0    0  501 -0.00000000000E+00  0.00000000000E+00  0.18296508966E+03  0.18296508968E+03  0.25500000000E-02 0. -1.
          2   -1    0    0  501    0  0.00000000000E+00 -0.00000000000E+00 -0.36386704127E+03  0.36386704128E+03  0.25500000000E-02 0.  1.
    5000001    1    1    2    0    0 -0.14887371115E+03 -0.12487319112E+03 -0.48153616285E+02  0.25942333452E+03  0.16500000000E+03 0.  0.
   -5000001    1    1    2    0    0  0.14887371115E+03  0.12487319112E+03 -0.13274833533E+03  0.28740879643E+03  0.16500000000E+03 0.  0.
<mgrwt>
<rscale>  0 0.51604250E+03</rscale>
<asrwt>0</asrwt>
<pdfrwt beam="1">  1        2 0.51981006E-01 0.51604250E+03</pdfrwt>
<pdfrwt beam="2">  1       -2 0.26137870E-01 0.51604250E+03</pdfrwt>
<totfact> 0.12697607E+03</totfact>
</mgrwt>
</event>
<event>
 4    1  0.5399378E-005  0.5028690E+03  0.7818608E-02  0.1013033E+00
          2   -1    0    0  501    0  0.00000000000E+00  0.00000000000E+00  0.24701017391E+04  0.24701017391E+04  0.25500000000E-02 0.  1.
         -2   -1    0    0    0  501 -0.00000000000E+00 -0.00000000000E+00 -0.25593805291E+02  0.25593805418E+02  0.25500000000E-02 0. -1.
    5000001    1    1    2    0    0 -0.11461950500E+03 -0.83283044371E+02  0.18484590131E+04  0.18612091284E+04  0.16500000000E+03 0.  0.
   -5000001    1    1    2    0    0  0.11461950500E+03  0.83283044371E+02  0.59604892073E+03  0.63448641617E+03  0.16500000000E+03 0.  0.
<mgrwt>
<rscale>  0 0.50286898E+03</rscale>
<asrwt>0</asrwt>
<pdfrwt beam="1">  1        2 0.35287167E+00 0.50286898E+03</pdfrwt>
<pdfrwt beam="2">  1       -2 0.36562579E-02 0.50286898E+03</pdfrwt>
<totfact> 0.16024710E+03</totfact>
</mgrwt>
</event>
<event>
 4    1  0.5399378E-005  0.5820369E+03  0.7818608E-02  0.9943391E-01
          2   -1    0    0  501    0  0.00000000000E+00  0.00000000000E+00  0.33783407506E+04  0.33783407506E+04  0.25500000000E-02 0.  1.
         -2   -1    0    0    0  501 -0.00000000000E+00 -0.00000000000E+00 -0.25069030862E+02  0.25069030992E+02  0.25500000000E-02 0. -1.
    5000001    1    1    2    0    0  0.77287567234E+02  0.17601154006E+03  0.83914225829E+03  0.87654900601E+03  0.16500000000E+03 0.  0.
   -5000001    1    1    2    0    0 -0.77287567234E+02 -0.17601154006E+03  0.25141294614E+04  0.25268607756E+04  0.16500000000E+03 0.  0.
<mgrwt>
<rscale>  0 0.58203687E+03</rscale>
<asrwt>0</asrwt>
<pdfrwt beam="1">  1        2 0.48262053E+00 0.58203687E+03</pdfrwt>
<pdfrwt beam="2">  1       -2 0.35812870E-02 0.58203687E+03</pdfrwt>
<totfact> 0.53195822E+02</totfact>
</mgrwt>
</event>
<event>
 4    1  0.5399378E-005  0.5672309E+03  0.7818608E-02  0.9975825E-01
          2   -1    0    0  501    0  0.00000000000E+00  0.00000000000E+00  0.61528807013E+03  0.61528807014E+03  0.25500000000E-02 0.  1.
         -2   -1    0    0    0  501 -0.00000000000E+00 -0.00000000000E+00 -0.13073180668E+03  0.13073180670E+03  0.25500000000E-02 0. -1.
    5000001    1    1    2    0    0 -0.16759776457E+03  0.68687806040E+02  0.54404328589E+02  0.25098178491E+03  0.16500000000E+03 0.  0.
   -5000001    1    1    2    0    0  0.16759776457E+03 -0.68687806040E+02  0.43015193487E+03  0.49503809193E+03  0.16500000000E+03 0.  0.
<mgrwt>
<rscale>  0 0.56723089E+03</rscale>
<asrwt>0</asrwt>
<pdfrwt beam="1">  1        2 0.87898296E-01 0.56723089E+03</pdfrwt>
<pdfrwt beam="2">  1       -2 0.18675972E-01 0.56723089E+03</pdfrwt>
<totfact> 0.12671632E+03</totfact>
</mgrwt>
</event>
<event>
 4    1  0.5399378E-005  0.3697889E+03  0.7818608E-02  0.1054774E+00
         -2   -1    0    0    0  501 -0.00000000000E+00  0.00000000000E+00  0.42209714974E+03  0.42209714974E+03  0.25500000000E-02 0. -1.
          2   -1    0    0  501    0  0.00000000000E+00 -0.00000000000E+00 -0.80990730515E+02  0.80990730556E+02  0.25500000000E-02 0.  1.
    5000001    1    1    2    0    0  0.55201086935E+02  0.60397238038E+02  0.14836580795E+03  0.23650031571E+03  0.16500000000E+03 0.  0.
   -5000001    1    1    2    0    0 -0.55201086935E+02 -0.60397238038E+02  0.19274061128E+03  0.26658756459E+03  0.16500000000E+03 0.  0.
<mgrwt>
<rscale>  0 0.36978889E+03</rscale>
<asrwt>0</asrwt>
<pdfrwt beam="1">  1        2 0.11570104E-01 0.36978889E+03</pdfrwt>
<pdfrwt beam="2">  1       -2 0.60299593E-01 0.36978889E+03</pdfrwt>
<totfact> 0.14083234E+03</totfact>
</mgrwt>
</event>
<event>
 4    1  0.5399378E-005  0.4583975E+03  0.7818608E-02  0.1025247E+00
         -2   -1    0    0    0  501 -0.00000000000E+00  0.00000000000E+00  0.42833745367E+02  0.42833745443E+02  0.25500000000E-02 0. -1.
          2   -1    0    0  501    0  0.00000000000E+00 -0.00000000000E+00 -0.12264176412E+04  0.12264176412E+04  0.25500000000E-02 0.  1.
    5000001    1    1    2    0    0 -0.60524479677E+02 -0.14322886262E+03 -0.49874159336E+03  0.54785572615E+03  0.16500000000E+03 0.  0.
   -5000001    1    1    2    0    0  0.60524479677E+02  0.14322886262E+03 -0.68484230247E+03  0.72139566050E+03  0.16500000000E+03 0.  0.
<mgrwt>
<rscale>  0 0.45839747E+03</rscale>
<asrwt>0</asrwt>
<pdfrwt beam="1">  1        2 0.17520250E+00 0.45839747E+03</pdfrwt>
<pdfrwt beam="2">  1       -2 0.61191073E-02 0.45839747E+03</pdfrwt>
<totfact> 0.31215644E+03</totfact>
</mgrwt>
</event>
<event>
 4    1  0.5399378E-005  0.3415169E+03  0.7818608E-02  0.1066152E+00
         -2   -1    0    0    0  501 -0.00000000000E+00  0.00000000000E+00  0.13134561511E+02  0.13134561758E+02  0.25500000000E-02 0. -1.
          2   -1    0    0  501    0  0.00000000000E+00 -0.00000000000E+00 -0.22199786603E+04  0.22199786603E+04  0.25500000000E-02 0.  1.
    5000001    1    1    2    0    0  0.27618269937E+02  0.33956650867E+02 -0.11308722503E+04  0.11436839028E+04  0.16500000000E+03 0.  0.
   -5000001    1    1    2    0    0 -0.27618269937E+02 -0.33956650867E+02 -0.10759718485E+04  0.10894293193E+04  0.16500000000E+03 0.  0.
<mgrwt>
<rscale>  0 0.34151689E+03</rscale>
<asrwt>0</asrwt>
<pdfrwt beam="1">  1        2 0.31713957E+00 0.34151689E+03</pdfrwt>
<pdfrwt beam="2">  1       -2 0.18763674E-02 0.34151689E+03</pdfrwt>
<totfact> 0.58582327E+03</totfact>
</mgrwt>
</event>
<event>
 4    1  0.5399378E-005  0.8116215E+03  0.7818608E-02  0.9543346E-01
         -2   -1    0    0    0  501 -0.00000000000E+00  0.00000000000E+00  0.18336611945E+04  0.18336611945E+04  0.25500000000E-02 0. -1.
          2   -1    0    0  501    0  0.00000000000E+00 -0.00000000000E+00 -0.89810688236E+02  0.89810688273E+02  0.25500000000E-02 0.  1.
    5000001    1    1    2    0    0 -0.17594121041E+03  0.27242412927E+03  0.44608452296E+03  0.57566189500E+03  0.16500000000E+03 0.  0.
   -5000001    1    1    2    0    0  0.17594121041E+03 -0.27242412927E+03  0.12977659833E+04  0.13478099878E+04  0.16500000000E+03 0.  0.
<mgrwt>
<rscale>  0 0.81162152E+03</rscale>
<asrwt>0</asrwt>
<pdfrwt beam="1">  1        2 0.12830100E-01 0.81162152E+03</pdfrwt>
<pdfrwt beam="2">  1       -2 0.26195157E+00 0.81162152E+03</pdfrwt>
<totfact> 0.27059178E+01</totfact>
</mgrwt>
</event>
<event>
 4    1  0.5399378E-005  0.4380865E+03  0.7818608E-02  0.1031336E+00
          2   -1    0    0  501    0  0.00000000000E+00  0.00000000000E+00  0.15099321294E+04  0.15099321294E+04  0.25500000000E-02 0.  1.
         -2   -1    0    0    0  501 -0.00000000000E+00 -0.00000000000E+00 -0.31776231384E+02  0.31776231486E+02  0.25500000000E-02 0. -1.
    5000001    1    1    2    0    0  0.11383464663E+03 -0.85421874012E+02  0.66040783093E+03  0.69542701018E+03  0.16500000000E+03 0.  0.
   -5000001    1    1    2    0    0 -0.11383464663E+03  0.85421874012E+02  0.81774806706E+03  0.84628135068E+03  0.16500000000E+03 0.  0.
<mgrwt>
<rscale>  0 0.43808653E+03</rscale>
<asrwt>0</asrwt>
<pdfrwt beam="1">  1        2 0.21570466E+00 0.43808653E+03</pdfrwt>
<pdfrwt beam="2">  1       -2 0.45394601E-02 0.43808653E+03</pdfrwt>
<totfact> 0.35032719E+03</totfact>
</mgrwt>
</event>
<event>
 4    1  0.5399378E-005  0.4112053E+03  0.7818608E-02  0.1039967E+00
         -2   -1    0    0    0  501 -0.00000000000E+00  0.00000000000E+00  0.77153983484E+02  0.77153983527E+02  0.25500000000E-02 0. -1.
          2   -1    0    0  501    0  0.00000000000E+00 -0.00000000000E+00 -0.54789726399E+03  0.54789726400E+03  0.25500000000E-02 0.  1.
    5000001    1    1    2    0    0 -0.38472073804E+02 -0.11633472855E+03 -0.22656232566E+03  0.30589108673E+03  0.16500000000E+03 0.  0.
   -5000001    1    1    2    0    0  0.38472073804E+02  0.11633472855E+03 -0.24418095485E+03  0.31916016080E+03  0.16500000000E+03 0.  0.
<mgrwt>
<rscale>  0 0.41120533E+03</rscale>
<asrwt>0</asrwt>
<pdfrwt beam="1">  1        2 0.78271036E-01 0.41120533E+03</pdfrwt>
<pdfrwt beam="2">  1       -2 0.11021998E-01 0.41120533E+03</pdfrwt>
<totfact> 0.34886079E+03</totfact>
</mgrwt>
</event>
<event>
 4    1  0.5399378E-005  0.1081125E+04  0.7818608E-02  0.9223787E-01
         -2   -1    0    0    0  501 -0.00000000000E+00  0.00000000000E+00  0.13290765843E+04  0.13290765843E+04  0.25500000000E-02 0. -1.
          2   -1    0    0  501    0  0.00000000000E+00 -0.00000000000E+00 -0.21985758197E+03  0.21985758199E+03  0.25500000000E-02 0.  1.
    5000001    1    1    2    0    0  0.27570974240E+03  0.13688873373E+03 -0.36506833370E+02  0.35115827821E+03  0.16500000000E+03 0.  0.
   -5000001    1    1    2    0    0 -0.27570974240E+03 -0.13688873373E+03  0.11457258357E+04  0.11977758881E+04  0.16500000000E+03 0.  0.
<mgrwt>
<rscale>  0 0.10811245E+04</rscale>
<asrwt>0</asrwt>
<pdfrwt beam="1">  1        2 0.31408226E-01 0.10811245E+04</pdfrwt>
<pdfrwt beam="2">  1       -2 0.18986809E+00 0.10811245E+04</pdfrwt>
<totfact> 0.26110027E+01</totfact>
</mgrwt>
</event>
<event>
 4    1  0.5399378E-005  0.5555222E+03  0.7818608E-02  0.1000224E+00
          2   -1    0    0  501    0  0.00000000000E+00  0.00000000000E+00  0.13747007784E+04  0.13747007784E+04  0.25500000000E-02 0.  1.
         -2   -1    0    0    0  501 -0.00000000000E+00 -0.00000000000E+00 -0.56122192175E+02  0.56122192233E+02  0.25500000000E-02 0. -1.
    5000001    1    1    2    0    0  0.10686306993E+03 -0.14181115066E+03  0.10086285751E+04  0.10373459986E+04  0.16500000000E+03 0.  0.
   -5000001    1    1    2    0    0 -0.10686306993E+03  0.14181115066E+03  0.30995001107E+03  0.39347697205E+03  0.16500000000E+03 0.  0.
<mgrwt>
<rscale>  0 0.55552217E+03</rscale>
<asrwt>0</asrwt>
<pdfrwt beam="1">  1        2 0.19638580E+00 0.55552217E+03</pdfrwt>
<pdfrwt beam="2">  1       -2 0.80174569E-02 0.55552217E+03</pdfrwt>
<totfact> 0.16940025E+03</totfact>
</mgrwt>
</event>
<event>
 4    1  0.5399378E-005  0.5678323E+03  0.7818608E-02  0.9974487E-01
         -2   -1    0    0    0  501 -0.00000000000E+00  0.00000000000E+00  0.36501657352E+03  0.36501657353E+03  0.25500000000E-02 0. -1.
          2   -1    0    0  501    0  0.00000000000E+00 -0.00000000000E+00 -0.22083487555E+03  0.22083487556E+03  0.25500000000E-02 0.  1.
    5000001    1    1    2    0    0  0.19356500929E+03  0.86050663400E+02  0.16727493011E+03  0.31635112096E+03  0.16500000000E+03 0.  0.
   -5000001    1    1    2    0    0 -0.19356500929E+03 -0.86050663400E+02 -0.23093232128E+02  0.26950032813E+03  0.16500000000E+03 0.  0.
<mgrwt>
<rscale>  0 0.56783233E+03</rscale>
<asrwt>0</asrwt>
<pdfrwt beam="1">  1        2 0.31547839E-01 0.56783233E+03</pdfrwt>
<pdfrwt beam="2">  1       -2 0.52145225E-01 0.56783233E+03</pdfrwt>
<totfact> 0.58784156E+02</totfact>
</mgrwt>
</event>
<event>
 4    1  0.5399378E-005  0.4381378E+03  0.7818608E-02  0.1031320E+00
          2   -1    0    0  501    0  0.00000000000E+00  0.00000000000E+00  0.12832957696E+04  0.12832957696E+04  0.25500000000E-02 0.  1.
         -2   -1    0    0    0  501 -0.00000000000E+00 -0.00000000000E+00 -0.37396828059E+02  0.37396828146E+02  0.25500000000E-02 0. -1.
    5000001    1    1    2    0    0  0.10630109393E+03  0.97286372461E+02  0.62679846227E+03  0.66397731373E+03  0.16500000000E+03 0.  0.
   -5000001    1    1    2    0    0 -0.10630109393E+03 -0.97286372461E+02  0.61910047930E+03  0.65671528405E+03  0.16500000000E+03 0.  0.
<mgrwt>
<rscale>  0 0.43813784E+03</rscale>
<asrwt>0</asrwt>
<pdfrwt beam="1">  1        2 0.18332801E+00 0.43813784E+03</pdfrwt>
<pdfrwt beam="2">  1       -2 0.53424027E-02 0.43813784E+03</pdfrwt>
<totfact> 0.35874673E+03</totfact>
</mgrwt>
</event>
<event>
 4    1  0.5399378E-005  0.4657151E+03  0.7818608E-02  0.1023137E+00
          2   -1    0    0  501    0  0.00000000000E+00  0.00000000000E+00  0.26206084357E+03  0.26206084359E+03  0.25500000000E-02 0.  1.
         -2   -1    0    0    0  501 -0.00000000000E+00 -0.00000000000E+00 -0.20690861822E+03  0.20690861823E+03  0.25500000000E-02 0. -1.
    5000001    1    1    2    0    0 -0.13204079111E+03  0.92404506062E+02 -0.46519617836E+01  0.23069461200E+03  0.16500000000E+03 0.  0.
   -5000001    1    1    2    0    0  0.13204079111E+03 -0.92404506062E+02  0.59804187140E+02  0.23827484982E+03  0.16500000000E+03 0.  0.
<mgrwt>
<rscale>  0 0.46571514E+03</rscale>
<asrwt>0</asrwt>
<pdfrwt beam="1">  1        2 0.37437263E-01 0.46571514E+03</pdfrwt>
<pdfrwt beam="2">  1       -2 0.29558374E-01 0.46571514E+03</pdfrwt>
<totfact> 0.14555993E+03</totfact>
</mgrwt>
</event>
<event>
 4    1  0.5399378E-005  0.5692277E+03  0.7818608E-02  0.9971389E-01
         -2   -1    0    0    0  501 -0.00000000000E+00  0.00000000000E+00  0.23331717193E+03  0.23331717194E+03  0.25500000000E-02 0. -1.
          2   -1    0    0  501    0  0.00000000000E+00 -0.00000000000E+00 -0.34718855687E+03  0.34718855688E+03  0.25500000000E-02 0.  1.
    5000001    1    1    2    0    0  0.16555012110E+03 -0.53569483294E+01 -0.22246143560E+03  0.32272221773E+03  0.16500000000E+03 0.  0.
   -5000001    1    1    2    0    0 -0.16555012110E+03  0.53569483294E+01  0.10859005065E+03  0.25778351109E+03  0.16500000000E+03 0.  0.
<mgrwt>
<rscale>  0 0.56922773E+03</rscale>
<asrwt>0</asrwt>
<pdfrwt beam="1">  1        2 0.49598365E-01 0.56922773E+03</pdfrwt>
<pdfrwt beam="2">  1       -2 0.33331025E-01 0.56922773E+03</pdfrwt>
<totfact> 0.85497584E+02</totfact>
</mgrwt>
</event>
<event>
 4    1  0.5399378E-005  0.1370519E+04  0.7818608E-02  0.8975439E-01
          2   -1    0    0  501    0  0.00000000000E+00  0.00000000000E+00  0.10647578967E+04  0.10647578967E+04  0.25500000000E-02 0.  1.
         -2   -1    0    0    0  501 -0.00000000000E+00 -0.00000000000E+00 -0.44102078281E+03  0.44102078281E+03  0.25500000000E-02 0. -1.
    5000001    1    1    2    0    0  0.56619161724E+02 -0.56509824822E+03 -0.68434001140E+02  0.59535701232E+03  0.16500000000E+03 0.  0.
   -5000001    1    1    2    0    0 -0.56619161724E+02  0.56509824822E+03  0.69217111504E+03  0.91042166720E+03  0.16500000000E+03 0.  0.
<mgrwt>
<rscale>  0 0.13705187E+04</rscale>
<asrwt>0</asrwt>
<pdfrwt beam="1">  1        2 0.15210827E+00 0.13705187E+04</pdfrwt>
<pdfrwt beam="2">  1       -2 0.63002969E-01 0.13705187E+04</pdfrwt>
<totfact> 0.58458636E+01</totfact>
</mgrwt>
</event>
<event>
 4    1  0.5399378E-005  0.4378308E+03  0.7818608E-02  0.1031414E+00
         -2   -1    0    0    0  501 -0.00000000000E+00  0.00000000000E+00  0.20298287662E+02  0.20298287823E+02  0.25500000000E-02 0. -1.
          2   -1    0    0  501    0  0.00000000000E+00 -0.00000000000E+00 -0.23609850886E+04  0.23609850886E+04  0.25500000000E-02 0.  1.
    5000001    1    1    2    0    0 -0.80129077088E+02 -0.11580595299E+03 -0.13305133935E+04  0.13480810725E+04  0.16500000000E+03 0.  0.
   -5000001    1    1    2    0    0  0.80129077088E+02  0.11580595299E+03 -0.10101734074E+04  0.10332023039E+04  0.16500000000E+03 0.  0.
<mgrwt>
<rscale>  0 0.43783081E+03</rscale>
<asrwt>0</asrwt>
<pdfrwt beam="1">  1        2 0.33728341E+00 0.43783081E+03</pdfrwt>
<pdfrwt beam="2">  1       -2 0.28997569E-02 0.43783081E+03</pdfrwt>
<totfact> 0.25951689E+03</totfact>
</mgrwt>
</event>
<event>
 4    1  0.5399378E-005  0.4572449E+03  0.7818608E-02  0.1025583E+00
          2   -1    0    0  501    0  0.00000000000E+00  0.00000000000E+00  0.21055441296E+04  0.21055441296E+04  0.25500000000E-02 0.  1.
         -2   -1    0    0    0  501 -0.00000000000E+00 -0.00000000000E+00 -0.24824098652E+02  0.24824098783E+02  0.25500000000E-02 0. -1.
    5000001    1    1    2    0    0 -0.13975571348E+03  0.50895199916E+02  0.12921801546E+04  0.13111355890E+04  0.16500000000E+03 0.  0.
   -5000001    1    1    2    0    0  0.13975571348E+03 -0.50895199916E+02  0.78853987632E+03  0.81923263934E+03  0.16500000000E+03 0.  0.
<mgrwt>
<rscale>  0 0.45724495E+03</rscale>
<asrwt>0</asrwt>
<pdfrwt beam="1">  1        2 0.30079202E+00 0.45724495E+03</pdfrwt>
<pdfrwt beam="2">  1       -2 0.35462998E-02 0.45724495E+03</pdfrwt>
<totfact> 0.25653509E+03</totfact>
</mgrwt>
</event>
<event>
 4    1  0.5399378E-005  0.5083346E+03  0.7818608E-02  0.1011626E+00
          2   -1    0    0  501    0  0.00000000000E+00  0.00000000000E+00  0.68265166629E+03  0.68265166629E+03  0.25500000000E-02 0.  1.
         -2   -1    0    0    0  501 -0.00000000000E+00 -0.00000000000E+00 -0.94632479082E+02  0.94632479116E+02  0.25500000000E-02 0. -1.
    5000001    1    1    2    0    0 -0.15740550916E+03  0.85830417583E+02  0.40461887704E+03  0.47231852658E+03  0.16500000000E+03 0.  0.
   -5000001    1    1    2    0    0  0.15740550916E+03 -0.85830417583E+02  0.18340031016E+03  0.30496561882E+03  0.16500000000E+03 0.  0.
<mgrwt>
<rscale>  0 0.50833461E+03</rscale>
<asrwt>0</asrwt>
<pdfrwt beam="1">  1        2 0.97521664E-01 0.50833461E+03</pdfrwt>
<pdfrwt beam="2">  1       -2 0.13518926E-01 0.50833461E+03</pdfrwt>
<totfact> 0.19331250E+03</totfact>
</mgrwt>
</event>
<event>
 4    1  0.5399378E-005  0.5204877E+03  0.7818608E-02  0.1008565E+00
          2   -1    0    0  501    0  0.00000000000E+00  0.00000000000E+00  0.23696233933E+04  0.23696233933E+04  0.25500000000E-02 0.  1.
         -2   -1    0    0    0  501 -0.00000000000E+00 -0.00000000000E+00 -0.28581271677E+02  0.28581271790E+02  0.25500000000E-02 0. -1.
    5000001    1    1    2    0    0 -0.95165257699E+02 -0.16265029392E+03  0.84502976030E+03  0.88136929841E+03  0.16500000000E+03 0.  0.
   -5000001    1    1    2    0    0  0.95165257699E+02  0.16265029392E+03  0.14960123613E+04  0.15168353667E+04  0.16500000000E+03 0.  0.
<mgrwt>
<rscale>  0 0.52048766E+03</rscale>
<asrwt>0</asrwt>
<pdfrwt beam="1">  1        2 0.33851763E+00 0.52048766E+03</pdfrwt>
<pdfrwt beam="2">  1       -2 0.40830388E-02 0.52048766E+03</pdfrwt>
<totfact> 0.15205542E+03</totfact>
</mgrwt>
</event>
<event>
 4    1  0.5399378E-005  0.4911566E+03  0.7818608E-02  0.1016113E+00
          2   -1    0    0  501    0  0.00000000000E+00  0.00000000000E+00  0.80768827432E+03  0.80768827432E+03  0.25500000000E-02 0.  1.
         -2   -1    0    0    0  501 -0.00000000000E+00 -0.00000000000E+00 -0.74668300998E+02  0.74668301042E+02  0.25500000000E-02 0. -1.
    5000001    1    1    2    0    0 -0.87138872425E+02 -0.12194132456E+03  0.55165139812E+03  0.59498498701E+03  0.16500000000E+03 0.  0.
   -5000001    1    1    2    0    0  0.87138872425E+02  0.12194132456E+03  0.18136857520E+03  0.28737158835E+03  0.16500000000E+03 0.  0.
<mgrwt>
<rscale>  0 0.49115664E+03</rscale>
<asrwt>0</asrwt>
<pdfrwt beam="1">  1        2 0.11538404E+00 0.49115664E+03</pdfrwt>
<pdfrwt beam="2">  1       -2 0.10666900E-01 0.49115664E+03</pdfrwt>
<totfact> 0.23147918E+03</totfact>
</mgrwt>
</event>
<event>
 4    1  0.5399378E-005  0.4446688E+03  0.7818608E-02  0.1029324E+00
         -2   -1    0    0    0  501 -0.00000000000E+00  0.00000000000E+00  0.14925527396E+03  0.14925527398E+03  0.25500000000E-02 0. -1.
          2   -1    0    0  501    0  0.00000000000E+00 -0.00000000000E+00 -0.33119491150E+03  0.33119491151E+03  0.25500000000E-02 0.  1.
    5000001    1    1    2    0    0 -0.34155561462E+02  0.73978686469E+02 -0.22578228286E+03  0.29127665146E+03  0.16500000000E+03 0.  0.
   -5000001    1    1    2    0    0  0.34155561462E+02 -0.73978686469E+02  0.43842645317E+02  0.18917353403E+03  0.16500000000E+03 0.  0.
<mgrwt>
<rscale>  0 0.44466881E+03</rscale>
<asrwt>0</asrwt>
<pdfrwt beam="1">  1        2 0.47313559E-01 0.44466881E+03</pdfrwt>
<pdfrwt beam="2">  1       -2 0.21322182E-01 0.44466881E+03</pdfrwt>
<totfact> 0.20181546E+03</totfact>
</mgrwt>
</event>
<event>
 4    1  0.5399378E-005  0.6232374E+03  0.7818608E-02  0.9858335E-01
          2   -1    0    0  501    0  0.00000000000E+00  0.00000000000E+00  0.66086065807E+03  0.66086065808E+03  0.25500000000E-02 0.  1.
         -2   -1    0    0    0  501 -0.00000000000E+00 -0.00000000000E+00 -0.14693900757E+03  0.14693900759E+03  0.25500000000E-02 0. -1.
    5000001    1    1    2    0    0  0.12313091805E+03  0.21239171256E+03  0.12990161745E+03  0.32306484297E+03  0.16500000000E+03 0.  0.
   -5000001    1    1    2    0    0 -0.12313091805E+03 -0.21239171256E+03  0.38402003306E+03  0.48473482270E+03  0.16500000000E+03 0.  0.
<mgrwt>
<rscale>  0 0.62323738E+03</rscale>
<asrwt>0</asrwt>
<pdfrwt beam="1">  1        2 0.94408665E-01 0.62323738E+03</pdfrwt>
<pdfrwt beam="2">  1       -2 0.20991287E-01 0.62323738E+03</pdfrwt>
<totfact> 0.94890549E+02</totfact>
</mgrwt>
</event>
<event>
 4    1  0.5399378E-005  0.5568738E+03  0.7818608E-02  0.9999153E-01
          2   -1    0    0  501    0  0.00000000000E+00  0.00000000000E+00  0.17242130068E+04  0.17242130068E+04  0.25500000000E-02 0.  1.
         -2   -1    0    0    0  501 -0.00000000000E+00 -0.00000000000E+00 -0.44963772095E+02  0.44963772167E+02  0.25500000000E-02 0. -1.
    5000001    1    1    2    0    0 -0.22035437622E+03 -0.32475575179E+02  0.75608717383E+03  0.80529716785E+03  0.16500000000E+03 0.  0.
   -5000001    1    1    2    0    0  0.22035437622E+03  0.32475575179E+02  0.92316206083E+03  0.96387961108E+03  0.16500000000E+03 0.  0.
<mgrwt>
<rscale>  0 0.55687385E+03</rscale>
<asrwt>0</asrwt>
<pdfrwt beam="1">  1        2 0.24631612E+00 0.55687385E+03</pdfrwt>
<pdfrwt beam="2">  1       -2 0.64233968E-02 0.55687385E+03</pdfrwt>
<totfact> 0.15860101E+03</totfact>
</mgrwt>
</event>
<event>
 4    1  0.5399378E-005  0.4547422E+03  0.7818608E-02  0.1026317E+00
          2   -1    0    0  501    0  0.00000000000E+00  0.00000000000E+00  0.46575157002E+03  0.46575157002E+03  0.25500000000E-02 0.  1.
         -2   -1    0    0    0  501 -0.00000000000E+00 -0.00000000000E+00 -0.11099828891E+03  0.11099828894E+03  0.25500000000E-02 0. -1.
    5000001    1    1    2    0    0 -0.13474577097E+03  0.74613679627E+02  0.21208739692E+03  0.30972518127E+03  0.16500000000E+03 0.  0.
   -5000001    1    1    2    0    0  0.13474577097E+03 -0.74613679627E+02  0.14266588419E+03  0.26702467768E+03  0.16500000000E+03 0.  0.
<mgrwt>
<rscale>  0 0.45474224E+03</rscale>
<asrwt>0</asrwt>
<pdfrwt beam="1">  1        2 0.66535939E-01 0.45474224E+03</pdfrwt>
<pdfrwt beam="2">  1       -2 0.15856898E-01 0.45474224E+03</pdfrwt>
<totfact> 0.23022139E+03</totfact>
</mgrwt>
</event>
<event>
 4    1  0.5399378E-005  0.5600054E+03  0.7818608E-02  0.9992042E-01
          2   -1    0    0  501    0  0.00000000000E+00  0.00000000000E+00  0.30494506269E+03  0.30494506270E+03  0.25500000000E-02 0.  1.
         -2   -1    0    0    0  501 -0.00000000000E+00 -0.00000000000E+00 -0.25710042401E+03  0.25710042403E+03  0.25500000000E-02 0. -1.
    5000001    1    1    2    0    0  0.19794629656E+03 -0.10310867698E+03 -0.13122433322E+02  0.27786927474E+03  0.16500000000E+03 0.  0.
   -5000001    1    1    2    0    0 -0.19794629656E+03  0.10310867698E+03  0.60967071997E+02  0.28417621198E+03  0.16500000000E+03 0.  0.
<mgrwt>
<rscale>  0 0.56000537E+03</rscale>
<asrwt>0</asrwt>
<pdfrwt beam="1">  1        2 0.43563581E-01 0.56000537E+03</pdfrwt>
<pdfrwt beam="2">  1       -2 0.36728632E-01 0.56000537E+03</pdfrwt>
<totfact> 0.82086043E+02</totfact>
</mgrwt>
</event>
<event>
 4    1  0.5399378E-005  0.3947522E+03  0.7818608E-02  0.1045612E+00
         -2   -1    0    0    0  501 -0.00000000000E+00  0.00000000000E+00  0.18389198626E+02  0.18389198803E+02  0.25500000000E-02 0. -1.
          2   -1    0    0  501    0  0.00000000000E+00 -0.00000000000E+00 -0.21184894152E+04  0.21184894152E+04  0.25500000000E-02 0.  1.
    5000001    1    1    2    0    0  0.18355439362E+02  0.97858016969E+02 -0.12809355906E+04  0.12953509567E+04  0.16500000000E+03 0.  0.
   -5000001    1    1    2    0    0 -0.18355439362E+02 -0.97858016969E+02 -0.81916462600E+03  0.84152765738E+03  0.16500000000E+03 0.  0.
<mgrwt>
<rscale>  0 0.39475219E+03</rscale>
<asrwt>0</asrwt>
<pdfrwt beam="1">  1        2 0.30264119E+00 0.39475219E+03</pdfrwt>
<pdfrwt beam="2">  1       -2 0.26270297E-02 0.39475219E+03</pdfrwt>
<totfact> 0.39821523E+03</totfact>
</mgrwt>
</event>
<event>
 4    1  0.5399378E-005  0.5445679E+03  0.7818608E-02  0.1002759E+00
          2   -1    0    0  501    0  0.00000000000E+00  0.00000000000E+00  0.86053785658E+03  0.86053785659E+03  0.25500000000E-02 0.  1.
         -2   -1    0    0    0  501 -0.00000000000E+00 -0.00000000000E+00 -0.86153733044E+02  0.86153733082E+02  0.25500000000E-02 0. -1.
    5000001    1    1    2    0    0  0.11969941986E+03  0.85417625878E+02  0.66364803401E+03  0.69948397763E+03  0.16500000000E+03 0.  0.
   -5000001    1    1    2    0    0 -0.11969941986E+03 -0.85417625878E+02  0.11073608953E+03  0.24720761204E+03  0.16500000000E+03 0.  0.
<mgrwt>
<rscale>  0 0.54456790E+03</rscale>
<asrwt>0</asrwt>
<pdfrwt beam="1">  1        2 0.12293398E+00 0.54456790E+03</pdfrwt>
<pdfrwt beam="2">  1       -2 0.12307676E-01 0.54456790E+03</pdfrwt>
<totfact> 0.16881464E+03</totfact>
</mgrwt>
</event>
<event>
 4    1  0.5399378E-005  0.5282273E+03  0.7818608E-02  0.1006663E+00
         -2   -1    0    0    0  501 -0.00000000000E+00  0.00000000000E+00  0.10107672555E+03  0.10107672559E+03  0.25500000000E-02 0. -1.
          2   -1    0    0  501    0  0.00000000000E+00 -0.00000000000E+00 -0.69012946285E+03  0.69012946286E+03  0.25500000000E-02 0.  1.
    5000001    1    1    2    0    0 -0.55375289734E+02  0.19196631917E+03 -0.21795206608E+03  0.33859355209E+03  0.16500000000E+03 0.  0.
   -5000001    1    1    2    0    0  0.55375289734E+02 -0.19196631917E+03 -0.37110067122E+03  0.45261263636E+03  0.16500000000E+03 0.  0.
<mgrwt>
<rscale>  0 0.52822732E+03</rscale>
<asrwt>0</asrwt>
<pdfrwt beam="1">  1        2 0.98589921E-01 0.52822732E+03</pdfrwt>
<pdfrwt beam="2">  1       -2 0.14439533E-01 0.52822732E+03</pdfrwt>
<totfact> 0.17095389E+03</totfact>
</mgrwt>
</event>
<event>
 4    1  0.5399378E-005  0.5369567E+03  0.7818608E-02  0.1004559E+00
         -2   -1    0    0    0  501 -0.00000000000E+00  0.00000000000E+00  0.79769434585E+02  0.79769434626E+02  0.25500000000E-02 0. -1.
          2   -1    0    0  501    0  0.00000000000E+00 -0.00000000000E+00 -0.90361206783E+03  0.90361206784E+03  0.25500000000E-02 0.  1.
    5000001    1    1    2    0    0 -0.15323587094E+03  0.23322901301E+02 -0.67624247519E+03  0.71312977439E+03  0.16500000000E+03 0.  0.
   -5000001    1    1    2    0    0  0.15323587094E+03 -0.23322901301E+02 -0.14760015806E+03  0.27025172808E+03  0.16500000000E+03 0.  0.
<mgrwt>
<rscale>  0 0.53695670E+03</rscale>
<asrwt>0</asrwt>
<pdfrwt beam="1">  1        2 0.12908743E+00 0.53695670E+03</pdfrwt>
<pdfrwt beam="2">  1       -2 0.11395634E-01 0.53695670E+03</pdfrwt>
<totfact> 0.17957906E+03</totfact>
</mgrwt>
</event>
<event>
 4    1  0.5399378E-005  0.4911709E+03  0.7818608E-02  0.1016109E+00
         -2   -1    0    0    0  501 -0.00000000000E+00  0.00000000000E+00  0.12430857423E+03  0.12430857425E+03  0.25500000000E-02 0. -1.
          2   -1    0    0  501    0  0.00000000000E+00 -0.00000000000E+00 -0.48518145214E+03  0.48518145215E+03  0.25500000000E-02 0.  1.
    5000001    1    1    2    0    0  0.11225689829E+03  0.12927676993E+03 -0.10421374659E+03  0.25961432826E+03  0.16500000000E+03 0.  0.
   -5000001    1    1    2    0    0 -0.11225689829E+03 -0.12927676993E+03 -0.25665913133E+03  0.34987569814E+03  0.16500000000E+03 0.  0.
<mgrwt>
<rscale>  0 0.49117091E+03</rscale>
<asrwt>0</asrwt>
<pdfrwt beam="1">  1        2 0.69311635E-01 0.49117091E+03</pdfrwt>
<pdfrwt beam="2">  1       -2 0.17758368E-01 0.49117091E+03</pdfrwt>
<totfact> 0.18160370E+03</totfact>
</mgrwt>
</event>
<event>
 4    1  0.5399378E-005  0.4168779E+03  0.7818608E-02  0.1038087E+00
          2   -1    0    0  501    0  0.00000000000E+00  0.00000000000E+00  0.10332752522E+04  0.10332752522E+04  0.25500000000E-02 0.  1.
         -2   -1    0    0    0  501 -0.00000000000E+00 -0.00000000000E+00 -0.42047653358E+02  0.42047653435E+02  0.25500000000E-02 0. -1.
    5000001    1    1    2    0    0  0.58391580350E+02  0.10971819614E+03  0.56738329371E+03  0.60381823523E+03  0.16500000000E+03 0.  0.
   -5000001    1    1    2    0    0 -0.58391580350E+02 -0.10971819614E+03  0.42384430515E+03  0.47150467042E+03  0.16500000000E+03 0.  0.
<mgrwt>
<rscale>  0 0.41687792E+03</rscale>
<asrwt>0</asrwt>
<pdfrwt beam="1">  1        2 0.14761075E+00 0.41687792E+03</pdfrwt>
<pdfrwt beam="2">  1       -2 0.60068075E-02 0.41687792E+03</pdfrwt>
<totfact> 0.41353424E+03</totfact>
</mgrwt>
</event>
<event>
 4    1  0.5399378E-005  0.3598616E+03  0.7818608E-02  0.1058639E+00
          2   -1    0    0  501    0  0.00000000000E+00  0.00000000000E+00  0.18479919287E+04  0.18479919288E+04  0.25500000000E-02 0. -1.
         -2   -1    0    0    0  501 -0.00000000000E+00 -0.00000000000E+00 -0.17519066911E+02  0.17519067097E+02  0.25500000000E-02 0.  1.
    5000001    1    1    2    0    0 -0.38306968458E+02 -0.47857461113E+02  0.72180189698E+03  0.74295406245E+03  0.16500000000E+03 0.  0.
   -5000001    1    1    2    0    0  0.38306968458E+02  0.47857461113E+02  0.11086709649E+04  0.11225569334E+04  0.16500000000E+03 0.  0.
<mgrwt>
<rscale>  0 0.35986161E+03</rscale>
<asrwt>0</asrwt>
<pdfrwt beam="1">  1        2 0.26399890E+00 0.35986161E+03</pdfrwt>
<pdfrwt beam="2">  1       -2 0.25027234E-02 0.35986161E+03</pdfrwt>
<totfact> 0.58252462E+03</totfact>
</mgrwt>
</event>
<event>
 4    1  0.5399378E-005  0.4971230E+03  0.7818608E-02  0.1014533E+00
          2   -1    0    0  501    0  0.00000000000E+00  0.00000000000E+00  0.10837281231E+03  0.10837281234E+03  0.25500000000E-02 0.  1.
         -2   -1    0    0    0  501 -0.00000000000E+00 -0.00000000000E+00 -0.57009527156E+03  0.57009527157E+03  0.25500000000E-02 0. -1.
    5000001    1    1    2    0    0  0.11091336515E+03  0.13560004585E+03 -0.14597309530E+03  0.28146454760E+03  0.16500000000E+03 0.  0.
   -5000001    1    1    2    0    0 -0.11091336515E+03 -0.13560004585E+03 -0.31574936395E+03  0.39700353630E+03  0.16500000000E+03 0.  0.
<mgrwt>
<rscale>  0 0.49712303E+03</rscale>
<asrwt>0</asrwt>
<pdfrwt beam="1">  1        2 0.15481831E-01 0.49712303E+03</pdfrwt>
<pdfrwt beam="2">  1       -2 0.81442180E-01 0.49712303E+03</pdfrwt>
<totfact> 0.51669582E+02</totfact>
</mgrwt>
</event>
<event>
 4    1  0.5399378E-005  0.3736162E+03  0.7818608E-02  0.1053319E+00
         -2   -1    0    0    0  501 -0.00000000000E+00  0.00000000000E+00  0.11860126724E+03  0.11860126726E+03  0.25500000000E-02 0. -1.
          2   -1    0    0  501    0  0.00000000000E+00 -0.00000000000E+00 -0.29424019483E+03  0.29424019484E+03  0.25500000000E-02 0.  1.
    5000001    1    1    2    0    0 -0.84596390399E+02  0.94654491216E+01 -0.11062926832E+03  0.21612491528E+03  0.16500000000E+03 0.  0.
   -5000001    1    1    2    0    0  0.84596390399E+02 -0.94654491216E+01 -0.65009659271E+02  0.19671654682E+03  0.16500000000E+03 0.  0.
<mgrwt>
<rscale>  0 0.37361617E+03</rscale>
<asrwt>0</asrwt>
<pdfrwt beam="1">  1        2 0.42034313E-01 0.37361617E+03</pdfrwt>
<pdfrwt beam="2">  1       -2 0.16943038E-01 0.37361617E+03</pdfrwt>
<totfact> 0.33968933E+03</totfact>
</mgrwt>
</event>
<event>
 4    1  0.5399378E-005  0.6338125E+03  0.7818608E-02  0.9837637E-01
          2   -1    0    0  501    0  0.00000000000E+00  0.00000000000E+00  0.57185758638E+03  0.57185758638E+03  0.25500000000E-02 0.  1.
         -2   -1    0    0    0  501 -0.00000000000E+00 -0.00000000000E+00 -0.17561989510E+03  0.17561989512E+03  0.25500000000E-02 0. -1.
    5000001    1    1    2    0    0  0.17345503763E+03 -0.15136724439E+03  0.36575827192E+03  0.46260437334E+03  0.16500000000E+03 0.  0.
   -5000001    1    1    2    0    0 -0.17345503763E+03  0.15136724439E+03  0.30479419357E+02  0.28487310817E+03  0.16500000000E+03 0.  0.
<mgrwt>
<rscale>  0 0.63381249E+03</rscale>
<asrwt>0</asrwt>
<pdfrwt beam="1">  1        2 0.81693941E-01 0.63381249E+03</pdfrwt>
<pdfrwt beam="2">  1       -2 0.25088556E-01 0.63381249E+03</pdfrwt>
<totfact> 0.82055148E+02</totfact>
</mgrwt>
</event>
<event>
 4    1  0.5399378E-005  0.3994986E+03  0.7818608E-02  0.1043953E+00
         -2   -1    0    0    0  501 -0.00000000000E+00  0.00000000000E+00  0.57170671937E+02  0.57170671994E+02  0.25500000000E-02 0. -1.
          2   -1    0    0  501    0  0.00000000000E+00 -0.00000000000E+00 -0.69790661799E+03  0.69790661799E+03  0.25500000000E-02 0.  1.
    5000001    1    1    2    0    0 -0.66928213403E+01 -0.10391587503E+03 -0.40125485069E+03  0.44617682386E+03  0.16500000000E+03 0.  0.
   -5000001    1    1    2    0    0  0.66928213403E+01  0.10391587503E+03 -0.23948109536E+03  0.30890046613E+03  0.16500000000E+03 0.  0.
<mgrwt>
<rscale>  0 0.39949864E+03</rscale>
<asrwt>0</asrwt>
<pdfrwt beam="1">  1        2 0.99700940E-01 0.39949864E+03</pdfrwt>
<pdfrwt beam="2">  1       -2 0.81672393E-02 0.39949864E+03</pdfrwt>
<totfact> 0.42436503E+03</totfact>
</mgrwt>
</event>
<event>
 4    1  0.5399378E-005  0.7398645E+03  0.7818608E-02  0.9651387E-01
         -2   -1    0    0    0  501 -0.00000000000E+00  0.00000000000E+00  0.11804926341E+03  0.11804926343E+03  0.25500000000E-02 0. -1.
          2   -1    0    0  501    0  0.00000000000E+00 -0.00000000000E+00 -0.11592606039E+04  0.11592606039E+04  0.25500000000E-02 0.  1.
    5000001    1    1    2    0    0  0.14463451909E+03  0.13530560435E+03 -0.97866801419E+03  0.10120488292E+04  0.16500000000E+03 0.  0.
   -5000001    1    1    2    0    0 -0.14463451909E+03 -0.13530560435E+03 -0.62543326279E+02  0.26526103811E+03  0.16500000000E+03 0.  0.
<mgrwt>
<rscale>  0 0.73986448E+03</rscale>
<asrwt>0</asrwt>
<pdfrwt beam="1">  1        2 0.16560865E+00 0.73986448E+03</pdfrwt>
<pdfrwt beam="2">  1       -2 0.16864181E-01 0.73986448E+03</pdfrwt>
<totfact> 0.65043815E+02</totfact>
</mgrwt>
</event>
<event>
 4    1  0.5399378E-005  0.3698288E+03  0.7818608E-02  0.1054758E+00
          2   -1    0    0  501    0  0.00000000000E+00  0.00000000000E+00  0.43979829150E+03  0.43979829151E+03  0.25500000000E-02 0.  1.
         -2   -1    0    0    0  501 -0.00000000000E+00 -0.00000000000E+00 -0.77747758185E+02  0.77747758227E+02  0.25500000000E-02 0. -1.
    5000001    1    1    2    0    0 -0.59817575080E+02  0.51603744341E+02  0.21876405261E+03  0.28517327966E+03  0.16500000000E+03 0.  0.
   -5000001    1    1    2    0    0  0.59817575080E+02 -0.51603744341E+02  0.14328648071E+03  0.23237277007E+03  0.16500000000E+03 0.  0.
<mgrwt>
<rscale>  0 0.36982878E+03</rscale>
<asrwt>0</asrwt>
<pdfrwt beam="1">  1        2 0.62828324E-01 0.36982878E+03</pdfrwt>
<pdfrwt beam="2">  1       -2 0.11106823E-01 0.36982878E+03</pdfrwt>
<totfact> 0.43970457E+03</totfact>
</mgrwt>
</event>
<event>
 4    1  0.5399378E-005  0.5927286E+03  0.7818608E-02  0.9920608E-01
         -2   -1    0    0    0  501 -0.00000000000E+00  0.00000000000E+00  0.52978820792E+02  0.52978820854E+02  0.25500000000E-02 0. -1.
          2   -1    0    0  501    0  0.00000000000E+00 -0.00000000000E+00 -0.16578659739E+04  0.16578659739E+04  0.25500000000E-02 0.  1.
    5000001    1    1    2    0    0 -0.17783878209E+03  0.16286779580E+03 -0.94543588094E+03  0.98955876848E+03  0.16500000000E+03 0.  0.
   -5000001    1    1    2    0    0  0.17783878209E+03 -0.16286779580E+03 -0.65945127215E+03  0.72128602625E+03  0.16500000000E+03 0.  0.
<mgrwt>
<rscale>  0 0.59272855E+03</rscale>
<asrwt>0</asrwt>
<pdfrwt beam="1">  1        2 0.23683796E+00 0.59272855E+03</pdfrwt>
<pdfrwt beam="2">  1       -2 0.75684040E-02 0.59272855E+03</pdfrwt>
<totfact> 0.13211625E+03</totfact>
</mgrwt>
</event>
<event>
 4    1  0.5399378E-005  0.4598895E+03  0.7818608E-02  0.1024813E+00
         -2   -1    0    0    0  501 -0.00000000000E+00  0.00000000000E+00  0.57163242444E+02  0.57163242500E+02  0.25500000000E-02 0. -1.
          2   -1    0    0  501    0  0.00000000000E+00 -0.00000000000E+00 -0.92497523356E+03  0.92497523357E+03  0.25500000000E-02 0.  1.
    5000001    1    1    2    0    0  0.50661178561E+02 -0.13809173234E+03 -0.56920413124E+03  0.61061790391E+03  0.16500000000E+03 0.  0.
   -5000001    1    1    2    0    0 -0.50661178561E+02  0.13809173234E+03 -0.29860785988E+03  0.37152057216E+03  0.16500000000E+03 0.  0.
<mgrwt>
<rscale>  0 0.45988948E+03</rscale>
<asrwt>0</asrwt>
<pdfrwt beam="1">  1        2 0.13213931E+00 0.45988948E+03</pdfrwt>
<pdfrwt beam="2">  1       -2 0.81661780E-02 0.45988948E+03</pdfrwt>
<totfact> 0.29756473E+03</totfact>
</mgrwt>
</event>
<event>
 4    1  0.5399378E-005  0.4971226E+03  0.7818608E-02  0.1014533E+00
         -2   -1    0    0    0  501 -0.00000000000E+00  0.00000000000E+00  0.10578511434E+03  0.10578511437E+03  0.25500000000E-02 0.  1.
          2   -1    0    0  501    0  0.00000000000E+00 -0.00000000000E+00 -0.58403988713E+03  0.58403988713E+03  0.25500000000E-02 0. -1.
    5000001    1    1    2    0    0  0.44457356483E+02 -0.13675957694E+03 -0.75656575677E+02  0.23157840114E+03  0.16500000000E+03 0.  0.
   -5000001    1    1    2    0    0 -0.44457356483E+02  0.13675957694E+03 -0.40259819711E+03  0.45824660037E+03  0.16500000000E+03 0.  0.
<mgrwt>
<rscale>  0 0.49712263E+03</rscale>
<asrwt>0</asrwt>
<pdfrwt beam="1">  1        2 0.83434268E-01 0.49712263E+03</pdfrwt>
<pdfrwt beam="2">  1       -2 0.15112160E-01 0.49712263E+03</pdfrwt>
<totfact> 0.19307208E+03</totfact>
</mgrwt>
</event>
<event>
 4    1  0.5399378E-005  0.9016599E+03  0.7818608E-02  0.9423509E-01
         -2   -1    0    0    0  501 -0.00000000000E+00  0.00000000000E+00  0.10489764333E+03  0.10489764337E+03  0.25500000000E-02 0. -1.
          2   -1    0    0  501    0  0.00000000000E+00 -0.00000000000E+00 -0.19375807778E+04  0.19375807778E+04  0.25500000000E-02 0.  1.
    5000001    1    1    2    0    0  0.41527754480E+03 -0.39209321589E+02 -0.10183994111E+04  0.11128140773E+04  0.16500000000E+03 0.  0.
   -5000001    1    1    2    0    0 -0.41527754480E+03  0.39209321589E+02 -0.81428372335E+03  0.92966434385E+03  0.16500000000E+03 0.  0.
<mgrwt>
<rscale>  0 0.90165993E+03</rscale>
<asrwt>0</asrwt>
<pdfrwt beam="1">  1        2 0.27679723E+00 0.90165993E+03</pdfrwt>
<pdfrwt beam="2">  1       -2 0.14985379E-01 0.90165993E+03</pdfrwt>
<totfact> 0.30569884E+02</totfact>
</mgrwt>
</event>
<event>
 4    1  0.5399378E-005  0.4192562E+03  0.7818608E-02  0.1037309E+00
          2   -1    0    0  501    0  0.00000000000E+00  0.00000000000E+00  0.29358982124E+03  0.29358982126E+03  0.25500000000E-02 0.  1.
         -2   -1    0    0    0  501 -0.00000000000E+00 -0.00000000000E+00 -0.14967804539E+03  0.14967804541E+03  0.25500000000E-02 0. -1.
    5000001    1    1    2    0    0  0.12661945154E+03  0.24276631422E+02  0.82374725181E+02  0.22501652315E+03  0.16500000000E+03 0.  0.
   -5000001    1    1    2    0    0 -0.12661945154E+03 -0.24276631422E+02  0.61537050673E+02  0.21825134352E+03  0.16500000000E+03 0.  0.
<mgrwt>
<rscale>  0 0.41925625E+03</rscale>
<asrwt>0</asrwt>
<pdfrwt beam="1">  1        2 0.41941402E-01 0.41925625E+03</pdfrwt>
<pdfrwt beam="2">  1       -2 0.21382578E-01 0.41925625E+03</pdfrwt>
<totfact> 0.22893104E+03</totfact>
</mgrwt>
</event>
<event>
 4    1  0.5399378E-005  0.3770852E+03  0.7818608E-02  0.1052016E+00
         -2   -1    0    0    0  501 -0.00000000000E+00  0.00000000000E+00  0.21328594290E+02  0.21328594443E+02  0.25500000000E-02 0. -1.
          2   -1    0    0  501    0  0.00000000000E+00 -0.00000000000E+00 -0.16666970030E+04  0.16666970030E+04  0.25500000000E-02 0.  1.
    5000001    1    1    2    0    0  0.63777169484E+02 -0.48677418577E+02 -0.10171052817E+04  0.10335207654E+04  0.16500000000E+03 0.  0.
   -5000001    1    1    2    0    0 -0.63777169484E+02  0.48677418577E+02 -0.62826312704E+03  0.65450483208E+03  0.16500000000E+03 0.  0.
<mgrwt>
<rscale>  0 0.37708516E+03</rscale>
<asrwt>0</asrwt>
<pdfrwt beam="1">  1        2 0.23809949E+00 0.37708516E+03</pdfrwt>
<pdfrwt beam="2">  1       -2 0.30469431E-02 0.37708516E+03</pdfrwt>
<totfact> 0.53405488E+03</totfact>
</mgrwt>
</event>
<event>
 4    1  0.5399378E-005  0.6189979E+03  0.7818608E-02  0.9866757E-01
          2   -1    0    0  501    0  0.00000000000E+00  0.00000000000E+00  0.78881485668E+03  0.78881485668E+03  0.25500000000E-02 0.  1.
         -2   -1    0    0    0  501 -0.00000000000E+00 -0.00000000000E+00 -0.12143481560E+03  0.12143481563E+03  0.25500000000E-02 0. -1.
    5000001    1    1    2    0    0  0.92112480599E+02  0.24474957513E+03  0.31409711758E+03  0.44075964298E+03  0.16500000000E+03 0.  0.
   -5000001    1    1    2    0    0 -0.92112480599E+02 -0.24474957513E+03  0.35328292350E+03  0.46949002933E+03  0.16500000000E+03 0.  0.
<mgrwt>
<rscale>  0 0.61899786E+03</rscale>
<asrwt>0</asrwt>
<pdfrwt beam="1">  1        2 0.11268784E+00 0.61899786E+03</pdfrwt>
<pdfrwt beam="2">  1       -2 0.17347830E-01 0.61899786E+03</pdfrwt>
<totfact> 0.10606640E+03</totfact>
</mgrwt>
</event>
<event>
 4    1  0.5399378E-005  0.4317693E+03  0.7818608E-02  0.1033302E+00
          2   -1    0    0  501    0  0.00000000000E+00  0.00000000000E+00  0.94165482458E+02  0.94165482493E+02  0.25500000000E-02 0.  1.
         -2   -1    0    0    0  501 -0.00000000000E+00 -0.00000000000E+00 -0.49493923114E+03  0.49493923114E+03  0.25500000000E-02 0. -1.
    5000001    1    1    2    0    0 -0.10425339551E+03  0.74468687482E+02 -0.27470374874E+03  0.34511085967E+03  0.16500000000E+03 0.  0.
   -5000001    1    1    2    0    0  0.10425339551E+03 -0.74468687482E+02 -0.12606999994E+03  0.24399385397E+03  0.16500000000E+03 0.  0.
<mgrwt>
<rscale>  0 0.43176934E+03</rscale>
<asrwt>0</asrwt>
<pdfrwt beam="1">  1        2 0.13452212E-01 0.43176934E+03</pdfrwt>
<pdfrwt beam="2">  1       -2 0.70705603E-01 0.43176934E+03</pdfrwt>
<totfact> 0.83601897E+02</totfact>
</mgrwt>
</event>
<event>
 4    1  0.5399378E-005  0.4074818E+03  0.7818608E-02  0.1041219E+00
         -2   -1    0    0    0  501 -0.00000000000E+00  0.00000000000E+00  0.37360791642E+02  0.37360791729E+02  0.25500000000E-02 0. -1.
          2   -1    0    0  501    0  0.00000000000E+00 -0.00000000000E+00 -0.11110673447E+04  0.11110673447E+04  0.25500000000E-02 0.  1.
    5000001    1    1    2    0    0  0.12323883858E+02  0.83943588320E+02 -0.29959283661E+03  0.35239079426E+03  0.16500000000E+03 0.  0.
   -5000001    1    1    2    0    0 -0.12323883858E+02 -0.83943588320E+02 -0.77411371641E+03  0.79603734213E+03  0.16500000000E+03 0.  0.
<mgrwt>
<rscale>  0 0.40748181E+03</rscale>
<asrwt>0</asrwt>
<pdfrwt beam="1">  1        2 0.15872389E+00 0.40748181E+03</pdfrwt>
<pdfrwt beam="2">  1       -2 0.53372566E-02 0.40748181E+03</pdfrwt>
<totfact> 0.44735326E+03</totfact>
</mgrwt>
</event>
<event>
 4    1  0.5399378E-005  0.7700084E+03  0.7818608E-02  0.9604473E-01
         -2   -1    0    0    0  501 -0.00000000000E+00  0.00000000000E+00  0.35134696217E+03  0.35134696218E+03  0.25500000000E-02 0. -1.
          2   -1    0    0  501    0  0.00000000000E+00 -0.00000000000E+00 -0.42188559260E+03  0.42188559260E+03  0.25500000000E-02 0.  1.
    5000001    1    1    2    0    0 -0.80067327144E+02  0.31472013719E+03  0.89927016953E+02  0.37519516255E+03  0.16500000000E+03 0.  0.
   -5000001    1    1    2    0    0  0.80067327144E+02 -0.31472013719E+03 -0.16046564738E+03  0.39803739223E+03  0.16500000000E+03 0.  0.
<mgrwt>
<rscale>  0 0.77000837E+03</rscale>
<asrwt>0</asrwt>
<pdfrwt beam="1">  1        2 0.60269370E-01 0.77000837E+03</pdfrwt>
<pdfrwt beam="2">  1       -2 0.50192423E-01 0.77000837E+03</pdfrwt>
<totfact> 0.30797602E+02</totfact>
</mgrwt>
</event>
<event>
 4    1  0.5399378E-005  0.5129100E+03  0.7818608E-02  0.1010463E+00
         -2   -1    0    0    0  501 -0.00000000000E+00  0.00000000000E+00  0.80689160284E+02  0.80689160324E+02  0.25500000000E-02 0. -1.
          2   -1    0    0  501    0  0.00000000000E+00 -0.00000000000E+00 -0.81509304051E+03  0.81509304052E+03  0.25500000000E-02 0.  1.
    5000001    1    1    2    0    0 -0.18023957226E+03 -0.76789693257E+02 -0.38937679320E+03  0.46607107557E+03  0.16500000000E+03 0.  0.
   -5000001    1    1    2    0    0  0.18023957226E+03  0.76789693257E+02 -0.34502708703E+03  0.42971112528E+03  0.16500000000E+03 0.  0.
<mgrwt>
<rscale>  0 0.51291002E+03</rscale>
<asrwt>0</asrwt>
<pdfrwt beam="1">  1        2 0.11644186E+00 0.51291002E+03</pdfrwt>
<pdfrwt beam="2">  1       -2 0.11527023E-01 0.51291002E+03</pdfrwt>
<totfact> 0.20166905E+03</totfact>
</mgrwt>
</event>
<event>
 4    1  0.5399378E-005  0.5994704E+03  0.7818608E-02  0.9906505E-01
         -2   -1    0    0    0  501 -0.00000000000E+00  0.00000000000E+00  0.75113009005E+03  0.75113009005E+03  0.25500000000E-02 0. -1.
          2   -1    0    0  501    0  0.00000000000E+00 -0.00000000000E+00 -0.11960803559E+03  0.11960803562E+03  0.25500000000E-02 0.  1.
    5000001    1    1    2    0    0 -0.36614379878E+02  0.24752788867E+03  0.31234651922E+03  0.43289261550E+03  0.16500000000E+03 0.  0.
   -5000001    1    1    2    0    0  0.36614379878E+02 -0.24752788867E+03  0.31917553523E+03  0.43784551017E+03  0.16500000000E+03 0.  0.
<mgrwt>
<rscale>  0 0.59947041E+03</rscale>
<asrwt>0</asrwt>
<pdfrwt beam="1">  1        2 0.17086862E-01 0.59947041E+03</pdfrwt>
<pdfrwt beam="2">  1       -2 0.10730430E+00 0.59947041E+03</pdfrwt>
<totfact> 0.24192354E+02</totfact>
</mgrwt>
</event>
<event>
 4    1  0.5399378E-005  0.4187352E+03  0.7818608E-02  0.1037479E+00
         -2   -1    0    0    0  501 -0.00000000000E+00  0.00000000000E+00  0.39461714548E+02  0.39461714631E+02  0.25500000000E-02 0. -1.
          2   -1    0    0  501    0  0.00000000000E+00 -0.00000000000E+00 -0.11108183241E+04  0.11108183241E+04  0.25500000000E-02 0.  1.
    5000001    1    1    2    0    0  0.80922481392E+02  0.90035061913E+02 -0.65714057563E+03  0.68826847706E+03  0.16500000000E+03 0.  0.
   -5000001    1    1    2    0    0 -0.80922481392E+02 -0.90035061913E+02 -0.41421603393E+03  0.46201156169E+03  0.16500000000E+03 0.  0.
<mgrwt>
<rscale>  0 0.41873522E+03</rscale>
<asrwt>0</asrwt>
<pdfrwt beam="1">  1        2 0.15868831E+00 0.41873522E+03</pdfrwt>
<pdfrwt beam="2">  1       -2 0.56373885E-02 0.41873522E+03</pdfrwt>
<totfact> 0.41134686E+03</totfact>
</mgrwt>
</event>
<event>
 4    1  0.5399378E-005  0.6441022E+03  0.7818608E-02  0.9817909E-01
          2   -1    0    0  501    0  0.00000000000E+00  0.00000000000E+00  0.97971143116E+03  0.97971143116E+03  0.25500000000E-02 0.  1.
         -2   -1    0    0    0  501 -0.00000000000E+00 -0.00000000000E+00 -0.10586475782E+03  0.10586475785E+03  0.25500000000E-02 0. -1.
    5000001    1    1    2    0    0  0.14657146985E+03  0.11340197628E+03  0.78294051634E+03  0.82131848641E+03  0.16500000000E+03 0.  0.
   -5000001    1    1    2    0    0 -0.14657146985E+03 -0.11340197628E+03  0.90906157001E+02  0.26425770260E+03  0.16500000000E+03 0.  0.
<mgrwt>
<rscale>  0 0.64410221E+03</rscale>
<asrwt>0</asrwt>
<pdfrwt beam="1">  1        2 0.13995878E+00 0.64410221E+03</pdfrwt>
<pdfrwt beam="2">  1       -2 0.15123536E-01 0.64410221E+03</pdfrwt>
<totfact> 0.10034776E+03</totfact>
</mgrwt>
</event>
<event>
 4    1  0.5399378E-005  0.7322504E+03  0.7818608E-02  0.9663616E-01
         -2   -1    0    0    0  501 -0.00000000000E+00  0.00000000000E+00  0.73175503498E+02  0.73175503542E+02  0.25500000000E-02 0. -1.
          2   -1    0    0  501    0  0.00000000000E+00 -0.00000000000E+00 -0.18318650641E+04  0.18318650641E+04  0.25500000000E-02 0.  1.
    5000001    1    1    2    0    0  0.12216089545E+03  0.12915848688E+03 -0.16582842265E+03  0.29381842160E+03  0.16500000000E+03 0.  0.
   -5000001    1    1    2    0    0 -0.12216089545E+03 -0.12915848688E+03 -0.15928611379E+04  0.16112221460E+04  0.16500000000E+03 0.  0.
<mgrwt>
<rscale>  0 0.73225036E+03</rscale>
<asrwt>0</asrwt>
<pdfrwt beam="1">  1        2 0.26169498E+00 0.73225036E+03</pdfrwt>
<pdfrwt beam="2">  1       -2 0.10453645E-01 0.73225036E+03</pdfrwt>
<totfact> 0.63628001E+02</totfact>
</mgrwt>
</event>
<event>
 4    1  0.5399378E-005  0.7157228E+03  0.7818608E-02  0.9690716E-01
          2   -1    0    0  501    0  0.00000000000E+00  0.00000000000E+00  0.11057519601E+04  0.11057519601E+04  0.25500000000E-02 0.  1.
         -2   -1    0    0    0  501 -0.00000000000E+00 -0.00000000000E+00 -0.11581690198E+03  0.11581690201E+03  0.25500000000E-02 0. -1.
    5000001    1    1    2    0    0  0.16494582713E+03  0.20577775959E+03  0.19306753888E+03  0.36613069633E+03  0.16500000000E+03 0.  0.
   -5000001    1    1    2    0    0 -0.16494582713E+03 -0.20577775959E+03  0.79686751922E+03  0.85543816574E+03  0.16500000000E+03 0.  0.
<mgrwt>
<rscale>  0 0.71572276E+03</rscale>
<asrwt>0</asrwt>
<pdfrwt beam="1">  1        2 0.15796457E+00 0.71572276E+03</pdfrwt>
<pdfrwt beam="2">  1       -2 0.16545271E-01 0.71572276E+03</pdfrwt>
<totfact> 0.72229503E+02</totfact>
</mgrwt>
</event>
<event>
 4    1  0.5399378E-005  0.4037000E+03  0.7818608E-02  0.1042506E+00
          2   -1    0    0  501    0  0.00000000000E+00  0.00000000000E+00  0.39167178241E+03  0.39167178242E+03  0.25500000000E-02 0.  1.
         -2   -1    0    0    0  501 -0.00000000000E+00 -0.00000000000E+00 -0.10402438182E+03  0.10402438185E+03  0.25500000000E-02 0. -1.
    5000001    1    1    2    0    0 -0.67474487753E+02  0.38148166328E+00  0.26008715149E+03  0.31531457054E+03  0.16500000000E+03 0.  0.
   -5000001    1    1    2    0    0  0.67474487753E+02 -0.38148166328E+00  0.27560249098E+02  0.18038159373E+03  0.16500000000E+03 0.  0.
<mgrwt>
<rscale>  0 0.40369996E+03</rscale>
<asrwt>0</asrwt>
<pdfrwt beam="1">  1        2 0.55953111E-01 0.40369996E+03</pdfrwt>
<pdfrwt beam="2">  1       -2 0.14860626E-01 0.40369996E+03</pdfrwt>
<totfact> 0.31031565E+03</totfact>
</mgrwt>
</event>
<event>
 4    1  0.5399378E-005  0.3703335E+03  0.7818608E-02  0.1054566E+00
          2   -1    0    0  501    0  0.00000000000E+00  0.00000000000E+00  0.23860584955E+04  0.23860584955E+04  0.25500000000E-02 0.  1.
         -2   -1    0    0    0  501 -0.00000000000E+00 -0.00000000000E+00 -0.14369609984E+02  0.14369610210E+02  0.25500000000E-02 0. -1.
    5000001    1    1    2    0    0  0.30629303069E+02  0.58171785070E+01  0.68002569503E+03  0.70045124004E+03  0.16500000000E+03 0.  0.
   -5000001    1    1    2    0    0 -0.30629303069E+02 -0.58171785070E+01  0.16916631905E+04  0.16999768657E+04  0.16500000000E+03 0.  0.
<mgrwt>
<rscale>  0 0.37033353E+03</rscale>
<asrwt>0</asrwt>
<pdfrwt beam="1">  1        2 0.34086526E+00 0.37033353E+03</pdfrwt>
<pdfrwt beam="2">  1       -2 0.20528029E-02 0.37033353E+03</pdfrwt>
<totfact> 0.42382127E+03</totfact>
</mgrwt>
</event>
<event>
 4    1  0.5399378E-005  0.4373134E+03  0.7818608E-02  0.1031574E+00
          2   -1    0    0  501    0  0.00000000000E+00  0.00000000000E+00  0.77570208717E+03  0.77570208717E+03  0.25500000000E-02 0.  1.
         -2   -1    0    0    0  501 -0.00000000000E+00 -0.00000000000E+00 -0.61635456986E+02  0.61635457038E+02  0.25500000000E-02 0. -1.
    5000001    1    1    2    0    0  0.11415817858E+03  0.80966487674E+02  0.29654203121E+03  0.36708287639E+03  0.16500000000E+03 0.  0.
   -5000001    1    1    2    0    0 -0.11415817858E+03 -0.80966487674E+02  0.41752459897E+03  0.47025466782E+03  0.16500000000E+03 0.  0.
<mgrwt>
<rscale>  0 0.43731340E+03</rscale>
<asrwt>0</asrwt>
<pdfrwt beam="1">  1        2 0.11081458E+00 0.43731340E+03</pdfrwt>
<pdfrwt beam="2">  1       -2 0.88050657E-02 0.43731340E+03</pdfrwt>
<totfact> 0.33127287E+03</totfact>
</mgrwt>
</event>
<event>
 4    1  0.5399378E-005  0.4363372E+03  0.7818608E-02  0.1031877E+00
         -2   -1    0    0    0  501 -0.00000000000E+00  0.00000000000E+00  0.36355790101E+02  0.36355790191E+02  0.25500000000E-02 0. -1.
          2   -1    0    0  501    0  0.00000000000E+00 -0.00000000000E+00 -0.13092146556E+04  0.13092146557E+04  0.25500000000E-02 0.  1.
    5000001    1    1    2    0    0  0.56550813254E+02  0.12765224708E+03 -0.72788033070E+03  0.75929432139E+03  0.16500000000E+03 0.  0.
   -5000001    1    1    2    0    0 -0.56550813254E+02 -0.12765224708E+03 -0.54497853484E+03  0.58627612446E+03  0.16500000000E+03 0.  0.
<mgrwt>
<rscale>  0 0.43633718E+03</rscale>
<asrwt>0</asrwt>
<pdfrwt beam="1">  1        2 0.18703064E+00 0.43633718E+03</pdfrwt>
<pdfrwt beam="2">  1       -2 0.51936851E-02 0.43633718E+03</pdfrwt>
<totfact> 0.36288444E+03</totfact>
</mgrwt>
</event>
<event>
 4    1  0.5399378E-005  0.3970783E+03  0.7818608E-02  0.1044796E+00
          2   -1    0    0  501    0  0.00000000000E+00  0.00000000000E+00  0.66842311667E+03  0.66842311668E+03  0.25500000000E-02 0.  1.
         -2   -1    0    0    0  501 -0.00000000000E+00 -0.00000000000E+00 -0.58971327599E+02  0.58971327654E+02  0.25500000000E-02 0. -1.
    5000001    1    1    2    0    0 -0.47644906332E+02 -0.77102092726E+02  0.18918711843E+03  0.26689236703E+03  0.16500000000E+03 0.  0.
   -5000001    1    1    2    0    0  0.47644906332E+02  0.77102092726E+02  0.42026467065E+03  0.46050207730E+03  0.16500000000E+03 0.  0.
<mgrwt>
<rscale>  0 0.39707832E+03</rscale>
<asrwt>0</asrwt>
<pdfrwt beam="1">  1        2 0.95489012E-01 0.39707832E+03</pdfrwt>
<pdfrwt beam="2">  1       -2 0.84244758E-02 0.39707832E+03</pdfrwt>
<totfact> 0.42542656E+03</totfact>
</mgrwt>
</event>
<event>
 4    1  0.5399378E-005  0.5639089E+03  0.7818608E-02  0.9983249E-01
          2   -1    0    0  501    0  0.00000000000E+00  0.00000000000E+00  0.58537608956E+03  0.58537608957E+03  0.25500000000E-02 0. -1.
         -2   -1    0    0    0  501 -0.00000000000E+00 -0.00000000000E+00 -0.13580722289E+03  0.13580722292E+03  0.25500000000E-02 0.  1.
    5000001    1    1    2    0    0 -0.28272177797E+02  0.21476503426E+03  0.31832763370E+03  0.41890430692E+03  0.16500000000E+03 0.  0.
   -5000001    1    1    2    0    0  0.28272177797E+02 -0.21476503426E+03  0.13124123297E+03  0.30227900557E+03  0.16500000000E+03 0.  0.
<mgrwt>
<rscale>  0 0.56390886E+03</rscale>
<asrwt>0</asrwt>
<pdfrwt beam="1">  1        2 0.83625154E-01 0.56390886E+03</pdfrwt>
<pdfrwt beam="2">  1       -2 0.19401032E-01 0.56390886E+03</pdfrwt>
<totfact> 0.12579485E+03</totfact>
</mgrwt>
</event>
<event>
 4    1  0.5399378E-005  0.4883984E+03  0.7818608E-02  0.1016852E+00
         -2   -1    0    0    0  501 -0.00000000000E+00  0.00000000000E+00  0.52626673618E+03  0.52626673618E+03  0.25500000000E-02 0. -1.
          2   -1    0    0  501    0  0.00000000000E+00 -0.00000000000E+00 -0.11331371366E+03  0.11331371369E+03  0.25500000000E-02 0.  1.
    5000001    1    1    2    0    0 -0.12947656875E+03  0.74050641490E+02  0.33847829100E+03  0.40501880553E+03  0.16500000000E+03 0.  0.
   -5000001    1    1    2    0    0  0.12947656875E+03 -0.74050641490E+02  0.74474731519E+02  0.23456164434E+03  0.16500000000E+03 0.  0.
<mgrwt>
<rscale>  0 0.48839835E+03</rscale>
<asrwt>0</asrwt>
<pdfrwt beam="1">  1        2 0.16187674E-01 0.48839835E+03</pdfrwt>
<pdfrwt beam="2">  1       -2 0.75180962E-01 0.48839835E+03</pdfrwt>
<totfact> 0.58503519E+02</totfact>
</mgrwt>
</event>
<event>
 4    1  0.5399378E-005  0.4354762E+03  0.7818608E-02  0.1032144E+00
         -2   -1    0    0    0  501 -0.00000000000E+00  0.00000000000E+00  0.27901839102E+02  0.27901839219E+02  0.25500000000E-02 0. -1.
          2   -1    0    0  501    0  0.00000000000E+00 -0.00000000000E+00 -0.16991665097E+04  0.16991665097E+04  0.25500000000E-02 0.  1.
    5000001    1    1    2    0    0  0.10325678399E+03 -0.80929543336E+02 -0.61937756530E+03  0.65426685903E+03  0.16500000000E+03 0.  0.
   -5000001    1    1    2    0    0 -0.10325678399E+03  0.80929543336E+02 -0.10518871053E+04  0.10728014899E+04  0.16500000000E+03 0.  0.
<mgrwt>
<rscale>  0 0.43547616E+03</rscale>
<asrwt>0</asrwt>
<pdfrwt beam="1">  1        2 0.24273801E+00 0.43547616E+03</pdfrwt>
<pdfrwt beam="2">  1       -2 0.39859781E-02 0.43547616E+03</pdfrwt>
<totfact> 0.34252576E+03</totfact>
</mgrwt>
</event>
<event>
 4    1  0.5399378E-005  0.6361150E+03  0.7818608E-02  0.9833188E-01
          2   -1    0    0  501    0  0.00000000000E+00  0.00000000000E+00  0.17932529661E+04  0.17932529661E+04  0.25500000000E-02 0.  1.
         -2   -1    0    0    0  501 -0.00000000000E+00 -0.00000000000E+00 -0.56411772531E+02  0.56411772588E+02  0.25500000000E-02 0. -1.
    5000001    1    1    2    0    0  0.11985581071E+03 -0.13268496188E+03  0.14640831239E+04  0.14841614158E+04  0.16500000000E+03 0.  0.
   -5000001    1    1    2    0    0 -0.11985581071E+03  0.13268496188E+03  0.27275806966E+03  0.36550332288E+03  0.16500000000E+03 0.  0.
<mgrwt>
<rscale>  0 0.63611502E+03</rscale>
<asrwt>0</asrwt>
<pdfrwt beam="1">  1        2 0.25617893E+00 0.63611502E+03</pdfrwt>
<pdfrwt beam="2">  1       -2 0.80588269E-02 0.63611502E+03</pdfrwt>
<totfact> 0.10183506E+03</totfact>
</mgrwt>
</event>
<event>
 4    1  0.5399378E-005  0.3919513E+03  0.7818608E-02  0.1046603E+00
         -2   -1    0    0    0  501 -0.00000000000E+00  0.00000000000E+00  0.11538468674E+03  0.11538468677E+03  0.25500000000E-02 0. -1.
          2   -1    0    0  501    0  0.00000000000E+00 -0.00000000000E+00 -0.33285582372E+03  0.33285582373E+03  0.25500000000E-02 0.  1.
    5000001    1    1    2    0    0 -0.97053869262E+02  0.29618573289E+02 -0.74719070282E+02  0.20761660070E+03  0.16500000000E+03 0.  0.
   -5000001    1    1    2    0    0  0.97053869262E+02 -0.29618573289E+02 -0.14275206669E+03  0.24062390980E+03  0.16500000000E+03 0.  0.
<mgrwt>
<rscale>  0 0.39195135E+03</rscale>
<asrwt>0</asrwt>
<pdfrwt beam="1">  1        2 0.47550831E-01 0.39195135E+03</pdfrwt>
<pdfrwt beam="2">  1       -2 0.16483527E-01 0.39195135E+03</pdfrwt>
<totfact> 0.31142686E+03</totfact>
</mgrwt>
</event>
<event>
 4    1  0.5399378E-005  0.5307117E+03  0.7818608E-02  0.1006060E+00
          2   -1    0    0  501    0  0.00000000000E+00  0.00000000000E+00  0.17552030283E+04  0.17552030283E+04  0.25500000000E-02 0.  1.
         -2   -1    0    0    0  501 -0.00000000000E+00 -0.00000000000E+00 -0.40117145730E+02  0.40117145811E+02  0.25500000000E-02 0. -1.
    5000001    1    1    2    0    0  0.11288153694E+03 -0.17375065209E+03  0.91179586468E+03  0.94948840400E+03  0.16500000000E+03 0.  0.
   -5000001    1    1    2    0    0 -0.11288153694E+03  0.17375065209E+03  0.80329001787E+03  0.84583177009E+03  0.16500000000E+03 0.  0.
<mgrwt>
<rscale>  0 0.53071173E+03</rscale>
<asrwt>0</asrwt>
<pdfrwt beam="1">  1        2 0.25074327E+00 0.53071173E+03</pdfrwt>
<pdfrwt beam="2">  1       -2 0.57310214E-02 0.53071173E+03</pdfrwt>
<totfact> 0.18302946E+03</totfact>
</mgrwt>
</event>
<event>
 4    1  0.5399378E-005  0.4006405E+03  0.7818608E-02  0.1043558E+00
         -2   -1    0    0    0  501 -0.00000000000E+00  0.00000000000E+00  0.23458301497E+03  0.23458301499E+03  0.25500000000E-02 0. -1.
          2   -1    0    0  501    0  0.00000000000E+00 -0.00000000000E+00 -0.17106184404E+03  0.17106184406E+03  0.25500000000E-02 0.  1.
    5000001    1    1    2    0    0  0.10893415064E+02  0.85589231512E+02 -0.43047487949E+02  0.19110800418E+03  0.16500000000E+03 0.  0.
   -5000001    1    1    2    0    0 -0.10893415064E+02 -0.85589231512E+02  0.10656865888E+03  0.21453685487E+03  0.16500000000E+03 0.  0.
<mgrwt>
<rscale>  0 0.40064050E+03</rscale>
<asrwt>0</asrwt>
<pdfrwt beam="1">  1        2 0.24437407E-01 0.40064050E+03</pdfrwt>
<pdfrwt beam="2">  1       -2 0.33511859E-01 0.40064050E+03</pdfrwt>
<totfact> 0.18536612E+03</totfact>
</mgrwt>
</event>
<event>
 4    1  0.5399378E-005  0.6474975E+03  0.7818608E-02  0.9811486E-01
         -2   -1    0    0    0  501 -0.00000000000E+00  0.00000000000E+00  0.36817997396E+02  0.36817997484E+02  0.25500000000E-02 0. -1.
          2   -1    0    0  501    0  0.00000000000E+00 -0.00000000000E+00 -0.28467940441E+04  0.28467940441E+04  0.25500000000E-02 0.  1.
    5000001    1    1    2    0    0 -0.96120029579E+02 -0.26069004811E+03 -0.13170508876E+04  0.13561144501E+04  0.16500000000E+03 0.  0.
   -5000001    1    1    2    0    0  0.96120029579E+02  0.26069004811E+03 -0.14929251590E+04  0.15274975914E+04  0.16500000000E+03 0.  0.
<mgrwt>
<rscale>  0 0.64749751E+03</rscale>
<asrwt>0</asrwt>
<pdfrwt beam="1">  1        2 0.40668472E+00 0.64749751E+03</pdfrwt>
<pdfrwt beam="2">  1       -2 0.52597157E-02 0.64749751E+03</pdfrwt>
<totfact> 0.57602259E+02</totfact>
</mgrwt>
</event>
<event>
 4    1  0.5399378E-005  0.7440723E+03  0.7818608E-02  0.9644696E-01
          2   -1    0    0  501    0  0.00000000000E+00  0.00000000000E+00  0.80795750594E+03  0.80795750594E+03  0.25500000000E-02 0.  1.
         -2   -1    0    0    0  501 -0.00000000000E+00 -0.00000000000E+00 -0.17130961117E+03  0.17130961119E+03  0.25500000000E-02 0. -1.
    5000001    1    1    2    0    0 -0.24945091629E+03  0.94947386862E+02  0.55286296163E+02  0.31862570589E+03  0.16500000000E+03 0.  0.
   -5000001    1    1    2    0    0  0.24945091629E+03 -0.94947386862E+02  0.58136159860E+03  0.66064141124E+03  0.16500000000E+03 0.  0.
<mgrwt>
<rscale>  0 0.74407227E+03</rscale>
<asrwt>0</asrwt>
<pdfrwt beam="1">  1        2 0.11542250E+00 0.74407227E+03</pdfrwt>
<pdfrwt beam="2">  1       -2 0.24472801E-01 0.74407227E+03</pdfrwt>
<totfact> 0.56082582E+02</totfact>
</mgrwt>
</event>
<event>
 4    1  0.5399378E-005  0.1708943E+04  0.7818608E-02  0.8756280E-01
          2   -1    0    0  501    0  0.00000000000E+00  0.00000000000E+00  0.15842330550E+04  0.15842330550E+04  0.25500000000E-02 0.  1.
         -2   -1    0    0    0  501 -0.00000000000E+00 -0.00000000000E+00 -0.46086747365E+03  0.46086747366E+03  0.25500000000E-02 0. -1.
    5000001    1    1    2    0    0 -0.43783722433E+03  0.71079256283E+03  0.46922632558E+03  0.97176429601E+03  0.16500000000E+03 0.  0.
   -5000001    1    1    2    0    0  0.43783722433E+03 -0.71079256283E+03  0.65413925576E+03  0.10733362326E+04  0.16500000000E+03 0.  0.
<mgrwt>
<rscale>  0 0.17089429E+04</rscale>
<asrwt>0</asrwt>
<pdfrwt beam="1">  1        2 0.22631901E+00 0.17089429E+04</pdfrwt>
<pdfrwt beam="2">  1       -2 0.65838211E-01 0.17089429E+04</pdfrwt>
<totfact> 0.26702535E+01</totfact>
</mgrwt>
</event>
<event>
 4    1  0.5399378E-005  0.4500921E+03  0.7818608E-02  0.1027695E+00
         -2   -1    0    0    0  501 -0.00000000000E+00  0.00000000000E+00  0.69789679238E+03  0.69789679239E+03  0.25500000000E-02 0. -1.
          2   -1    0    0  501    0  0.00000000000E+00 -0.00000000000E+00 -0.72569074748E+02  0.72569074793E+02  0.25500000000E-02 0.  1.
    5000001    1    1    2    0    0  0.10882801677E+03  0.27901472800E+02  0.13477954487E+03  0.24085795635E+03  0.16500000000E+03 0.  0.
   -5000001    1    1    2    0    0 -0.10882801677E+03 -0.27901472800E+02  0.49054817276E+03  0.52960791083E+03  0.16500000000E+03 0.  0.
<mgrwt>
<rscale>  0 0.45009210E+03</rscale>
<asrwt>0</asrwt>
<pdfrwt beam="1">  1        2 0.10367011E-01 0.45009210E+03</pdfrwt>
<pdfrwt beam="2">  1       -2 0.99699542E-01 0.45009210E+03</pdfrwt>
<totfact> 0.53243594E+02</totfact>
</mgrwt>
</event>
<event>
 4    1  0.5399378E-005  0.4525381E+03  0.7818608E-02  0.1026968E+00
         -2   -1    0    0    0  501 -0.00000000000E+00  0.00000000000E+00  0.18756064133E+02  0.18756064306E+02  0.25500000000E-02 0. -1.
          2   -1    0    0  501    0  0.00000000000E+00 -0.00000000000E+00 -0.27296604547E+04  0.27296604547E+04  0.25500000000E-02 0.  1.
    5000001    1    1    2    0    0 -0.12116644662E+03  0.87048355519E+02 -0.16068885554E+04  0.16222128571E+04  0.16500000000E+03 0.  0.
   -5000001    1    1    2    0    0  0.12116644662E+03 -0.87048355519E+02 -0.11040158351E+04  0.11262036619E+04  0.16500000000E+03 0.  0.
<mgrwt>
<rscale>  0 0.45253812E+03</rscale>
<asrwt>0</asrwt>
<pdfrwt beam="1">  1        2 0.38995124E+00 0.45253812E+03</pdfrwt>
<pdfrwt beam="2">  1       -2 0.26794395E-02 0.45253812E+03</pdfrwt>
<totfact> 0.18934530E+03</totfact>
</mgrwt>
</event>
<event>
 4    1  0.5399378E-005  0.7960874E+03  0.7818608E-02  0.9565698E-01
          2   -1    0    0  501    0  0.00000000000E+00  0.00000000000E+00  0.10331851019E+04  0.10331851019E+04  0.25500000000E-02 0.  1.
         -2   -1    0    0    0  501 -0.00000000000E+00 -0.00000000000E+00 -0.15334987570E+03  0.15334987572E+03  0.25500000000E-02 0. -1.
    5000001    1    1    2    0    0  0.20350465475E+03 -0.14861852340E+03  0.52077057517E+02  0.30567732975E+03  0.16500000000E+03 0.  0.
   -5000001    1    1    2    0    0 -0.20350465475E+03  0.14861852340E+03  0.82775816863E+03  0.88085764783E+03  0.16500000000E+03 0.  0.
<mgrwt>
<rscale>  0 0.79608745E+03</rscale>
<asrwt>0</asrwt>
<pdfrwt beam="1">  1        2 0.14759787E+00 0.79608745E+03</pdfrwt>
<pdfrwt beam="2">  1       -2 0.21907125E-01 0.79608745E+03</pdfrwt>
<totfact> 0.48815850E+02</totfact>
</mgrwt>
</event>
<event>
 4    1  0.5399378E-005  0.5006207E+03  0.7818608E-02  0.1013617E+00
          2   -1    0    0  501    0  0.00000000000E+00  0.00000000000E+00  0.91529708910E+03  0.91529708910E+03  0.25500000000E-02 0.  1.
         -2   -1    0    0    0  501 -0.00000000000E+00 -0.00000000000E+00 -0.68453474610E+02  0.68453474657E+02  0.25500000000E-02 0. -1.
    5000001    1    1    2    0    0  0.12315454370E+03  0.14011039065E+03  0.47283453023E+03  0.53441131741E+03  0.16500000000E+03 0.  0.
   -5000001    1    1    2    0    0 -0.12315454370E+03 -0.14011039065E+03  0.37400908426E+03  0.44933924635E+03  0.16500000000E+03 0.  0.
<mgrwt>
<rscale>  0 0.50062068E+03</rscale>
<asrwt>0</asrwt>
<pdfrwt beam="1">  1        2 0.13075671E+00 0.50062068E+03</pdfrwt>
<pdfrwt beam="2">  1       -2 0.97790689E-02 0.50062068E+03</pdfrwt>
<totfact> 0.22629936E+03</totfact>
</mgrwt>
</event>
<event>
 4    1  0.5399378E-005  0.5061811E+03  0.7818608E-02  0.1012178E+00
         -2   -1    0    0    0  501 -0.00000000000E+00  0.00000000000E+00  0.39951398961E+03  0.39951398962E+03  0.25500000000E-02 0. -1.
          2   -1    0    0  501    0  0.00000000000E+00 -0.00000000000E+00 -0.16033184973E+03  0.16033184975E+03  0.25500000000E-02 0.  1.
    5000001    1    1    2    0    0  0.46705692805E+02  0.18509132762E+03  0.14142186805E+03  0.28924966044E+03  0.16500000000E+03 0.  0.
   -5000001    1    1    2    0    0 -0.46705692805E+02 -0.18509132762E+03  0.97760271834E+02  0.27059617893E+03  0.16500000000E+03 0.  0.
<mgrwt>
<rscale>  0 0.50618106E+03</rscale>
<asrwt>0</asrwt>
<pdfrwt beam="1">  1        2 0.22904550E-01 0.50618106E+03</pdfrwt>
<pdfrwt beam="2">  1       -2 0.57073427E-01 0.50618106E+03</pdfrwt>
<totfact> 0.70179934E+02</totfact>
</mgrwt>
</event>
<event>
 4    1  0.5399378E-005  0.6703797E+03  0.7818608E-02  0.9769272E-01
         -2   -1    0    0    0  501 -0.00000000000E+00  0.00000000000E+00  0.22884294785E+03  0.22884294786E+03  0.25500000000E-02 0. -1.
          2   -1    0    0  501    0  0.00000000000E+00 -0.00000000000E+00 -0.49095780998E+03  0.49095780999E+03  0.25500000000E-02 0.  1.
    5000001    1    1    2    0    0  0.15711151762E+03 -0.20405048135E+03 -0.27830449626E+03  0.41352027828E+03  0.16500000000E+03 0.  0.
   -5000001    1    1    2    0    0 -0.15711151762E+03  0.20405048135E+03  0.16189634125E+02  0.30628047957E+03  0.16500000000E+03 0.  0.
<mgrwt>
<rscale>  0 0.67037969E+03</rscale>
<asrwt>0</asrwt>
<pdfrwt beam="1">  1        2 0.70136829E-01 0.67037969E+03</pdfrwt>
<pdfrwt beam="2">  1       -2 0.32691850E-01 0.67037969E+03</pdfrwt>
<totfact> 0.60109437E+02</totfact>
</mgrwt>
</event>
<event>
 4    1  0.5399378E-005  0.3789558E+03  0.7818608E-02  0.1051320E+00
          2   -1    0    0  501    0  0.00000000000E+00  0.00000000000E+00  0.94998147321E+02  0.94998147355E+02  0.25500000000E-02 0.  1.
         -2   -1    0    0    0  501 -0.00000000000E+00 -0.00000000000E+00 -0.37792178449E+03  0.37792178450E+03  0.25500000000E-02 0. -1.
    5000001    1    1    2    0    0  0.91295159881E+02 -0.14444199033E+02 -0.15587709626E+03  0.24508388409E+03  0.16500000000E+03 0.  0.
   -5000001    1    1    2    0    0 -0.91295159881E+02  0.14444199033E+02 -0.12704654091E+03  0.22783604776E+03  0.16500000000E+03 0.  0.
<mgrwt>
<rscale>  0 0.37895577E+03</rscale>
<asrwt>0</asrwt>
<pdfrwt beam="1">  1        2 0.13571164E-01 0.37895577E+03</pdfrwt>
<pdfrwt beam="2">  1       -2 0.53988826E-01 0.37895577E+03</pdfrwt>
<totfact> 0.14561026E+03</totfact>
</mgrwt>
</event>
<event>
 4    1  0.5399378E-005  0.3839707E+03  0.7818608E-02  0.1049476E+00
         -2   -1    0    0    0  501 -0.00000000000E+00  0.00000000000E+00  0.26302121121E+02  0.26302121245E+02  0.25500000000E-02 0. -1.
          2   -1    0    0  501    0  0.00000000000E+00 -0.00000000000E+00 -0.14013463062E+04  0.14013463062E+04  0.25500000000E-02 0.  1.
    5000001    1    1    2    0    0  0.43637621684E+02 -0.60821251889E+02 -0.45149001843E+03  0.48648916067E+03  0.16500000000E+03 0.  0.
   -5000001    1    1    2    0    0 -0.43637621684E+02  0.60821251889E+02 -0.92355416667E+03  0.94115926680E+03  0.16500000000E+03 0.  0.
<mgrwt>
<rscale>  0 0.38397073E+03</rscale>
<asrwt>0</asrwt>
<pdfrwt beam="1">  1        2 0.20019228E+00 0.38397073E+03</pdfrwt>
<pdfrwt beam="2">  1       -2 0.37574468E-02 0.38397073E+03</pdfrwt>
<totfact> 0.53164506E+03</totfact>
</mgrwt>
</event>
<event>
 4    1  0.5399378E-005  0.8175172E+03  0.7818608E-02  0.9535002E-01
          2   -1    0    0  501    0  0.00000000000E+00  0.00000000000E+00  0.32872907721E+03  0.32872907722E+03  0.25500000000E-02 0.  1.
         -2   -1    0    0    0  501 -0.00000000000E+00 -0.00000000000E+00 -0.50827144687E+03  0.50827144688E+03  0.25500000000E-02 0. -1.
    5000001    1    1    2    0    0  0.80430332998E+02 -0.49889696020E+02 -0.46019560403E+03  0.49795884790E+03  0.16500000000E+03 0.  0.
   -5000001    1    1    2    0    0 -0.80430332998E+02  0.49889696020E+02  0.28065323437E+03  0.33904167620E+03  0.16500000000E+03 0.  0.
<mgrwt>
<rscale>  0 0.81751723E+03</rscale>
<asrwt>0</asrwt>
<pdfrwt beam="1">  1        2 0.46961297E-01 0.81751723E+03</pdfrwt>
<pdfrwt beam="2">  1       -2 0.72610206E-01 0.81751723E+03</pdfrwt>
<totfact> 0.18600802E+02</totfact>
</mgrwt>
</event>
<event>
 4    1  0.5399378E-005  0.6548881E+03  0.7818608E-02  0.9797650E-01
         -2   -1    0    0    0  501 -0.00000000000E+00  0.00000000000E+00  0.33032438936E+03  0.33032438937E+03  0.25500000000E-02 0. -1.
          2   -1    0    0  501    0  0.00000000000E+00 -0.00000000000E+00 -0.32458879111E+03  0.32458879112E+03  0.25500000000E-02 0.  1.
    5000001    1    1    2    0    0 -0.56445430158E+02  0.26830018591E+03 -0.66586415064E+02  0.32684832417E+03  0.16500000000E+03 0.  0.
   -5000001    1    1    2    0    0  0.56445430158E+02 -0.26830018591E+03  0.72322013314E+02  0.32806485632E+03  0.16500000000E+03 0.  0.
<mgrwt>
<rscale>  0 0.65488806E+03</rscale>
<asrwt>0</asrwt>
<pdfrwt beam="1">  1        2 0.46369827E-01 0.65488806E+03</pdfrwt>
<pdfrwt beam="2">  1       -2 0.47189199E-01 0.65488806E+03</pdfrwt>
<totfact> 0.46858315E+02</totfact>
</mgrwt>
</event>
<event>
 4    1  0.5399378E-005  0.5052456E+03  0.7818608E-02  0.1012419E+00
          2   -1    0    0  501    0  0.00000000000E+00  0.00000000000E+00  0.18099149154E+04  0.18099149154E+04  0.25500000000E-02 0.  1.
         -2   -1    0    0    0  501 -0.00000000000E+00 -0.00000000000E+00 -0.35260368972E+02  0.35260369064E+02  0.25500000000E-02 0. -1.
    5000001    1    1    2    0    0 -0.13046110819E+03 -0.13727687139E+03  0.98588001399E+03  0.10173737967E+04  0.16500000000E+03 0.  0.
   -5000001    1    1    2    0    0  0.13046110819E+03  0.13727687139E+03  0.78877453243E+03  0.82780148779E+03  0.16500000000E+03 0.  0.
<mgrwt>
<rscale>  0 0.50524556E+03</rscale>
<asrwt>0</asrwt>
<pdfrwt beam="1">  1        2 0.25855929E+00 0.50524556E+03</pdfrwt>
<pdfrwt beam="2">  1       -2 0.50371953E-02 0.50524556E+03</pdfrwt>
<totfact> 0.21006464E+03</totfact>
</mgrwt>
</event>
<event>
 4    1  0.5399378E-005  0.6648184E+03  0.7818608E-02  0.9779364E-01
         -2   -1    0    0    0  501 -0.00000000000E+00  0.00000000000E+00  0.50679629112E+02  0.50679629176E+02  0.25500000000E-02 0. -1.
          2   -1    0    0  501    0  0.00000000000E+00 -0.00000000000E+00 -0.21802817469E+04  0.21802817469E+04  0.25500000000E-02 0.  1.
    5000001    1    1    2    0    0 -0.97555551113E+02 -0.21024038078E+03 -0.16416845462E+04  0.16661546305E+04  0.16500000000E+03 0.  0.
   -5000001    1    1    2    0    0  0.97555551113E+02  0.21024038078E+03 -0.48791757156E+03  0.56480674562E+03  0.16500000000E+03 0.  0.
<mgrwt>
<rscale>  0 0.66481838E+03</rscale>
<asrwt>0</asrwt>
<pdfrwt beam="1">  1        2 0.31146876E+00 0.66481838E+03</pdfrwt>
<pdfrwt beam="2">  1       -2 0.72399484E-02 0.66481838E+03</pdfrwt>
<totfact> 0.76927568E+02</totfact>
</mgrwt>
</event>
<event>
 4    1  0.5399378E-005  0.5856104E+03  0.7818608E-02  0.9935718E-01
         -2   -1    0    0    0  501 -0.00000000000E+00  0.00000000000E+00  0.94550838614E+02  0.94550838649E+02  0.25500000000E-02 0. -1.
          2   -1    0    0  501    0  0.00000000000E+00 -0.00000000000E+00 -0.90675965382E+03  0.90675965382E+03  0.25500000000E-02 0.  1.
    5000001    1    1    2    0    0  0.20213667792E+03  0.12924883810E+03 -0.45867765420E+03  0.54329981518E+03  0.16500000000E+03 0.  0.
   -5000001    1    1    2    0    0 -0.20213667792E+03 -0.12924883810E+03 -0.35353116100E+03  0.45801067729E+03  0.16500000000E+03 0.  0.
<mgrwt>
<rscale>  0 0.58561040E+03</rscale>
<asrwt>0</asrwt>
<pdfrwt beam="1">  1        2 0.12953709E+00 0.58561040E+03</pdfrwt>
<pdfrwt beam="2">  1       -2 0.13507263E-01 0.58561040E+03</pdfrwt>
<totfact> 0.13496938E+03</totfact>
</mgrwt>
</event>
<event>
 4    1  0.5399378E-005  0.3656130E+03  0.7818608E-02  0.1056383E+00
         -2   -1    0    0    0  501 -0.00000000000E+00  0.00000000000E+00  0.38058873826E+02  0.38058873911E+02  0.25500000000E-02 0. -1.
          2   -1    0    0  501    0  0.00000000000E+00 -0.00000000000E+00 -0.87806618177E+03  0.87806618178E+03  0.25500000000E-02 0.  1.
    5000001    1    1    2    0    0  0.51704749349E+02  0.59194944373E+02 -0.41004753413E+03  0.44893362849E+03  0.16500000000E+03 0.  0.
   -5000001    1    1    2    0    0 -0.51704749349E+02 -0.59194944373E+02 -0.42995977382E+03  0.46719142720E+03  0.16500000000E+03 0.  0.
<mgrwt>
<rscale>  0 0.36561297E+03</rscale>
<asrwt>0</asrwt>
<pdfrwt beam="1">  1        2 0.12543801E+00 0.36561297E+03</pdfrwt>
<pdfrwt beam="2">  1       -2 0.54369825E-02 0.36561297E+03</pdfrwt>
<totfact> 0.59970941E+03</totfact>
</mgrwt>
</event>
<event>
 4    1  0.5399378E-005  0.4591268E+03  0.7818608E-02  0.1025035E+00
         -2   -1    0    0    0  501 -0.00000000000E+00  0.00000000000E+00  0.62436040956E+02  0.62436041008E+02  0.25500000000E-02 0. -1.
          2   -1    0    0  501    0  0.00000000000E+00 -0.00000000000E+00 -0.84405339028E+03  0.84405339029E+03  0.25500000000E-02 0.  1.
    5000001    1    1    2    0    0 -0.64048318531E+02 -0.11177630799E+03 -0.20477433797E+03  0.29283725792E+03  0.16500000000E+03 0.  0.
   -5000001    1    1    2    0    0  0.64048318531E+02  0.11177630799E+03 -0.57684301136E+03  0.61365217338E+03  0.16500000000E+03 0.  0.
<mgrwt>
<rscale>  0 0.45912679E+03</rscale>
<asrwt>0</asrwt>
<pdfrwt beam="1">  1        2 0.12057905E+00 0.45912679E+03</pdfrwt>
<pdfrwt beam="2">  1       -2 0.89194350E-02 0.45912679E+03</pdfrwt>
<totfact> 0.29166269E+03</totfact>
</mgrwt>
</event>
<event>
 4    1  0.5399378E-005  0.6303465E+03  0.7818608E-02  0.9844373E-01
          2   -1    0    0  501    0  0.00000000000E+00  0.00000000000E+00  0.66604753558E+03  0.66604753558E+03  0.25500000000E-02 0.  1.
         -2   -1    0    0    0  501 -0.00000000000E+00 -0.00000000000E+00 -0.14913976165E+03  0.14913976168E+03  0.25500000000E-02 0. -1.
    5000001    1    1    2    0    0 -0.67837324868E+02 -0.25647973560E+03  0.31217248173E+03  0.44165644540E+03  0.16500000000E+03 0.  0.
   -5000001    1    1    2    0    0  0.67837324868E+02  0.25647973560E+03  0.20473529220E+03  0.37353085186E+03  0.16500000000E+03 0.  0.
<mgrwt>
<rscale>  0 0.63034648E+03</rscale>
<asrwt>0</asrwt>
<pdfrwt beam="1">  1        2 0.95149650E-01 0.63034648E+03</pdfrwt>
<pdfrwt beam="2">  1       -2 0.21305680E-01 0.63034648E+03</pdfrwt>
<totfact> 0.91565196E+02</totfact>
</mgrwt>
</event>
<event>
 4    1  0.5399378E-005  0.4906974E+03  0.7818608E-02  0.1016236E+00
          2   -1    0    0  501    0  0.00000000000E+00  0.00000000000E+00  0.73720970857E+03  0.73720970857E+03  0.25500000000E-02 0.  1.
         -2   -1    0    0    0  501 -0.00000000000E+00 -0.00000000000E+00 -0.81653815760E+02  0.81653815800E+02  0.25500000000E-02 0. -1.
    5000001    1    1    2    0    0 -0.17510421700E+03  0.20384165654E+02  0.25515297063E+03  0.35129053423E+03  0.16500000000E+03 0.  0.
   -5000001    1    1    2    0    0  0.17510421700E+03 -0.20384165654E+02  0.40040292218E+03  0.46757299014E+03  0.16500000000E+03 0.  0.
<mgrwt>
<rscale>  0 0.49069740E+03</rscale>
<asrwt>0</asrwt>
<pdfrwt beam="1">  1        2 0.10531567E+00 0.49069740E+03</pdfrwt>
<pdfrwt beam="2">  1       -2 0.11664831E-01 0.49069740E+03</pdfrwt>
<totfact> 0.22436131E+03</totfact>
</mgrwt>
</event>
<event>
 4    1  0.5399378E-005  0.9847083E+03  0.7818608E-02  0.9325477E-01
          2   -1    0    0  501    0  0.00000000000E+00  0.00000000000E+00  0.19186007708E+04  0.19186007708E+04  0.25500000000E-02 0.  1.
         -2   -1    0    0    0  501 -0.00000000000E+00 -0.00000000000E+00 -0.12634865341E+03  0.12634865343E+03  0.25500000000E-02 0. -1.
    5000001    1    1    2    0    0  0.19844615351E+03 -0.36831553745E+03  0.48000473871E+03  0.65777409508E+03  0.16500000000E+03 0.  0.
   -5000001    1    1    2    0    0 -0.19844615351E+03  0.36831553745E+03  0.13122473787E+04  0.13871753292E+04  0.16500000000E+03 0.  0.
<mgrwt>
<rscale>  0 0.98470833E+03</rscale>
<asrwt>0</asrwt>
<pdfrwt beam="1">  1        2 0.27408582E+00 0.98470833E+03</pdfrwt>
<pdfrwt beam="2">  1       -2 0.18049808E-01 0.98470833E+03</pdfrwt>
<totfact> 0.22601100E+02</totfact>
</mgrwt>
</event>
<event>
 4    1  0.5399378E-005  0.4821390E+03  0.7818608E-02  0.1018549E+00
          2   -1    0    0  501    0  0.00000000000E+00  0.00000000000E+00  0.11523575078E+04  0.11523575078E+04  0.25500000000E-02 0.  1.
         -2   -1    0    0    0  501 -0.00000000000E+00 -0.00000000000E+00 -0.50430975063E+02  0.50430975128E+02  0.25500000000E-02 0. -1.
    5000001    1    1    2    0    0  0.14557809280E+03 -0.74456166799E+02  0.71172698471E+03  0.74867683458E+03  0.16500000000E+03 0.  0.
   -5000001    1    1    2    0    0 -0.14557809280E+03  0.74456166799E+02  0.39019954799E+03  0.45411164831E+03  0.16500000000E+03 0.  0.
<mgrwt>
<rscale>  0 0.48213904E+03</rscale>
<asrwt>0</asrwt>
<pdfrwt beam="1">  1        2 0.16462251E+00 0.48213904E+03</pdfrwt>
<pdfrwt beam="2">  1       -2 0.72044246E-02 0.48213904E+03</pdfrwt>
<totfact> 0.26581440E+03</totfact>
</mgrwt>
</event>
<event>
 4    1  0.5399378E-005  0.4529383E+03  0.7818608E-02  0.1026849E+00
         -2   -1    0    0    0  501 -0.00000000000E+00  0.00000000000E+00  0.30641517750E+02  0.30641517856E+02  0.25500000000E-02 0. -1.
          2   -1    0    0  501    0  0.00000000000E+00 -0.00000000000E+00 -0.16738164155E+04  0.16738164155E+04  0.25500000000E-02 0.  1.
    5000001    1    1    2    0    0 -0.99028735436E+02 -0.23539937933E+02 -0.12620880011E+04  0.12768915152E+04  0.16500000000E+03 0.  0.
   -5000001    1    1    2    0    0  0.99028735436E+02  0.23539937933E+02 -0.38108689664E+03  0.42756641813E+03  0.16500000000E+03 0.  0.
<mgrwt>
<rscale>  0 0.45293830E+03</rscale>
<asrwt>0</asrwt>
<pdfrwt beam="1">  1        2 0.23911657E+00 0.45293830E+03</pdfrwt>
<pdfrwt beam="2">  1       -2 0.43773608E-02 0.45293830E+03</pdfrwt>
<totfact> 0.30563513E+03</totfact>
</mgrwt>
</event>
<event>
 4    1  0.5399378E-005  0.5232354E+03  0.7818608E-02  0.1007886E+00
         -2   -1    0    0    0  501 -0.00000000000E+00  0.00000000000E+00  0.60521455803E+02  0.60521455856E+02  0.25500000000E-02 0. -1.
          2   -1    0    0  501    0  0.00000000000E+00 -0.00000000000E+00 -0.11309016665E+04  0.11309016665E+04  0.25500000000E-02 0.  1.
    5000001    1    1    2    0    0  0.12078159932E+03 -0.13876033325E+03 -0.73075233671E+03  0.77140560176E+03  0.16500000000E+03 0.  0.
   -5000001    1    1    2    0    0 -0.12078159932E+03  0.13876033325E+03 -0.33962787397E+03  0.42001752058E+03  0.16500000000E+03 0.  0.
<mgrwt>
<rscale>  0 0.52323538E+03</rscale>
<asrwt>0</asrwt>
<pdfrwt beam="1">  1        2 0.16155737E+00 0.52323538E+03</pdfrwt>
<pdfrwt beam="2">  1       -2 0.86459230E-02 0.52323538E+03</pdfrwt>
<totfact> 0.20464889E+03</totfact>
</mgrwt>
</event>
<event>
 4    1  0.5399378E-005  0.4593270E+03  0.7818608E-02  0.1024977E+00
         -2   -1    0    0    0  501 -0.00000000000E+00  0.00000000000E+00  0.15643498690E+02  0.15643498898E+02  0.25500000000E-02 0. -1.
          2   -1    0    0  501    0  0.00000000000E+00 -0.00000000000E+00 -0.33717088342E+04  0.33717088343E+04  0.25500000000E-02 0.  1.
    5000001    1    1    2    0    0 -0.14218230573E+03 -0.71829258025E+02 -0.15892084760E+04  0.16056723920E+04  0.16500000000E+03 0.  0.
   -5000001    1    1    2    0    0  0.14218230573E+03  0.71829258025E+02 -0.17668568596E+04  0.17816799412E+04  0.16500000000E+03 0.  0.
<mgrwt>
<rscale>  0 0.45932700E+03</rscale>
<asrwt>0</asrwt>
<pdfrwt beam="1">  1        2 0.48167223E+00 0.45932700E+03</pdfrwt>
<pdfrwt beam="2">  1       -2 0.22347877E-02 0.45932700E+03</pdfrwt>
<totfact> 0.11104444E+03</totfact>
</mgrwt>
</event>
<event>
 4    1  0.5399378E-005  0.4847375E+03  0.7818608E-02  0.1017841E+00
         -2   -1    0    0    0  501 -0.00000000000E+00  0.00000000000E+00  0.56178229493E+02  0.56178229551E+02  0.25500000000E-02 0.  1.
          2   -1    0    0  501    0  0.00000000000E+00 -0.00000000000E+00 -0.10456474509E+04  0.10456474509E+04  0.25500000000E-02 0. -1.
    5000001    1    1    2    0    0  0.11015046771E+03  0.13897841070E+03 -0.47578530116E+03  0.53389584843E+03  0.16500000000E+03 0.  0.
   -5000001    1    1    2    0    0 -0.11015046771E+03 -0.13897841070E+03 -0.51368392028E+03  0.56792983205E+03  0.16500000000E+03 0.  0.
<mgrwt>
<rscale>  0 0.48473755E+03</rscale>
<asrwt>0</asrwt>
<pdfrwt beam="1">  1        2 0.14937820E+00 0.48473755E+03</pdfrwt>
<pdfrwt beam="2">  1       -2 0.80254620E-02 0.48473755E+03</pdfrwt>
<totfact> 0.25830081E+03</totfact>
</mgrwt>
</event>
<event>
 4    1  0.5399378E-005  0.4679978E+03  0.7818608E-02  0.1022487E+00
          2   -1    0    0  501    0  0.00000000000E+00  0.00000000000E+00  0.13294182779E+04  0.13294182779E+04  0.25500000000E-02 0.  1.
         -2   -1    0    0    0  501 -0.00000000000E+00 -0.00000000000E+00 -0.41187550513E+02  0.41187550592E+02  0.25500000000E-02 0. -1.
    5000001    1    1    2    0    0  0.72429665125E+02  0.14920063305E+03  0.62988882112E+03  0.67193140443E+03  0.16500000000E+03 0.  0.
   -5000001    1    1    2    0    0 -0.72429665125E+02 -0.14920063305E+03  0.65834190631E+03  0.69867442410E+03  0.16500000000E+03 0.  0.
<mgrwt>
<rscale>  0 0.46799779E+03</rscale>
<asrwt>0</asrwt>
<pdfrwt beam="1">  1        2 0.18991684E+00 0.46799779E+03</pdfrwt>
<pdfrwt beam="2">  1       -2 0.58839377E-02 0.46799779E+03</pdfrwt>
<totfact> 0.29176341E+03</totfact>
</mgrwt>
</event>
<event>
 4    1  0.5399378E-005  0.3410747E+03  0.7818608E-02  0.1066339E+00
          2   -1    0    0  501    0  0.00000000000E+00  0.00000000000E+00  0.31016462650E+04  0.31016462650E+04  0.25500000000E-02 0.  1.
         -2   -1    0    0    0  501 -0.00000000000E+00 -0.00000000000E+00 -0.93766293907E+01  0.93766297375E+01  0.25500000000E-02 0. -1.
    5000001    1    1    2    0    0  0.18774298265E+02  0.24329747621E+02  0.12704414498E+04  0.12814799601E+04  0.16500000000E+03 0.  0.
   -5000001    1    1    2    0    0 -0.18774298265E+02 -0.24329747621E+02  0.18218281858E+04  0.18295429346E+04  0.16500000000E+03 0.  0.
<mgrwt>
<rscale>  0 0.34107470E+03</rscale>
<asrwt>0</asrwt>
<pdfrwt beam="1">  1        2 0.44309224E+00 0.34107470E+03</pdfrwt>
<pdfrwt beam="2">  1       -2 0.13395187E-02 0.34107470E+03</pdfrwt>
<totfact> 0.33938091E+03</totfact>
</mgrwt>
</event>
<event>
 4    1  0.5399378E-005  0.5722164E+03  0.7818608E-02  0.9964786E-01
          2   -1    0    0  501    0  0.00000000000E+00  0.00000000000E+00  0.31562860150E+03  0.31562860151E+03  0.25500000000E-02 0.  1.
         -2   -1    0    0    0  501 -0.00000000000E+00 -0.00000000000E+00 -0.25934879719E+03  0.25934879720E+03  0.25500000000E-02 0. -1.
    5000001    1    1    2    0    0  0.23109072151E+03 -0.13820720664E+02 -0.42485945997E+01  0.28431845603E+03  0.16500000000E+03 0.  0.
   -5000001    1    1    2    0    0 -0.23109072151E+03  0.13820720664E+02  0.60528398907E+02  0.29065894268E+03  0.16500000000E+03 0.  0.
<mgrwt>
<rscale>  0 0.57221639E+03</rscale>
<asrwt>0</asrwt>
<pdfrwt beam="1">  1        2 0.45089800E-01 0.57221639E+03</pdfrwt>
<pdfrwt beam="2">  1       -2 0.37049828E-01 0.57221639E+03</pdfrwt>
<totfact> 0.77718777E+02</totfact>
</mgrwt>
</event>
<event>
 4    1  0.5399378E-005  0.5593492E+03  0.7818608E-02  0.9993528E-01
         -2   -1    0    0    0  501 -0.00000000000E+00  0.00000000000E+00  0.37498162774E+02  0.37498162861E+02  0.25500000000E-02 0. -1.
          2   -1    0    0  501    0  0.00000000000E+00 -0.00000000000E+00 -0.20859124198E+04  0.20859124198E+04  0.25500000000E-02 0.  1.
    5000001    1    1    2    0    0  0.69585800547E+02 -0.21472567518E+03 -0.99914510615E+03  0.10375284297E+04  0.16500000000E+03 0.  0.
   -5000001    1    1    2    0    0 -0.69585800547E+02  0.21472567518E+03 -0.10492691509E+04  0.10858821530E+04  0.16500000000E+03 0.  0.
<mgrwt>
<rscale>  0 0.55934921E+03</rscale>
<asrwt>0</asrwt>
<pdfrwt beam="1">  1        2 0.29798741E+00 0.55934921E+03</pdfrwt>
<pdfrwt beam="2">  1       -2 0.53568817E-02 0.55934921E+03</pdfrwt>
<totfact> 0.13858452E+03</totfact>
</mgrwt>
</event>
<event>
 4    1  0.5399378E-005  0.4621144E+03  0.7818608E-02  0.1024170E+00
         -2   -1    0    0    0  501 -0.00000000000E+00  0.00000000000E+00  0.33060657535E+02  0.33060657633E+02  0.25500000000E-02 0. -1.
          2   -1    0    0  501    0  0.00000000000E+00 -0.00000000000E+00 -0.16148327240E+04  0.16148327240E+04  0.25500000000E-02 0.  1.
    5000001    1    1    2    0    0 -0.11116641656E+03  0.34802741018E+02 -0.11910593677E+04  0.12080631690E+04  0.16500000000E+03 0.  0.
   -5000001    1    1    2    0    0  0.11116641656E+03 -0.34802741018E+02 -0.39071269875E+03  0.43983021261E+03  0.16500000000E+03 0.  0.
<mgrwt>
<rscale>  0 0.46211441E+03</rscale>
<asrwt>0</asrwt>
<pdfrwt beam="1">  1        2 0.23069034E+00 0.46211441E+03</pdfrwt>
<pdfrwt beam="2">  1       -2 0.47229521E-02 0.46211441E+03</pdfrwt>
<totfact> 0.29130499E+03</totfact>
</mgrwt>
</event>
<event>
 4    1  0.5399378E-005  0.6359518E+03  0.7818608E-02  0.9833503E-01
          2   -1    0    0  501    0  0.00000000000E+00  0.00000000000E+00  0.10828847548E+04  0.10828847548E+04  0.25500000000E-02 0.  1.
         -2   -1    0    0    0  501 -0.00000000000E+00 -0.00000000000E+00 -0.93369738880E+02  0.93369738914E+02  0.25500000000E-02 0. -1.
    5000001    1    1    2    0    0 -0.20708675085E+03  0.16423792758E+03  0.61209614425E+03  0.68683746916E+03  0.16500000000E+03 0.  0.
   -5000001    1    1    2    0    0  0.20708675085E+03 -0.16423792758E+03  0.37741887165E+03  0.48941702454E+03  0.16500000000E+03 0.  0.
<mgrwt>
<rscale>  0 0.63595178E+03</rscale>
<asrwt>0</asrwt>
<pdfrwt beam="1">  1        2 0.15469783E+00 0.63595178E+03</pdfrwt>
<pdfrwt beam="2">  1       -2 0.13338533E-01 0.63595178E+03</pdfrwt>
<totfact> 0.10738761E+03</totfact>
</mgrwt>
</event>
<event>
 4    1  0.5399378E-005  0.4886524E+03  0.7818608E-02  0.1016784E+00
         -2   -1    0    0    0  501 -0.00000000000E+00  0.00000000000E+00  0.13873083308E+03  0.13873083310E+03  0.25500000000E-02 0. -1.
          2   -1    0    0  501    0  0.00000000000E+00 -0.00000000000E+00 -0.43029585912E+03  0.43029585913E+03  0.25500000000E-02 0.  1.
    5000001    1    1    2    0    0  0.28165522053E+02  0.17003438910E+03 -0.20701821533E+03  0.31589006250E+03  0.16500000000E+03 0.  0.
   -5000001    1    1    2    0    0 -0.28165522053E+02 -0.17003438910E+03 -0.84546810708E+02  0.25313662973E+03  0.16500000000E+03 0.  0.
<mgrwt>
<rscale>  0 0.48865245E+03</rscale>
<asrwt>0</asrwt>
<pdfrwt beam="1">  1        2 0.61470836E-01 0.48865245E+03</pdfrwt>
<pdfrwt beam="2">  1       -2 0.19818691E-01 0.48865245E+03</pdfrwt>
<totfact> 0.17194324E+03</totfact>
</mgrwt>
</event>
<event>
 4    1  0.5399378E-005  0.3978217E+03  0.7818608E-02  0.1044537E+00
         -2   -1    0    0    0  501 -0.00000000000E+00  0.00000000000E+00  0.21158849139E+02  0.21158849292E+02  0.25500000000E-02 0. -1.
          2   -1    0    0  501    0  0.00000000000E+00 -0.00000000000E+00 -0.18699280281E+04  0.18699280281E+04  0.25500000000E-02 0.  1.
    5000001    1    1    2    0    0  0.24792586333E+02  0.51532542544E+02 -0.47166150007E+03  0.50295113672E+03  0.16500000000E+03 0.  0.
   -5000001    1    1    2    0    0 -0.24792586333E+02 -0.51532542544E+02 -0.13771076789E+04  0.13881357407E+04  0.16500000000E+03 0.  0.
<mgrwt>
<rscale>  0 0.39782169E+03</rscale>
<asrwt>0</asrwt>
<pdfrwt beam="1">  1        2 0.26713247E+00 0.39782169E+03</pdfrwt>
<pdfrwt beam="2">  1       -2 0.30226939E-02 0.39782169E+03</pdfrwt>
<totfact> 0.42816795E+03</totfact>
</mgrwt>
</event>
<event>
 4    1  0.5399378E-005  0.5871041E+03  0.7818608E-02  0.9932528E-01
         -2   -1    0    0    0  501 -0.00000000000E+00  0.00000000000E+00  0.50699878481E+02  0.50699878545E+02  0.25500000000E-02 0.  1.
          2   -1    0    0  501    0  0.00000000000E+00 -0.00000000000E+00 -0.16996646894E+04  0.16996646894E+04  0.25500000000E-02 0. -1.
    5000001    1    1    2    0    0 -0.54393105684E+02 -0.23487718550E+03 -0.73901105627E+03  0.79466234559E+03  0.16500000000E+03 0.  0.
   -5000001    1    1    2    0    0  0.54393105684E+02  0.23487718550E+03 -0.90995375465E+03  0.95570222235E+03  0.16500000000E+03 0.  0.
<mgrwt>
<rscale>  0 0.58710406E+03</rscale>
<asrwt>0</asrwt>
<pdfrwt beam="1">  1        2 0.24280920E+00 0.58710406E+03</pdfrwt>
<pdfrwt beam="2">  1       -2 0.72428409E-02 0.58710406E+03</pdfrwt>
<totfact> 0.13490848E+03</totfact>
</mgrwt>
</event>
<event>
 4    1  0.5399378E-005  0.3887059E+03  0.7818608E-02  0.1047762E+00
         -2   -1    0    0    0  501 -0.00000000000E+00  0.00000000000E+00  0.22644282158E+03  0.22644282159E+03  0.25500000000E-02 0.  1.
          2   -1    0    0  501    0  0.00000000000E+00 -0.00000000000E+00 -0.16681063389E+03  0.16681063390E+03  0.25500000000E-02 0. -1.
    5000001    1    1    2    0    0 -0.72482612441E+02 -0.67235591079E+02  0.16749063593E+01  0.19235945291E+03  0.16500000000E+03 0.  0.
   -5000001    1    1    2    0    0  0.72482612441E+02  0.67235591079E+02  0.57957281332E+02  0.20089400258E+03  0.16500000000E+03 0.  0.
<mgrwt>
<rscale>  0 0.38870591E+03</rscale>
<asrwt>0</asrwt>
<pdfrwt beam="1">  1        2 0.23830091E-01 0.38870591E+03</pdfrwt>
<pdfrwt beam="2">  1       -2 0.32348975E-01 0.38870591E+03</pdfrwt>
<totfact> 0.20358797E+03</totfact>
</mgrwt>
</event>
<event>
 4    1  0.5399378E-005  0.4944787E+03  0.7818608E-02  0.1015230E+00
          2   -1    0    0  501    0  0.00000000000E+00  0.00000000000E+00  0.97256700323E+03  0.97256700324E+03  0.25500000000E-02 0.  1.
         -2   -1    0    0    0  501 -0.00000000000E+00 -0.00000000000E+00 -0.62851504877E+02  0.62851504929E+02  0.25500000000E-02 0. -1.
    5000001    1    1    2    0    0 -0.74902029965E+02 -0.16766151191E+03  0.42663950678E+03  0.49291679360E+03  0.16500000000E+03 0.  0.
   -5000001    1    1    2    0    0  0.74902029965E+02  0.16766151191E+03  0.48307599158E+03  0.54250171457E+03  0.16500000000E+03 0.  0.
<mgrwt>
<rscale>  0 0.49447871E+03</rscale>
<asrwt>0</asrwt>
<pdfrwt beam="1">  1        2 0.13893813E+00 0.49447871E+03</pdfrwt>
<pdfrwt beam="2">  1       -2 0.89787875E-02 0.49447871E+03</pdfrwt>
<totfact> 0.23904566E+03</totfact>
</mgrwt>
</event>
<event>
 4    1  0.5399378E-005  0.5081712E+03  0.7818608E-02  0.1011668E+00
         -2   -1    0    0    0  501 -0.00000000000E+00  0.00000000000E+00  0.36492548526E+02  0.36492548615E+02  0.25500000000E-02 0. -1.
          2   -1    0    0  501    0  0.00000000000E+00 -0.00000000000E+00 -0.17691146972E+04  0.17691146972E+04  0.25500000000E-02 0.  1.
    5000001    1    1    2    0    0 -0.12602413135E+03  0.13782203043E+03 -0.10424522419E+04  0.10718249253E+04  0.16500000000E+03 0.  0.
   -5000001    1    1    2    0    0  0.12602413135E+03 -0.13782203043E+03 -0.69016990679E+03  0.73378232057E+03  0.16500000000E+03 0.  0.
<mgrwt>
<rscale>  0 0.50817125E+03</rscale>
<asrwt>0</asrwt>
<pdfrwt beam="1">  1        2 0.25273062E+00 0.50817125E+03</pdfrwt>
<pdfrwt beam="2">  1       -2 0.52132223E-02 0.50817125E+03</pdfrwt>
<totfact> 0.20879682E+03</totfact>
</mgrwt>
</event>
<event>
 4    1  0.5399378E-005  0.5828602E+03  0.7818608E-02  0.9941618E-01
         -2   -1    0    0    0  501 -0.00000000000E+00  0.00000000000E+00  0.53945228311E+03  0.53945228312E+03  0.25500000000E-02 0. -1.
          2   -1    0    0  501    0  0.00000000000E+00 -0.00000000000E+00 -0.15744027410E+03  0.15744027412E+03  0.25500000000E-02 0.  1.
    5000001    1    1    2    0    0 -0.23427550405E+03 -0.43009850843E+02  0.22827586101E+03  0.36887630418E+03  0.16500000000E+03 0.  0.
   -5000001    1    1    2    0    0  0.23427550405E+03  0.43009850843E+02  0.15373614801E+03  0.32801625306E+03  0.16500000000E+03 0.  0.
<mgrwt>
<rscale>  0 0.58286024E+03</rscale>
<asrwt>0</asrwt>
<pdfrwt beam="1">  1        2 0.22491468E-01 0.58286024E+03</pdfrwt>
<pdfrwt beam="2">  1       -2 0.77064611E-01 0.58286024E+03</pdfrwt>
<totfact> 0.37598838E+02</totfact>
</mgrwt>
</event>
<event>
 4    1  0.5399378E-005  0.7077028E+03  0.7818608E-02  0.9704149E-01
          2   -1    0    0  501    0  0.00000000000E+00  0.00000000000E+00  0.20835636793E+04  0.20835636793E+04  0.25500000000E-02 0.  1.
         -2   -1    0    0    0  501 -0.00000000000E+00 -0.00000000000E+00 -0.60094549912E+02  0.60094549967E+02  0.25500000000E-02 0. -1.
    5000001    1    1    2    0    0 -0.21007210659E+03 -0.23003960585E+03  0.11044701796E+04  0.11593652953E+04  0.16500000000E+03 0.  0.
   -5000001    1    1    2    0    0  0.21007210659E+03  0.23003960585E+03  0.91899894978E+03  0.98429293400E+03  0.16500000000E+03 0.  0.
<mgrwt>
<rscale>  0 0.70770282E+03</rscale>
<asrwt>0</asrwt>
<pdfrwt beam="1">  1        2 0.29765199E+00 0.70770282E+03</pdfrwt>
<pdfrwt beam="2">  1       -2 0.85849347E-02 0.70770282E+03</pdfrwt>
<totfact> 0.65396296E+02</totfact>
</mgrwt>
</event>
<event>
 4    1  0.5399378E-005  0.5850791E+03  0.7818608E-02  0.9936855E-01
          2   -1    0    0  501    0  0.00000000000E+00  0.00000000000E+00  0.22166289522E+03  0.22166289523E+03  0.25500000000E-02 0.  1.
         -2   -1    0    0    0  501 -0.00000000000E+00 -0.00000000000E+00 -0.38607901376E+03  0.38607901377E+03  0.25500000000E-02 0. -1.
    5000001    1    1    2    0    0  0.82305032465E+02 -0.15873874690E+03  0.86509694975E+02  0.25822671330E+03  0.16500000000E+03 0.  0.
   -5000001    1    1    2    0    0 -0.82305032465E+02  0.15873874690E+03 -0.25092581351E+03  0.34951519570E+03  0.16500000000E+03 0.  0.
<mgrwt>
<rscale>  0 0.58507911E+03</rscale>
<asrwt>0</asrwt>
<pdfrwt beam="1">  1        2 0.31666128E-01 0.58507911E+03</pdfrwt>
<pdfrwt beam="2">  1       -2 0.55154144E-01 0.58507911E+03</pdfrwt>
<totfact> 0.52156693E+02</totfact>
</mgrwt>
</event>
<event>
 4    1  0.5399378E-005  0.4500875E+03  0.7818608E-02  0.1027696E+00
         -2   -1    0    0    0  501 -0.00000000000E+00  0.00000000000E+00  0.16797754786E+03  0.16797754788E+03  0.25500000000E-02 0. -1.
          2   -1    0    0  501    0  0.00000000000E+00 -0.00000000000E+00 -0.30149675855E+03  0.30149675856E+03  0.25500000000E-02 0.  1.
    5000001    1    1    2    0    0 -0.54601559516E+02  0.11655162894E+03 -0.15311496070E+03  0.25929674834E+03  0.16500000000E+03 0.  0.
   -5000001    1    1    2    0    0  0.54601559516E+02 -0.11655162894E+03  0.19595750019E+02  0.21017755810E+03  0.16500000000E+03 0.  0.
<mgrwt>
<rscale>  0 0.45008749E+03</rscale>
<asrwt>0</asrwt>
<pdfrwt beam="1">  1        2 0.43070965E-01 0.45008749E+03</pdfrwt>
<pdfrwt beam="2">  1       -2 0.23996793E-01 0.45008749E+03</pdfrwt>
<totfact> 0.18169542E+03</totfact>
</mgrwt>
</event>
<event>
 4    1  0.5399378E-005  0.4623324E+03  0.7818608E-02  0.1024107E+00
          2   -1    0    0  501    0  0.00000000000E+00  0.00000000000E+00  0.70024641433E+03  0.70024641434E+03  0.25500000000E-02 0.  1.
         -2   -1    0    0    0  501 -0.00000000000E+00 -0.00000000000E+00 -0.76312860427E+02  0.76312860469E+02  0.25500000000E-02 0. -1.
    5000001    1    1    2    0    0  0.61600705544E+02  0.12949685215E+03  0.18572720062E+03  0.28685131112E+03  0.16500000000E+03 0.  0.
   -5000001    1    1    2    0    0 -0.61600705544E+02 -0.12949685215E+03  0.43820635329E+03  0.48970796369E+03  0.16500000000E+03 0.  0.
<mgrwt>
<rscale>  0 0.46233238E+03</rscale>
<asrwt>0</asrwt>
<pdfrwt beam="1">  1        2 0.10003520E+00 0.46233238E+03</pdfrwt>
<pdfrwt beam="2">  1       -2 0.10901837E-01 0.46233238E+03</pdfrwt>
<totfact> 0.26665955E+03</totfact>
</mgrwt>
</event>
<event>
 4    1  0.5399378E-005  0.1229451E+04  0.7818608E-02  0.9087462E-01
          2   -1    0    0  501    0  0.00000000000E+00  0.00000000000E+00  0.13592999039E+04  0.13592999039E+04  0.25500000000E-02 0.  1.
         -2   -1    0    0    0  501 -0.00000000000E+00 -0.00000000000E+00 -0.27800143685E+03  0.27800143687E+03  0.25500000000E-02 0. -1.
    5000001    1    1    2    0    0 -0.33352228977E+03 -0.38724526806E+03  0.14231537465E+03  0.55558499014E+03  0.16500000000E+03 0.  0.
   -5000001    1    1    2    0    0  0.33352228977E+03  0.38724526806E+03  0.93898309238E+03  0.10817163506E+04  0.16500000000E+03 0.  0.
<mgrwt>
<rscale>  0 0.12294508E+04</rscale>
<asrwt>0</asrwt>
<pdfrwt beam="1">  1        2 0.19418570E+00 0.12294508E+04</pdfrwt>
<pdfrwt beam="2">  1       -2 0.39714492E-01 0.12294508E+04</pdfrwt>
<totfact> 0.10279614E+02</totfact>
</mgrwt>
</event>
<event>
 4    1  0.5399378E-005  0.5804445E+03  0.7818608E-02  0.9946829E-01
          2   -1    0    0  501    0  0.00000000000E+00  0.00000000000E+00  0.10422353708E+03  0.10422353711E+03  0.25500000000E-02 0.  1.
         -2   -1    0    0    0  501 -0.00000000000E+00 -0.00000000000E+00 -0.80815666475E+03  0.80815666475E+03  0.25500000000E-02 0. -1.
    5000001    1    1    2    0    0 -0.22971127129E+03  0.33013384559E+02 -0.44014235372E+03  0.52422079629E+03  0.16500000000E+03 0.  0.
   -5000001    1    1    2    0    0  0.22971127129E+03 -0.33013384559E+02 -0.26379077395E+03  0.38815940558E+03  0.16500000000E+03 0.  0.
<mgrwt>
<rscale>  0 0.58044447E+03</rscale>
<asrwt>0</asrwt>
<pdfrwt beam="1">  1        2 0.14889077E-01 0.58044447E+03</pdfrwt>
<pdfrwt beam="2">  1       -2 0.11545095E+00 0.58044447E+03</pdfrwt>
<totfact> 0.23936967E+02</totfact>
</mgrwt>
</event>
<event>
 4    1  0.5399378E-005  0.8163893E+03  0.7818608E-02  0.9536593E-01
          2   -1    0    0  501    0  0.00000000000E+00  0.00000000000E+00  0.70194562603E+03  0.70194562604E+03  0.25500000000E-02 0.  1.
         -2   -1    0    0    0  501 -0.00000000000E+00 -0.00000000000E+00 -0.23737290796E+03  0.23737290797E+03  0.25500000000E-02 0. -1.
    5000001    1    1    2    0    0 -0.31249719520E+03  0.95387416533E+02  0.24402207209E+02  0.36684291455E+03  0.16500000000E+03 0.  0.
   -5000001    1    1    2    0    0  0.31249719520E+03 -0.95387416533E+02  0.44017051086E+03  0.57247561946E+03  0.16500000000E+03 0.  0.
<mgrwt>
<rscale>  0 0.81638931E+03</rscale>
<asrwt>0</asrwt>
<pdfrwt beam="1">  1        2 0.10027795E+00 0.81638931E+03</pdfrwt>
<pdfrwt beam="2">  1       -2 0.33910415E-01 0.81638931E+03</pdfrwt>
<totfact> 0.36613005E+02</totfact>
</mgrwt>
</event>
<event>
 4    1  0.5399378E-005  0.9276080E+03  0.7818608E-02  0.9391713E-01
          2   -1    0    0  501    0  0.00000000000E+00  0.00000000000E+00  0.20738584216E+04  0.20738584216E+04  0.25500000000E-02 0.  1.
         -2   -1    0    0    0  501 -0.00000000000E+00 -0.00000000000E+00 -0.10372652968E+03  0.10372652971E+03  0.25500000000E-02 0. -1.
    5000001    1    1    2    0    0  0.73144881723E+02 -0.41844569643E+03  0.78254954030E+03  0.90556930028E+03  0.16500000000E+03 0.  0.
   -5000001    1    1    2    0    0 -0.73144881723E+02  0.41844569643E+03  0.11875823516E+04  0.12720156510E+04  0.16500000000E+03 0.  0.
<mgrwt>
<rscale>  0 0.92760797E+03</rscale>
<asrwt>0</asrwt>
<pdfrwt beam="1">  1        2 0.29626547E+00 0.92760797E+03</pdfrwt>
<pdfrwt beam="2">  1       -2 0.14818077E-01 0.92760797E+03</pdfrwt>
<totfact> 0.26511505E+02</totfact>
</mgrwt>
</event>
<event>
 4    1  0.5399378E-005  0.4349587E+03  0.7818608E-02  0.1032305E+00
         -2   -1    0    0    0  501 -0.00000000000E+00  0.00000000000E+00  0.40619898979E+03  0.40619898980E+03  0.25500000000E-02 0.  1.
          2   -1    0    0  501    0  0.00000000000E+00 -0.00000000000E+00 -0.11643864626E+03  0.11643864628E+03  0.25500000000E-02 0. -1.
    5000001    1    1    2    0    0  0.82318005004E+02 -0.92108182308E+02  0.22823284461E+03  0.30753114078E+03  0.16500000000E+03 0.  0.
   -5000001    1    1    2    0    0 -0.82318005004E+02  0.92108182308E+02  0.61527498934E+02  0.21510649530E+03  0.16500000000E+03 0.  0.
<mgrwt>
<rscale>  0 0.43495867E+03</rscale>
<asrwt>0</asrwt>
<pdfrwt beam="1">  1        2 0.16634092E-01 0.43495867E+03</pdfrwt>
<pdfrwt beam="2">  1       -2 0.58028428E-01 0.43495867E+03</pdfrwt>
<totfact> 0.98466595E+02</totfact>
</mgrwt>
</event>
<event>
 4    1  0.5399378E-005  0.4284685E+03  0.7818608E-02  0.1034345E+00
         -2   -1    0    0    0  501 -0.00000000000E+00  0.00000000000E+00  0.23811612123E+03  0.23811612125E+03  0.25500000000E-02 0. -1.
          2   -1    0    0  501    0  0.00000000000E+00 -0.00000000000E+00 -0.19274762323E+03  0.19274762325E+03  0.25500000000E-02 0.  1.
    5000001    1    1    2    0    0  0.16731914654E+02  0.37451394331E+02 -0.10838529401E+03  0.20163069177E+03  0.16500000000E+03 0.  0.
   -5000001    1    1    2    0    0 -0.16731914654E+02 -0.37451394331E+02  0.15375379201E+03  0.22923305273E+03  0.16500000000E+03 0.  0.
<mgrwt>
<rscale>  0 0.42846851E+03</rscale>
<asrwt>0</asrwt>
<pdfrwt beam="1">  1        2 0.27535375E-01 0.42846851E+03</pdfrwt>
<pdfrwt beam="2">  1       -2 0.34016589E-01 0.42846851E+03</pdfrwt>
<totfact> 0.15767732E+03</totfact>
</mgrwt>
</event>
<event>
 4    1  0.5399378E-005  0.6882949E+03  0.7818608E-02  0.9737462E-01
          2   -1    0    0  501    0  0.00000000000E+00  0.00000000000E+00  0.18880205639E+04  0.18880205639E+04  0.25500000000E-02 0.  1.
         -2   -1    0    0    0  501 -0.00000000000E+00 -0.00000000000E+00 -0.62731021178E+02  0.62731021230E+02  0.25500000000E-02 0. -1.
    5000001    1    1    2    0    0  0.19485858418E+03  0.21928720880E+03  0.11161481787E+04  0.11657909352E+04  0.16500000000E+03 0.  0.
   -5000001    1    1    2    0    0 -0.19485858418E+03 -0.21928720880E+03  0.70914136397E+03  0.78496064988E+03  0.16500000000E+03 0.  0.
<mgrwt>
<rscale>  0 0.68829487E+03</rscale>
<asrwt>0</asrwt>
<pdfrwt beam="1">  1        2 0.26971719E+00 0.68829487E+03</pdfrwt>
<pdfrwt beam="2">  1       -2 0.89615754E-02 0.68829487E+03</pdfrwt>
<totfact> 0.76700015E+02</totfact>
</mgrwt>
</event>
<event>
 4    1  0.5399378E-005  0.1227077E+04  0.7818608E-02  0.9089480E-01
          2   -1    0    0  501    0  0.00000000000E+00  0.00000000000E+00  0.11553121782E+04  0.11553121782E+04  0.25500000000E-02 0.  1.
         -2   -1    0    0    0  501 -0.00000000000E+00 -0.00000000000E+00 -0.32582511961E+03  0.32582511962E+03  0.25500000000E-02 0. -1.
    5000001    1    1    2    0    0 -0.30941739363E+03 -0.50338576110E+03  0.40476215952E+03  0.73497874373E+03  0.16500000000E+03 0.  0.
   -5000001    1    1    2    0    0  0.30941739363E+03  0.50338576110E+03  0.42472489905E+03  0.74615855408E+03  0.16500000000E+03 0.  0.
<mgrwt>
<rscale>  0 0.12270774E+04</rscale>
<asrwt>0</asrwt>
<pdfrwt beam="1">  1        2 0.16504460E+00 0.12270774E+04</pdfrwt>
<pdfrwt beam="2">  1       -2 0.46546446E-01 0.12270774E+04</pdfrwt>
<totfact> 0.97720043E+01</totfact>
</mgrwt>
</event>
<event>
 4    1  0.5399378E-005  0.4575060E+03  0.7818608E-02  0.1025507E+00
          2   -1    0    0  501    0  0.00000000000E+00  0.00000000000E+00  0.87524095145E+03  0.87524095145E+03  0.25500000000E-02 0.  1.
         -2   -1    0    0    0  501 -0.00000000000E+00 -0.00000000000E+00 -0.59786879178E+02  0.59786879233E+02  0.25500000000E-02 0. -1.
    5000001    1    1    2    0    0 -0.99466703742E+02  0.98043823511E+02  0.56062233463E+03  0.60085657072E+03  0.16500000000E+03 0.  0.
   -5000001    1    1    2    0    0  0.99466703742E+02 -0.98043823511E+02  0.25483173763E+03  0.33417125997E+03  0.16500000000E+03 0.  0.
<mgrwt>
<rscale>  0 0.45750596E+03</rscale>
<asrwt>0</asrwt>
<pdfrwt beam="1">  1        2 0.12503442E+00 0.45750596E+03</pdfrwt>
<pdfrwt beam="2">  1       -2 0.85409829E-02 0.45750596E+03</pdfrwt>
<totfact> 0.29812296E+03</totfact>
</mgrwt>
</event>
<event>
 4    1  0.5399378E-005  0.7387382E+03  0.7818608E-02  0.9653186E-01
          2   -1    0    0  501    0  0.00000000000E+00  0.00000000000E+00  0.14589688941E+04  0.14589688942E+04  0.25500000000E-02 0.  1.
         -2   -1    0    0    0  501 -0.00000000000E+00 -0.00000000000E+00 -0.93513661363E+02  0.93513661398E+02  0.25500000000E-02 0. -1.
    5000001    1    1    2    0    0  0.28873633933E+03  0.40651466993E+02  0.10095636649E+04  0.10637034403E+04  0.16500000000E+03 0.  0.
   -5000001    1    1    2    0    0 -0.28873633933E+03 -0.40651466993E+02  0.35589156793E+03  0.48877911529E+03  0.16500000000E+03 0.  0.
<mgrwt>
<rscale>  0 0.73873818E+03</rscale>
<asrwt>0</asrwt>
<pdfrwt beam="1">  1        2 0.20842412E+00 0.73873818E+03</pdfrwt>
<pdfrwt beam="2">  1       -2 0.13359095E-01 0.73873818E+03</pdfrwt>
<totfact> 0.66082249E+02</totfact>
</mgrwt>
</event>
<event>
 4    1  0.5399378E-005  0.4948349E+03  0.7818608E-02  0.1015136E+00
         -2   -1    0    0    0  501 -0.00000000000E+00  0.00000000000E+00  0.11489482319E+03  0.11489482322E+03  0.25500000000E-02 0. -1.
          2   -1    0    0  501    0  0.00000000000E+00 -0.00000000000E+00 -0.53279514152E+03  0.53279514153E+03  0.25500000000E-02 0.  1.
    5000001    1    1    2    0    0 -0.83573424431E+02 -0.14451954871E+03 -0.10655438327E+03  0.25777752777E+03  0.16500000000E+03 0.  0.
   -5000001    1    1    2    0    0  0.83573424431E+02  0.14451954871E+03 -0.31134593506E+03  0.38991243698E+03  0.16500000000E+03 0.  0.
<mgrwt>
<rscale>  0 0.49483494E+03</rscale>
<asrwt>0</asrwt>
<pdfrwt beam="1">  1        2 0.76113591E-01 0.49483494E+03</pdfrwt>
<pdfrwt beam="2">  1       -2 0.16413546E-01 0.49483494E+03</pdfrwt>
<totfact> 0.18672462E+03</totfact>
</mgrwt>
</event>
<event>
 4    1  0.5399378E-005  0.1076639E+04  0.7818608E-02  0.9228265E-01
          2   -1    0    0  501    0  0.00000000000E+00  0.00000000000E+00  0.49724684274E+03  0.49724684275E+03  0.25500000000E-02 0.  1.
         -2   -1    0    0    0  501 -0.00000000000E+00 -0.00000000000E+00 -0.58278512541E+03  0.58278512541E+03  0.25500000000E-02 0. -1.
    5000001    1    1    2    0    0  0.34111737552E+03 -0.25940114499E+03  0.23903071748E+03  0.51769750029E+03  0.16500000000E+03 0.  0.
   -5000001    1    1    2    0    0 -0.34111737552E+03  0.25940114499E+03 -0.32456900014E+03  0.56233446787E+03  0.16500000000E+03 0.  0.
<mgrwt>
<rscale>  0 0.10766393E+04</rscale>
<asrwt>0</asrwt>
<pdfrwt beam="1">  1        2 0.71035264E-01 0.10766393E+04</pdfrwt>
<pdfrwt beam="2">  1       -2 0.83255017E-01 0.10766393E+04</pdfrwt>
<totfact> 0.84950071E+01</totfact>
</mgrwt>
</event>
<event>
 4    1  0.5399378E-005  0.1398509E+04  0.7818608E-02  0.8954899E-01
         -2   -1    0    0    0  501 -0.00000000000E+00  0.00000000000E+00  0.28519308418E+03  0.28519308419E+03  0.25500000000E-02 0. -1.
          2   -1    0    0  501    0  0.00000000000E+00 -0.00000000000E+00 -0.17144764043E+04  0.17144764043E+04  0.25500000000E-02 0.  1.
    5000001    1    1    2    0    0  0.38588891499E+03 -0.55885548678E+03 -0.68260186907E+03  0.97693399034E+03  0.16500000000E+03 0.  0.
   -5000001    1    1    2    0    0 -0.38588891499E+03  0.55885548678E+03 -0.74668145100E+03  0.10227354981E+04  0.16500000000E+03 0.  0.
<mgrwt>
<rscale>  0 0.13985089E+04</rscale>
<asrwt>0</asrwt>
<pdfrwt beam="1">  1        2 0.24492520E+00 0.13985089E+04</pdfrwt>
<pdfrwt beam="2">  1       -2 0.40741870E-01 0.13985089E+04</pdfrwt>
<totfact> 0.62636480E+01</totfact>
</mgrwt>
</event>
<event>
 4    1  0.5399378E-005  0.4751435E+03  0.7818608E-02  0.1020478E+00
         -2   -1    0    0    0  501 -0.00000000000E+00  0.00000000000E+00  0.15611850080E+02  0.15611850288E+02  0.25500000000E-02 0. -1.
          2   -1    0    0  501    0  0.00000000000E+00 -0.00000000000E+00 -0.36152244853E+04  0.36152244853E+04  0.25500000000E-02 0.  1.
    5000001    1    1    2    0    0  0.73236302227E+02 -0.15064260044E+03 -0.20599105962E+04  0.20732856565E+04  0.16500000000E+03 0.  0.
   -5000001    1    1    2    0    0 -0.73236302227E+02  0.15064260044E+03 -0.15397020390E+04  0.15575506791E+04  0.16500000000E+03 0.  0.
<mgrwt>
<rscale>  0 0.47514353E+03</rscale>
<asrwt>0</asrwt>
<pdfrwt beam="1">  1        2 0.51646011E+00 0.47514353E+03</pdfrwt>
<pdfrwt beam="2">  1       -2 0.22302666E-02 0.47514353E+03</pdfrwt>
<totfact> 0.79905943E+02</totfact>
</mgrwt>
</event>
<event>
 4    1  0.5399378E-005  0.3888386E+03  0.7818608E-02  0.1047714E+00
          2   -1    0    0  501    0  0.00000000000E+00  0.00000000000E+00  0.20952096031E+04  0.20952096031E+04  0.25500000000E-02 0.  1.
         -2   -1    0    0    0  501 -0.00000000000E+00 -0.00000000000E+00 -0.18040615146E+02  0.18040615326E+02  0.25500000000E-02 0. -1.
    5000001    1    1    2    0    0 -0.45625602378E+02 -0.91300494702E+02  0.97061843787E+03  0.98981949256E+03  0.16500000000E+03 0.  0.
   -5000001    1    1    2    0    0  0.45625602378E+02  0.91300494702E+02  0.11065505501E+04  0.11234307259E+04  0.16500000000E+03 0.  0.
<mgrwt>
<rscale>  0 0.38883863E+03</rscale>
<asrwt>0</asrwt>
<pdfrwt beam="1">  1        2 0.29931544E+00 0.38883863E+03</pdfrwt>
<pdfrwt beam="2">  1       -2 0.25772327E-02 0.38883863E+03</pdfrwt>
<totfact> 0.42085859E+03</totfact>
</mgrwt>
</event>
<event>
 4    1  0.5399378E-005  0.4583413E+03  0.7818608E-02  0.1025263E+00
          2   -1    0    0  501    0  0.00000000000E+00  0.00000000000E+00  0.21685761412E+04  0.21685761412E+04  0.25500000000E-02 0.  1.
         -2   -1    0    0    0  501 -0.00000000000E+00 -0.00000000000E+00 -0.24218286031E+02  0.24218286166E+02  0.25500000000E-02 0. -1.
    5000001    1    1    2    0    0 -0.11148169526E+02 -0.10626201643E+03  0.50857110521E+03  0.54523890807E+03  0.16500000000E+03 0.  0.
   -5000001    1    1    2    0    0  0.11148169526E+02  0.10626201643E+03  0.16357867500E+04  0.16475555193E+04  0.16500000000E+03 0.  0.
<mgrwt>
<rscale>  0 0.45834135E+03</rscale>
<asrwt>0</asrwt>
<pdfrwt beam="1">  1        2 0.30979652E+00 0.45834135E+03</pdfrwt>
<pdfrwt beam="2">  1       -2 0.34597559E-02 0.45834135E+03</pdfrwt>
<totfact> 0.24775811E+03</totfact>
</mgrwt>
</event>
<event>
 4    1  0.5399378E-005  0.5949881E+03  0.7818608E-02  0.9915859E-01
         -2   -1    0    0    0  501 -0.00000000000E+00  0.00000000000E+00  0.40800143543E+02  0.40800143622E+02  0.25500000000E-02 0. -1.
          2   -1    0    0  501    0  0.00000000000E+00 -0.00000000000E+00 -0.21691765638E+04  0.21691765638E+04  0.25500000000E-02 0.  1.
    5000001    1    1    2    0    0 -0.93589682095E+02 -0.20438970072E+03 -0.14491813963E+04  0.14757662070E+04  0.16500000000E+03 0.  0.
   -5000001    1    1    2    0    0  0.93589682095E+02  0.20438970072E+03 -0.67919502395E+03  0.73421050041E+03  0.16500000000E+03 0.  0.
<mgrwt>
<rscale>  0 0.59498812E+03</rscale>
<asrwt>0</asrwt>
<pdfrwt beam="1">  1        2 0.30988229E+00 0.59498812E+03</pdfrwt>
<pdfrwt beam="2">  1       -2 0.58285933E-02 0.59498812E+03</pdfrwt>
<totfact> 0.11012623E+03</totfact>
</mgrwt>
</event>
<event>
 4    1  0.5399378E-005  0.5382106E+03  0.7818608E-02  0.1004260E+00
         -2   -1    0    0    0  501 -0.00000000000E+00  0.00000000000E+00  0.10212013038E+03  0.10212013042E+03  0.25500000000E-02 0. -1.
          2   -1    0    0  501    0  0.00000000000E+00 -0.00000000000E+00 -0.70914192607E+03  0.70914192607E+03  0.25500000000E-02 0.  1.
    5000001    1    1    2    0    0  0.12760199052E+03  0.10807691932E+03 -0.10565511817E+03  0.25758666983E+03  0.16500000000E+03 0.  0.
   -5000001    1    1    2    0    0 -0.12760199052E+03 -0.10807691932E+03 -0.50136667751E+03  0.55367538666E+03  0.16500000000E+03 0.  0.
<mgrwt>
<rscale>  0 0.53821061E+03</rscale>
<asrwt>0</asrwt>
<pdfrwt beam="1">  1        2 0.10130599E+00 0.53821061E+03</pdfrwt>
<pdfrwt beam="2">  1       -2 0.14588590E-01 0.53821061E+03</pdfrwt>
<totfact> 0.16256340E+03</totfact>
</mgrwt>
</event>
<event>
 4    1  0.5399378E-005  0.4918101E+03  0.7818608E-02  0.1015939E+00
         -2   -1    0    0    0  501 -0.00000000000E+00  0.00000000000E+00  0.19099127304E+03  0.19099127306E+03  0.25500000000E-02 0. -1.
          2   -1    0    0  501    0  0.00000000000E+00 -0.00000000000E+00 -0.31660761487E+03  0.31660761488E+03  0.25500000000E-02 0.  1.
    5000001    1    1    2    0    0  0.15926783541E+03  0.76021010203E+02 -0.11009218576E+03  0.26550089784E+03  0.16500000000E+03 0.  0.
   -5000001    1    1    2    0    0 -0.15926783541E+03 -0.76021010203E+02 -0.15524156065E+02  0.24209799010E+03  0.16500000000E+03 0.  0.
<mgrwt>
<rscale>  0 0.49181009E+03</rscale>
<asrwt>0</asrwt>
<pdfrwt beam="1">  1        2 0.45229659E-01 0.49181009E+03</pdfrwt>
<pdfrwt beam="2">  1       -2 0.27284468E-01 0.49181009E+03</pdfrwt>
<totfact> 0.13689597E+03</totfact>
</mgrwt>
</event>
<event>
 4    1  0.5399378E-005  0.5113166E+03  0.7818608E-02  0.1010867E+00
          2   -1    0    0  501    0  0.00000000000E+00  0.00000000000E+00  0.44872765264E+03  0.44872765265E+03  0.25500000000E-02 0.  1.
         -2   -1    0    0    0  501 -0.00000000000E+00 -0.00000000000E+00 -0.14565886080E+03  0.14565886082E+03  0.25500000000E-02 0. -1.
    5000001    1    1    2    0    0  0.15247693002E+02  0.15315928085E+03  0.29125208721E+03  0.36843321750E+03  0.16500000000E+03 0.  0.
   -5000001    1    1    2    0    0 -0.15247693002E+02 -0.15315928085E+03  0.11816704632E+02  0.22595329597E+03  0.16500000000E+03 0.  0.
<mgrwt>
<rscale>  0 0.51131657E+03</rscale>
<asrwt>0</asrwt>
<pdfrwt beam="1">  1        2 0.64103951E-01 0.51131657E+03</pdfrwt>
<pdfrwt beam="2">  1       -2 0.20808408E-01 0.51131657E+03</pdfrwt>
<totfact> 0.15079408E+03</totfact>
</mgrwt>
</event>
<event>
 4    1  0.5399378E-005  0.6512669E+03  0.7818608E-02  0.9804405E-01
          2   -1    0    0  501    0  0.00000000000E+00  0.00000000000E+00  0.65594024175E+03  0.65594024175E+03  0.25500000000E-02 0.  1.
         -2   -1    0    0    0  501 -0.00000000000E+00 -0.00000000000E+00 -0.16165671849E+03  0.16165671851E+03  0.25500000000E-02 0. -1.
    5000001    1    1    2    0    0  0.23127069142E+03 -0.15812999761E+03  0.22465238562E+03  0.39520238261E+03  0.16500000000E+03 0.  0.
   -5000001    1    1    2    0    0 -0.23127069142E+03  0.15812999761E+03  0.26963113763E+03  0.42239457766E+03  0.16500000000E+03 0.  0.
<mgrwt>
<rscale>  0 0.65126691E+03</rscale>
<asrwt>0</asrwt>
<pdfrwt beam="1">  1        2 0.93705750E-01 0.65126691E+03</pdfrwt>
<pdfrwt beam="2">  1       -2 0.23093817E-01 0.65126691E+03</pdfrwt>
<totfact> 0.80851770E+02</totfact>
</mgrwt>
</event>
<event>
 4    1  0.5399378E-005  0.4069653E+03  0.7818608E-02  0.1041394E+00
         -2   -1    0    0    0  501 -0.00000000000E+00  0.00000000000E+00  0.45199600445E+02  0.45199600517E+02  0.25500000000E-02 0.  1.
          2   -1    0    0  501    0  0.00000000000E+00 -0.00000000000E+00 -0.91605207100E+03  0.91605207101E+03  0.25500000000E-02 0. -1.
    5000001    1    1    2    0    0 -0.19125145109E+02  0.51602246605E+02 -0.18599616764E+03  0.25465297447E+03  0.16500000000E+03 0.  0.
   -5000001    1    1    2    0    0  0.19125145109E+02 -0.51602246605E+02 -0.68485630292E+03  0.70659869706E+03  0.16500000000E+03 0.  0.
<mgrwt>
<rscale>  0 0.40696529E+03</rscale>
<asrwt>0</asrwt>
<pdfrwt beam="1">  1        2 0.13086457E+00 0.40696529E+03</pdfrwt>
<pdfrwt beam="2">  1       -2 0.64570863E-02 0.40696529E+03</pdfrwt>
<totfact> 0.43550790E+03</totfact>
</mgrwt>
</event>
<event>
 4    1  0.5399378E-005  0.4356934E+03  0.7818608E-02  0.1032076E+00
         -2   -1    0    0    0  501 -0.00000000000E+00  0.00000000000E+00  0.22869864800E+02  0.22869864943E+02  0.25500000000E-02 0.  1.
          2   -1    0    0  501    0  0.00000000000E+00 -0.00000000000E+00 -0.20750969552E+04  0.20750969552E+04  0.25500000000E-02 0. -1.
    5000001    1    1    2    0    0  0.89586996217E+02 -0.65111641990E+02 -0.14559076263E+04  0.14694071499E+04  0.16500000000E+03 0.  0.
   -5000001    1    1    2    0    0 -0.89586996217E+02  0.65111641990E+02 -0.59631946412E+03  0.62855967028E+03  0.16500000000E+03 0.  0.
<mgrwt>
<rscale>  0 0.43569341E+03</rscale>
<asrwt>0</asrwt>
<pdfrwt beam="1">  1        2 0.29644230E+00 0.43569341E+03</pdfrwt>
<pdfrwt beam="2">  1       -2 0.32671249E-02 0.43569341E+03</pdfrwt>
<totfact> 0.30102039E+03</totfact>
</mgrwt>
</event>
<event>
 4    1  0.5399378E-005  0.4730328E+03  0.7818608E-02  0.1021068E+00
          2   -1    0    0  501    0  0.00000000000E+00  0.00000000000E+00  0.44463376548E+03  0.44463376549E+03  0.25500000000E-02 0.  1.
         -2   -1    0    0    0  501 -0.00000000000E+00 -0.00000000000E+00 -0.12581140758E+03  0.12581140761E+03  0.25500000000E-02 0. -1.
    5000001    1    1    2    0    0  0.16875694329E+03  0.19371328804E+01  0.17779289654E+03  0.29549614626E+03  0.16500000000E+03 0.  0.
   -5000001    1    1    2    0    0 -0.16875694329E+03 -0.19371328804E+01  0.14102946135E+03  0.27494902684E+03  0.16500000000E+03 0.  0.
<mgrwt>
<rscale>  0 0.47303277E+03</rscale>
<asrwt>0</asrwt>
<pdfrwt beam="1">  1        2 0.63519109E-01 0.47303277E+03</pdfrwt>
<pdfrwt beam="2">  1       -2 0.17973058E-01 0.47303277E+03</pdfrwt>
<totfact> 0.19611155E+03</totfact>
</mgrwt>
</event>
<event>
 4    1  0.5399378E-005  0.7161762E+03  0.7818608E-02  0.9689962E-01
          2   -1    0    0  501    0  0.00000000000E+00  0.00000000000E+00  0.56407592460E+03  0.56407592461E+03  0.25500000000E-02 0.  1.
         -2   -1    0    0    0  501 -0.00000000000E+00 -0.00000000000E+00 -0.22732242121E+03  0.22732242123E+03  0.25500000000E-02 0. -1.
    5000001    1    1    2    0    0  0.25183307444E+03  0.14541726712E+03  0.26708141466E+02  0.33541676133E+03  0.16500000000E+03 0.  0.
   -5000001    1    1    2    0    0 -0.25183307444E+03 -0.14541726712E+03  0.31004536193E+03  0.45598158451E+03  0.16500000000E+03 0.  0.
<mgrwt>
<rscale>  0 0.71617625E+03</rscale>
<asrwt>0</asrwt>
<pdfrwt beam="1">  1        2 0.80582274E-01 0.71617625E+03</pdfrwt>
<pdfrwt beam="2">  1       -2 0.32474632E-01 0.71617625E+03</pdfrwt>
<totfact> 0.51807969E+02</totfact>
</mgrwt>
</event>
<event>
 4    1  0.5399378E-005  0.7493447E+03  0.7818608E-02  0.9636379E-01
         -2   -1    0    0    0  501 -0.00000000000E+00  0.00000000000E+00  0.96725940839E+02  0.96725940873E+02  0.25500000000E-02 0. -1.
          2   -1    0    0  501    0  0.00000000000E+00 -0.00000000000E+00 -0.14513104733E+04  0.14513104733E+04  0.25500000000E-02 0.  1.
    5000001    1    1    2    0    0  0.23684035033E+03 -0.21160396940E+03 -0.90626470783E+03  0.97437688400E+03  0.16500000000E+03 0.  0.
   -5000001    1    1    2    0    0 -0.23684035033E+03  0.21160396940E+03 -0.44831982462E+03  0.57365953017E+03  0.16500000000E+03 0.  0.
<mgrwt>
<rscale>  0 0.74934470E+03</rscale>
<asrwt>0</asrwt>
<pdfrwt beam="1">  1        2 0.20733006E+00 0.74934470E+03</pdfrwt>
<pdfrwt beam="2">  1       -2 0.13817992E-01 0.74934470E+03</pdfrwt>
<totfact> 0.63005232E+02</totfact>
</mgrwt>
</event>
<event>
 4    1  0.5399378E-005  0.5965620E+03  0.7818608E-02  0.9912565E-01
         -2   -1    0    0    0  501 -0.00000000000E+00  0.00000000000E+00  0.39592960462E+03  0.39592960463E+03  0.25500000000E-02 0. -1.
          2   -1    0    0  501    0  0.00000000000E+00 -0.00000000000E+00 -0.22471557450E+03  0.22471557452E+03  0.25500000000E-02 0.  1.
    5000001    1    1    2    0    0 -0.19790654420E+03  0.12257598120E+03  0.17603352537E+03  0.33526806209E+03  0.16500000000E+03 0.  0.
   -5000001    1    1    2    0    0  0.19790654420E+03 -0.12257598120E+03 -0.48194952460E+01  0.28537711706E+03  0.16500000000E+03 0.  0.
<mgrwt>
<rscale>  0 0.59656198E+03</rscale>
<asrwt>0</asrwt>
<pdfrwt beam="1">  1        2 0.32102225E-01 0.59656198E+03</pdfrwt>
<pdfrwt beam="2">  1       -2 0.56561372E-01 0.59656198E+03</pdfrwt>
<totfact> 0.48744041E+02</totfact>
</mgrwt>
</event>
<event>
 4    1  0.5399378E-005  0.4989099E+03  0.7818608E-02  0.1014064E+00
          2   -1    0    0  501    0  0.00000000000E+00  0.00000000000E+00  0.77740596582E+03  0.77740596582E+03  0.25500000000E-02 0.  1.
         -2   -1    0    0    0  501 -0.00000000000E+00 -0.00000000000E+00 -0.80045401210E+02  0.80045401251E+02  0.25500000000E-02 0. -1.
    5000001    1    1    2    0    0 -0.15934607894E+03  0.56557102241E+02  0.48631069015E+03  0.54065975072E+03  0.16500000000E+03 0.  0.
   -5000001    1    1    2    0    0  0.15934607894E+03 -0.56557102241E+02  0.21104987446E+03  0.31679161636E+03  0.16500000000E+03 0.  0.
<mgrwt>
<rscale>  0 0.49890990E+03</rscale>
<asrwt>0</asrwt>
<pdfrwt beam="1">  1        2 0.11105799E+00 0.49890990E+03</pdfrwt>
<pdfrwt beam="2">  1       -2 0.11435058E-01 0.49890990E+03</pdfrwt>
<totfact> 0.21695676E+03</totfact>
</mgrwt>
</event>
<event>
 4    1  0.5399378E-005  0.6885288E+03  0.7818608E-02  0.9737053E-01
         -2   -1    0    0    0  501 -0.00000000000E+00  0.00000000000E+00  0.54665649159E+02  0.54665649219E+02  0.25500000000E-02 0. -1.
          2   -1    0    0  501    0  0.00000000000E+00 -0.00000000000E+00 -0.21680524304E+04  0.21680524304E+04  0.25500000000E-02 0.  1.
    5000001    1    1    2    0    0 -0.96376542806E+02 -0.24069048098E+03 -0.55582436713E+03  0.63512681626E+03  0.16500000000E+03 0.  0.
   -5000001    1    1    2    0    0  0.96376542806E+02  0.24069048098E+03 -0.15575624141E+04  0.15875912633E+04  0.16500000000E+03 0.  0.
<mgrwt>
<rscale>  0 0.68852885E+03</rscale>
<asrwt>0</asrwt>
<pdfrwt beam="1">  1        2 0.30972172E+00 0.68852885E+03</pdfrwt>
<pdfrwt beam="2">  1       -2 0.78093798E-02 0.68852885E+03</pdfrwt>
<totfact> 0.69064953E+02</totfact>
</mgrwt>
</event>
<event>
 4    1  0.5399378E-005  0.7514914E+03  0.7818608E-02  0.9633014E-01
         -2   -1    0    0    0  501 -0.00000000000E+00  0.00000000000E+00  0.36536698518E+03  0.36536698519E+03  0.25500000000E-02 0. -1.
          2   -1    0    0  501    0  0.00000000000E+00 -0.00000000000E+00 -0.38641920167E+03  0.38641920168E+03  0.25500000000E-02 0.  1.
    5000001    1    1    2    0    0 -0.17145501272E+03  0.22207854890E+03 -0.19833392046E+03  0.38115226258E+03  0.16500000000E+03 0.  0.
   -5000001    1    1    2    0    0  0.17145501272E+03 -0.22207854890E+03  0.17728170397E+03  0.37063392428E+03  0.16500000000E+03 0.  0.
<mgrwt>
<rscale>  0 0.75149137E+03</rscale>
<asrwt>0</asrwt>
<pdfrwt beam="1">  1        2 0.55202743E-01 0.75149137E+03</pdfrwt>
<pdfrwt beam="2">  1       -2 0.52195284E-01 0.75149137E+03</pdfrwt>
<totfact> 0.31386658E+02</totfact>
</mgrwt>
</event>
<event>
 4    1  0.5399378E-005  0.1177593E+04  0.7818608E-02  0.9132699E-01
         -2   -1    0    0    0  501 -0.00000000000E+00  0.00000000000E+00  0.26112122621E+03  0.26112122622E+03  0.25500000000E-02 0. -1.
          2   -1    0    0  501    0  0.00000000000E+00 -0.00000000000E+00 -0.13276641763E+04  0.13276641763E+04  0.25500000000E-02 0.  1.
    5000001    1    1    2    0    0  0.37393718286E+03  0.42518613363E+02 -0.11022025664E+04  0.11763130308E+04  0.16500000000E+03 0.  0.
   -5000001    1    1    2    0    0 -0.37393718286E+03 -0.42518613363E+02  0.35659616243E+02  0.41247237172E+03  0.16500000000E+03 0.  0.
<mgrwt>
<rscale>  0 0.11775930E+04</rscale>
<asrwt>0</asrwt>
<pdfrwt beam="1">  1        2 0.18966631E+00 0.11775930E+04</pdfrwt>
<pdfrwt beam="2">  1       -2 0.37303033E-01 0.11775930E+04</pdfrwt>
<totfact> 0.12122396E+02</totfact>
</mgrwt>
</event>
<event>
 4    1  0.5399378E-005  0.6302552E+03  0.7818608E-02  0.9844551E-01
          2   -1    0    0  501    0  0.00000000000E+00  0.00000000000E+00  0.24327949027E+03  0.24327949029E+03  0.25500000000E-02 0.  1.
         -2   -1    0    0    0  501 -0.00000000000E+00 -0.00000000000E+00 -0.40819474625E+03  0.40819474626E+03  0.25500000000E-02 0. -1.
    5000001    1    1    2    0    0  0.24482921061E+03  0.10970739517E+03 -0.71948993134E+02  0.32307694522E+03  0.16500000000E+03 0.  0.
   -5000001    1    1    2    0    0 -0.24482921061E+03 -0.10970739517E+03 -0.92966262848E+02  0.32839729133E+03  0.16500000000E+03 0.  0.
<mgrwt>
<rscale>  0 0.63025522E+03</rscale>
<asrwt>0</asrwt>
<pdfrwt beam="1">  1        2 0.34754213E-01 0.63025522E+03</pdfrwt>
<pdfrwt beam="2">  1       -2 0.58313535E-01 0.63025522E+03</pdfrwt>
<totfact> 0.41834329E+02</totfact>
</mgrwt>
</event>
<event>
 4    1  0.5399378E-005  0.4470685E+03  0.7818608E-02  0.1028600E+00
         -2   -1    0    0    0  501 -0.00000000000E+00  0.00000000000E+00  0.25868394676E+03  0.25868394677E+03  0.25500000000E-02 0. -1.
          2   -1    0    0  501    0  0.00000000000E+00 -0.00000000000E+00 -0.19316065794E+03  0.19316065796E+03  0.25500000000E-02 0.  1.
    5000001    1    1    2    0    0  0.66423014752E+02 -0.13177683421E+03  0.64164636010E+02  0.23047614071E+03  0.16500000000E+03 0.  0.
   -5000001    1    1    2    0    0 -0.66423014752E+02  0.13177683421E+03  0.13586528088E+01  0.22136846402E+03  0.16500000000E+03 0.  0.
<mgrwt>
<rscale>  0 0.44706850E+03</rscale>
<asrwt>0</asrwt>
<pdfrwt beam="1">  1        2 0.27594380E-01 0.44706850E+03</pdfrwt>
<pdfrwt beam="2">  1       -2 0.36954849E-01 0.44706850E+03</pdfrwt>
<totfact> 0.13457313E+03</totfact>
</mgrwt>
</event>
<event>
 4    1  0.5399378E-005  0.4365680E+03  0.7818608E-02  0.1031805E+00
         -2   -1    0    0    0  501 -0.00000000000E+00  0.00000000000E+00  0.44938789028E+02  0.44938789101E+02  0.25500000000E-02 0. -1.
          2   -1    0    0  501    0  0.00000000000E+00 -0.00000000000E+00 -0.10602843535E+04  0.10602843535E+04  0.25500000000E-02 0.  1.
    5000001    1    1    2    0    0  0.39037491349E+02 -0.13747351399E+03 -0.50778976984E+03  0.55271904539E+03  0.16500000000E+03 0.  0.
   -5000001    1    1    2    0    0 -0.39037491349E+02  0.13747351399E+03 -0.50755579466E+03  0.55250409724E+03  0.16500000000E+03 0.  0.
<mgrwt>
<rscale>  0 0.43656796E+03</rscale>
<asrwt>0</asrwt>
<pdfrwt beam="1">  1        2 0.15146918E+00 0.43656796E+03</pdfrwt>
<pdfrwt beam="2">  1       -2 0.64198276E-02 0.43656796E+03</pdfrwt>
<totfact> 0.35962759E+03</totfact>
</mgrwt>
</event>
<event>
 4    1  0.5399378E-005  0.4768925E+03  0.7818608E-02  0.1019993E+00
         -2   -1    0    0    0  501 -0.00000000000E+00  0.00000000000E+00  0.16659116438E+02  0.16659116633E+02  0.25500000000E-02 0. -1.
          2   -1    0    0  501    0  0.00000000000E+00 -0.00000000000E+00 -0.34129424283E+04  0.34129424283E+04  0.25500000000E-02 0.  1.
    5000001    1    1    2    0    0 -0.46284775887E+02 -0.11382438767E+03 -0.25651151749E+04  0.25733517311E+04  0.16500000000E+03 0.  0.
   -5000001    1    1    2    0    0  0.46284775887E+02  0.11382438767E+03 -0.83116813705E+03  0.85624981387E+03  0.16500000000E+03 0.  0.
<mgrwt>
<rscale>  0 0.47689246E+03</rscale>
<asrwt>0</asrwt>
<pdfrwt beam="1">  1        2 0.48756276E+00 0.47689246E+03</pdfrwt>
<pdfrwt beam="2">  1       -2 0.23798760E-02 0.47689246E+03</pdfrwt>
<totfact> 0.95468705E+02</totfact>
</mgrwt>
</event>
<event>
 4    1  0.5399378E-005  0.5518997E+03  0.7818608E-02  0.1001055E+00
         -2   -1    0    0    0  501 -0.00000000000E+00  0.00000000000E+00  0.12094038546E+03  0.12094038548E+03  0.25500000000E-02 0. -1.
          2   -1    0    0  501    0  0.00000000000E+00 -0.00000000000E+00 -0.62963510899E+03  0.62963510900E+03  0.25500000000E-02 0.  1.
    5000001    1    1    2    0    0 -0.20130588971E+03 -0.24304062024E+02 -0.13417078376E+03  0.29383932323E+03  0.16500000000E+03 0.  0.
   -5000001    1    1    2    0    0  0.20130588971E+03  0.24304062024E+02 -0.37452393978E+03  0.45673617125E+03  0.16500000000E+03 0.  0.
<mgrwt>
<rscale>  0 0.55189967E+03</rscale>
<asrwt>0</asrwt>
<pdfrwt beam="1">  1        2 0.89947871E-01 0.55189967E+03</pdfrwt>
<pdfrwt beam="2">  1       -2 0.17277198E-01 0.55189967E+03</pdfrwt>
<totfact> 0.14093461E+03</totfact>
</mgrwt>
</event>
<event>
 4    1  0.5399378E-005  0.1030452E+04  0.7818608E-02  0.9275762E-01
         -2   -1    0    0    0  501 -0.00000000000E+00  0.00000000000E+00  0.37567167536E+03  0.37567167536E+03  0.25500000000E-02 0. -1.
          2   -1    0    0  501    0  0.00000000000E+00 -0.00000000000E+00 -0.70662144502E+03  0.70662144502E+03  0.25500000000E-02 0.  1.
    5000001    1    1    2    0    0 -0.27751946679E+03 -0.26807824698E+03  0.14847745526E+03  0.44514442114E+03  0.16500000000E+03 0.  0.
   -5000001    1    1    2    0    0  0.27751946679E+03  0.26807824698E+03 -0.47942722493E+03  0.63714869925E+03  0.16500000000E+03 0.  0.
<mgrwt>
<rscale>  0 0.10304517E+04</rscale>
<asrwt>0</asrwt>
<pdfrwt beam="1">  1        2 0.10094592E+00 0.10304517E+04</pdfrwt>
<pdfrwt beam="2">  1       -2 0.53667382E-01 0.10304517E+04</pdfrwt>
<totfact> 0.14508154E+02</totfact>
</mgrwt>
</event>
<event>
 4    1  0.5399378E-005  0.4141123E+03  0.7818608E-02  0.1039000E+00
          2   -1    0    0  501    0  0.00000000000E+00  0.00000000000E+00  0.19650474551E+04  0.19650474551E+04  0.25500000000E-02 0.  1.
         -2   -1    0    0    0  501 -0.00000000000E+00 -0.00000000000E+00 -0.21817412241E+02  0.21817412390E+02  0.25500000000E-02 0. -1.
    5000001    1    1    2    0    0 -0.87301718304E+02  0.50151039333E+02  0.61545347487E+03  0.64509278130E+03  0.16500000000E+03 0.  0.
   -5000001    1    1    2    0    0  0.87301718304E+02 -0.50151039333E+02  0.13277765680E+04  0.13417720862E+04  0.16500000000E+03 0.  0.
<mgrwt>
<rscale>  0 0.41411231E+03</rscale>
<asrwt>0</asrwt>
<pdfrwt beam="1">  1        2 0.28072090E+00 0.41411231E+03</pdfrwt>
<pdfrwt beam="2">  1       -2 0.31167750E-02 0.41411231E+03</pdfrwt>
<totfact> 0.36670516E+03</totfact>
</mgrwt>
</event>
<event>
 4    1  0.5399378E-005  0.5179384E+03  0.7818608E-02  0.1009200E+00
          2   -1    0    0  501    0  0.00000000000E+00  0.00000000000E+00  0.99331002831E+03  0.99331002832E+03  0.25500000000E-02 0.  1.
         -2   -1    0    0    0  501 -0.00000000000E+00 -0.00000000000E+00 -0.67516728632E+02  0.67516728680E+02  0.25500000000E-02 0. -1.
    5000001    1    1    2    0    0 -0.18683797417E+03 -0.80156800125E+01  0.32000288661E+03  0.40570867276E+03  0.16500000000E+03 0.  0.
   -5000001    1    1    2    0    0  0.18683797417E+03  0.80156800125E+01  0.60579041307E+03  0.65511808423E+03  0.16500000000E+03 0.  0.
<mgrwt>
<rscale>  0 0.51793839E+03</rscale>
<asrwt>0</asrwt>
<pdfrwt beam="1">  1        2 0.14190142E+00 0.51793839E+03</pdfrwt>
<pdfrwt beam="2">  1       -2 0.96452475E-02 0.51793839E+03</pdfrwt>
<totfact> 0.20693826E+03</totfact>
</mgrwt>
</event>
<event>
 4    1  0.5399378E-005  0.9237707E+03  0.7818608E-02  0.9396345E-01
          2   -1    0    0  501    0  0.00000000000E+00  0.00000000000E+00  0.19347730554E+04  0.19347730554E+04  0.25500000000E-02 0.  1.
         -2   -1    0    0    0  501 -0.00000000000E+00 -0.00000000000E+00 -0.11026516496E+03  0.11026516499E+03  0.25500000000E-02 0. -1.
    5000001    1    1    2    0    0 -0.15821352310E+03 -0.34697452140E+03  0.13588165366E+04  0.14209258311E+04  0.16500000000E+03 0.  0.
   -5000001    1    1    2    0    0  0.15821352310E+03  0.34697452140E+03  0.46569135376E+03  0.62411238921E+03  0.16500000000E+03 0.  0.
<mgrwt>
<rscale>  0 0.92377069E+03</rscale>
<asrwt>0</asrwt>
<pdfrwt beam="1">  1        2 0.27639612E+00 0.92377069E+03</pdfrwt>
<pdfrwt beam="2">  1       -2 0.15752168E-01 0.92377069E+03</pdfrwt>
<totfact> 0.28135348E+02</totfact>
</mgrwt>
</event>
<event>
 4    1  0.5399378E-005  0.4000074E+03  0.7818608E-02  0.1043777E+00
          2   -1    0    0  501    0  0.00000000000E+00  0.00000000000E+00  0.25124752110E+03  0.25124752111E+03  0.25500000000E-02 0.  1.
         -2   -1    0    0    0  501 -0.00000000000E+00 -0.00000000000E+00 -0.15921141715E+03  0.15921141717E+03  0.25500000000E-02 0. -1.
    5000001    1    1    2    0    0  0.85908571304E+02  0.24156838403E+02 -0.25167743480E+02  0.18926766966E+03  0.16500000000E+03 0.  0.
   -5000001    1    1    2    0    0 -0.85908571304E+02 -0.24156838403E+02  0.11720384743E+03  0.22119126863E+03  0.16500000000E+03 0.  0.
<mgrwt>
<rscale>  0 0.40000737E+03</rscale>
<asrwt>0</asrwt>
<pdfrwt beam="1">  1        2 0.35892503E-01 0.40000737E+03</pdfrwt>
<pdfrwt beam="2">  1       -2 0.22744488E-01 0.40000737E+03</pdfrwt>
<totfact> 0.24352135E+03</totfact>
</mgrwt>
</event>
<event>
 4    1  0.5399378E-005  0.6303626E+03  0.7818608E-02  0.9844342E-01
         -2   -1    0    0    0  501 -0.00000000000E+00  0.00000000000E+00  0.29017695813E+03  0.29017695814E+03  0.25500000000E-02 0. -1.
          2   -1    0    0  501    0  0.00000000000E+00 -0.00000000000E+00 -0.34234020556E+03  0.34234020557E+03  0.25500000000E-02 0.  1.
    5000001    1    1    2    0    0  0.26534786560E+03 -0.52407258347E+01  0.15013025007E+02  0.31286953496E+03  0.16500000000E+03 0.  0.
   -5000001    1    1    2    0    0 -0.26534786560E+03  0.52407258347E+01 -0.67176272429E+02  0.31964762875E+03  0.16500000000E+03 0.  0.
<mgrwt>
<rscale>  0 0.63036256E+03</rscale>
<asrwt>0</asrwt>
<pdfrwt beam="1">  1        2 0.48905743E-01 0.63036256E+03</pdfrwt>
<pdfrwt beam="2">  1       -2 0.41453852E-01 0.63036256E+03</pdfrwt>
<totfact> 0.57132621E+02</totfact>
</mgrwt>
</event>
<event>
 4    1  0.5399378E-005  0.1358784E+04  0.7818608E-02  0.8984205E-01
         -2   -1    0    0    0  501 -0.00000000000E+00  0.00000000000E+00  0.34785109906E+03  0.34785109907E+03  0.25500000000E-02 0. -1.
          2   -1    0    0  501    0  0.00000000000E+00 -0.00000000000E+00 -0.13269282114E+04  0.13269282114E+04  0.25500000000E-02 0.  1.
    5000001    1    1    2    0    0 -0.40569073294E+03  0.35862292100E+03 -0.26462478123E+02  0.56667506828E+03  0.16500000000E+03 0.  0.
   -5000001    1    1    2    0    0  0.40569073294E+03 -0.35862292100E+03 -0.95261463423E+03  0.11081042422E+04  0.16500000000E+03 0.  0.
<mgrwt>
<rscale>  0 0.13587839E+04</rscale>
<asrwt>0</asrwt>
<pdfrwt beam="1">  1        2 0.18956117E+00 0.13587839E+04</pdfrwt>
<pdfrwt beam="2">  1       -2 0.49693015E-01 0.13587839E+04</pdfrwt>
<totfact> 0.67899786E+01</totfact>
</mgrwt>
</event>
<event>
 4    1  0.5399378E-005  0.5363109E+03  0.7818608E-02  0.1004713E+00
          2   -1    0    0  501    0  0.00000000000E+00  0.00000000000E+00  0.22346535024E+04  0.22346535024E+04  0.25500000000E-02 0. -1.
         -2   -1    0    0    0  501 -0.00000000000E+00 -0.00000000000E+00 -0.32178299437E+02  0.32178299538E+02  0.25500000000E-02 0.  1.
    5000001    1    1    2    0    0  0.12523939071E+03 -0.17028428312E+03  0.11047930515E+04  0.11368704098E+04  0.16500000000E+03 0.  0.
   -5000001    1    1    2    0    0 -0.12523939071E+03  0.17028428312E+03  0.10976821515E+04  0.11299613922E+04  0.16500000000E+03 0.  0.
<mgrwt>
<rscale>  0 0.53631092E+03</rscale>
<asrwt>0</asrwt>
<pdfrwt beam="1">  1        2 0.31923615E+00 0.53631092E+03</pdfrwt>
<pdfrwt beam="2">  1       -2 0.45969009E-02 0.53631092E+03</pdfrwt>
<totfact> 0.14808026E+03</totfact>
</mgrwt>
</event>
<event>
 4    1  0.5399378E-005  0.5323366E+03  0.7818608E-02  0.1005667E+00
         -2   -1    0    0    0  501 -0.00000000000E+00  0.00000000000E+00  0.49030363122E+02  0.49030363189E+02  0.25500000000E-02 0. -1.
          2   -1    0    0  501    0  0.00000000000E+00 -0.00000000000E+00 -0.14449323454E+04  0.14449323454E+04  0.25500000000E-02 0.  1.
    5000001    1    1    2    0    0 -0.15497497967E+03 -0.13100888311E+03 -0.55932422120E+03  0.61745376847E+03  0.16500000000E+03 0.  0.
   -5000001    1    1    2    0    0  0.15497497967E+03  0.13100888311E+03 -0.83657776107E+03  0.87650894011E+03  0.16500000000E+03 0.  0.
<mgrwt>
<rscale>  0 0.53233658E+03</rscale>
<asrwt>0</asrwt>
<pdfrwt beam="1">  1        2 0.20641888E+00 0.53233658E+03</pdfrwt>
<pdfrwt beam="2">  1       -2 0.70043385E-02 0.53233658E+03</pdfrwt>
<totfact> 0.19274602E+03</totfact>
</mgrwt>
</event>
<event>
 4    1  0.5399378E-005  0.5453003E+03  0.7818608E-02  0.1002588E+00
         -2   -1    0    0    0  501 -0.00000000000E+00  0.00000000000E+00  0.20604932603E+03  0.20604932605E+03  0.25500000000E-02 0. -1.
          2   -1    0    0  501    0  0.00000000000E+00 -0.00000000000E+00 -0.36077819568E+03  0.36077819569E+03  0.25500000000E-02 0.  1.
    5000001    1    1    2    0    0 -0.17164856560E+03 -0.12143712597E+03 -0.13336999091E+03  0.29870179127E+03  0.16500000000E+03 0.  0.
   -5000001    1    1    2    0    0  0.17164856560E+03  0.12143712597E+03 -0.21358878737E+02  0.26812573046E+03  0.16500000000E+03 0.  0.
<mgrwt>
<rscale>  0 0.54530030E+03</rscale>
<asrwt>0</asrwt>
<pdfrwt beam="1">  1        2 0.51539743E-01 0.54530030E+03</pdfrwt>
<pdfrwt beam="2">  1       -2 0.29435618E-01 0.54530030E+03</pdfrwt>
<totfact> 0.10324840E+03</totfact>
</mgrwt>
</event>
<event>
 4    1  0.5399378E-005  0.5028993E+03  0.7818608E-02  0.1013025E+00
         -2   -1    0    0    0  501 -0.00000000000E+00  0.00000000000E+00  0.63554238345E+03  0.63554238346E+03  0.25500000000E-02 0. -1.
          2   -1    0    0  501    0  0.00000000000E+00 -0.00000000000E+00 -0.99484982116E+02  0.99484982149E+02  0.25500000000E-02 0.  1.
    5000001    1    1    2    0    0  0.41021671489E+02  0.14696420676E+03  0.43287432874E+03  0.48773603525E+03  0.16500000000E+03 0.  0.
   -5000001    1    1    2    0    0 -0.41021671489E+02 -0.14696420676E+03  0.10318307260E+03  0.24729133036E+03  0.16500000000E+03 0.  0.
<mgrwt>
<rscale>  0 0.50289928E+03</rscale>
<asrwt>0</asrwt>
<pdfrwt beam="1">  1        2 0.14212140E-01 0.50289928E+03</pdfrwt>
<pdfrwt beam="2">  1       -2 0.90791768E-01 0.50289928E+03</pdfrwt>
<totfact> 0.44785585E+02</totfact>
</mgrwt>
</event>
<event>
 4    1  0.5399378E-005  0.5019786E+03  0.7818608E-02  0.1013264E+00
          2   -1    0    0  501    0  0.00000000000E+00  0.00000000000E+00  0.12617279136E+04  0.12617279136E+04  0.25500000000E-02 0. -1.
         -2   -1    0    0    0  501 -0.00000000000E+00 -0.00000000000E+00 -0.49928068502E+02  0.49928068567E+02  0.25500000000E-02 0.  1.
    5000001    1    1    2    0    0 -0.14954001912E+03 -0.26148672077E+02  0.90065271590E+03  0.92814130660E+03  0.16500000000E+03 0.  0.
   -5000001    1    1    2    0    0  0.14954001912E+03  0.26148672077E+02  0.31114712923E+03  0.38351467560E+03  0.16500000000E+03 0.  0.
<mgrwt>
<rscale>  0 0.50197864E+03</rscale>
<asrwt>0</asrwt>
<pdfrwt beam="1">  1        2 0.18024686E+00 0.50197864E+03</pdfrwt>
<pdfrwt beam="2">  1       -2 0.71325806E-02 0.50197864E+03</pdfrwt>
<totfact> 0.23477824E+03</totfact>
</mgrwt>
</event>
<event>
 4    1  0.5399378E-005  0.5161128E+03  0.7818608E-02  0.1009657E+00
         -2   -1    0    0    0  501 -0.00000000000E+00  0.00000000000E+00  0.25951051157E+03  0.25951051158E+03  0.25500000000E-02 0. -1.
          2   -1    0    0  501    0  0.00000000000E+00 -0.00000000000E+00 -0.25661042327E+03  0.25661042328E+03  0.25500000000E-02 0.  1.
    5000001    1    1    2    0    0 -0.29878541140E+02  0.99580025667E+02 -0.16754727898E+03  0.25711086991E+03  0.16500000000E+03 0.  0.
   -5000001    1    1    2    0    0  0.29878541140E+02 -0.99580025667E+02  0.17044736728E+03  0.25901006495E+03  0.16500000000E+03 0.  0.
<mgrwt>
<rscale>  0 0.51611279E+03</rscale>
<asrwt>0</asrwt>
<pdfrwt beam="1">  1        2 0.36658632E-01 0.51611279E+03</pdfrwt>
<pdfrwt beam="2">  1       -2 0.37072930E-01 0.51611279E+03</pdfrwt>
<totfact> 0.97558204E+02</totfact>
</mgrwt>
</event>
<event>
 4    1  0.5399378E-005  0.1045389E+04  0.7818608E-02  0.9260117E-01
          2   -1    0    0  501    0  0.00000000000E+00  0.00000000000E+00  0.11452957115E+03  0.11452957117E+03  0.25500000000E-02 0.  1.
         -2   -1    0    0    0  501 -0.00000000000E+00 -0.00000000000E+00 -0.23854942634E+04  0.23854942634E+04  0.25500000000E-02 0. -1.
    5000001    1    1    2    0    0  0.42659916533E+03 -0.83256914200E+02 -0.17067704007E+04  0.17689569701E+04  0.16500000000E+03 0.  0.
   -5000001    1    1    2    0    0 -0.42659916533E+03  0.83256914200E+02 -0.56419429161E+03  0.73106686446E+03  0.16500000000E+03 0.  0.
<mgrwt>
<rscale>  0 0.10453892E+04</rscale>
<asrwt>0</asrwt>
<pdfrwt beam="1">  1        2 0.16361369E-01 0.10453892E+04</pdfrwt>
<pdfrwt beam="2">  1       -2 0.34078486E+00 0.10453892E+04</pdfrwt>
<totfact> 0.65391334E+00</totfact>
</mgrwt>
</event>
<event>
 4    1  0.5399378E-005  0.6751048E+03  0.7818608E-02  0.9760780E-01
         -2   -1    0    0    0  501 -0.00000000000E+00  0.00000000000E+00  0.26220198221E+03  0.26220198222E+03  0.25500000000E-02 0. -1.
          2   -1    0    0  501    0  0.00000000000E+00 -0.00000000000E+00 -0.43455673455E+03  0.43455673456E+03  0.25500000000E-02 0.  1.
    5000001    1    1    2    0    0 -0.15310491597E+03 -0.19172404692E+03 -0.25424217237E+03  0.38995295572E+03  0.16500000000E+03 0.  0.
   -5000001    1    1    2    0    0  0.15310491597E+03  0.19172404692E+03  0.81887420029E+02  0.30680576106E+03  0.16500000000E+03 0.  0.
<mgrwt>
<rscale>  0 0.67510484E+03</rscale>
<asrwt>0</asrwt>
<pdfrwt beam="1">  1        2 0.62079533E-01 0.67510484E+03</pdfrwt>
<pdfrwt beam="2">  1       -2 0.37457426E-01 0.67510484E+03</pdfrwt>
<totfact> 0.53277915E+02</totfact>
</mgrwt>
</event>
<event>
 4    1  0.5399378E-005  0.3603845E+03  0.7818608E-02  0.1058432E+00
         -2   -1    0    0    0  501 -0.00000000000E+00  0.00000000000E+00  0.15823449345E+03  0.15823449348E+03  0.25500000000E-02 0. -1.
          2   -1    0    0  501    0  0.00000000000E+00 -0.00000000000E+00 -0.20519706561E+03  0.20519706563E+03  0.25500000000E-02 0.  1.
    5000001    1    1    2    0    0  0.33360935925E+02  0.59569361551E+02 -0.47826500252E+02  0.18486166452E+03  0.16500000000E+03 0.  0.
   -5000001    1    1    2    0    0 -0.33360935925E+02 -0.59569361551E+02  0.86392809400E+00  0.17856989459E+03  0.16500000000E+03 0.  0.
<mgrwt>
<rscale>  0 0.36038454E+03</rscale>
<asrwt>0</asrwt>
<pdfrwt beam="1">  1        2 0.29313866E-01 0.36038454E+03</pdfrwt>
<pdfrwt beam="2">  1       -2 0.22604928E-01 0.36038454E+03</pdfrwt>
<totfact> 0.30715977E+03</totfact>
</mgrwt>
</event>
<event>
 4    1  0.5399378E-005  0.6344009E+03  0.7818608E-02  0.9836498E-01
         -2   -1    0    0    0  501 -0.00000000000E+00  0.00000000000E+00  0.55026262901E+02  0.55026262960E+02  0.25500000000E-02 0. -1.
          2   -1    0    0  501    0  0.00000000000E+00 -0.00000000000E+00 -0.18285111770E+04  0.18285111770E+04  0.25500000000E-02 0.  1.
    5000001    1    1    2    0    0  0.14326834108E+03 -0.22139946761E+03 -0.70257829662E+03  0.76836502048E+03  0.16500000000E+03 0.  0.
   -5000001    1    1    2    0    0 -0.14326834108E+03  0.22139946761E+03 -0.10709066175E+04  0.11151724195E+04  0.16500000000E+03 0.  0.
<mgrwt>
<rscale>  0 0.63440094E+03</rscale>
<asrwt>0</asrwt>
<pdfrwt beam="1">  1        2 0.26121584E+00 0.63440094E+03</pdfrwt>
<pdfrwt beam="2">  1       -2 0.78608959E-02 0.63440094E+03</pdfrwt>
<totfact> 0.10170214E+03</totfact>
</mgrwt>
</event>
<event>
 4    1  0.5399378E-005  0.4464709E+03  0.7818608E-02  0.1028780E+00
         -2   -1    0    0    0  501 -0.00000000000E+00  0.00000000000E+00  0.25516527751E+03  0.25516527752E+03  0.25500000000E-02 0.  1.
          2   -1    0    0  501    0  0.00000000000E+00 -0.00000000000E+00 -0.19530110232E+03  0.19530110233E+03  0.25500000000E-02 0. -1.
    5000001    1    1    2    0    0  0.10451935869E+03 -0.40500280270E+02  0.13105119281E+03  0.23867128897E+03  0.16500000000E+03 0.  0.
   -5000001    1    1    2    0    0 -0.10451935869E+03  0.40500280270E+02 -0.71187017621E+02  0.21179509088E+03  0.16500000000E+03 0.  0.
<mgrwt>
<rscale>  0 0.44647087E+03</rscale>
<asrwt>0</asrwt>
<pdfrwt beam="1">  1        2 0.27900157E-01 0.44647087E+03</pdfrwt>
<pdfrwt beam="2">  1       -2 0.36452183E-01 0.44647087E+03</pdfrwt>
<totfact> 0.13642212E+03</totfact>
</mgrwt>
</event>
<event>
 4    1  0.5399378E-005  0.6255622E+03  0.7818608E-02  0.9853747E-01
          2   -1    0    0  501    0  0.00000000000E+00  0.00000000000E+00  0.24406389969E+03  0.24406389970E+03  0.25500000000E-02 0.  1.
         -2   -1    0    0    0  501 -0.00000000000E+00 -0.00000000000E+00 -0.40084588691E+03  0.40084588691E+03  0.25500000000E-02 0. -1.
    5000001    1    1    2    0    0  0.24677022804E+03  0.66776787044E+02 -0.36765952749E+01  0.30429131123E+03  0.16500000000E+03 0.  0.
   -5000001    1    1    2    0    0 -0.24677022804E+03 -0.66776787044E+02 -0.15310539194E+03  0.34061847539E+03  0.16500000000E+03 0.  0.
<mgrwt>
<rscale>  0 0.62556218E+03</rscale>
<asrwt>0</asrwt>
<pdfrwt beam="1">  1        2 0.34866272E-01 0.62556218E+03</pdfrwt>
<pdfrwt beam="2">  1       -2 0.57263698E-01 0.62556218E+03</pdfrwt>
<totfact> 0.43299947E+02</totfact>
</mgrwt>
</event>
<event>
 4    1  0.5399378E-005  0.4731377E+03  0.7818608E-02  0.1021038E+00
          2   -1    0    0  501    0  0.00000000000E+00  0.00000000000E+00  0.10762268789E+04  0.10762268789E+04  0.25500000000E-02 0.  1.
         -2   -1    0    0    0  501 -0.00000000000E+00 -0.00000000000E+00 -0.52000959882E+02  0.52000959945E+02  0.25500000000E-02 0. -1.
    5000001    1    1    2    0    0  0.16330750206E+03  0.43096709848E+02  0.47729796657E+03  0.53250823048E+03  0.16500000000E+03 0.  0.
   -5000001    1    1    2    0    0 -0.16330750206E+03 -0.43096709848E+02  0.54692795241E+03  0.59571960834E+03  0.16500000000E+03 0.  0.
<mgrwt>
<rscale>  0 0.47313774E+03</rscale>
<asrwt>0</asrwt>
<pdfrwt beam="1">  1        2 0.15374671E+00 0.47313774E+03</pdfrwt>
<pdfrwt beam="2">  1       -2 0.74287081E-02 0.47313774E+03</pdfrwt>
<totfact> 0.28006110E+03</totfact>
</mgrwt>
</event>
<event>
 4    1  0.5399378E-005  0.8274766E+03  0.7818608E-02  0.9521076E-01
         -2   -1    0    0    0  501 -0.00000000000E+00  0.00000000000E+00  0.86846568394E+02  0.86846568431E+02  0.25500000000E-02 0. -1.
          2   -1    0    0  501    0  0.00000000000E+00 -0.00000000000E+00 -0.19710549875E+04  0.19710549875E+04  0.25500000000E-02 0.  1.
    5000001    1    1    2    0    0  0.21075809897E+03  0.31429952100E+03 -0.87394167753E+03  0.96654137052E+03  0.16500000000E+03 0.  0.
   -5000001    1    1    2    0    0 -0.21075809897E+03 -0.31429952100E+03 -0.10102667415E+04  0.10913601854E+04  0.16500000000E+03 0.  0.
<mgrwt>
<rscale>  0 0.82747655E+03</rscale>
<asrwt>0</asrwt>
<pdfrwt beam="1">  1        2 0.28157926E+00 0.82747655E+03</pdfrwt>
<pdfrwt beam="2">  1       -2 0.12406654E-01 0.82747655E+03</pdfrwt>
<totfact> 0.40550191E+02</totfact>
</mgrwt>
</event>
<event>
 4    1  0.5399378E-005  0.8968668E+03  0.7818608E-02  0.9429507E-01
          2   -1    0    0  501    0  0.00000000000E+00  0.00000000000E+00  0.42464596219E+03  0.42464596220E+03  0.25500000000E-02 0.  1.
         -2   -1    0    0    0  501 -0.00000000000E+00 -0.00000000000E+00 -0.47355337191E+03  0.47355337192E+03  0.25500000000E-02 0. -1.
    5000001    1    1    2    0    0 -0.39931844876E+03  0.16242028060E+02  0.94670487910E+02  0.44261329429E+03  0.16500000000E+03 0.  0.
   -5000001    1    1    2    0    0  0.39931844876E+03 -0.16242028060E+02 -0.14357789763E+03  0.45558603983E+03  0.16500000000E+03 0.  0.
<mgrwt>
<rscale>  0 0.89686683E+03</rscale>
<asrwt>0</asrwt>
<pdfrwt beam="1">  1        2 0.60663709E-01 0.89686683E+03</pdfrwt>
<pdfrwt beam="2">  1       -2 0.67650482E-01 0.89686683E+03</pdfrwt>
<totfact> 0.16255090E+02</totfact>
</mgrwt>
</event>
<event>
 4    1  0.5399378E-005  0.5722715E+03  0.7818608E-02  0.9964665E-01
          2   -1    0    0  501    0  0.00000000000E+00  0.00000000000E+00  0.60088231903E+03  0.60088231903E+03  0.25500000000E-02 0. -1.
         -2   -1    0    0    0  501 -0.00000000000E+00 -0.00000000000E+00 -0.13625573178E+03  0.13625573181E+03  0.25500000000E-02 0.  1.
    5000001    1    1    2    0    0  0.17378095588E+03  0.14066546410E+03  0.14436326761E+03  0.31313311299E+03  0.16500000000E+03 0.  0.
   -5000001    1    1    2    0    0 -0.17378095588E+03 -0.14066546410E+03  0.32026331964E+03  0.42400493785E+03  0.16500000000E+03 0.  0.
<mgrwt>
<rscale>  0 0.57227147E+03</rscale>
<asrwt>0</asrwt>
<pdfrwt beam="1">  1        2 0.85840330E-01 0.57227147E+03</pdfrwt>
<pdfrwt beam="2">  1       -2 0.19465105E-01 0.57227147E+03</pdfrwt>
<totfact> 0.12129833E+03</totfact>
</mgrwt>
</event>
<event>
 4    1  0.5399378E-005  0.4709009E+03  0.7818608E-02  0.1021666E+00
          2   -1    0    0  501    0  0.00000000000E+00  0.00000000000E+00  0.18034881488E+03  0.18034881490E+03  0.25500000000E-02 0.  1.
         -2   -1    0    0    0  501 -0.00000000000E+00 -0.00000000000E+00 -0.30738716902E+03  0.30738716903E+03  0.25500000000E-02 0. -1.
    5000001    1    1    2    0    0  0.64084038349E+02  0.15017866838E+03 -0.10431665456E+03  0.25449432376E+03  0.16500000000E+03 0.  0.
   -5000001    1    1    2    0    0 -0.64084038349E+02 -0.15017866838E+03 -0.22721699573E+02  0.23324166017E+03  0.16500000000E+03 0.  0.
<mgrwt>
<rscale>  0 0.47090089E+03</rscale>
<asrwt>0</asrwt>
<pdfrwt beam="1">  1        2 0.25764117E-01 0.47090089E+03</pdfrwt>
<pdfrwt beam="2">  1       -2 0.43912453E-01 0.47090089E+03</pdfrwt>
<totfact> 0.10419098E+03</totfact>
</mgrwt>
</event>
<event>
 4    1  0.5399378E-005  0.4320811E+03  0.7818608E-02  0.1033205E+00
          2   -1    0    0  501    0  0.00000000000E+00  0.00000000000E+00  0.12275003550E+03  0.12275003553E+03  0.25500000000E-02 0.  1.
         -2   -1    0    0    0  501 -0.00000000000E+00 -0.00000000000E+00 -0.38023214566E+03  0.38023214567E+03  0.25500000000E-02 0. -1.
    5000001    1    1    2    0    0 -0.88978804161E+02 -0.42086050871E+02 -0.13736958490E+02  0.19261922878E+03  0.16500000000E+03 0.  0.
   -5000001    1    1    2    0    0  0.88978804161E+02  0.42086050871E+02 -0.24374515167E+03  0.31036295241E+03  0.16500000000E+03 0.  0.
<mgrwt>
<rscale>  0 0.43208105E+03</rscale>
<asrwt>0</asrwt>
<pdfrwt beam="1">  1        2 0.17535720E-01 0.43208105E+03</pdfrwt>
<pdfrwt beam="2">  1       -2 0.54318877E-01 0.43208105E+03</pdfrwt>
<totfact> 0.10599985E+03</totfact>
</mgrwt>
</event>
<event>
 4    1  0.5399378E-005  0.4502054E+03  0.7818608E-02  0.1027661E+00
         -2   -1    0    0    0  501 -0.00000000000E+00  0.00000000000E+00  0.47358129358E+02  0.47358129427E+02  0.25500000000E-02 0. -1.
          2   -1    0    0  501    0  0.00000000000E+00 -0.00000000000E+00 -0.10699585250E+04  0.10699585250E+04  0.25500000000E-02 0.  1.
    5000001    1    1    2    0    0 -0.10320979370E+03  0.71590303090E+02 -0.29396539542E+03  0.35974725394E+03  0.16500000000E+03 0.  0.
   -5000001    1    1    2    0    0  0.10320979370E+03 -0.71590303090E+02 -0.72863500019E+03  0.75756940046E+03  0.16500000000E+03 0.  0.
<mgrwt>
<rscale>  0 0.45020544E+03</rscale>
<asrwt>0</asrwt>
<pdfrwt beam="1">  1        2 0.15285120E+00 0.45020544E+03</pdfrwt>
<pdfrwt beam="2">  1       -2 0.67654477E-02 0.45020544E+03</pdfrwt>
<totfact> 0.32709886E+03</totfact>
</mgrwt>
</event>
<event>
 4    1  0.5399378E-005  0.3839536E+03  0.7818608E-02  0.1049482E+00
         -2   -1    0    0    0  501 -0.00000000000E+00  0.00000000000E+00  0.32291017452E+02  0.32291017553E+02  0.25500000000E-02 0. -1.
          2   -1    0    0  501    0  0.00000000000E+00 -0.00000000000E+00 -0.11413416373E+04  0.11413416373E+04  0.25500000000E-02 0.  1.
    5000001    1    1    2    0    0 -0.82620581859E+02 -0.51433478533E+02 -0.59301061012E+03  0.62318387894E+03  0.16500000000E+03 0.  0.
   -5000001    1    1    2    0    0  0.82620581859E+02  0.51433478533E+02 -0.51604000971E+03  0.55044877589E+03  0.16500000000E+03 0.  0.
<mgrwt>
<rscale>  0 0.38395355E+03</rscale>
<asrwt>0</asrwt>
<pdfrwt beam="1">  1        2 0.16304878E+00 0.38395355E+03</pdfrwt>
<pdfrwt beam="2">  1       -2 0.46130032E-02 0.38395355E+03</pdfrwt>
<totfact> 0.53752978E+03</totfact>
</mgrwt>
</event>
<event>
 4    1  0.5399378E-005  0.7230433E+03  0.7818608E-02  0.9678617E-01
          2   -1    0    0  501    0  0.00000000000E+00  0.00000000000E+00  0.37055894378E+03  0.37055894379E+03  0.25500000000E-02 0.  1.
         -2   -1    0    0    0  501 -0.00000000000E+00 -0.00000000000E+00 -0.35270472460E+03  0.35270472461E+03  0.25500000000E-02 0. -1.
    5000001    1    1    2    0    0 -0.19077192576E+03 -0.32686276776E+02  0.26593065031E+03  0.36797612847E+03  0.16500000000E+03 0.  0.
   -5000001    1    1    2    0    0  0.19077192576E+03  0.32686276776E+02 -0.24807643113E+03  0.35528753993E+03  0.16500000000E+03 0.  0.
<mgrwt>
<rscale>  0 0.72304326E+03</rscale>
<asrwt>0</asrwt>
<pdfrwt beam="1">  1        2 0.52936992E-01 0.72304326E+03</pdfrwt>
<pdfrwt beam="2">  1       -2 0.50386389E-01 0.72304326E+03</pdfrwt>
<totfact> 0.35376048E+02</totfact>
</mgrwt>
</event>
<event>
 4    1  0.5399378E-005  0.6075707E+03  0.7818608E-02  0.9889823E-01
         -2   -1    0    0    0  501 -0.00000000000E+00  0.00000000000E+00  0.27623303064E+02  0.27623303181E+02  0.25500000000E-02 0. -1.
          2   -1    0    0  501    0  0.00000000000E+00 -0.00000000000E+00 -0.33408577389E+04  0.33408577389E+04  0.25500000000E-02 0.  1.
    5000001    1    1    2    0    0  0.16801419236E+03  0.81783353902E+02 -0.69404730458E+03  0.73745775934E+03  0.16500000000E+03 0.  0.
   -5000001    1    1    2    0    0 -0.16801419236E+03 -0.81783353902E+02 -0.26191871313E+04  0.26310232828E+04  0.16500000000E+03 0.  0.
<mgrwt>
<rscale>  0 0.60757066E+03</rscale>
<asrwt>0</asrwt>
<pdfrwt beam="1">  1        2 0.47726514E+00 0.60757066E+03</pdfrwt>
<pdfrwt beam="2">  1       -2 0.39461883E-02 0.60757066E+03</pdfrwt>
<totfact> 0.48053409E+02</totfact>
</mgrwt>
</event>
<event>
 4    1  0.5399378E-005  0.3787757E+03  0.7818608E-02  0.1051387E+00
          2   -1    0    0  501    0  0.00000000000E+00  0.00000000000E+00  0.39384660301E+04  0.39384660301E+04  0.25500000000E-02 0.  1.
         -2   -1    0    0    0  501 -0.00000000000E+00 -0.00000000000E+00 -0.91070396703E+01  0.91070400273E+01  0.25500000000E-02 0. -1.
    5000001    1    1    2    0    0  0.73136022206E+02 -0.55069665787E+02  0.17962367690E+04  0.18061210026E+04  0.16500000000E+03 0.  0.
   -5000001    1    1    2    0    0 -0.73136022206E+02  0.55069665787E+02  0.21331222214E+04  0.21414520675E+04  0.16500000000E+03 0.  0.
<mgrwt>
<rscale>  0 0.37877575E+03</rscale>
<asrwt>0</asrwt>
<pdfrwt beam="1">  1        2 0.56263805E+00 0.37877575E+03</pdfrwt>
<pdfrwt beam="2">  1       -2 0.13010056E-02 0.37877575E+03</pdfrwt>
<totfact> 0.11322475E+03</totfact>
</mgrwt>
</event>
<event>
 4    1  0.5399378E-005  0.4271438E+03  0.7818608E-02  0.1034766E+00
         -2   -1    0    0    0  501 -0.00000000000E+00  0.00000000000E+00  0.30612601348E+03  0.30612601349E+03  0.25500000000E-02 0. -1.
          2   -1    0    0  501    0  0.00000000000E+00 -0.00000000000E+00 -0.14900061817E+03  0.14900061820E+03  0.25500000000E-02 0.  1.
    5000001    1    1    2    0    0  0.12922492477E+03 -0.35529691892E+02  0.10056815408E+03  0.23516035763E+03  0.16500000000E+03 0.  0.
   -5000001    1    1    2    0    0 -0.12922492477E+03  0.35529691892E+02  0.56557241225E+02  0.21996627405E+03  0.16500000000E+03 0.  0.
<mgrwt>
<rscale>  0 0.42714384E+03</rscale>
<asrwt>0</asrwt>
<pdfrwt beam="1">  1        2 0.21285803E-01 0.42714384E+03</pdfrwt>
<pdfrwt beam="2">  1       -2 0.43732288E-01 0.42714384E+03</pdfrwt>
<totfact> 0.13055915E+03</totfact>
</mgrwt>
</event>
<event>
 4    1  0.5399378E-005  0.4142372E+03  0.7818608E-02  0.1038958E+00
          2   -1    0    0  501    0  0.00000000000E+00  0.00000000000E+00  0.12148970756E+04  0.12148970756E+04  0.25500000000E-02 0.  1.
         -2   -1    0    0    0  501 -0.00000000000E+00 -0.00000000000E+00 -0.35310082545E+02  0.35310082637E+02  0.25500000000E-02 0. -1.
    5000001    1    1    2    0    0 -0.64481147924E+02 -0.90456891600E+01  0.26707640738E+03  0.32061573622E+03  0.16500000000E+03 0.  0.
   -5000001    1    1    2    0    0  0.64481147924E+02  0.90456891600E+01  0.91251058565E+03  0.92959142200E+03  0.16500000000E+03 0.  0.
<mgrwt>
<rscale>  0 0.41423721E+03</rscale>
<asrwt>0</asrwt>
<pdfrwt beam="1">  1        2 0.17355674E+00 0.41423721E+03</pdfrwt>
<pdfrwt beam="2">  1       -2 0.50442972E-02 0.41423721E+03</pdfrwt>
<totfact> 0.42692882E+03</totfact>
</mgrwt>
</event>
<event>
 4    1  0.5399378E-005  0.6296585E+03  0.7818608E-02  0.9845715E-01
          2   -1    0    0  501    0  0.00000000000E+00  0.00000000000E+00  0.61676846050E+03  0.61676846050E+03  0.25500000000E-02 0.  1.
         -2   -1    0    0    0  501 -0.00000000000E+00 -0.00000000000E+00 -0.16070450291E+03  0.16070450293E+03  0.25500000000E-02 0. -1.
    5000001    1    1    2    0    0 -0.15970827101E+03 -0.21211654417E+03  0.27410513565E+03  0.41576289581E+03  0.16500000000E+03 0.  0.
   -5000001    1    1    2    0    0  0.15970827101E+03  0.21211654417E+03  0.18195882194E+03  0.36171006763E+03  0.16500000000E+03 0.  0.
<mgrwt>
<rscale>  0 0.62965854E+03</rscale>
<asrwt>0</asrwt>
<pdfrwt beam="1">  1        2 0.88109780E-01 0.62965854E+03</pdfrwt>
<pdfrwt beam="2">  1       -2 0.22957786E-01 0.62965854E+03</pdfrwt>
<totfact> 0.87982756E+02</totfact>
</mgrwt>
</event>
<event>
 4    1  0.5399378E-005  0.9194590E+03  0.7818608E-02  0.9401578E-01
          2   -1    0    0  501    0  0.00000000000E+00  0.00000000000E+00  0.14779827607E+04  0.14779827607E+04  0.25500000000E-02 0.  1.
         -2   -1    0    0    0  501 -0.00000000000E+00 -0.00000000000E+00 -0.14299977508E+03  0.14299977511E+03  0.25500000000E-02 0. -1.
    5000001    1    1    2    0    0 -0.42619281993E+03  0.26907600801E+01  0.57972011445E+03  0.73820591372E+03  0.16500000000E+03 0.  0.
   -5000001    1    1    2    0    0  0.42619281993E+03 -0.26907600801E+01  0.75526287113E+03  0.88277662206E+03  0.16500000000E+03 0.  0.
<mgrwt>
<rscale>  0 0.91945898E+03</rscale>
<asrwt>0</asrwt>
<pdfrwt beam="1">  1        2 0.21114039E+00 0.91945898E+03</pdfrwt>
<pdfrwt beam="2">  1       -2 0.20428539E-01 0.91945898E+03</pdfrwt>
<totfact> 0.30911643E+02</totfact>
</mgrwt>
</event>
<event>
 4    1  0.5399378E-005  0.4809843E+03  0.7818608E-02  0.1018865E+00
          2   -1    0    0  501    0  0.00000000000E+00  0.00000000000E+00  0.49014120126E+03  0.49014120127E+03  0.25500000000E-02 0.  1.
         -2   -1    0    0    0  501 -0.00000000000E+00 -0.00000000000E+00 -0.11799959817E+03  0.11799959820E+03  0.25500000000E-02 0. -1.
    5000001    1    1    2    0    0 -0.16003545482E+03 -0.16891315595E+02  0.27288784267E+03  0.35719663775E+03  0.16500000000E+03 0.  0.
   -5000001    1    1    2    0    0  0.16003545482E+03  0.16891315595E+02  0.99253760418E+02  0.25094416172E+03  0.16500000000E+03 0.  0.
<mgrwt>
<rscale>  0 0.48098426E+03</rscale>
<asrwt>0</asrwt>
<pdfrwt beam="1">  1        2 0.70020171E-01 0.48098426E+03</pdfrwt>
<pdfrwt beam="2">  1       -2 0.16857085E-01 0.48098426E+03</pdfrwt>
<totfact> 0.19615557E+03</totfact>
</mgrwt>
</event>
<event>
 4    1  0.5399378E-005  0.5219848E+03  0.7818608E-02  0.1008195E+00
         -2   -1    0    0    0  501 -0.00000000000E+00  0.00000000000E+00  0.67571961786E+02  0.67571961834E+02  0.25500000000E-02 0. -1.
          2   -1    0    0  501    0  0.00000000000E+00 -0.00000000000E+00 -0.10080665962E+04  0.10080665962E+04  0.25500000000E-02 0.  1.
    5000001    1    1    2    0    0  0.93013395616E+02 -0.13451199833E+03 -0.22514821975E+03  0.32351459058E+03  0.16500000000E+03 0.  0.
   -5000001    1    1    2    0    0 -0.93013395616E+02  0.13451199833E+03 -0.71534641471E+03  0.75212396751E+03  0.16500000000E+03 0.  0.
<mgrwt>
<rscale>  0 0.52198482E+03</rscale>
<asrwt>0</asrwt>
<pdfrwt beam="1">  1        2 0.14400950E+00 0.52198482E+03</pdfrwt>
<pdfrwt beam="2">  1       -2 0.96531380E-02 0.52198482E+03</pdfrwt>
<totfact> 0.20244838E+03</totfact>
</mgrwt>
</event>
<event>
 4    1  0.5399378E-005  0.3660095E+03  0.7818608E-02  0.1056229E+00
         -2   -1    0    0    0  501 -0.00000000000E+00  0.00000000000E+00  0.15629114038E+03  0.15629114040E+03  0.25500000000E-02 0.  1.
          2   -1    0    0  501    0  0.00000000000E+00 -0.00000000000E+00 -0.21428424845E+03  0.21428424846E+03  0.25500000000E-02 0. -1.
    5000001    1    1    2    0    0 -0.39067360732E+02 -0.60887220152E+02  0.35323807591E+01  0.18019708645E+03  0.16500000000E+03 0.  0.
   -5000001    1    1    2    0    0  0.39067360732E+02  0.60887220152E+02 -0.61525488831E+02  0.19037830241E+03  0.16500000000E+03 0.  0.
<mgrwt>
<rscale>  0 0.36600945E+03</rscale>
<asrwt>0</asrwt>
<pdfrwt beam="1">  1        2 0.30612036E-01 0.36600945E+03</pdfrwt>
<pdfrwt beam="2">  1       -2 0.22327306E-01 0.36600945E+03</pdfrwt>
<totfact> 0.29925721E+03</totfact>
</mgrwt>
</event>
<event>
 4    1  0.5399378E-005  0.8241476E+03  0.7818608E-02  0.9525707E-01
         -2   -1    0    0    0  501 -0.00000000000E+00  0.00000000000E+00  0.11141503863E+03  0.11141503866E+03  0.25500000000E-02 0. -1.
          2   -1    0    0  501    0  0.00000000000E+00 -0.00000000000E+00 -0.15240745209E+04  0.15240745209E+04  0.25500000000E-02 0.  1.
    5000001    1    1    2    0    0 -0.18602566194E+03  0.31145517586E+03 -0.49848211943E+03  0.63821571343E+03  0.16500000000E+03 0.  0.
   -5000001    1    1    2    0    0  0.18602566194E+03 -0.31145517586E+03 -0.91417736284E+03  0.99727384615E+03  0.16500000000E+03 0.  0.
<mgrwt>
<rscale>  0 0.82414761E+03</rscale>
<asrwt>0</asrwt>
<pdfrwt beam="1">  1        2 0.21772492E+00 0.82414761E+03</pdfrwt>
<pdfrwt beam="2">  1       -2 0.15916435E-01 0.82414761E+03</pdfrwt>
<totfact> 0.45249679E+02</totfact>
</mgrwt>
</event>
<event>
 4    1  0.5399378E-005  0.5617310E+03  0.7818608E-02  0.9988146E-01
          2   -1    0    0  501    0  0.00000000000E+00  0.00000000000E+00  0.64007074310E+03  0.64007074311E+03  0.25500000000E-02 0.  1.
         -2   -1    0    0    0  501 -0.00000000000E+00 -0.00000000000E+00 -0.12324483845E+03  0.12324483848E+03  0.25500000000E-02 0. -1.
    5000001    1    1    2    0    0 -0.17146683275E+02  0.21315104900E+03  0.36308104222E+03  0.45252648725E+03  0.16500000000E+03 0.  0.
   -5000001    1    1    2    0    0  0.17146683275E+02 -0.21315104900E+03  0.15374486243E+03  0.31078909434E+03  0.16500000000E+03 0.  0.
<mgrwt>
<rscale>  0 0.56173095E+03</rscale>
<asrwt>0</asrwt>
<pdfrwt beam="1">  1        2 0.91438678E-01 0.56173095E+03</pdfrwt>
<pdfrwt beam="2">  1       -2 0.17606405E-01 0.56173095E+03</pdfrwt>
<totfact> 0.13381166E+03</totfact>
</mgrwt>
</event>
<event>
 4    1  0.5399378E-005  0.4669192E+03  0.7818608E-02  0.1022793E+00
         -2   -1    0    0    0  501 -0.00000000000E+00  0.00000000000E+00  0.43860661699E+02  0.43860661773E+02  0.25500000000E-02 0.  1.
          2   -1    0    0  501    0  0.00000000000E+00 -0.00000000000E+00 -0.12426484129E+04  0.12426484129E+04  0.25500000000E-02 0. -1.
    5000001    1    1    2    0    0 -0.13632886464E+03 -0.85195925760E+02 -0.49503776905E+03  0.54601400888E+03  0.16500000000E+03 0.  0.
   -5000001    1    1    2    0    0  0.13632886464E+03  0.85195925760E+02 -0.70374998211E+03  0.74049506576E+03  0.16500000000E+03 0.  0.
<mgrwt>
<rscale>  0 0.46691919E+03</rscale>
<asrwt>0</asrwt>
<pdfrwt beam="1">  1        2 0.17752118E+00 0.46691919E+03</pdfrwt>
<pdfrwt beam="2">  1       -2 0.62658096E-02 0.46691919E+03</pdfrwt>
<totfact> 0.29472920E+03</totfact>
</mgrwt>
</event>
<event>
 4    1  0.5399378E-005  0.4890236E+03  0.7818608E-02  0.1016684E+00
         -2   -1    0    0    0  501 -0.00000000000E+00  0.00000000000E+00  0.55720100482E+02  0.55720100541E+02  0.25500000000E-02 0. -1.
          2   -1    0    0  501    0  0.00000000000E+00 -0.00000000000E+00 -0.10729705906E+04  0.10729705906E+04  0.25500000000E-02 0.  1.
    5000001    1    1    2    0    0  0.16766034215E+03  0.50508014906E+02 -0.60923023513E+03  0.65501719771E+03  0.16500000000E+03 0.  0.
   -5000001    1    1    2    0    0 -0.16766034215E+03 -0.50508014906E+02 -0.40802025497E+03  0.47367349342E+03  0.16500000000E+03 0.  0.
<mgrwt>
<rscale>  0 0.48902364E+03</rscale>
<asrwt>0</asrwt>
<pdfrwt beam="1">  1        2 0.15328150E+00 0.48902364E+03</pdfrwt>
<pdfrwt beam="2">  1       -2 0.79600150E-02 0.48902364E+03</pdfrwt>
<totfact> 0.25218196E+03</totfact>
</mgrwt>
</event>
<event>
 4    1  0.5399378E-005  0.4305745E+03  0.7818608E-02  0.1033679E+00
         -2   -1    0    0    0  501 -0.00000000000E+00  0.00000000000E+00  0.25761688976E+02  0.25761689103E+02  0.25500000000E-02 0.  1.
          2   -1    0    0  501    0  0.00000000000E+00 -0.00000000000E+00 -0.17991292228E+04  0.17991292228E+04  0.25500000000E-02 0. -1.
    5000001    1    1    2    0    0  0.44288571707E+02 -0.24132309370E+02 -0.34095391805E+03  0.38212356663E+03  0.16500000000E+03 0.  0.
   -5000001    1    1    2    0    0 -0.44288571707E+02  0.24132309370E+02 -0.14324136157E+04  0.14427673452E+04  0.16500000000E+03 0.  0.
<mgrwt>
<rscale>  0 0.43057454E+03</rscale>
<asrwt>0</asrwt>
<pdfrwt beam="1">  1        2 0.25701838E+00 0.43057454E+03</pdfrwt>
<pdfrwt beam="2">  1       -2 0.36802424E-02 0.43057454E+03</pdfrwt>
<totfact> 0.34467385E+03</totfact>
</mgrwt>
</event>
<event>
 4    1  0.5399378E-005  0.3665834E+03  0.7818608E-02  0.1056007E+00
          2   -1    0    0  501    0  0.00000000000E+00  0.00000000000E+00  0.17370403480E+03  0.17370403482E+03  0.25500000000E-02 0.  1.
         -2   -1    0    0    0  501 -0.00000000000E+00 -0.00000000000E+00 -0.19340857904E+03  0.19340857905E+03  0.25500000000E-02 0. -1.
    5000001    1    1    2    0    0 -0.77245865643E+02  0.15544945036E+02  0.29050923677E+01  0.18287156323E+03  0.16500000000E+03 0.  0.
   -5000001    1    1    2    0    0  0.77245865643E+02 -0.15544945036E+02 -0.22609636604E+02  0.18424105064E+03  0.16500000000E+03 0.  0.
<mgrwt>
<rscale>  0 0.36658342E+03</rscale>
<asrwt>0</asrwt>
<pdfrwt beam="1">  1        2 0.24814862E-01 0.36658342E+03</pdfrwt>
<pdfrwt beam="2">  1       -2 0.27629797E-01 0.36658342E+03</pdfrwt>
<totfact> 0.25919249E+03</totfact>
</mgrwt>
</event>
<event>
 4    1  0.5399378E-005  0.6090495E+03  0.7818608E-02  0.9886807E-01
         -2   -1    0    0    0  501 -0.00000000000E+00  0.00000000000E+00  0.47131545905E+02  0.47131545974E+02  0.25500000000E-02 0. -1.
          2   -1    0    0  501    0  0.00000000000E+00 -0.00000000000E+00 -0.19675851695E+04  0.19675851695E+04  0.25500000000E-02 0.  1.
    5000001    1    1    2    0    0 -0.24680358375E+03  0.56221837570E+02 -0.10856431903E+04  0.11269068465E+04  0.16500000000E+03 0.  0.
   -5000001    1    1    2    0    0  0.24680358375E+03 -0.56221837570E+02 -0.83481043332E+03  0.88780986903E+03  0.16500000000E+03 0.  0.
<mgrwt>
<rscale>  0 0.60904952E+03</rscale>
<asrwt>0</asrwt>
<pdfrwt beam="1">  1        2 0.28108354E+00 0.60904952E+03</pdfrwt>
<pdfrwt beam="2">  1       -2 0.67330792E-02 0.60904952E+03</pdfrwt>
<totfact> 0.11078436E+03</totfact>
</mgrwt>
</event>
<event>
 4    1  0.5399378E-005  0.6008469E+03  0.7818608E-02  0.9903651E-01
          2   -1    0    0  501    0  0.00000000000E+00  0.00000000000E+00  0.25087326091E+04  0.25087326091E+04  0.25500000000E-02 0.  1.
         -2   -1    0    0    0  501 -0.00000000000E+00 -0.00000000000E+00 -0.35976033270E+02  0.35976033361E+02  0.25500000000E-02 0. -1.
    5000001    1    1    2    0    0  0.14217435205E+03  0.20019785104E+03  0.10148272881E+04  0.10570677134E+04  0.16500000000E+03 0.  0.
   -5000001    1    1    2    0    0 -0.14217435205E+03 -0.20019785104E+03  0.14579292877E+04  0.14876409291E+04  0.16500000000E+03 0.  0.
<mgrwt>
<rscale>  0 0.60084690E+03</rscale>
<asrwt>0</asrwt>
<pdfrwt beam="1">  1        2 0.35839045E+00 0.60084690E+03</pdfrwt>
<pdfrwt beam="2">  1       -2 0.51394322E-02 0.60084690E+03</pdfrwt>
<totfact> 0.90060124E+02</totfact>
</mgrwt>
</event>
<event>
 4    1  0.5399378E-005  0.4848744E+03  0.7818608E-02  0.1017804E+00
          2   -1    0    0  501    0  0.00000000000E+00  0.00000000000E+00  0.63193415809E+03  0.63193415810E+03  0.25500000000E-02 0.  1.
         -2   -1    0    0    0  501 -0.00000000000E+00 -0.00000000000E+00 -0.93009380321E+02  0.93009380356E+02  0.25500000000E-02 0. -1.
    5000001    1    1    2    0    0  0.12831073459E+03  0.12069533868E+03  0.23537521659E+03  0.33713128299E+03  0.16500000000E+03 0.  0.
   -5000001    1    1    2    0    0 -0.12831073459E+03 -0.12069533868E+03  0.30354956119E+03  0.38781225546E+03  0.16500000000E+03 0.  0.
<mgrwt>
<rscale>  0 0.48487444E+03</rscale>
<asrwt>0</asrwt>
<pdfrwt beam="1">  1        2 0.90276310E-01 0.48487444E+03</pdfrwt>
<pdfrwt beam="2">  1       -2 0.13287054E-01 0.48487444E+03</pdfrwt>
<totfact> 0.21811764E+03</totfact>
</mgrwt>
</event>
<event>
 4    1  0.5399378E-005  0.4892039E+03  0.7818608E-02  0.1016636E+00
         -2   -1    0    0    0  501 -0.00000000000E+00  0.00000000000E+00  0.14874793162E+03  0.14874793164E+03  0.25500000000E-02 0. -1.
          2   -1    0    0  501    0  0.00000000000E+00 -0.00000000000E+00 -0.40222477941E+03  0.40222477941E+03  0.25500000000E-02 0.  1.
    5000001    1    1    2    0    0 -0.10398709486E+03  0.10888582193E+03 -0.23900195647E+03  0.32713357106E+03  0.16500000000E+03 0.  0.
   -5000001    1    1    2    0    0  0.10398709486E+03 -0.10888582193E+03 -0.14474891315E+02  0.22383914000E+03  0.16500000000E+03 0.  0.
<mgrwt>
<rscale>  0 0.48920386E+03</rscale>
<asrwt>0</asrwt>
<pdfrwt beam="1">  1        2 0.57460682E-01 0.48920386E+03</pdfrwt>
<pdfrwt beam="2">  1       -2 0.21249705E-01 0.48920386E+03</pdfrwt>
<totfact> 0.16411339E+03</totfact>
</mgrwt>
</event>
<event>
 4    1  0.5399378E-005  0.5697018E+03  0.7818608E-02  0.9970339E-01
          2   -1    0    0  501    0  0.00000000000E+00  0.00000000000E+00  0.15550302562E+04  0.15550302562E+04  0.25500000000E-02 0.  1.
         -2   -1    0    0    0  501 -0.00000000000E+00 -0.00000000000E+00 -0.52179078034E+02  0.52179078096E+02  0.25500000000E-02 0. -1.
    5000001    1    1    2    0    0 -0.19601752241E+03  0.10574738700E+03  0.56622317472E+03  0.63042768224E+03  0.16500000000E+03 0.  0.
   -5000001    1    1    2    0    0  0.19601752241E+03 -0.10574738700E+03  0.93662800343E+03  0.97678165204E+03  0.16500000000E+03 0.  0.
<mgrwt>
<rscale>  0 0.56970183E+03</rscale>
<asrwt>0</asrwt>
<pdfrwt beam="1">  1        2 0.22214722E+00 0.56970183E+03</pdfrwt>
<pdfrwt beam="2">  1       -2 0.74541525E-02 0.56970183E+03</pdfrwt>
<totfact> 0.15295630E+03</totfact>
</mgrwt>
</event>
<event>
 4    1  0.5399378E-005  0.5418826E+03  0.7818608E-02  0.1003390E+00
         -2   -1    0    0    0  501 -0.00000000000E+00  0.00000000000E+00  0.71286590411E+02  0.71286590457E+02  0.25500000000E-02 0. -1.
          2   -1    0    0  501    0  0.00000000000E+00 -0.00000000000E+00 -0.10297756648E+04  0.10297756648E+04  0.25500000000E-02 0.  1.
    5000001    1    1    2    0    0 -0.19541803647E+03  0.70032316031E+02 -0.59222115974E+03  0.64887875317E+03  0.16500000000E+03 0.  0.
   -5000001    1    1    2    0    0  0.19541803647E+03 -0.70032316031E+02 -0.36626791467E+03  0.45218350212E+03  0.16500000000E+03 0.  0.
<mgrwt>
<rscale>  0 0.54188263E+03</rscale>
<asrwt>0</asrwt>
<pdfrwt beam="1">  1        2 0.14711080E+00 0.54188263E+03</pdfrwt>
<pdfrwt beam="2">  1       -2 0.10183799E-01 0.54188263E+03</pdfrwt>
<totfact> 0.18015201E+03</totfact>
</mgrwt>
</event>
<event>
 4    1  0.5399378E-005  0.4378816E+03  0.7818608E-02  0.1031399E+00
          2   -1    0    0  501    0  0.00000000000E+00  0.00000000000E+00  0.49926649870E+02  0.49926649935E+02  0.25500000000E-02 0.  1.
         -2   -1    0    0    0  501 -0.00000000000E+00 -0.00000000000E+00 -0.96010977677E+03  0.96010977677E+03  0.25500000000E-02 0. -1.
    5000001    1    1    2    0    0 -0.55632795733E+01 -0.13823662022E+03 -0.54648096389E+03  0.58737275826E+03  0.16500000000E+03 0.  0.
   -5000001    1    1    2    0    0  0.55632795733E+01  0.13823662022E+03 -0.36370216300E+03  0.42266366844E+03  0.16500000000E+03 0.  0.
<mgrwt>
<rscale>  0 0.43788156E+03</rscale>
<asrwt>0</asrwt>
<pdfrwt beam="1">  1        2 0.71323791E-02 0.43788156E+03</pdfrwt>
<pdfrwt beam="2">  1       -2 0.13715853E+00 0.43788156E+03</pdfrwt>
<totfact> 0.39494260E+02</totfact>
</mgrwt>
</event>
<event>
 4    1  0.5399378E-005  0.4926323E+03  0.7818608E-02  0.1015720E+00
          2   -1    0    0  501    0  0.00000000000E+00  0.00000000000E+00  0.42840927442E+03  0.42840927442E+03  0.25500000000E-02 0.  1.
         -2   -1    0    0    0  501 -0.00000000000E+00 -0.00000000000E+00 -0.14162076388E+03  0.14162076390E+03  0.25500000000E-02 0. -1.
    5000001    1    1    2    0    0  0.14220680525E+03 -0.36479974546E+02  0.26958343108E+03  0.34850220991E+03  0.16500000000E+03 0.  0.
   -5000001    1    1    2    0    0 -0.14220680525E+03  0.36479974546E+02  0.17205079460E+02  0.22152782841E+03  0.16500000000E+03 0.  0.
<mgrwt>
<rscale>  0 0.49263231E+03</rscale>
<asrwt>0</asrwt>
<pdfrwt beam="1">  1        2 0.61201325E-01 0.49263231E+03</pdfrwt>
<pdfrwt beam="2">  1       -2 0.20231538E-01 0.49263231E+03</pdfrwt>
<totfact> 0.16672239E+03</totfact>
</mgrwt>
</event>
<event>
 4    1  0.5399378E-005  0.1061314E+04  0.7818608E-02  0.9243740E-01
         -2   -1    0    0    0  501 -0.00000000000E+00  0.00000000000E+00  0.10526733147E+03  0.10526733150E+03  0.25500000000E-02 0. -1.
          2   -1    0    0  501    0  0.00000000000E+00 -0.00000000000E+00 -0.26750643097E+04  0.26750643097E+04  0.25500000000E-02 0.  1.
    5000001    1    1    2    0    0 -0.22886453925E+03  0.40756516249E+03 -0.78864869324E+03  0.93149347843E+03  0.16500000000E+03 0.  0.
   -5000001    1    1    2    0    0  0.22886453925E+03 -0.40756516249E+03 -0.17811482850E+04  0.18488381628E+04  0.16500000000E+03 0.  0.
<mgrwt>
<rscale>  0 0.10613141E+04</rscale>
<asrwt>0</asrwt>
<pdfrwt beam="1">  1        2 0.38215200E+00 0.10613141E+04</pdfrwt>
<pdfrwt beam="2">  1       -2 0.15038192E-01 0.10613141E+04</pdfrwt>
<totfact> 0.12504039E+02</totfact>
</mgrwt>
</event>
<event>
 4    1  0.5399378E-005  0.4079691E+03  0.7818608E-02  0.1041055E+00
          2   -1    0    0  501    0  0.00000000000E+00  0.00000000000E+00  0.11079739484E+04  0.11079739484E+04  0.25500000000E-02 0.  1.
         -2   -1    0    0    0  501 -0.00000000000E+00 -0.00000000000E+00 -0.37554769864E+02  0.37554769951E+02  0.25500000000E-02 0. -1.
    5000001    1    1    2    0    0 -0.63144138922E+02  0.27008049670E+02  0.25912065940E+03  0.31477791085E+03  0.16500000000E+03 0.  0.
   -5000001    1    1    2    0    0  0.63144138922E+02 -0.27008049670E+02  0.81129851911E+03  0.83075080749E+03  0.16500000000E+03 0.  0.
<mgrwt>
<rscale>  0 0.40796915E+03</rscale>
<asrwt>0</asrwt>
<pdfrwt beam="1">  1        2 0.15828200E+00 0.40796915E+03</pdfrwt>
<pdfrwt beam="2">  1       -2 0.53649670E-02 0.40796915E+03</pdfrwt>
<totfact> 0.44560958E+03</totfact>
</mgrwt>
</event>
<event>
 4    1  0.5399378E-005  0.4323802E+03  0.7818608E-02  0.1033111E+00
         -2   -1    0    0    0  501 -0.00000000000E+00  0.00000000000E+00  0.38377119852E+02  0.38377119937E+02  0.25500000000E-02 0. -1.
          2   -1    0    0  501    0  0.00000000000E+00 -0.00000000000E+00 -0.12178652282E+04  0.12178652283E+04  0.25500000000E-02 0.  1.
    5000001    1    1    2    0    0 -0.36796708402E+02  0.49745704400E+02 -0.22587649101E+03  0.28648529115E+03  0.16500000000E+03 0.  0.
   -5000001    1    1    2    0    0  0.36796708402E+02 -0.49745704400E+02 -0.95361161739E+03  0.96975705704E+03  0.16500000000E+03 0.  0.
<mgrwt>
<rscale>  0 0.43238020E+03</rscale>
<asrwt>0</asrwt>
<pdfrwt beam="1">  1        2 0.17398072E+00 0.43238020E+03</pdfrwt>
<pdfrwt beam="2">  1       -2 0.54824464E-02 0.43238020E+03</pdfrwt>
<totfact> 0.37415246E+03</totfact>
</mgrwt>
</event>
<event>
 4    1  0.5399378E-005  0.4743831E+03  0.7818608E-02  0.1020690E+00
         -2   -1    0    0    0  501 -0.00000000000E+00  0.00000000000E+00  0.57986816327E+02  0.57986816384E+02  0.25500000000E-02 0. -1.
          2   -1    0    0  501    0  0.00000000000E+00 -0.00000000000E+00 -0.97021749221E+03  0.97021749221E+03  0.25500000000E-02 0.  1.
    5000001    1    1    2    0    0  0.68386420804E+02  0.14211053883E+03 -0.59595765751E+03  0.63817132288E+03  0.16500000000E+03 0.  0.
   -5000001    1    1    2    0    0 -0.68386420804E+02 -0.14211053883E+03 -0.31627301836E+03  0.39003298571E+03  0.16500000000E+03 0.  0.
<mgrwt>
<rscale>  0 0.47438307E+03</rscale>
<asrwt>0</asrwt>
<pdfrwt beam="1">  1        2 0.13860249E+00 0.47438307E+03</pdfrwt>
<pdfrwt beam="2">  1       -2 0.82838315E-02 0.47438307E+03</pdfrwt>
<totfact> 0.27269045E+03</totfact>
</mgrwt>
</event>
<event>
 4    1  0.5399378E-005  0.9864700E+03  0.7818608E-02  0.9323510E-01
         -2   -1    0    0    0  501 -0.00000000000E+00  0.00000000000E+00  0.17430137286E+03  0.17430137288E+03  0.25500000000E-02 0. -1.
          2   -1    0    0  501    0  0.00000000000E+00 -0.00000000000E+00 -0.13957478997E+04  0.13957478997E+04  0.25500000000E-02 0.  1.
    5000001    1    1    2    0    0  0.17072732720E+02  0.46424545999E+03 -0.58604346667E+03  0.76582456878E+03  0.16500000000E+03 0.  0.
   -5000001    1    1    2    0    0 -0.17072732720E+02 -0.46424545999E+03 -0.63540306012E+03  0.80422470376E+03  0.16500000000E+03 0.  0.
<mgrwt>
<rscale>  0 0.98647002E+03</rscale>
<asrwt>0</asrwt>
<pdfrwt beam="1">  1        2 0.19939255E+00 0.98647002E+03</pdfrwt>
<pdfrwt beam="2">  1       -2 0.24900197E-01 0.98647002E+03</pdfrwt>
<totfact> 0.23945701E+02</totfact>
</mgrwt>
</event>
<event>
 4    1  0.5399378E-005  0.5047530E+03  0.7818608E-02  0.1012546E+00
          2   -1    0    0  501    0  0.00000000000E+00  0.00000000000E+00  0.38219593861E+04  0.38219593861E+04  0.25500000000E-02 0.  1.
         -2   -1    0    0    0  501 -0.00000000000E+00 -0.00000000000E+00 -0.16665250108E+02  0.16665250303E+02  0.25500000000E-02 0. -1.
    5000001    1    1    2    0    0 -0.56228093402E+02  0.17845934913E+03  0.16121047411E+04  0.16312927494E+04  0.16500000000E+03 0.  0.
   -5000001    1    1    2    0    0  0.56228093402E+02 -0.17845934913E+03  0.21931893948E+04  0.22073318870E+04  0.16500000000E+03 0.  0.
<mgrwt>
<rscale>  0 0.50475305E+03</rscale>
<asrwt>0</asrwt>
<pdfrwt beam="1">  1        2 0.54599461E+00 0.50475305E+03</pdfrwt>
<pdfrwt beam="2">  1       -2 0.23807482E-02 0.50475305E+03</pdfrwt>
<totfact> 0.53738920E+02</totfact>
</mgrwt>
</event>
<event>
 4    1  0.5399378E-005  0.5214925E+03  0.7818608E-02  0.1008316E+00
         -2   -1    0    0    0  501 -0.00000000000E+00  0.00000000000E+00  0.22726095585E+03  0.22726095587E+03  0.25500000000E-02 0. -1.
          2   -1    0    0  501    0  0.00000000000E+00 -0.00000000000E+00 -0.29916534309E+03  0.29916534310E+03  0.25500000000E-02 0.  1.
    5000001    1    1    2    0    0  0.13149226915E+03  0.15157349595E+03 -0.58498686944E+02  0.26629276726E+03  0.16500000000E+03 0.  0.
   -5000001    1    1    2    0    0 -0.13149226915E+03 -0.15157349595E+03 -0.13405700293E+02  0.26013353171E+03  0.16500000000E+03 0.  0.
<mgrwt>
<rscale>  0 0.52149248E+03</rscale>
<asrwt>0</asrwt>
<pdfrwt beam="1">  1        2 0.42737906E-01 0.52149248E+03</pdfrwt>
<pdfrwt beam="2">  1       -2 0.32465851E-01 0.52149248E+03</pdfrwt>
<totfact> 0.10582679E+03</totfact>
</mgrwt>
</event>
<event>
 4    1  0.5399378E-005  0.9330836E+03  0.7818608E-02  0.9385145E-01
          2   -1    0    0  501    0  0.00000000000E+00  0.00000000000E+00  0.91392958960E+03  0.91392958961E+03  0.25500000000E-02 0.  1.
         -2   -1    0    0    0  501 -0.00000000000E+00 -0.00000000000E+00 -0.23815976908E+03  0.23815976909E+03  0.25500000000E-02 0. -1.
    5000001    1    1    2    0    0  0.20632710321E+03 -0.37784278225E+03  0.42606285811E+03  0.62776635835E+03  0.16500000000E+03 0.  0.
   -5000001    1    1    2    0    0 -0.20632710321E+03  0.37784278225E+03  0.24970696242E+03  0.52432300035E+03  0.16500000000E+03 0.  0.
<mgrwt>
<rscale>  0 0.93308362E+03</rscale>
<asrwt>0</asrwt>
<pdfrwt beam="1">  1        2 0.13056137E+00 0.93308362E+03</pdfrwt>
<pdfrwt beam="2">  1       -2 0.34022825E-01 0.93308362E+03</pdfrwt>
<totfact> 0.25724311E+02</totfact>
</mgrwt>
</event>
<event>
 4    1  0.5399378E-005  0.3428825E+03  0.7818608E-02  0.1065575E+00
          2   -1    0    0  501    0  0.00000000000E+00  0.00000000000E+00  0.75138858806E+03  0.75138858806E+03  0.25500000000E-02 0.  1.
         -2   -1    0    0    0  501 -0.00000000000E+00 -0.00000000000E+00 -0.39117042528E+02  0.39117042611E+02  0.25500000000E-02 0. -1.
    5000001    1    1    2    0    0  0.33662335918E+02  0.11118149222E+02  0.42569582188E+03  0.45792870501E+03  0.16500000000E+03 0.  0.
   -5000001    1    1    2    0    0 -0.33662335918E+02 -0.11118149222E+02  0.28657572364E+03  0.33257692566E+03  0.16500000000E+03 0.  0.
<mgrwt>
<rscale>  0 0.34288248E+03</rscale>
<asrwt>0</asrwt>
<pdfrwt beam="1">  1        2 0.10734123E+00 0.34288248E+03</pdfrwt>
<pdfrwt beam="2">  1       -2 0.55881490E-02 0.34288248E+03</pdfrwt>
<totfact> 0.69856700E+03</totfact>
</mgrwt>
</event>
<event>
 4    1  0.5399378E-005  0.3497123E+03  0.7818608E-02  0.1062733E+00
         -2   -1    0    0    0  501 -0.00000000000E+00  0.00000000000E+00  0.37260170188E+02  0.37260170275E+02  0.25500000000E-02 0. -1.
          2   -1    0    0  501    0  0.00000000000E+00 -0.00000000000E+00 -0.82057239966E+03  0.82057239967E+03  0.25500000000E-02 0.  1.
    5000001    1    1    2    0    0  0.43188593995E+02 -0.38327868183E+02 -0.38203398833E+03  0.42013003745E+03  0.16500000000E+03 0.  0.
   -5000001    1    1    2    0    0 -0.43188593995E+02  0.38327868183E+02 -0.40127824115E+03  0.43770253249E+03  0.16500000000E+03 0.  0.
<mgrwt>
<rscale>  0 0.34971227E+03</rscale>
<asrwt>0</asrwt>
<pdfrwt beam="1">  1        2 0.11722462E+00 0.34971227E+03</pdfrwt>
<pdfrwt beam="2">  1       -2 0.53228820E-02 0.34971227E+03</pdfrwt>
<totfact> 0.67503805E+03</totfact>
</mgrwt>
</event>
<event>
 4    1  0.5399378E-005  0.4112044E+03  0.7818608E-02  0.1039968E+00
          2   -1    0    0  501    0  0.00000000000E+00  0.00000000000E+00  0.21488738678E+03  0.21488738679E+03  0.25500000000E-02 0.  1.
         -2   -1    0    0    0  501 -0.00000000000E+00 -0.00000000000E+00 -0.19671823930E+03  0.19671823932E+03  0.25500000000E-02 0. -1.
    5000001    1    1    2    0    0  0.55071182737E+02 -0.93494210913E+02  0.66352856751E+02  0.20833075683E+03  0.16500000000E+03 0.  0.
   -5000001    1    1    2    0    0 -0.55071182737E+02  0.93494210913E+02 -0.48183709276E+02  0.20327486928E+03  0.16500000000E+03 0.  0.
<mgrwt>
<rscale>  0 0.41120442E+03</rscale>
<asrwt>0</asrwt>
<pdfrwt beam="1">  1        2 0.30698198E-01 0.41120442E+03</pdfrwt>
<pdfrwt beam="2">  1       -2 0.28102606E-01 0.41120442E+03</pdfrwt>
<totfact> 0.19850124E+03</totfact>
</mgrwt>
</event>
<event>
 4    1  0.5399378E-005  0.5241517E+03  0.7818608E-02  0.1007660E+00
          2   -1    0    0  501    0  0.00000000000E+00  0.00000000000E+00  0.35339645403E+03  0.35339645404E+03  0.25500000000E-02 0.  1.
         -2   -1    0    0    0  501 -0.00000000000E+00 -0.00000000000E+00 -0.19435328098E+03  0.19435328099E+03  0.25500000000E-02 0. -1.
    5000001    1    1    2    0    0  0.20079995479E+03 -0.30020880890E+02  0.63437584813E+02  0.26920475906E+03  0.16500000000E+03 0.  0.
   -5000001    1    1    2    0    0 -0.20079995479E+03  0.30020880890E+02  0.95605588237E+02  0.27854497597E+03  0.16500000000E+03 0.  0.
<mgrwt>
<rscale>  0 0.52415174E+03</rscale>
<asrwt>0</asrwt>
<pdfrwt beam="1">  1        2 0.50485207E-01 0.52415174E+03</pdfrwt>
<pdfrwt beam="2">  1       -2 0.27764755E-01 0.52415174E+03</pdfrwt>
<totfact> 0.11754774E+03</totfact>
</mgrwt>
</event>
<event>
 4    1  0.5399378E-005  0.6168316E+03  0.7818608E-02  0.9871088E-01
          2   -1    0    0  501    0  0.00000000000E+00  0.00000000000E+00  0.46600245947E+04  0.46600245947E+04  0.25500000000E-02 0.  1.
         -2   -1    0    0    0  501 -0.00000000000E+00 -0.00000000000E+00 -0.20411976563E+02  0.20411976723E+02  0.25500000000E-02 0. -1.
    5000001    1    1    2    0    0 -0.17693017869E+03  0.17710378327E+03  0.28683033751E+04  0.28839312214E+04  0.16500000000E+03 0.  0.
   -5000001    1    1    2    0    0  0.17693017869E+03 -0.17710378327E+03  0.17713092430E+04  0.17965053500E+04  0.16500000000E+03 0.  0.
<mgrwt>
<rscale>  0 0.61683162E+03</rscale>
<asrwt>0</asrwt>
<pdfrwt beam="1">  1        2 0.66571798E+00 0.61683162E+03</pdfrwt>
<pdfrwt beam="2">  1       -2 0.29159959E-02 0.61683162E+03</pdfrwt>
<totfact> 0.97334358E+01</totfact>
</mgrwt>
</event>
<event>
 4    1  0.5399378E-005  0.5054303E+03  0.7818608E-02  0.1012371E+00
         -2   -1    0    0    0  501 -0.00000000000E+00  0.00000000000E+00  0.34310090281E+03  0.34310090282E+03  0.25500000000E-02 0. -1.
          2   -1    0    0  501    0  0.00000000000E+00 -0.00000000000E+00 -0.18614045832E+03  0.18614045834E+03  0.25500000000E-02 0.  1.
    5000001    1    1    2    0    0  0.17163751173E+03  0.84197501235E+02  0.88485725326E+02  0.26758807566E+03  0.16500000000E+03 0.  0.
   -5000001    1    1    2    0    0 -0.17163751173E+03 -0.84197501235E+02  0.68474719171E+02  0.26165328550E+03  0.16500000000E+03 0.  0.
<mgrwt>
<rscale>  0 0.50543035E+03</rscale>
<asrwt>0</asrwt>
<pdfrwt beam="1">  1        2 0.26591494E-01 0.50543035E+03</pdfrwt>
<pdfrwt beam="2">  1       -2 0.49014414E-01 0.50543035E+03</pdfrwt>
<totfact> 0.80797118E+02</totfact>
</mgrwt>
</event>
<event>
 4    1  0.5399378E-005  0.8252071E+03  0.7818608E-02  0.9524231E-01
          2   -1    0    0  501    0  0.00000000000E+00  0.00000000000E+00  0.38314966176E+04  0.38314966176E+04  0.25500000000E-02 0.  1.
         -2   -1    0    0    0  501 -0.00000000000E+00 -0.00000000000E+00 -0.44432169915E+02  0.44432169988E+02  0.25500000000E-02 0. -1.
    5000001    1    1    2    0    0  0.13588249257E+03 -0.31945593362E+03  0.11889859758E+04  0.12495714449E+04  0.16500000000E+03 0.  0.
   -5000001    1    1    2    0    0 -0.13588249257E+03  0.31945593362E+03  0.25980784719E+04  0.26263573426E+04  0.16500000000E+03 0.  0.
<mgrwt>
<rscale>  0 0.82520715E+03</rscale>
<asrwt>0</asrwt>
<pdfrwt beam="1">  1        2 0.54735691E+00 0.82520715E+03</pdfrwt>
<pdfrwt beam="2">  1       -2 0.63474500E-02 0.82520715E+03</pdfrwt>
<totfact> 0.11235902E+02</totfact>
</mgrwt>
</event>
<event>
 4    1  0.5399378E-005  0.5988515E+03  0.7818608E-02  0.9907792E-01
         -2   -1    0    0    0  501 -0.00000000000E+00  0.00000000000E+00  0.22194424291E+03  0.22194424293E+03  0.25500000000E-02 0. -1.
          2   -1    0    0  501    0  0.00000000000E+00 -0.00000000000E+00 -0.40395631691E+03  0.40395631692E+03  0.25500000000E-02 0.  1.
    5000001    1    1    2    0    0  0.82835038698E+02 -0.23558576377E+03 -0.82356791059E+02  0.31043507656E+03  0.16500000000E+03 0.  0.
   -5000001    1    1    2    0    0 -0.82835038698E+02  0.23558576377E+03 -0.99655282941E+02  0.31546548329E+03  0.16500000000E+03 0.  0.
<mgrwt>
<rscale>  0 0.59885150E+03</rscale>
<asrwt>0</asrwt>
<pdfrwt beam="1">  1        2 0.57708045E-01 0.59885150E+03</pdfrwt>
<pdfrwt beam="2">  1       -2 0.31706321E-01 0.59885150E+03</pdfrwt>
<totfact> 0.79354981E+02</totfact>
</mgrwt>
</event>
<event>
 4    1  0.5399378E-005  0.5533675E+03  0.7818608E-02  0.1000717E+00
          2   -1    0    0  501    0  0.00000000000E+00  0.00000000000E+00  0.30703050564E+04  0.30703050564E+04  0.25500000000E-02 0. -1.
         -2   -1    0    0    0  501 -0.00000000000E+00 -0.00000000000E+00 -0.24933643816E+02  0.24933643946E+02  0.25500000000E-02 0.  1.
    5000001    1    1    2    0    0 -0.15335691642E+03 -0.16051870427E+03  0.15599125446E+04  0.15842464281E+04  0.16500000000E+03 0.  0.
   -5000001    1    1    2    0    0  0.15335691642E+03  0.16051870427E+03  0.14854588680E+04  0.15109922722E+04  0.16500000000E+03 0.  0.
<mgrwt>
<rscale>  0 0.55336748E+03</rscale>
<asrwt>0</asrwt>
<pdfrwt beam="1">  1        2 0.43861471E+00 0.55336748E+03</pdfrwt>
<pdfrwt beam="2">  1       -2 0.35619515E-02 0.55336748E+03</pdfrwt>
<totfact> 0.80225107E+02</totfact>
</mgrwt>
</event>
<event>
 4    1  0.5399378E-005  0.4465780E+03  0.7818608E-02  0.1028747E+00
         -2   -1    0    0    0  501 -0.00000000000E+00  0.00000000000E+00  0.28170723782E+02  0.28170723897E+02  0.25500000000E-02 0. -1.
          2   -1    0    0  501    0  0.00000000000E+00 -0.00000000000E+00 -0.17698510844E+04  0.17698510844E+04  0.25500000000E-02 0.  1.
    5000001    1    1    2    0    0  0.22721598415E+02 -0.14745477260E+03 -0.79299706117E+03  0.82360701796E+03  0.16500000000E+03 0.  0.
   -5000001    1    1    2    0    0 -0.22721598415E+02  0.14745477260E+03 -0.94868329945E+03  0.97441479035E+03  0.16500000000E+03 0.  0.
<mgrwt>
<rscale>  0 0.44657804E+03</rscale>
<asrwt>0</asrwt>
<pdfrwt beam="1">  1        2 0.25283580E+00 0.44657804E+03</pdfrwt>
<pdfrwt beam="2">  1       -2 0.40243902E-02 0.44657804E+03</pdfrwt>
<totfact> 0.31104358E+03</totfact>
</mgrwt>
</event>
<event>
 4    1  0.5399378E-005  0.5985018E+03  0.7818608E-02  0.9908519E-01
         -2   -1    0    0    0  501 -0.00000000000E+00  0.00000000000E+00  0.48265981587E+02  0.48265981654E+02  0.25500000000E-02 0. -1.
          2   -1    0    0  501    0  0.00000000000E+00 -0.00000000000E+00 -0.18553666864E+04  0.18553666864E+04  0.25500000000E-02 0.  1.
    5000001    1    1    2    0    0  0.24318069383E+03  0.14043399769E+02 -0.72956988546E+03  0.78665830237E+03  0.16500000000E+03 0.  0.
   -5000001    1    1    2    0    0 -0.24318069383E+03 -0.14043399769E+02 -0.10775308193E+04  0.11169743657E+04  0.16500000000E+03 0.  0.
<mgrwt>
<rscale>  0 0.59850178E+03</rscale>
<asrwt>0</asrwt>
<pdfrwt beam="1">  1        2 0.26505234E+00 0.59850178E+03</pdfrwt>
<pdfrwt beam="2">  1       -2 0.68951414E-02 0.59850178E+03</pdfrwt>
<totfact> 0.12157811E+03</totfact>
</mgrwt>
</event>
<event>
 4    1  0.5399378E-005  0.5245201E+03  0.7818608E-02  0.1007570E+00
          2   -1    0    0  501    0  0.00000000000E+00  0.00000000000E+00  0.29768844787E+03  0.29768844788E+03  0.25500000000E-02 0.  1.
         -2   -1    0    0    0  501 -0.00000000000E+00 -0.00000000000E+00 -0.23104801992E+03  0.23104801993E+03  0.25500000000E-02 0. -1.
    5000001    1    1    2    0    0  0.79541962062E+02 -0.14069980951E+03 -0.91903847879E+02  0.24858535230E+03  0.16500000000E+03 0.  0.
   -5000001    1    1    2    0    0 -0.79541962062E+02  0.14069980951E+03  0.15854427583E+03  0.28015111551E+03  0.16500000000E+03 0.  0.
<mgrwt>
<rscale>  0 0.52452007E+03</rscale>
<asrwt>0</asrwt>
<pdfrwt beam="1">  1        2 0.42526921E-01 0.52452007E+03</pdfrwt>
<pdfrwt beam="2">  1       -2 0.33006860E-01 0.52452007E+03</pdfrwt>
<totfact> 0.10316771E+03</totfact>
</mgrwt>
</event>
<event>
 4    1  0.5399378E-005  0.3870137E+03  0.7818608E-02  0.1048372E+00
         -2   -1    0    0    0  501 -0.00000000000E+00  0.00000000000E+00  0.39163390553E+02  0.39163390636E+02  0.25500000000E-02 0. -1.
          2   -1    0    0  501    0  0.00000000000E+00 -0.00000000000E+00 -0.95611979352E+03  0.95611979352E+03  0.25500000000E-02 0.  1.
    5000001    1    1    2    0    0  0.92207486331E+02  0.37455700740E+02 -0.41285367916E+03  0.45560762774E+03  0.16500000000E+03 0.  0.
   -5000001    1    1    2    0    0 -0.92207486331E+02 -0.37455700740E+02 -0.50410272381E+03  0.53967555642E+03  0.16500000000E+03 0.  0.
<mgrwt>
<rscale>  0 0.38701366E+03</rscale>
<asrwt>0</asrwt>
<pdfrwt beam="1">  1        2 0.13658853E+00 0.38701366E+03</pdfrwt>
<pdfrwt beam="2">  1       -2 0.55947707E-02 0.38701366E+03</pdfrwt>
<totfact> 0.51319356E+03</totfact>
</mgrwt>
</event>
<event>
 4    1  0.5399378E-005  0.5711810E+03  0.7818608E-02  0.9967069E-01
         -2   -1    0    0    0  501 -0.00000000000E+00  0.00000000000E+00  0.83688711235E+02  0.83688711274E+02  0.25500000000E-02 0. -1.
          2   -1    0    0  501    0  0.00000000000E+00 -0.00000000000E+00 -0.97458693540E+03  0.97458693541E+03  0.25500000000E-02 0.  1.
    5000001    1    1    2    0    0  0.15532646032E+02  0.16815753701E+03 -0.14773988480E+03  0.27851444111E+03  0.16500000000E+03 0.  0.
   -5000001    1    1    2    0    0 -0.15532646032E+02 -0.16815753701E+03 -0.74315833937E+03  0.77976120557E+03  0.16500000000E+03 0.  0.
<mgrwt>
<rscale>  0 0.57118097E+03</rscale>
<asrwt>0</asrwt>
<pdfrwt beam="1">  1        2 0.13922670E+00 0.57118097E+03</pdfrwt>
<pdfrwt beam="2">  1       -2 0.11955531E-01 0.57118097E+03</pdfrwt>
<totfact> 0.14973604E+03</totfact>
</mgrwt>
</event>
<event>
 4    1  0.5399378E-005  0.4162987E+03  0.7818608E-02  0.1038278E+00
          2   -1    0    0  501    0  0.00000000000E+00  0.00000000000E+00  0.17075559089E+04  0.17075559089E+04  0.25500000000E-02 0.  1.
         -2   -1    0    0    0  501 -0.00000000000E+00 -0.00000000000E+00 -0.25373195031E+02  0.25373195159E+02  0.25500000000E-02 0. -1.
    5000001    1    1    2    0    0  0.12422009159E+03  0.22070990087E+02  0.78471942261E+03  0.81174339048E+03  0.16500000000E+03 0.  0.
   -5000001    1    1    2    0    0 -0.12422009159E+03 -0.22070990087E+02  0.89746329129E+03  0.92118571361E+03  0.16500000000E+03 0.  0.
<mgrwt>
<rscale>  0 0.41629869E+03</rscale>
<asrwt>0</asrwt>
<pdfrwt beam="1">  1        2 0.24393661E+00 0.41629869E+03</pdfrwt>
<pdfrwt beam="2">  1       -2 0.36247413E-02 0.41629869E+03</pdfrwt>
<totfact> 0.39199559E+03</totfact>
</mgrwt>
</event>
<event>
 4    1  0.5399378E-005  0.7761037E+03  0.7818608E-02  0.9595265E-01
         -2   -1    0    0    0  501 -0.00000000000E+00  0.00000000000E+00  0.48428475822E+02  0.48428475889E+02  0.25500000000E-02 0. -1.
          2   -1    0    0  501    0  0.00000000000E+00 -0.00000000000E+00 -0.31094150967E+04  0.31094150967E+04  0.25500000000E-02 0.  1.
    5000001    1    1    2    0    0 -0.21835814400E+03 -0.12296609587E+03 -0.52920837561E+03  0.60834812780E+03  0.16500000000E+03 0.  0.
   -5000001    1    1    2    0    0  0.21835814400E+03  0.12296609587E+03 -0.25317782453E+04  0.25494954448E+04  0.16500000000E+03 0.  0.
<mgrwt>
<rscale>  0 0.77610369E+03</rscale>
<asrwt>0</asrwt>
<pdfrwt beam="1">  1        2 0.44420203E+00 0.77610369E+03</pdfrwt>
<pdfrwt beam="2">  1       -2 0.69183556E-02 0.77610369E+03</pdfrwt>
<totfact> 0.26595780E+02</totfact>
</mgrwt>
</event>
<event>
 4    1  0.5399378E-005  0.4735716E+03  0.7818608E-02  0.1020917E+00
         -2   -1    0    0    0  501 -0.00000000000E+00  0.00000000000E+00  0.73957789694E+02  0.73957789738E+02  0.25500000000E-02 0. -1.
          2   -1    0    0  501    0  0.00000000000E+00 -0.00000000000E+00 -0.75810150229E+03  0.75810150229E+03  0.25500000000E-02 0.  1.
    5000001    1    1    2    0    0 -0.13406475905E+03 -0.29767445687E+02 -0.51762163444E+03  0.56037185589E+03  0.16500000000E+03 0.  0.
   -5000001    1    1    2    0    0  0.13406475905E+03  0.29767445687E+02 -0.16652207816E+03  0.27168743614E+03  0.16500000000E+03 0.  0.
<mgrwt>
<rscale>  0 0.47357158E+03</rscale>
<asrwt>0</asrwt>
<pdfrwt beam="1">  1        2 0.10830021E+00 0.47357158E+03</pdfrwt>
<pdfrwt beam="2">  1       -2 0.10565399E-01 0.47357158E+03</pdfrwt>
<totfact> 0.25455054E+03</totfact>
</mgrwt>
</event>
<event>
 4    1  0.5399378E-005  0.5118395E+03  0.7818608E-02  0.1010734E+00
         -2   -1    0    0    0  501 -0.00000000000E+00  0.00000000000E+00  0.10655639588E+03  0.10655639591E+03  0.25500000000E-02 0. -1.
          2   -1    0    0  501    0  0.00000000000E+00 -0.00000000000E+00 -0.61465019261E+03  0.61465019262E+03  0.25500000000E-02 0.  1.
    5000001    1    1    2    0    0 -0.10575317085E+03  0.15224309605E+03 -0.16595921532E+03  0.29854506291E+03  0.16500000000E+03 0.  0.
   -5000001    1    1    2    0    0  0.10575317085E+03 -0.15224309605E+03 -0.34213458141E+03  0.42266152561E+03  0.16500000000E+03 0.  0.
<mgrwt>
<rscale>  0 0.51183946E+03</rscale>
<asrwt>0</asrwt>
<pdfrwt beam="1">  1        2 0.87807168E-01 0.51183946E+03</pdfrwt>
<pdfrwt beam="2">  1       -2 0.15222343E-01 0.51183946E+03</pdfrwt>
<totfact> 0.17968615E+03</totfact>
</mgrwt>
</event>
<event>
 4    1  0.5399378E-005  0.6118245E+03  0.7818608E-02  0.9881173E-01
          2   -1    0    0  501    0  0.00000000000E+00  0.00000000000E+00  0.15522004003E+04  0.15522004003E+04  0.25500000000E-02 0.  1.
         -2   -1    0    0    0  501 -0.00000000000E+00 -0.00000000000E+00 -0.60290099071E+02  0.60290099125E+02  0.25500000000E-02 0. -1.
    5000001    1    1    2    0    0 -0.86342954184E+02  0.18317324447E+03  0.11655762425E+04  0.11944875555E+04  0.16500000000E+03 0.  0.
   -5000001    1    1    2    0    0  0.86342954184E+02 -0.18317324447E+03  0.32633405875E+03  0.41800294392E+03  0.16500000000E+03 0.  0.
<mgrwt>
<rscale>  0 0.61182454E+03</rscale>
<asrwt>0</asrwt>
<pdfrwt beam="1">  1        2 0.22174293E+00 0.61182454E+03</pdfrwt>
<pdfrwt beam="2">  1       -2 0.86128709E-02 0.61182454E+03</pdfrwt>
<totfact> 0.12171983E+03</totfact>
</mgrwt>
</event>
<event>
 4    1  0.5399378E-005  0.5543260E+03  0.7818608E-02  0.1000498E+00
         -2   -1    0    0    0  501 -0.00000000000E+00  0.00000000000E+00  0.38701397172E+02  0.38701397256E+02  0.25500000000E-02 0. -1.
          2   -1    0    0  501    0  0.00000000000E+00 -0.00000000000E+00 -0.19849242552E+04  0.19849242552E+04  0.25500000000E-02 0.  1.
    5000001    1    1    2    0    0 -0.39116365258E+02  0.21851369476E+03 -0.90821508082E+03  0.94939873492E+03  0.16500000000E+03 0.  0.
   -5000001    1    1    2    0    0  0.39116365258E+02 -0.21851369476E+03 -0.10380077772E+04  0.10742269175E+04  0.16500000000E+03 0.  0.
<mgrwt>
<rscale>  0 0.55432605E+03</rscale>
<asrwt>0</asrwt>
<pdfrwt beam="1">  1        2 0.28356054E+00 0.55432605E+03</pdfrwt>
<pdfrwt beam="2">  1       -2 0.55287723E-02 0.55432605E+03</pdfrwt>
<totfact> 0.14827742E+03</totfact>
</mgrwt>
</event>
<event>
 4    1  0.5399378E-005  0.5967520E+03  0.7818608E-02  0.9912168E-01
          2   -1    0    0  501    0  0.00000000000E+00  0.00000000000E+00  0.14004502808E+04  0.14004502808E+04  0.25500000000E-02 0.  1.
         -2   -1    0    0    0  501 -0.00000000000E+00 -0.00000000000E+00 -0.63571152506E+02  0.63571152557E+02  0.25500000000E-02 0. -1.
    5000001    1    1    2    0    0 -0.84706545342E+02 -0.18146280744E+03  0.10298297065E+04  0.10620160892E+04  0.16500000000E+03 0.  0.
   -5000001    1    1    2    0    0  0.84706545342E+02  0.18146280744E+03  0.30704942173E+03  0.40200534411E+03  0.16500000000E+03 0.  0.
<mgrwt>
<rscale>  0 0.59675200E+03</rscale>
<asrwt>0</asrwt>
<pdfrwt beam="1">  1        2 0.20006435E+00 0.59675200E+03</pdfrwt>
<pdfrwt beam="2">  1       -2 0.90815921E-02 0.59675200E+03</pdfrwt>
<totfact> 0.13431386E+03</totfact>
</mgrwt>
</event>
<event>
 4    1  0.5399378E-005  0.5102381E+03  0.7818608E-02  0.1011141E+00
         -2   -1    0    0    0  501 -0.00000000000E+00  0.00000000000E+00  0.61569123991E+03  0.61569123991E+03  0.25500000000E-02 0. -1.
          2   -1    0    0  501    0  0.00000000000E+00 -0.00000000000E+00 -0.10571164192E+03  0.10571164195E+03  0.25500000000E-02 0.  1.
    5000001    1    1    2    0    0 -0.11210504132E+03  0.80657573018E+02  0.61195932858E+02  0.22370321091E+03  0.16500000000E+03 0.  0.
   -5000001    1    1    2    0    0  0.11210504132E+03 -0.80657573018E+02  0.44878366513E+03  0.49769967095E+03  0.16500000000E+03 0.  0.
<mgrwt>
<rscale>  0 0.51023811E+03</rscale>
<asrwt>0</asrwt>
<pdfrwt beam="1">  1        2 0.15101663E-01 0.51023811E+03</pdfrwt>
<pdfrwt beam="2">  1       -2 0.87955892E-01 0.51023811E+03</pdfrwt>
<totfact> 0.44741038E+02</totfact>
</mgrwt>
</event>
<event>
 4    1  0.5399378E-005  0.3479236E+03  0.7818608E-02  0.1063471E+00
          2   -1    0    0  501    0  0.00000000000E+00  0.00000000000E+00  0.65951327703E+03  0.65951327704E+03  0.25500000000E-02 0.  1.
         -2   -1    0    0    0  501 -0.00000000000E+00 -0.00000000000E+00 -0.45886428724E+02  0.45886428795E+02  0.25500000000E-02 0. -1.
    5000001    1    1    2    0    0  0.11928302284E+02 -0.20824977790E+02  0.40740761508E+03  0.44020668887E+03  0.16500000000E+03 0.  0.
   -5000001    1    1    2    0    0 -0.11928302284E+02  0.20824977790E+02  0.20621923323E+03  0.26519301697E+03  0.16500000000E+03 0.  0.
<mgrwt>
<rscale>  0 0.34792361E+03</rscale>
<asrwt>0</asrwt>
<pdfrwt beam="1">  1        2 0.94216177E-01 0.34792361E+03</pdfrwt>
<pdfrwt beam="2">  1       -2 0.65552045E-02 0.34792361E+03</pdfrwt>
<totfact> 0.63868179E+03</totfact>
</mgrwt>
</event>
<event>
 4    1  0.5399378E-005  0.5998274E+03  0.7818608E-02  0.9905764E-01
         -2   -1    0    0    0  501 -0.00000000000E+00  0.00000000000E+00  0.40963196207E+02  0.40963196287E+02  0.25500000000E-02 0. -1.
          2   -1    0    0  501    0  0.00000000000E+00 -0.00000000000E+00 -0.21958302502E+04  0.21958302502E+04  0.25500000000E-02 0.  1.
    5000001    1    1    2    0    0  0.23497555756E+03  0.84702770840E+02 -0.10091648604E+04  0.10526285135E+04  0.16500000000E+03 0.  0.
   -5000001    1    1    2    0    0 -0.23497555756E+03 -0.84702770840E+02 -0.11457021936E+04  0.11841649330E+04  0.16500000000E+03 0.  0.
<mgrwt>
<rscale>  0 0.59982739E+03</rscale>
<asrwt>0</asrwt>
<pdfrwt beam="1">  1        2 0.31368996E+00 0.59982739E+03</pdfrwt>
<pdfrwt beam="2">  1       -2 0.58518866E-02 0.59982739E+03</pdfrwt>
<totfact> 0.10608080E+03</totfact>
</mgrwt>
</event>
<event>
 4    1  0.5399378E-005  0.3644117E+03  0.7818608E-02  0.1056851E+00
         -2   -1    0    0    0  501 -0.00000000000E+00  0.00000000000E+00  0.16033673195E+02  0.16033673397E+02  0.25500000000E-02 0. -1.
          2   -1    0    0  501    0  0.00000000000E+00 -0.00000000000E+00 -0.20705781850E+04  0.20705781850E+04  0.25500000000E-02 0.  1.
    5000001    1    1    2    0    0  0.31910806884E+02 -0.14432802197E+00 -0.62418430183E+03  0.64641268790E+03  0.16500000000E+03 0.  0.
   -5000001    1    1    2    0    0 -0.31910806884E+02  0.14432802197E+00 -0.14303602100E+04  0.14401991705E+04  0.16500000000E+03 0.  0.
<mgrwt>
<rscale>  0 0.36441171E+03</rscale>
<asrwt>0</asrwt>
<pdfrwt beam="1">  1        2 0.29579671E+00 0.36441171E+03</pdfrwt>
<pdfrwt beam="2">  1       -2 0.22905261E-02 0.36441171E+03</pdfrwt>
<totfact> 0.51629292E+03</totfact>
</mgrwt>
</event>
<event>
 4    1  0.5399378E-005  0.3909857E+03  0.7818608E-02  0.1046946E+00
          2   -1    0    0  501    0  0.00000000000E+00  0.00000000000E+00  0.11427014134E+04  0.11427014134E+04  0.25500000000E-02 0.  1.
         -2   -1    0    0    0  501 -0.00000000000E+00 -0.00000000000E+00 -0.33444833187E+02  0.33444833285E+02  0.25500000000E-02 0. -1.
    5000001    1    1    2    0    0 -0.78910828087E+02 -0.68718673052E+02  0.53483759260E+03  0.56940796032E+03  0.16500000000E+03 0.  0.
   -5000001    1    1    2    0    0  0.78910828087E+02  0.68718673052E+02  0.57441898760E+03  0.60673828635E+03  0.16500000000E+03 0.  0.
<mgrwt>
<rscale>  0 0.39098572E+03</rscale>
<asrwt>0</asrwt>
<pdfrwt beam="1">  1        2 0.16324303E+00 0.39098572E+03</pdfrwt>
<pdfrwt beam="2">  1       -2 0.47778341E-02 0.39098572E+03</pdfrwt>
<totfact> 0.50864159E+03</totfact>
</mgrwt>
</event>
<event>
 4    1  0.5399378E-005  0.5283187E+03  0.7818608E-02  0.1006641E+00
          2   -1    0    0  501    0  0.00000000000E+00  0.00000000000E+00  0.11631932649E+04  0.11631932649E+04  0.25500000000E-02 0.  1.
         -2   -1    0    0    0  501 -0.00000000000E+00 -0.00000000000E+00 -0.59990168141E+02  0.59990168195E+02  0.25500000000E-02 0. -1.
    5000001    1    1    2    0    0 -0.12260207713E+03  0.16338665933E+03  0.48495285874E+03  0.55148050280E+03  0.16500000000E+03 0.  0.
   -5000001    1    1    2    0    0  0.12260207713E+03 -0.16338665933E+03  0.61825023801E+03  0.67170293029E+03  0.16500000000E+03 0.  0.
<mgrwt>
<rscale>  0 0.52831869E+03</rscale>
<asrwt>0</asrwt>
<pdfrwt beam="1">  1        2 0.16617048E+00 0.52831869E+03</pdfrwt>
<pdfrwt beam="2">  1       -2 0.85700234E-02 0.52831869E+03</pdfrwt>
<totfact> 0.19895167E+03</totfact>
</mgrwt>
</event>
<event>
 4    1  0.5399378E-005  0.3762713E+03  0.7818608E-02  0.1052321E+00
          2   -1    0    0  501    0  0.00000000000E+00  0.00000000000E+00  0.52645931528E+03  0.52645931529E+03  0.25500000000E-02 0.  1.
         -2   -1    0    0    0  501 -0.00000000000E+00 -0.00000000000E+00 -0.67232204478E+02  0.67232204527E+02  0.25500000000E-02 0. -1.
    5000001    1    1    2    0    0 -0.83447619887E+02 -0.34001467758E+02  0.24081672324E+03  0.30551153705E+03  0.16500000000E+03 0.  0.
   -5000001    1    1    2    0    0  0.83447619887E+02  0.34001467758E+02  0.21841038756E+03  0.28817998277E+03  0.16500000000E+03 0.  0.
<mgrwt>
<rscale>  0 0.37627129E+03</rscale>
<asrwt>0</asrwt>
<pdfrwt beam="1">  1        2 0.75208475E-01 0.37627129E+03</pdfrwt>
<pdfrwt beam="2">  1       -2 0.96046005E-02 0.37627129E+03</pdfrwt>
<totfact> 0.45468491E+03</totfact>
</mgrwt>
</event>
<event>
 4    1  0.5399378E-005  0.3670322E+03  0.7818608E-02  0.1055834E+00
          2   -1    0    0  501    0  0.00000000000E+00  0.00000000000E+00  0.23106566249E+04  0.23106566249E+04  0.25500000000E-02 0.  1.
         -2   -1    0    0    0  501 -0.00000000000E+00 -0.00000000000E+00 -0.14575146125E+02  0.14575146348E+02  0.25500000000E-02 0. -1.
    5000001    1    1    2    0    0  0.20914576006E+02  0.56503131088E+02  0.14846514275E+04  0.14950066504E+04  0.16500000000E+03 0.  0.
   -5000001    1    1    2    0    0 -0.20914576006E+02 -0.56503131088E+02  0.81143005119E+03  0.83022512085E+03  0.16500000000E+03 0.  0.
<mgrwt>
<rscale>  0 0.36703220E+03</rscale>
<asrwt>0</asrwt>
<pdfrwt beam="1">  1        2 0.33009352E+00 0.36703220E+03</pdfrwt>
<pdfrwt beam="2">  1       -2 0.20821655E-02 0.36703220E+03</pdfrwt>
<totfact> 0.45255440E+03</totfact>
</mgrwt>
</event>
<event>
 4    1  0.5399378E-005  0.6936630E+03  0.7818608E-02  0.9728131E-01
         -2   -1    0    0    0  501 -0.00000000000E+00  0.00000000000E+00  0.53822589426E+02  0.53822589486E+02  0.25500000000E-02 0. -1.
          2   -1    0    0  501    0  0.00000000000E+00 -0.00000000000E+00 -0.22349739282E+04  0.22349739282E+04  0.25500000000E-02 0.  1.
    5000001    1    1    2    0    0  0.27086078445E+03  0.74552587175E+02 -0.69816929153E+03  0.77044728077E+03  0.16500000000E+03 0.  0.
   -5000001    1    1    2    0    0 -0.27086078445E+03 -0.74552587175E+02 -0.14829820472E+04  0.15183492369E+04  0.16500000000E+03 0.  0.
<mgrwt>
<rscale>  0 0.69366298E+03</rscale>
<asrwt>0</asrwt>
<pdfrwt beam="1">  1        2 0.31928193E+00 0.69366298E+03</pdfrwt>
<pdfrwt beam="2">  1       -2 0.76889427E-02 0.69366298E+03</pdfrwt>
<totfact> 0.65463275E+02</totfact>
</mgrwt>
</event>
<event>
 4    1  0.5399378E-005  0.4114572E+03  0.7818608E-02  0.1039883E+00
          2   -1    0    0  501    0  0.00000000000E+00  0.00000000000E+00  0.15777381567E+03  0.15777381569E+03  0.25500000000E-02 0.  1.
         -2   -1    0    0    0  501 -0.00000000000E+00 -0.00000000000E+00 -0.26825905787E+03  0.26825905789E+03  0.25500000000E-02 0. -1.
    5000001    1    1    2    0    0  0.11534995309E+03 -0.68414123640E+01 -0.98518394522E+02  0.22423936019E+03  0.16500000000E+03 0.  0.
   -5000001    1    1    2    0    0 -0.11534995309E+03  0.68414123640E+01 -0.11966847681E+02  0.20179351338E+03  0.16500000000E+03 0.  0.
<mgrwt>
<rscale>  0 0.41145719E+03</rscale>
<asrwt>0</asrwt>
<pdfrwt beam="1">  1        2 0.22539117E-01 0.41145719E+03</pdfrwt>
<pdfrwt beam="2">  1       -2 0.38322723E-01 0.41145719E+03</pdfrwt>
<totfact> 0.15781748E+03</totfact>
</mgrwt>
</event>
<event>
 4    1  0.5399378E-005  0.4342685E+03  0.7818608E-02  0.1032520E+00
          2   -1    0    0  501    0  0.00000000000E+00  0.00000000000E+00  0.69860076628E+03  0.69860076628E+03  0.25500000000E-02 0.  1.
         -2   -1    0    0    0  501 -0.00000000000E+00 -0.00000000000E+00 -0.67488156608E+02  0.67488156656E+02  0.25500000000E-02 0. -1.
    5000001    1    1    2    0    0 -0.11604397506E+03  0.48170857659E+02  0.42900313296E+03  0.47650322535E+03  0.16500000000E+03 0.  0.
   -5000001    1    1    2    0    0  0.11604397506E+03 -0.48170857659E+02  0.20210947670E+03  0.28958569759E+03  0.16500000000E+03 0.  0.
<mgrwt>
<rscale>  0 0.43426848E+03</rscale>
<asrwt>0</asrwt>
<pdfrwt beam="1">  1        2 0.99800110E-01 0.43426848E+03</pdfrwt>
<pdfrwt beam="2">  1       -2 0.96411651E-02 0.43426848E+03</pdfrwt>
<totfact> 0.32585500E+03</totfact>
</mgrwt>
</event>
<event>
 4    1  0.5399378E-005  0.4035968E+03  0.7818608E-02  0.1042541E+00
          2   -1    0    0  501    0  0.00000000000E+00  0.00000000000E+00  0.52915441737E+03  0.52915441738E+03  0.25500000000E-02 0.  1.
         -2   -1    0    0    0  501 -0.00000000000E+00 -0.00000000000E+00 -0.76957853691E+02  0.76957853733E+02  0.25500000000E-02 0. -1.
    5000001    1    1    2    0    0  0.96856896347E+02  0.15467573426E+02  0.31960827008E+03  0.37282026568E+03  0.16500000000E+03 0.  0.
   -5000001    1    1    2    0    0 -0.96856896347E+02 -0.15467573426E+02  0.13258829360E+03  0.23329200543E+03  0.16500000000E+03 0.  0.
<mgrwt>
<rscale>  0 0.40359677E+03</rscale>
<asrwt>0</asrwt>
<pdfrwt beam="1">  1        2 0.75593488E-01 0.40359677E+03</pdfrwt>
<pdfrwt beam="2">  1       -2 0.10993979E-01 0.40359677E+03</pdfrwt>
<totfact> 0.36431772E+03</totfact>
</mgrwt>
</event>
<event>
 4    1  0.5399378E-005  0.5589576E+03  0.7818608E-02  0.9994416E-01
         -2   -1    0    0    0  501 -0.00000000000E+00  0.00000000000E+00  0.50944618824E+02  0.50944618888E+02  0.25500000000E-02 0. -1.
          2   -1    0    0  501    0  0.00000000000E+00 -0.00000000000E+00 -0.15332021493E+04  0.15332021493E+04  0.25500000000E-02 0.  1.
    5000001    1    1    2    0    0 -0.18182876889E+03 -0.12935839661E+03 -0.64764168692E+03  0.70459921275E+03  0.16500000000E+03 0.  0.
   -5000001    1    1    2    0    0  0.18182876889E+03  0.12935839661E+03 -0.83461584360E+03  0.87954755548E+03  0.16500000000E+03 0.  0.
<mgrwt>
<rscale>  0 0.55895760E+03</rscale>
<asrwt>0</asrwt>
<pdfrwt beam="1">  1        2 0.21902885E+00 0.55895760E+03</pdfrwt>
<pdfrwt beam="2">  1       -2 0.72778037E-02 0.55895760E+03</pdfrwt>
<totfact> 0.16310203E+03</totfact>
</mgrwt>
</event>
<event>
 4    1  0.5399378E-005  0.5321018E+03  0.7818608E-02  0.1005724E+00
          2   -1    0    0  501    0  0.00000000000E+00  0.00000000000E+00  0.32175294373E+04  0.32175294373E+04  0.25500000000E-02 0.  1.
         -2   -1    0    0    0  501 -0.00000000000E+00 -0.00000000000E+00 -0.21999200271E+02  0.21999200418E+02  0.25500000000E-02 0. -1.
    5000001    1    1    2    0    0 -0.10903186365E+02 -0.15621845611E+03  0.75779577977E+03  0.79120321621E+03  0.16500000000E+03 0.  0.
   -5000001    1    1    2    0    0  0.10903186365E+02  0.15621845611E+03  0.24377344572E+04  0.24483254215E+04  0.16500000000E+03 0.  0.
<mgrwt>
<rscale>  0 0.53210177E+03</rscale>
<asrwt>0</asrwt>
<pdfrwt beam="1">  1        2 0.45964697E+00 0.53210177E+03</pdfrwt>
<pdfrwt beam="2">  1       -2 0.31427435E-02 0.53210177E+03</pdfrwt>
<totfact> 0.80606089E+02</totfact>
</mgrwt>
</event>
<event>
 4    1  0.5399378E-005  0.9280694E+03  0.7818608E-02  0.9391158E-01
          2   -1    0    0  501    0  0.00000000000E+00  0.00000000000E+00  0.90993134936E+03  0.90993134937E+03  0.25500000000E-02 0.  1.
         -2   -1    0    0    0  501 -0.00000000000E+00 -0.00000000000E+00 -0.23664225078E+03  0.23664225080E+03  0.25500000000E-02 0. -1.
    5000001    1    1    2    0    0  0.19554505533E+03  0.36025686118E+03  0.51171259539E+03  0.67608997550E+03  0.16500000000E+03 0.  0.
   -5000001    1    1    2    0    0 -0.19554505533E+03 -0.36025686118E+03  0.16157650319E+03  0.47048362466E+03  0.16500000000E+03 0.  0.
<mgrwt>
<rscale>  0 0.92806940E+03</rscale>
<asrwt>0</asrwt>
<pdfrwt beam="1">  1        2 0.12999019E+00 0.92806940E+03</pdfrwt>
<pdfrwt beam="2">  1       -2 0.33806036E-01 0.92806940E+03</pdfrwt>
<totfact> 0.26200383E+02</totfact>
</mgrwt>
</event>
<event>
 4    1  0.5399378E-005  0.8429989E+03  0.7818608E-02  0.9499782E-01
         -2   -1    0    0    0  501 -0.00000000000E+00  0.00000000000E+00  0.31852914743E+03  0.31852914744E+03  0.25500000000E-02 0. -1.
          2   -1    0    0  501    0  0.00000000000E+00 -0.00000000000E+00 -0.55775680418E+03  0.55775680419E+03  0.25500000000E-02 0.  1.
    5000001    1    1    2    0    0 -0.10097346286E+03  0.24831030968E+03  0.17178214088E+03  0.35859134683E+03  0.16500000000E+03 0.  0.
   -5000001    1    1    2    0    0  0.10097346286E+03 -0.24831030968E+03 -0.41100979762E+03  0.51769460480E+03  0.16500000000E+03 0.  0.
<mgrwt>
<rscale>  0 0.84299893E+03</rscale>
<asrwt>0</asrwt>
<pdfrwt beam="1">  1        2 0.79679543E-01 0.84299893E+03</pdfrwt>
<pdfrwt beam="2">  1       -2 0.45504164E-01 0.84299893E+03</pdfrwt>
<totfact> 0.27205206E+02</totfact>
</mgrwt>
</event>
<event>
 4    1  0.5399378E-005  0.7173413E+03  0.7818608E-02  0.9688027E-01
         -2   -1    0    0    0  501 -0.00000000000E+00  0.00000000000E+00  0.16695753080E+03  0.16695753082E+03  0.25500000000E-02 0. -1.
          2   -1    0    0  501    0  0.00000000000E+00 -0.00000000000E+00 -0.77052310906E+03  0.77052310907E+03  0.25500000000E-02 0.  1.
    5000001    1    1    2    0    0  0.29565902105E+03 -0.50282143560E+02 -0.44179060189E+03  0.55887967096E+03  0.16500000000E+03 0.  0.
   -5000001    1    1    2    0    0 -0.29565902105E+03  0.50282143560E+02 -0.16177497637E+03  0.37860096892E+03  0.16500000000E+03 0.  0.
<mgrwt>
<rscale>  0 0.71734130E+03</rscale>
<asrwt>0</asrwt>
<pdfrwt beam="1">  1        2 0.11007473E+00 0.71734130E+03</pdfrwt>
<pdfrwt beam="2">  1       -2 0.23851076E-01 0.71734130E+03</pdfrwt>
<totfact> 0.62459128E+02</totfact>
</mgrwt>
</event>
<event>
 4    1  0.5399378E-005  0.8496332E+03  0.7818608E-02  0.9490829E-01
          2   -1    0    0  501    0  0.00000000000E+00  0.00000000000E+00  0.13070526512E+04  0.13070526512E+04  0.25500000000E-02 0.  1.
         -2   -1    0    0    0  501 -0.00000000000E+00 -0.00000000000E+00 -0.13807334429E+03  0.13807334432E+03  0.25500000000E-02 0. -1.
    5000001    1    1    2    0    0  0.11794621399E+03 -0.37133450098E+03  0.51986710033E+03  0.67028905930E+03  0.16500000000E+03 0.  0.
   -5000001    1    1    2    0    0 -0.11794621399E+03  0.37133450098E+03  0.64911220659E+03  0.77483693624E+03  0.16500000000E+03 0.  0.
<mgrwt>
<rscale>  0 0.84963317E+03</rscale>
<asrwt>0</asrwt>
<pdfrwt beam="1">  1        2 0.18672180E+00 0.84963317E+03</pdfrwt>
<pdfrwt beam="2">  1       -2 0.19724764E-01 0.84963317E+03</pdfrwt>
<totfact> 0.40791664E+02</totfact>
</mgrwt>
</event>
<event>
 4    1  0.5399378E-005  0.7127894E+03  0.7818608E-02  0.9695607E-01
          2   -1    0    0  501    0  0.00000000000E+00  0.00000000000E+00  0.59933501097E+03  0.59933501097E+03  0.25500000000E-02 0.  1.
         -2   -1    0    0    0  501 -0.00000000000E+00 -0.00000000000E+00 -0.21193016108E+03  0.21193016109E+03  0.25500000000E-02 0. -1.
    5000001    1    1    2    0    0  0.17929339663E+03  0.25983335486E+03  0.18059281664E+03  0.39937233228E+03  0.16500000000E+03 0.  0.
   -5000001    1    1    2    0    0 -0.17929339663E+03 -0.25983335486E+03  0.20681203325E+03  0.41189283978E+03  0.16500000000E+03 0.  0.
<mgrwt>
<rscale>  0 0.71278935E+03</rscale>
<asrwt>0</asrwt>
<pdfrwt beam="1">  1        2 0.85619290E-01 0.71278935E+03</pdfrwt>
<pdfrwt beam="2">  1       -2 0.30275736E-01 0.71278935E+03</pdfrwt>
<totfact> 0.54994675E+02</totfact>
</mgrwt>
</event>
<event>
 4    1  0.5399378E-005  0.5189020E+03  0.7818608E-02  0.1008960E+00
         -2   -1    0    0    0  501 -0.00000000000E+00  0.00000000000E+00  0.18079330345E+04  0.18079330345E+04  0.25500000000E-02 0. -1.
          2   -1    0    0  501    0  0.00000000000E+00 -0.00000000000E+00 -0.37233021872E+02  0.37233021959E+02  0.25500000000E-02 0.  1.
    5000001    1    1    2    0    0 -0.12683346106E+03 -0.10232586660E+03  0.12990058591E+04  0.13195448200E+04  0.16500000000E+03 0.  0.
   -5000001    1    1    2    0    0  0.12683346106E+03  0.10232586660E+03  0.47169415349E+03  0.52562123650E+03  0.16500000000E+03 0.  0.
<mgrwt>
<rscale>  0 0.51890196E+03</rscale>
<asrwt>0</asrwt>
<pdfrwt beam="1">  1        2 0.53190033E-02 0.51890196E+03</pdfrwt>
<pdfrwt beam="2">  1       -2 0.25827614E+00 0.51890196E+03</pdfrwt>
<totfact> 0.91096786E+01</totfact>
</mgrwt>
</event>
<event>
 4    1  0.5399378E-005  0.3585079E+03  0.7818608E-02  0.1059176E+00
          2   -1    0    0  501    0  0.00000000000E+00  0.00000000000E+00  0.67337589710E+03  0.67337589711E+03  0.25500000000E-02 0.  1.
         -2   -1    0    0    0  501 -0.00000000000E+00 -0.00000000000E+00 -0.47717733363E+02  0.47717733431E+02  0.25500000000E-02 0. -1.
    5000001    1    1    2    0    0  0.39688060009E+02  0.22409408393E+02  0.20583514395E+03  0.26771333582E+03  0.16500000000E+03 0.  0.
   -5000001    1    1    2    0    0 -0.39688060009E+02 -0.22409408393E+02  0.41982301979E+03  0.45338029472E+03  0.16500000000E+03 0.  0.
<mgrwt>
<rscale>  0 0.35850786E+03</rscale>
<asrwt>0</asrwt>
<pdfrwt beam="1">  1        2 0.96196555E-01 0.35850786E+03</pdfrwt>
<pdfrwt beam="2">  1       -2 0.68168192E-02 0.35850786E+03</pdfrwt>
<totfact> 0.58679429E+03</totfact>
</mgrwt>
</event>
<event>
 4    1  0.5399378E-005  0.1450470E+04  0.7818608E-02  0.8918074E-01
          2   -1    0    0  501    0  0.00000000000E+00  0.00000000000E+00  0.16622140150E+04  0.16622140150E+04  0.25500000000E-02 0.  1.
         -2   -1    0    0    0  501 -0.00000000000E+00 -0.00000000000E+00 -0.31642500288E+03  0.31642500289E+03  0.25500000000E-02 0. -1.
    5000001    1    1    2    0    0  0.11108001979E+02 -0.40708649273E+03 -0.11417571098E+03  0.45398666638E+03  0.16500000000E+03 0.  0.
   -5000001    1    1    2    0    0 -0.11108001979E+02  0.40708649273E+03  0.14599647231E+04  0.15246523515E+04  0.16500000000E+03 0.  0.
<mgrwt>
<rscale>  0 0.14504704E+04</rscale>
<asrwt>0</asrwt>
<pdfrwt beam="1">  1        2 0.23745914E+00 0.14504704E+04</pdfrwt>
<pdfrwt beam="2">  1       -2 0.45203573E-01 0.14504704E+04</pdfrwt>
<totfact> 0.54073426E+01</totfact>
</mgrwt>
</event>
<event>
 4    1  0.5399378E-005  0.8176995E+03  0.7818608E-02  0.9534745E-01
          2   -1    0    0  501    0  0.00000000000E+00  0.00000000000E+00  0.14955933208E+04  0.14955933208E+04  0.25500000000E-02 0.  1.
         -2   -1    0    0    0  501 -0.00000000000E+00 -0.00000000000E+00 -0.11176708150E+03  0.11176708153E+03  0.25500000000E-02 0. -1.
    5000001    1    1    2    0    0 -0.34799458890E+03 -0.13513815677E+03  0.64495998253E+03  0.76325679452E+03  0.16500000000E+03 0.  0.
   -5000001    1    1    2    0    0  0.34799458890E+03  0.13513815677E+03  0.73886625675E+03  0.84410360779E+03  0.16500000000E+03 0.  0.
<mgrwt>
<rscale>  0 0.81769946E+03</rscale>
<asrwt>0</asrwt>
<pdfrwt beam="1">  1        2 0.21365616E+00 0.81769946E+03</pdfrwt>
<pdfrwt beam="2">  1       -2 0.15966728E-01 0.81769946E+03</pdfrwt>
<totfact> 0.46602372E+02</totfact>
</mgrwt>
</event>
<event>
 4    1  0.5399378E-005  0.8452512E+03  0.7818608E-02  0.9496733E-01
         -2   -1    0    0    0  501 -0.00000000000E+00  0.00000000000E+00  0.27800470327E+03  0.27800470328E+03  0.25500000000E-02 0. -1.
          2   -1    0    0  501    0  0.00000000000E+00 -0.00000000000E+00 -0.64247970407E+03  0.64247970408E+03  0.25500000000E-02 0.  1.
    5000001    1    1    2    0    0 -0.15551740870E+03 -0.20541487850E+03 -0.49974689783E+03  0.58596322291E+03  0.16500000000E+03 0.  0.
   -5000001    1    1    2    0    0  0.15551740870E+03  0.20541487850E+03  0.13527189703E+03  0.33452118445E+03  0.16500000000E+03 0.  0.
<mgrwt>
<rscale>  0 0.84525116E+03</rscale>
<asrwt>0</asrwt>
<pdfrwt beam="1">  1        2 0.91782814E-01 0.84525116E+03</pdfrwt>
<pdfrwt beam="2">  1       -2 0.39714958E-01 0.84525116E+03</pdfrwt>
<totfact> 0.30081444E+02</totfact>
</mgrwt>
</event>
<event>
 4    1  0.5399378E-005  0.4530977E+03  0.7818608E-02  0.1026802E+00
          2   -1    0    0  501    0  0.00000000000E+00  0.00000000000E+00  0.11888020311E+03  0.11888020313E+03  0.25500000000E-02 0.  1.
         -2   -1    0    0    0  501 -0.00000000000E+00 -0.00000000000E+00 -0.43173192335E+03  0.43173192336E+03  0.25500000000E-02 0. -1.
    5000001    1    1    2    0    0  0.13595664671E+03  0.69151518236E+02 -0.12134759833E+03  0.25537498288E+03  0.16500000000E+03 0.  0.
   -5000001    1    1    2    0    0 -0.13595664671E+03 -0.69151518236E+02 -0.19150412191E+03  0.29523714361E+03  0.16500000000E+03 0.  0.
<mgrwt>
<rscale>  0 0.45309769E+03</rscale>
<asrwt>0</asrwt>
<pdfrwt beam="1">  1        2 0.16982886E-01 0.45309769E+03</pdfrwt>
<pdfrwt beam="2">  1       -2 0.61675988E-01 0.45309769E+03</pdfrwt>
<totfact> 0.84596319E+02</totfact>
</mgrwt>
</event>
<event>
 4    1  0.5399378E-005  0.7825509E+03  0.7818608E-02  0.9585623E-01
          2   -1    0    0  501    0  0.00000000000E+00  0.00000000000E+00  0.10409690287E+04  0.10409690287E+04  0.25500000000E-02 0.  1.
         -2   -1    0    0    0  501 -0.00000000000E+00 -0.00000000000E+00 -0.14707110412E+03  0.14707110415E+03  0.25500000000E-02 0. -1.
    5000001    1    1    2    0    0  0.30201982029E+03  0.10644436320E+03  0.21508662974E+03  0.41956362163E+03  0.16500000000E+03 0.  0.
   -5000001    1    1    2    0    0 -0.30201982029E+03 -0.10644436320E+03  0.67881129487E+03  0.76847651125E+03  0.16500000000E+03 0.  0.
<mgrwt>
<rscale>  0 0.78255087E+03</rscale>
<asrwt>0</asrwt>
<pdfrwt beam="1">  1        2 0.14870987E+00 0.78255087E+03</pdfrwt>
<pdfrwt beam="2">  1       -2 0.21010157E-01 0.78255087E+03</pdfrwt>
<totfact> 0.52019534E+02</totfact>
</mgrwt>
</event>
<event>
 4    1  0.5399378E-005  0.5345606E+03  0.7818608E-02  0.1005132E+00
         -2   -1    0    0    0  501 -0.00000000000E+00  0.00000000000E+00  0.27180255318E+02  0.27180255438E+02  0.25500000000E-02 0. -1.
          2   -1    0    0  501    0  0.00000000000E+00 -0.00000000000E+00 -0.26283328995E+04  0.26283328995E+04  0.25500000000E-02 0.  1.
    5000001    1    1    2    0    0 -0.18045254540E+03 -0.88658292940E+02 -0.99473870434E+03  0.10281797041E+04  0.16500000000E+03 0.  0.
   -5000001    1    1    2    0    0  0.18045254540E+03  0.88658292940E+02 -0.16064139399E+04  0.16273334509E+04  0.16500000000E+03 0.  0.
<mgrwt>
<rscale>  0 0.53456060E+03</rscale>
<asrwt>0</asrwt>
<pdfrwt beam="1">  1        2 0.37547597E+00 0.53456060E+03</pdfrwt>
<pdfrwt beam="2">  1       -2 0.38828953E-02 0.53456060E+03</pdfrwt>
<totfact> 0.12099700E+03</totfact>
</mgrwt>
</event>
<event>
 4    1  0.5399378E-005  0.3894740E+03  0.7818608E-02  0.1047487E+00
          2   -1    0    0  501    0  0.00000000000E+00  0.00000000000E+00  0.12389104040E+04  0.12389104041E+04  0.25500000000E-02 0.  1.
         -2   -1    0    0    0  501 -0.00000000000E+00 -0.00000000000E+00 -0.30609553537E+02  0.30609553643E+02  0.25500000000E-02 0. -1.
    5000001    1    1    2    0    0 -0.34796911078E+02 -0.96564946911E+02  0.56267811340E+03  0.59528755513E+03  0.16500000000E+03 0.  0.
   -5000001    1    1    2    0    0  0.34796911078E+02  0.96564946911E+02  0.64562273712E+03  0.67423240257E+03  0.16500000000E+03 0.  0.
<mgrwt>
<rscale>  0 0.38947398E+03</rscale>
<asrwt>0</asrwt>
<pdfrwt beam="1">  1        2 0.17698716E+00 0.38947398E+03</pdfrwt>
<pdfrwt beam="2">  1       -2 0.43727943E-02 0.38947398E+03</pdfrwt>
<totfact> 0.51522885E+03</totfact>
</mgrwt>
</event>
<event>
 4    1  0.5399378E-005  0.6916771E+03  0.7818608E-02  0.9731572E-01
          2   -1    0    0  501    0  0.00000000000E+00  0.00000000000E+00  0.15500355546E+04  0.15500355547E+04  0.25500000000E-02 0.  1.
         -2   -1    0    0    0  501 -0.00000000000E+00 -0.00000000000E+00 -0.77162304264E+02  0.77162304306E+02  0.25500000000E-02 0. -1.
    5000001    1    1    2    0    0 -0.17739640919E+03 -0.17168237534E+03  0.11535399150E+04  0.11911438450E+04  0.16500000000E+03 0.  0.
   -5000001    1    1    2    0    0  0.17739640919E+03  0.17168237534E+03  0.31933333538E+03  0.43605401395E+03  0.16500000000E+03 0.  0.
<mgrwt>
<rscale>  0 0.69167714E+03</rscale>
<asrwt>0</asrwt>
<pdfrwt beam="1">  1        2 0.22143362E+00 0.69167714E+03</pdfrwt>
<pdfrwt beam="2">  1       -2 0.11023188E-01 0.69167714E+03</pdfrwt>
<totfact> 0.81536199E+02</totfact>
</mgrwt>
</event>
<event>
 4    1  0.5399378E-005  0.4922379E+03  0.7818608E-02  0.1015825E+00
         -2   -1    0    0    0  501 -0.00000000000E+00  0.00000000000E+00  0.35462042510E+03  0.35462042511E+03  0.25500000000E-02 0. -1.
          2   -1    0    0  501    0  0.00000000000E+00 -0.00000000000E+00 -0.17081512863E+03  0.17081512865E+03  0.25500000000E-02 0.  1.
    5000001    1    1    2    0    0  0.98970453769E+01 -0.16435306518E+03  0.75838116978E+01  0.23322177373E+03  0.16500000000E+03 0.  0.
   -5000001    1    1    2    0    0 -0.98970453769E+01  0.16435306518E+03  0.17622148477E+03  0.29221378003E+03  0.16500000000E+03 0.  0.
<mgrwt>
<rscale>  0 0.49223788E+03</rscale>
<asrwt>0</asrwt>
<pdfrwt beam="1">  1        2 0.24402161E-01 0.49223788E+03</pdfrwt>
<pdfrwt beam="2">  1       -2 0.50660061E-01 0.49223788E+03</pdfrwt>
<totfact> 0.83339105E+02</totfact>
</mgrwt>
</event>
<event>
 4    1  0.5399378E-005  0.4768257E+03  0.7818608E-02  0.1020011E+00
          2   -1    0    0  501    0  0.00000000000E+00  0.00000000000E+00  0.90245371508E+03  0.90245371509E+03  0.25500000000E-02 0.  1.
         -2   -1    0    0    0  501 -0.00000000000E+00 -0.00000000000E+00 -0.62984591115E+02  0.62984591166E+02  0.25500000000E-02 0. -1.
    5000001    1    1    2    0    0  0.16336041366E+03  0.39593383373E+02  0.49444143721E+03  0.54767836874E+03  0.16500000000E+03 0.  0.
   -5000001    1    1    2    0    0 -0.16336041366E+03 -0.39593383373E+02  0.34502768676E+03  0.41775993751E+03  0.16500000000E+03 0.  0.
<mgrwt>
<rscale>  0 0.47682566E+03</rscale>
<asrwt>0</asrwt>
<pdfrwt beam="1">  1        2 0.12892196E+00 0.47682566E+03</pdfrwt>
<pdfrwt beam="2">  1       -2 0.89977989E-02 0.47682566E+03</pdfrwt>
<totfact> 0.26355336E+03</totfact>
</mgrwt>
</event>
<event>
 4    1  0.5399378E-005  0.3509236E+03  0.7818608E-02  0.1062237E+00
         -2   -1    0    0    0  501 -0.00000000000E+00  0.00000000000E+00  0.28045810901E+02  0.28045811017E+02  0.25500000000E-02 0. -1.
          2   -1    0    0  501    0  0.00000000000E+00 -0.00000000000E+00 -0.10977343431E+04  0.10977343431E+04  0.25500000000E-02 0.  1.
    5000001    1    1    2    0    0  0.44831880392E+02 -0.36171848179E+02 -0.48477919580E+03  0.51531948224E+03  0.16500000000E+03 0.  0.
   -5000001    1    1    2    0    0 -0.44831880392E+02  0.36171848179E+02 -0.58490933642E+03  0.61046067190E+03  0.16500000000E+03 0.  0.
<mgrwt>
<rscale>  0 0.35092364E+03</rscale>
<asrwt>0</asrwt>
<pdfrwt beam="1">  1        2 0.15681917E+00 0.35092364E+03</pdfrwt>
<pdfrwt beam="2">  1       -2 0.40065451E-02 0.35092364E+03</pdfrwt>
<totfact> 0.70402607E+03</totfact>
</mgrwt>
</event>
<event>
 4    1  0.5399378E-005  0.3937851E+03  0.7818608E-02  0.1045953E+00
          2   -1    0    0  501    0  0.00000000000E+00  0.00000000000E+00  0.79010101281E+03  0.79010101281E+03  0.25500000000E-02 0.  1.
         -2   -1    0    0    0  501 -0.00000000000E+00 -0.00000000000E+00 -0.49065477464E+02  0.49065477530E+02  0.25500000000E-02 0. -1.
    5000001    1    1    2    0    0 -0.11718534261E+02  0.96237322783E+02  0.46916235509E+03  0.50669247258E+03  0.16500000000E+03 0.  0.
   -5000001    1    1    2    0    0  0.11718534261E+02 -0.96237322783E+02  0.27187318025E+03  0.33247401776E+03  0.16500000000E+03 0.  0.
<mgrwt>
<rscale>  0 0.39378514E+03</rscale>
<asrwt>0</asrwt>
<pdfrwt beam="1">  1        2 0.11287158E+00 0.39378514E+03</pdfrwt>
<pdfrwt beam="2">  1       -2 0.70093537E-02 0.39378514E+03</pdfrwt>
<totfact> 0.46332732E+03</totfact>
</mgrwt>
</event>
<event>
 4    1  0.5399378E-005  0.6273320E+03  0.7818608E-02  0.9850269E-01
         -2   -1    0    0    0  501 -0.00000000000E+00  0.00000000000E+00  0.89423581987E+02  0.89423582023E+02  0.25500000000E-02 0. -1.
          2   -1    0    0  501    0  0.00000000000E+00 -0.00000000000E+00 -0.11002282341E+04  0.11002282342E+04  0.25500000000E-02 0.  1.
    5000001    1    1    2    0    0 -0.19675731646E+03  0.93904409435E+02 -0.79691209877E+03  0.84251134880E+03  0.16500000000E+03 0.  0.
   -5000001    1    1    2    0    0  0.19675731646E+03 -0.93904409435E+02 -0.21389255339E+03  0.34714046738E+03  0.16500000000E+03 0.  0.
<mgrwt>
<rscale>  0 0.62733197E+03</rscale>
<asrwt>0</asrwt>
<pdfrwt beam="1">  1        2 0.15717545E+00 0.62733197E+03</pdfrwt>
<pdfrwt beam="2">  1       -2 0.12774798E-01 0.62733197E+03</pdfrwt>
<totfact> 0.11273864E+03</totfact>
</mgrwt>
</event>
<event>
 4    1  0.5399378E-005  0.7878172E+03  0.7818608E-02  0.9577821E-01
         -2   -1    0    0    0  501 -0.00000000000E+00  0.00000000000E+00  0.29248934125E+03  0.29248934126E+03  0.25500000000E-02 0. -1.
          2   -1    0    0  501    0  0.00000000000E+00 -0.00000000000E+00 -0.53049452203E+03  0.53049452204E+03  0.25500000000E-02 0.  1.
    5000001    1    1    2    0    0  0.29945738970E+03  0.93951105912E+02  0.60229586058E+02  0.35965836788E+03  0.16500000000E+03 0.  0.
   -5000001    1    1    2    0    0 -0.29945738970E+03 -0.93951105912E+02 -0.29823476685E+03  0.46332549542E+03  0.16500000000E+03 0.  0.
<mgrwt>
<rscale>  0 0.78781722E+03</rscale>
<asrwt>0</asrwt>
<pdfrwt beam="1">  1        2 0.75784931E-01 0.78781722E+03</pdfrwt>
<pdfrwt beam="2">  1       -2 0.41784192E-01 0.78781722E+03</pdfrwt>
<totfact> 0.34217424E+02</totfact>
</mgrwt>
</event>
<event>
 4    1  0.5399378E-005  0.4465557E+03  0.7818608E-02  0.1028754E+00
          2   -1    0    0  501    0  0.00000000000E+00  0.00000000000E+00  0.18831349973E+04  0.18831349973E+04  0.25500000000E-02 0.  1.
         -2   -1    0    0    0  501 -0.00000000000E+00 -0.00000000000E+00 -0.26473409296E+02  0.26473409419E+02  0.25500000000E-02 0. -1.
    5000001    1    1    2    0    0 -0.95105978018E+02 -0.11181205146E+03  0.78773711798E+03  0.81810870241E+03  0.16500000000E+03 0.  0.
   -5000001    1    1    2    0    0  0.95105978018E+02  0.11181205146E+03  0.10689244700E+04  0.10914997043E+04  0.16500000000E+03 0.  0.
<mgrwt>
<rscale>  0 0.44655572E+03</rscale>
<asrwt>0</asrwt>
<pdfrwt beam="1">  1        2 0.26901936E+00 0.44655572E+03</pdfrwt>
<pdfrwt beam="2">  1       -2 0.37819145E-02 0.44655572E+03</pdfrwt>
<totfact> 0.30020361E+03</totfact>
</mgrwt>
</event>
<event>
 4    1  0.5399378E-005  0.5594005E+03  0.7818608E-02  0.9993412E-01
          2   -1    0    0  501    0  0.00000000000E+00  0.00000000000E+00  0.24132532147E+04  0.24132532147E+04  0.25500000000E-02 0.  1.
         -2   -1    0    0    0  501 -0.00000000000E+00 -0.00000000000E+00 -0.32417747931E+02  0.32417748032E+02  0.25500000000E-02 0. -1.
    5000001    1    1    2    0    0 -0.11467370006E+03  0.12076430462E+03  0.18573824190E+04  0.18721187263E+04  0.16500000000E+03 0.  0.
   -5000001    1    1    2    0    0  0.11467370006E+03 -0.12076430462E+03  0.52345304775E+03  0.57355223647E+03  0.16500000000E+03 0.  0.
<mgrwt>
<rscale>  0 0.55940052E+03</rscale>
<asrwt>0</asrwt>
<pdfrwt beam="1">  1        2 0.34475041E+00 0.55940052E+03</pdfrwt>
<pdfrwt beam="2">  1       -2 0.46311075E-02 0.55940052E+03</pdfrwt>
<totfact> 0.11875594E+03</totfact>
</mgrwt>
</event>
<event>
 4    1  0.5399378E-005  0.3649463E+03  0.7818608E-02  0.1056642E+00
         -2   -1    0    0    0  501 -0.00000000000E+00  0.00000000000E+00  0.24146468893E+04  0.24146468893E+04  0.25500000000E-02 0. -1.
          2   -1    0    0  501    0  0.00000000000E+00 -0.00000000000E+00 -0.13789367725E+02  0.13789367961E+02  0.25500000000E-02 0.  1.
    5000001    1    1    2    0    0 -0.13290264875E+01 -0.42774116842E+02  0.16337239461E+04  0.16425925616E+04  0.16500000000E+03 0.  0.
   -5000001    1    1    2    0    0  0.13290264875E+01  0.42774116842E+02  0.76713357549E+03  0.78584369568E+03  0.16500000000E+03 0.  0.
<mgrwt>
<rscale>  0 0.36494632E+03</rscale>
<asrwt>0</asrwt>
<pdfrwt beam="1">  1        2 0.19699088E-02 0.36494632E+03</pdfrwt>
<pdfrwt beam="2">  1       -2 0.34494971E+00 0.36494632E+03</pdfrwt>
<totfact> 0.10983403E+02</totfact>
</mgrwt>
</event>
<event>
 4    1  0.5399378E-005  0.5481353E+03  0.7818608E-02  0.1001926E+00
          2   -1    0    0  501    0  0.00000000000E+00  0.00000000000E+00  0.43850593842E+03  0.43850593843E+03  0.25500000000E-02 0.  1.
         -2   -1    0    0    0  501 -0.00000000000E+00 -0.00000000000E+00 -0.17129315885E+03  0.17129315887E+03  0.25500000000E-02 0. -1.
    5000001    1    1    2    0    0  0.19519956056E+03  0.76722299119E+02  0.64140852582E+02  0.27445988522E+03  0.16500000000E+03 0.  0.
   -5000001    1    1    2    0    0 -0.19519956056E+03 -0.76722299119E+02  0.20307192699E+03  0.33533921208E+03  0.16500000000E+03 0.  0.
<mgrwt>
<rscale>  0 0.54813527E+03</rscale>
<asrwt>0</asrwt>
<pdfrwt beam="1">  1        2 0.62643705E-01 0.54813527E+03</pdfrwt>
<pdfrwt beam="2">  1       -2 0.24470452E-01 0.54813527E+03</pdfrwt>
<totfact> 0.11621886E+03</totfact>
</mgrwt>
</event>
<event>
 4    1  0.5399378E-005  0.4793814E+03  0.7818608E-02  0.1019305E+00
         -2   -1    0    0    0  501 -0.00000000000E+00  0.00000000000E+00  0.27694996068E+02  0.27694996185E+02  0.25500000000E-02 0. -1.
          2   -1    0    0  501    0  0.00000000000E+00 -0.00000000000E+00 -0.20744405877E+04  0.20744405877E+04  0.25500000000E-02 0.  1.
    5000001    1    1    2    0    0  0.12234217911E+03 -0.12249718392E+03 -0.95356078241E+03  0.98309528257E+03  0.16500000000E+03 0.  0.
   -5000001    1    1    2    0    0 -0.12234217911E+03  0.12249718392E+03 -0.10931848092E+04  0.11190403013E+04  0.16500000000E+03 0.  0.
<mgrwt>
<rscale>  0 0.47938137E+03</rscale>
<asrwt>0</asrwt>
<pdfrwt beam="1">  1        2 0.29634856E+00 0.47938137E+03</pdfrwt>
<pdfrwt beam="2">  1       -2 0.39564293E-02 0.47938137E+03</pdfrwt>
<totfact> 0.22482984E+03</totfact>
</mgrwt>
</event>
<event>
 4    1  0.5399378E-005  0.5807137E+03  0.7818608E-02  0.9946247E-01
         -2   -1    0    0    0  501 -0.00000000000E+00  0.00000000000E+00  0.74094882482E+02  0.74094882526E+02  0.25500000000E-02 0. -1.
          2   -1    0    0  501    0  0.00000000000E+00 -0.00000000000E+00 -0.11378262196E+04  0.11378262196E+04  0.25500000000E-02 0.  1.
    5000001    1    1    2    0    0  0.17523676031E+03  0.10352223821E+03 -0.27072708335E+03  0.37675314150E+03  0.16500000000E+03 0.  0.
   -5000001    1    1    2    0    0 -0.17523676031E+03 -0.10352223821E+03 -0.79300425375E+03  0.83516796062E+03  0.16500000000E+03 0.  0.
<mgrwt>
<rscale>  0 0.58071370E+03</rscale>
<asrwt>0</asrwt>
<pdfrwt beam="1">  1        2 0.16254659E+00 0.58071370E+03</pdfrwt>
<pdfrwt beam="2">  1       -2 0.10584984E-01 0.58071370E+03</pdfrwt>
<totfact> 0.14619911E+03</totfact>
</mgrwt>
</event>
<event>
 4    1  0.5399378E-005  0.6607225E+03  0.7818608E-02  0.9786865E-01
         -2   -1    0    0    0  501 -0.00000000000E+00  0.00000000000E+00  0.93236457479E+02  0.93236457514E+02  0.25500000000E-02 0. -1.
          2   -1    0    0  501    0  0.00000000000E+00 -0.00000000000E+00 -0.11705566879E+04  0.11705566879E+04  0.25500000000E-02 0.  1.
    5000001    1    1    2    0    0  0.30544707599E+02 -0.27608885543E+03 -0.67056353765E+03  0.74433762049E+03  0.16500000000E+03 0.  0.
   -5000001    1    1    2    0    0 -0.30544707599E+02  0.27608885543E+03 -0.40675669275E+03  0.51945552490E+03  0.16500000000E+03 0.  0.
<mgrwt>
<rscale>  0 0.66072251E+03</rscale>
<asrwt>0</asrwt>
<pdfrwt beam="1">  1        2 0.16722238E+00 0.66072251E+03</pdfrwt>
<pdfrwt beam="2">  1       -2 0.13319495E-01 0.66072251E+03</pdfrwt>
<totfact> 0.95730314E+02</totfact>
</mgrwt>
</event>
<event>
 4    1  0.5399378E-005  0.5340984E+03  0.7818608E-02  0.1005243E+00
         -2   -1    0    0    0  501 -0.00000000000E+00  0.00000000000E+00  0.33480201310E+02  0.33480201407E+02  0.25500000000E-02 0. -1.
          2   -1    0    0  501    0  0.00000000000E+00 -0.00000000000E+00 -0.21300731116E+04  0.21300731116E+04  0.25500000000E-02 0.  1.
    5000001    1    1    2    0    0  0.18441821166E+03  0.97145662820E+02 -0.94558359580E+03  0.98224268552E+03  0.16500000000E+03 0.  0.
   -5000001    1    1    2    0    0 -0.18441821166E+03 -0.97145662820E+02 -0.11510093145E+04  0.11813106275E+04  0.16500000000E+03 0.  0.
<mgrwt>
<rscale>  0 0.53409841E+03</rscale>
<asrwt>0</asrwt>
<pdfrwt beam="1">  1        2 0.30429607E+00 0.53409841E+03</pdfrwt>
<pdfrwt beam="2">  1       -2 0.47828873E-02 0.53409841E+03</pdfrwt>
<totfact> 0.15719080E+03</totfact>
</mgrwt>
</event>
<event>
 4    1  0.5399378E-005  0.5602117E+03  0.7818608E-02  0.9991576E-01
         -2   -1    0    0    0  501 -0.00000000000E+00  0.00000000000E+00  0.21513837224E+03  0.21513837225E+03  0.25500000000E-02 0. -1.
          2   -1    0    0  501    0  0.00000000000E+00 -0.00000000000E+00 -0.36469214818E+03  0.36469214819E+03  0.25500000000E-02 0.  1.
    5000001    1    1    2    0    0  0.22349671994E+03  0.16489941917E+02 -0.10769595906E+03  0.29840596778E+03  0.16500000000E+03 0.  0.
   -5000001    1    1    2    0    0 -0.22349671994E+03 -0.16489941917E+02 -0.41857816883E+02  0.28142455267E+03  0.16500000000E+03 0.  0.
<mgrwt>
<rscale>  0 0.56021166E+03</rscale>
<asrwt>0</asrwt>
<pdfrwt beam="1">  1        2 0.52098878E-01 0.56021166E+03</pdfrwt>
<pdfrwt beam="2">  1       -2 0.30734053E-01 0.56021166E+03</pdfrwt>
<totfact> 0.94208326E+02</totfact>
</mgrwt>
</event>
<event>
 4    1  0.5399378E-005  0.1008077E+04  0.7818608E-02  0.9299730E-01
          2   -1    0    0  501    0  0.00000000000E+00  0.00000000000E+00  0.16623703826E+04  0.16623703826E+04  0.25500000000E-02 0.  1.
         -2   -1    0    0    0  501 -0.00000000000E+00 -0.00000000000E+00 -0.15282676378E+03  0.15282676380E+03  0.25500000000E-02 0. -1.
    5000001    1    1    2    0    0  0.24142719061E+03 -0.41046666622E+03  0.74085736244E+03  0.89602712231E+03  0.16500000000E+03 0.  0.
   -5000001    1    1    2    0    0 -0.24142719061E+03  0.41046666622E+03  0.76868625639E+03  0.91917002410E+03  0.16500000000E+03 0.  0.
<mgrwt>
<rscale>  0 0.10080768E+04</rscale>
<asrwt>0</asrwt>
<pdfrwt beam="1">  1        2 0.23748147E+00 0.10080768E+04</pdfrwt>
<pdfrwt beam="2">  1       -2 0.21832396E-01 0.10080768E+04</pdfrwt>
<totfact> 0.21888109E+02</totfact>
</mgrwt>
</event>
<event>
 4    1  0.5399378E-005  0.4734393E+03  0.7818608E-02  0.1020954E+00
          2   -1    0    0  501    0  0.00000000000E+00  0.00000000000E+00  0.43457696810E+03  0.43457696811E+03  0.25500000000E-02 0.  1.
         -2   -1    0    0    0  501 -0.00000000000E+00 -0.00000000000E+00 -0.12894421146E+03  0.12894421148E+03  0.25500000000E-02 0. -1.
    5000001    1    1    2    0    0 -0.14526319405E+03 -0.67947273646E+02  0.21901255495E+03  0.31766291374E+03  0.16500000000E+03 0.  0.
   -5000001    1    1    2    0    0  0.14526319405E+03  0.67947273646E+02  0.86620201696E+02  0.24585826585E+03  0.16500000000E+03 0.  0.
<mgrwt>
<rscale>  0 0.47343927E+03</rscale>
<asrwt>0</asrwt>
<pdfrwt beam="1">  1        2 0.62082422E-01 0.47343927E+03</pdfrwt>
<pdfrwt beam="2">  1       -2 0.18420602E-01 0.47343927E+03</pdfrwt>
<totfact> 0.19287035E+03</totfact>
</mgrwt>
</event>
<event>
 4    1  0.5399378E-005  0.5196200E+03  0.7818608E-02  0.1008781E+00
         -2   -1    0    0    0  501 -0.00000000000E+00  0.00000000000E+00  0.37710750258E+02  0.37710750344E+02  0.25500000000E-02 0. -1.
          2   -1    0    0  501    0  0.00000000000E+00 -0.00000000000E+00 -0.17899732473E+04  0.17899732473E+04  0.25500000000E-02 0.  1.
    5000001    1    1    2    0    0 -0.65046443635E+02  0.18563213595E+03 -0.10162040343E+04  0.10481345186E+04  0.16500000000E+03 0.  0.
   -5000001    1    1    2    0    0  0.65046443635E+02 -0.18563213595E+03 -0.73605846274E+03  0.77954947906E+03  0.16500000000E+03 0.  0.
<mgrwt>
<rscale>  0 0.51961999E+03</rscale>
<asrwt>0</asrwt>
<pdfrwt beam="1">  1        2 0.25571041E+00 0.51961999E+03</pdfrwt>
<pdfrwt beam="2">  1       -2 0.53872512E-02 0.51961999E+03</pdfrwt>
<totfact> 0.19362321E+03</totfact>
</mgrwt>
</event>
<event>
 4    1  0.5399378E-005  0.5369097E+03  0.7818608E-02  0.1004570E+00
          2   -1    0    0  501    0  0.00000000000E+00  0.00000000000E+00  0.81542037617E+03  0.81542037618E+03  0.25500000000E-02 0.  1.
         -2   -1    0    0    0  501 -0.00000000000E+00 -0.00000000000E+00 -0.88381403118E+02  0.88381403155E+02  0.25500000000E-02 0. -1.
    5000001    1    1    2    0    0 -0.28067060445E+02 -0.19711289657E+03  0.24211173357E+03  0.35423769620E+03  0.16500000000E+03 0.  0.
   -5000001    1    1    2    0    0  0.28067060445E+02  0.19711289657E+03  0.48492723949E+03  0.54956408313E+03  0.16500000000E+03 0.  0.
<mgrwt>
<rscale>  0 0.53690966E+03</rscale>
<asrwt>0</asrwt>
<pdfrwt beam="1">  1        2 0.11648863E+00 0.53690966E+03</pdfrwt>
<pdfrwt beam="2">  1       -2 0.12625914E-01 0.53690966E+03</pdfrwt>
<totfact> 0.17355825E+03</totfact>
</mgrwt>
</event>
<event>
 4    1  0.5399378E-005  0.6853838E+03  0.7818608E-02  0.9742559E-01
         -2   -1    0    0    0  501 -0.00000000000E+00  0.00000000000E+00  0.38900123193E+03  0.38900123194E+03  0.25500000000E-02 0. -1.
          2   -1    0    0  501    0  0.00000000000E+00 -0.00000000000E+00 -0.30189558031E+03  0.30189558032E+03  0.25500000000E-02 0.  1.
    5000001    1    1    2    0    0 -0.15733649703E+03 -0.25529116649E+03  0.26553023346E+02  0.34330513546E+03  0.16500000000E+03 0.  0.
   -5000001    1    1    2    0    0  0.15733649703E+03  0.25529116649E+03  0.60552628282E+02  0.34759167680E+03  0.16500000000E+03 0.  0.
<mgrwt>
<rscale>  0 0.68538384E+03</rscale>
<asrwt>0</asrwt>
<pdfrwt beam="1">  1        2 0.43127940E-01 0.68538384E+03</pdfrwt>
<pdfrwt beam="2">  1       -2 0.55571605E-01 0.68538384E+03</pdfrwt>
<totfact> 0.36346318E+02</totfact>
</mgrwt>
</event>
<event>
 4    1  0.5399378E-005  0.1083704E+04  0.7818608E-02  0.9221222E-01
         -2   -1    0    0    0  501 -0.00000000000E+00  0.00000000000E+00  0.87686853938E+03  0.87686853938E+03  0.25500000000E-02 0. -1.
          2   -1    0    0  501    0  0.00000000000E+00 -0.00000000000E+00 -0.33483212198E+03  0.33483212199E+03  0.25500000000E-02 0.  1.
    5000001    1    1    2    0    0 -0.51202623687E+03 -0.42390269098E+01  0.34339299016E+03  0.63822612160E+03  0.16500000000E+03 0.  0.
   -5000001    1    1    2    0    0  0.51202623687E+03  0.42390269098E+01  0.19864342724E+03  0.57347453978E+03  0.16500000000E+03 0.  0.
<mgrwt>
<rscale>  0 0.10837043E+04</rscale>
<asrwt>0</asrwt>
<pdfrwt beam="1">  1        2 0.47833160E-01 0.10837043E+04</pdfrwt>
<pdfrwt beam="2">  1       -2 0.12526693E+00 0.10837043E+04</pdfrwt>
<totfact> 0.50020912E+01</totfact>
</mgrwt>
</event>
<event>
 4    1  0.5399378E-005  0.2493977E+04  0.7818608E-02  0.8405134E-01
         -2   -1    0    0    0  501 -0.00000000000E+00  0.00000000000E+00  0.58135949723E+03  0.58135949724E+03  0.25500000000E-02 0. -1.
          2   -1    0    0  501    0  0.00000000000E+00 -0.00000000000E+00 -0.26747304652E+04  0.26747304652E+04  0.25500000000E-02 0.  1.
    5000001    1    1    2    0    0  0.11462392936E+04  0.21655652684E+03 -0.51316136206E+03  0.12850372878E+04  0.16500000000E+03 0.  0.
   -5000001    1    1    2    0    0 -0.11462392936E+04 -0.21655652684E+03 -0.15802096059E+04  0.19710526746E+04  0.16500000000E+03 0.  0.
<mgrwt>
<rscale>  0 0.24939767E+04</rscale>
<asrwt>0</asrwt>
<pdfrwt beam="1">  1        2 0.38210435E+00 0.24939767E+04</pdfrwt>
<pdfrwt beam="2">  1       -2 0.83051358E-01 0.24939767E+04</pdfrwt>
<totfact> 0.40532985E+00</totfact>
</mgrwt>
</event>
<event>
 4    1  0.5399378E-005  0.5168000E+03  0.7818608E-02  0.1009485E+00
         -2   -1    0    0    0  501 -0.00000000000E+00  0.00000000000E+00  0.92431162518E+03  0.92431162518E+03  0.25500000000E-02 0. -1.
          2   -1    0    0  501    0  0.00000000000E+00 -0.00000000000E+00 -0.72238142052E+02  0.72238142097E+02  0.25500000000E-02 0.  1.
    5000001    1    1    2    0    0  0.16478123689E+03  0.74517342600E+02  0.26655893927E+03  0.36191761284E+03  0.16500000000E+03 0.  0.
   -5000001    1    1    2    0    0 -0.16478123689E+03 -0.74517342600E+02  0.58551454386E+03  0.63463215444E+03  0.16500000000E+03 0.  0.
<mgrwt>
<rscale>  0 0.51679998E+03</rscale>
<asrwt>0</asrwt>
<pdfrwt beam="1">  1        2 0.10319735E-01 0.51679998E+03</pdfrwt>
<pdfrwt beam="2">  1       -2 0.13204451E+00 0.51679998E+03</pdfrwt>
<totfact> 0.27038145E+02</totfact>
</mgrwt>
</event>
<event>
 4    1  0.5399378E-005  0.8713131E+03  0.7818608E-02  0.9462169E-01
          2   -1    0    0  501    0  0.00000000000E+00  0.00000000000E+00  0.27234312952E+03  0.27234312953E+03  0.25500000000E-02 0.  1.
         -2   -1    0    0    0  501 -0.00000000000E+00 -0.00000000000E+00 -0.69690252694E+03  0.69690252694E+03  0.25500000000E-02 0. -1.
    5000001    1    1    2    0    0  0.14526512598E+03 -0.32227125296E+03  0.34532536162E+01  0.39012516231E+03  0.16500000000E+03 0.  0.
   -5000001    1    1    2    0    0 -0.14526512598E+03  0.32227125296E+03 -0.42801265104E+03  0.57912049416E+03  0.16500000000E+03 0.  0.
<mgrwt>
<rscale>  0 0.87131307E+03</rscale>
<asrwt>0</asrwt>
<pdfrwt beam="1">  1        2 0.38906162E-01 0.87131307E+03</pdfrwt>
<pdfrwt beam="2">  1       -2 0.99557503E-01 0.87131307E+03</pdfrwt>
<totfact> 0.11141664E+02</totfact>
</mgrwt>
</event>
<event>
 4    1  0.5399378E-005  0.8792788E+03  0.7818608E-02  0.9451861E-01
         -2   -1    0    0    0  501 -0.00000000000E+00  0.00000000000E+00  0.34530509332E+03  0.34530509333E+03  0.25500000000E-02 0. -1.
          2   -1    0    0  501    0  0.00000000000E+00 -0.00000000000E+00 -0.55974500000E+03  0.55974500001E+03  0.25500000000E-02 0.  1.
    5000001    1    1    2    0    0 -0.60601504877E+02 -0.33297541173E+03  0.12639621122E+03  0.39717271988E+03  0.16500000000E+03 0.  0.
   -5000001    1    1    2    0    0  0.60601504877E+02  0.33297541173E+03 -0.34083611790E+03  0.50787737346E+03  0.16500000000E+03 0.  0.
<mgrwt>
<rscale>  0 0.87927879E+03</rscale>
<asrwt>0</asrwt>
<pdfrwt beam="1">  1        2 0.79963571E-01 0.87927879E+03</pdfrwt>
<pdfrwt beam="2">  1       -2 0.49329299E-01 0.87927879E+03</pdfrwt>
<totfact> 0.22992571E+02</totfact>
</mgrwt>
</event>
<event>
 4    1  0.5399378E-005  0.4810716E+03  0.7818608E-02  0.1018841E+00
          2   -1    0    0  501    0  0.00000000000E+00  0.00000000000E+00  0.36576169031E+02  0.36576169120E+02  0.25500000000E-02 0.  1.
         -2   -1    0    0    0  501 -0.00000000000E+00 -0.00000000000E+00 -0.15818354015E+04  0.15818354015E+04  0.25500000000E-02 0. -1.
    5000001    1    1    2    0    0  0.75712452948E+02 -0.46182579576E+02 -0.26501428287E+03  0.32453470741E+03  0.16500000000E+03 0.  0.
   -5000001    1    1    2    0    0 -0.75712452948E+02  0.46182579576E+02 -0.12802449496E+04  0.12938768632E+04  0.16500000000E+03 0.  0.
<mgrwt>
<rscale>  0 0.48107163E+03</rscale>
<asrwt>0</asrwt>
<pdfrwt beam="1">  1        2 0.52251680E-02 0.48107163E+03</pdfrwt>
<pdfrwt beam="2">  1       -2 0.22597644E+00 0.48107163E+03</pdfrwt>
<totfact> 0.14644420E+02</totfact>
</mgrwt>
</event>
<event>
 4    1  0.5399378E-005  0.4751670E+03  0.7818608E-02  0.1020472E+00
          2   -1    0    0  501    0  0.00000000000E+00  0.00000000000E+00  0.20564766055E+03  0.20564766057E+03  0.25500000000E-02 0.  1.
         -2   -1    0    0    0  501 -0.00000000000E+00 -0.00000000000E+00 -0.27447877643E+03  0.27447877644E+03  0.25500000000E-02 0. -1.
    5000001    1    1    2    0    0  0.12860738095E+03  0.40915472534E+02 -0.14042474869E+03  0.25526073801E+03  0.16500000000E+03 0.  0.
   -5000001    1    1    2    0    0 -0.12860738095E+03 -0.40915472534E+02  0.71593632806E+02  0.22486569900E+03  0.16500000000E+03 0.  0.
<mgrwt>
<rscale>  0 0.47516699E+03</rscale>
<asrwt>0</asrwt>
<pdfrwt beam="1">  1        2 0.29378237E-01 0.47516699E+03</pdfrwt>
<pdfrwt beam="2">  1       -2 0.39211254E-01 0.47516699E+03</pdfrwt>
<totfact> 0.11203878E+03</totfact>
</mgrwt>
</event>
<event>
 4    1  0.5399378E-005  0.5202983E+03  0.7818608E-02  0.1008612E+00
         -2   -1    0    0    0  501 -0.00000000000E+00  0.00000000000E+00  0.26393211307E+03  0.26393211308E+03  0.25500000000E-02 0. -1.
          2   -1    0    0  501    0  0.00000000000E+00 -0.00000000000E+00 -0.25642036408E+03  0.25642036409E+03  0.25500000000E-02 0.  1.
    5000001    1    1    2    0    0  0.16608664093E+03  0.62735967348E+01  0.11703037365E+03  0.26181145634E+03  0.16500000000E+03 0.  0.
   -5000001    1    1    2    0    0 -0.16608664093E+03 -0.62735967348E+01 -0.10951862465E+03  0.25854102084E+03  0.16500000000E+03 0.  0.
<mgrwt>
<rscale>  0 0.52029825E+03</rscale>
<asrwt>0</asrwt>
<pdfrwt beam="1">  1        2 0.36631480E-01 0.52029825E+03</pdfrwt>
<pdfrwt beam="2">  1       -2 0.37704588E-01 0.52029825E+03</pdfrwt>
<totfact> 0.94533992E+02</totfact>
</mgrwt>
</event>
<event>
 4    1  0.5399378E-005  0.5966241E+03  0.7818608E-02  0.9912435E-01
         -2   -1    0    0    0  501 -0.00000000000E+00  0.00000000000E+00  0.49637517366E+02  0.49637517431E+02  0.25500000000E-02 0. -1.
          2   -1    0    0  501    0  0.00000000000E+00 -0.00000000000E+00 -0.17927989436E+04  0.17927989436E+04  0.25500000000E-02 0.  1.
    5000001    1    1    2    0    0 -0.69515017945E+02 -0.19289850847E+03 -0.13052685794E+04  0.13315379216E+04  0.16500000000E+03 0.  0.
   -5000001    1    1    2    0    0  0.69515017945E+02  0.19289850847E+03 -0.43789284686E+03  0.51089853946E+03  0.16500000000E+03 0.  0.
<mgrwt>
<rscale>  0 0.59662413E+03</rscale>
<asrwt>0</asrwt>
<pdfrwt beam="1">  1        2 0.25611409E+00 0.59662413E+03</pdfrwt>
<pdfrwt beam="2">  1       -2 0.70910750E-02 0.59662413E+03</pdfrwt>
<totfact> 0.12509080E+03</totfact>
</mgrwt>
</event>
<event>
 4    1  0.5399378E-005  0.4166993E+03  0.7818608E-02  0.1038146E+00
          2   -1    0    0  501    0  0.00000000000E+00  0.00000000000E+00  0.39876972838E+03  0.39876972839E+03  0.25500000000E-02 0.  1.
         -2   -1    0    0    0  501 -0.00000000000E+00 -0.00000000000E+00 -0.10885876252E+03  0.10885876255E+03  0.25500000000E-02 0. -1.
    5000001    1    1    2    0    0 -0.10940427297E+03  0.53367585847E+02  0.99911493334E+02  0.22808923837E+03  0.16500000000E+03 0.  0.
   -5000001    1    1    2    0    0  0.10940427297E+03 -0.53367585847E+02  0.18999947253E+03  0.27953925256E+03  0.16500000000E+03 0.  0.
<mgrwt>
<rscale>  0 0.41669931E+03</rscale>
<asrwt>0</asrwt>
<pdfrwt beam="1">  1        2 0.56967104E-01 0.41669931E+03</pdfrwt>
<pdfrwt beam="2">  1       -2 0.15551252E-01 0.41669931E+03</pdfrwt>
<totfact> 0.28215645E+03</totfact>
</mgrwt>
</event>
<event>
 4    1  0.5399378E-005  0.4868184E+03  0.7818608E-02  0.1017278E+00
         -2   -1    0    0    0  501 -0.00000000000E+00  0.00000000000E+00  0.27708480340E+02  0.27708480457E+02  0.25500000000E-02 0. -1.
          2   -1    0    0  501    0  0.00000000000E+00 -0.00000000000E+00 -0.21382634375E+04  0.21382634375E+04  0.25500000000E-02 0.  1.
    5000001    1    1    2    0    0  0.25397973005E+02  0.17576562227E+03 -0.95735177654E+03  0.98756571176E+03  0.16500000000E+03 0.  0.
   -5000001    1    1    2    0    0 -0.25397973005E+02 -0.17576562227E+03 -0.11532031806E+04  0.11784062062E+04  0.16500000000E+03 0.  0.
<mgrwt>
<rscale>  0 0.48681837E+03</rscale>
<asrwt>0</asrwt>
<pdfrwt beam="1">  1        2 0.30546610E+00 0.48681837E+03</pdfrwt>
<pdfrwt beam="2">  1       -2 0.39583557E-02 0.48681837E+03</pdfrwt>
<totfact> 0.20871683E+03</totfact>
</mgrwt>
</event>
<event>
 4    1  0.5399378E-005  0.3667854E+03  0.7818608E-02  0.1055929E+00
         -2   -1    0    0    0  501 -0.00000000000E+00  0.00000000000E+00  0.89140502049E+01  0.89140505696E+01  0.25500000000E-02 0. -1.
          2   -1    0    0  501    0  0.00000000000E+00 -0.00000000000E+00 -0.37730195860E+04  0.37730195860E+04  0.25500000000E-02 0.  1.
    5000001    1    1    2    0    0  0.16606103452E+02 -0.76407930808E+02 -0.20588356262E+04  0.20669163191E+04  0.16500000000E+03 0.  0.
   -5000001    1    1    2    0    0 -0.16606103452E+02  0.76407930808E+02 -0.17052699096E+04  0.17150173175E+04  0.16500000000E+03 0.  0.
<mgrwt>
<rscale>  0 0.36678542E+03</rscale>
<asrwt>0</asrwt>
<pdfrwt beam="1">  1        2 0.53900178E+00 0.36678542E+03</pdfrwt>
<pdfrwt beam="2">  1       -2 0.12734382E-02 0.36678542E+03</pdfrwt>
<totfact> 0.14904774E+03</totfact>
</mgrwt>
</event>
<event>
 4    1  0.5399378E-005  0.7967158E+03  0.7818608E-02  0.9564783E-01
         -2   -1    0    0    0  501 -0.00000000000E+00  0.00000000000E+00  0.11839572875E+03  0.11839572877E+03  0.25500000000E-02 0. -1.
          2   -1    0    0  501    0  0.00000000000E+00 -0.00000000000E+00 -0.13403272293E+04  0.13403272293E+04  0.25500000000E-02 0.  1.
    5000001    1    1    2    0    0 -0.35314512729E+03  0.63693163824E+02 -0.70602769577E+03  0.80899221705E+03  0.16500000000E+03 0.  0.
   -5000001    1    1    2    0    0  0.35314512729E+03 -0.63693163824E+02 -0.51590380479E+03  0.64973074104E+03  0.16500000000E+03 0.  0.
<mgrwt>
<rscale>  0 0.79671581E+03</rscale>
<asrwt>0</asrwt>
<pdfrwt beam="1">  1        2 0.19147531E+00 0.79671581E+03</pdfrwt>
<pdfrwt beam="2">  1       -2 0.16913676E-01 0.79671581E+03</pdfrwt>
<totfact> 0.51181456E+02</totfact>
</mgrwt>
</event>
<event>
 4    1  0.5399378E-005  0.4392178E+03  0.7818608E-02  0.1030987E+00
          2   -1    0    0  501    0  0.00000000000E+00  0.00000000000E+00  0.29720685417E+04  0.29720685417E+04  0.25500000000E-02 0.  1.
         -2   -1    0    0    0  501 -0.00000000000E+00 -0.00000000000E+00 -0.16227104311E+02  0.16227104511E+02  0.25500000000E-02 0. -1.
    5000001    1    1    2    0    0  0.64140342381E+02  0.97449796835E+02  0.89293827049E+03  0.91551854232E+03  0.16500000000E+03 0.  0.
   -5000001    1    1    2    0    0 -0.64140342381E+02 -0.97449796835E+02  0.20629031668E+04  0.20727771038E+04  0.16500000000E+03 0.  0.
<mgrwt>
<rscale>  0 0.43921779E+03</rscale>
<asrwt>0</asrwt>
<pdfrwt beam="1">  1        2 0.42458101E+00 0.43921779E+03</pdfrwt>
<pdfrwt beam="2">  1       -2 0.23181589E-02 0.43921779E+03</pdfrwt>
<totfact> 0.17543261E+03</totfact>
</mgrwt>
</event>
<event>
 4    1  0.5399378E-005  0.4691642E+03  0.7818608E-02  0.1022156E+00
          2   -1    0    0  501    0  0.00000000000E+00  0.00000000000E+00  0.21195700578E+04  0.21195700579E+04  0.25500000000E-02 0.  1.
         -2   -1    0    0    0  501 -0.00000000000E+00 -0.00000000000E+00 -0.25962232101E+02  0.25962232226E+02  0.25500000000E-02 0. -1.
    5000001    1    1    2    0    0 -0.11601862676E+03  0.11974799536E+03  0.10557953483E+04  0.10815399769E+04  0.16500000000E+03 0.  0.
   -5000001    1    1    2    0    0  0.11601862676E+03 -0.11974799536E+03  0.10378124774E+04  0.10639923132E+04  0.16500000000E+03 0.  0.
<mgrwt>
<rscale>  0 0.46916424E+03</rscale>
<asrwt>0</asrwt>
<pdfrwt beam="1">  1        2 0.30279582E+00 0.46916424E+03</pdfrwt>
<pdfrwt beam="2">  1       -2 0.37088892E-02 0.46916424E+03</pdfrwt>
<totfact> 0.23569073E+03</totfact>
</mgrwt>
</event>
<event>
 4    1  0.5399378E-005  0.1068221E+04  0.7818608E-02  0.9236732E-01
          2   -1    0    0  501    0  0.00000000000E+00  0.00000000000E+00  0.12325846267E+04  0.12325846267E+04  0.25500000000E-02 0. -1.
         -2   -1    0    0    0  501 -0.00000000000E+00 -0.00000000000E+00 -0.23144371394E+03  0.23144371396E+03  0.25500000000E-02 0.  1.
    5000001    1    1    2    0    0 -0.32346619798E+03  0.39137986400E+03  0.52181961492E+03  0.74654490132E+03  0.16500000000E+03 0.  0.
   -5000001    1    1    2    0    0  0.32346619798E+03 -0.39137986400E+03  0.47932129785E+03  0.71748343935E+03  0.16500000000E+03 0.  0.
<mgrwt>
<rscale>  0 0.10682209E+04</rscale>
<asrwt>0</asrwt>
<pdfrwt beam="1">  1        2 0.17608352E+00 0.10682209E+04</pdfrwt>
<pdfrwt beam="2">  1       -2 0.33063388E-01 0.10682209E+04</pdfrwt>
<totfact> 0.17358457E+02</totfact>
</mgrwt>
</event>
<event>
 4    1  0.5399378E-005  0.4778772E+03  0.7818608E-02  0.1019720E+00
         -2   -1    0    0    0  501 -0.00000000000E+00  0.00000000000E+00  0.70938605582E+02  0.70938605627E+02  0.25500000000E-02 0. -1.
          2   -1    0    0  501    0  0.00000000000E+00 -0.00000000000E+00 -0.80480373745E+03  0.80480373745E+03  0.25500000000E-02 0.  1.
    5000001    1    1    2    0    0 -0.63985531069E+02 -0.15209265248E+03 -0.46109751813E+03  0.51678065400E+03  0.16500000000E+03 0.  0.
   -5000001    1    1    2    0    0  0.63985531069E+02  0.15209265248E+03 -0.27276761374E+03  0.35896168908E+03  0.16500000000E+03 0.  0.
<mgrwt>
<rscale>  0 0.47787720E+03</rscale>
<asrwt>0</asrwt>
<pdfrwt beam="1">  1        2 0.11497196E+00 0.47787720E+03</pdfrwt>
<pdfrwt beam="2">  1       -2 0.10134087E-01 0.47787720E+03</pdfrwt>
<totfact> 0.25260584E+03</totfact>
</mgrwt>
</event>
<event>
 4    1  0.5399378E-005  0.7413815E+03  0.7818608E-02  0.9648969E-01
         -2   -1    0    0    0  501 -0.00000000000E+00  0.00000000000E+00  0.52816578097E+03  0.52816578098E+03  0.25500000000E-02 0. -1.
          2   -1    0    0  501    0  0.00000000000E+00 -0.00000000000E+00 -0.26016763443E+03  0.26016763444E+03  0.25500000000E-02 0.  1.
    5000001    1    1    2    0    0  0.31385383754E+03  0.22281924545E+02  0.21537500475E+02  0.35593479660E+03  0.16500000000E+03 0.  0.
   -5000001    1    1    2    0    0 -0.31385383754E+03 -0.22281924545E+02  0.24646064606E+03  0.43239861882E+03  0.16500000000E+03 0.  0.
<mgrwt>
<rscale>  0 0.74138153E+03</rscale>
<asrwt>0</asrwt>
<pdfrwt beam="1">  1        2 0.37166806E-01 0.74138153E+03</pdfrwt>
<pdfrwt beam="2">  1       -2 0.75452253E-01 0.74138153E+03</pdfrwt>
<totfact> 0.22223733E+02</totfact>
</mgrwt>
</event>
<event>
 4    1  0.5399378E-005  0.7128925E+03  0.7818608E-02  0.9695435E-01
         -2   -1    0    0    0  501 -0.00000000000E+00  0.00000000000E+00  0.68811999419E+02  0.68811999466E+02  0.25500000000E-02 0. -1.
          2   -1    0    0  501    0  0.00000000000E+00 -0.00000000000E+00 -0.18463922176E+04  0.18463922176E+04  0.25500000000E-02 0.  1.
    5000001    1    1    2    0    0  0.11139715024E+03 -0.11539364976E+03 -0.16201171266E+04  0.16363769503E+04  0.16500000000E+03 0.  0.
   -5000001    1    1    2    0    0 -0.11139715024E+03  0.11539364976E+03 -0.15746309154E+03  0.27882726675E+03  0.16500000000E+03 0.  0.
<mgrwt>
<rscale>  0 0.71289253E+03</rscale>
<asrwt>0</asrwt>
<pdfrwt beam="1">  1        2 0.26377029E+00 0.71289253E+03</pdfrwt>
<pdfrwt beam="2">  1       -2 0.98302868E-02 0.71289253E+03</pdfrwt>
<totfact> 0.69222026E+02</totfact>
</mgrwt>
</event>
<event>
 4    1  0.5399378E-005  0.3981847E+03  0.7818608E-02  0.1044410E+00
         -2   -1    0    0    0  501 -0.00000000000E+00  0.00000000000E+00  0.18492541821E+02  0.18492541997E+02  0.25500000000E-02 0. -1.
          2   -1    0    0  501    0  0.00000000000E+00 -0.00000000000E+00 -0.21434457025E+04  0.21434457025E+04  0.25500000000E-02 0.  1.
    5000001    1    1    2    0    0 -0.10513964218E+03 -0.35926680733E+02 -0.10178064774E+04  0.10370632075E+04  0.16500000000E+03 0.  0.
   -5000001    1    1    2    0    0  0.10513964218E+03  0.35926680733E+02 -0.11071466832E+04  0.11248750370E+04  0.16500000000E+03 0.  0.
<mgrwt>
<rscale>  0 0.39818468E+03</rscale>
<asrwt>0</asrwt>
<pdfrwt beam="1">  1        2 0.30620637E+00 0.39818468E+03</pdfrwt>
<pdfrwt beam="2">  1       -2 0.26417931E-02 0.39818468E+03</pdfrwt>
<totfact> 0.38377296E+03</totfact>
</mgrwt>
</event>
<event>
 4    1  0.5399378E-005  0.6283233E+03  0.7818608E-02  0.9848326E-01
          2   -1    0    0  501    0  0.00000000000E+00  0.00000000000E+00  0.28390062938E+04  0.28390062938E+04  0.25500000000E-02 0.  1.
         -2   -1    0    0    0  501 -0.00000000000E+00 -0.00000000000E+00 -0.34764815440E+02  0.34764815533E+02  0.25500000000E-02 0. -1.
    5000001    1    1    2    0    0  0.19303878486E+03  0.38508978041E+01  0.22478712401E+04  0.22621734933E+04  0.16500000000E+03 0.  0.
   -5000001    1    1    2    0    0 -0.19303878486E+03 -0.38508978041E+01  0.55637023826E+03  0.61159761600E+03  0.16500000000E+03 0.  0.
<mgrwt>
<rscale>  0 0.62832326E+03</rscale>
<asrwt>0</asrwt>
<pdfrwt beam="1">  1        2 0.40557220E+00 0.62832326E+03</pdfrwt>
<pdfrwt beam="2">  1       -2 0.49664037E-02 0.62832326E+03</pdfrwt>
<totfact> 0.63692173E+02</totfact>
</mgrwt>
</event>
<event>
 4    1  0.5399378E-005  0.3953896E+03  0.7818608E-02  0.1045388E+00
          2   -1    0    0  501    0  0.00000000000E+00  0.00000000000E+00  0.91660699568E+03  0.91660699569E+03  0.25500000000E-02 0.  1.
         -2   -1    0    0    0  501 -0.00000000000E+00 -0.00000000000E+00 -0.42639034335E+02  0.42639034412E+02  0.25500000000E-02 0. -1.
    5000001    1    1    2    0    0  0.15288350313E+02 -0.10774373560E+03  0.44662469781E+03  0.48840666141E+03  0.16500000000E+03 0.  0.
   -5000001    1    1    2    0    0 -0.15288350313E+02  0.10774373560E+03  0.42734326354E+03  0.47083936869E+03  0.16500000000E+03 0.  0.
<mgrwt>
<rscale>  0 0.39538962E+03</rscale>
<asrwt>0</asrwt>
<pdfrwt beam="1">  1        2 0.13094385E+00 0.39538962E+03</pdfrwt>
<pdfrwt beam="2">  1       -2 0.60912907E-02 0.39538962E+03</pdfrwt>
<totfact> 0.47625039E+03</totfact>
</mgrwt>
</event>
<event>
 4    1  0.5399378E-005  0.6592657E+03  0.7818608E-02  0.9789546E-01
          2   -1    0    0  501    0  0.00000000000E+00  0.00000000000E+00  0.21832798421E+04  0.21832798421E+04  0.25500000000E-02 0.  1.
         -2   -1    0    0    0  501 -0.00000000000E+00 -0.00000000000E+00 -0.49768152337E+02  0.49768152402E+02  0.25500000000E-02 0. -1.
    5000001    1    1    2    0    0 -0.11039438535E+02 -0.28511096815E+03  0.10506283071E+04  0.11011153314E+04  0.16500000000E+03 0.  0.
   -5000001    1    1    2    0    0  0.11039438535E+02  0.28511096815E+03  0.10828833826E+04  0.11319326631E+04  0.16500000000E+03 0.  0.
<mgrwt>
<rscale>  0 0.65926566E+03</rscale>
<asrwt>0</asrwt>
<pdfrwt beam="1">  1        2 0.31189706E+00 0.65926566E+03</pdfrwt>
<pdfrwt beam="2">  1       -2 0.71097373E-02 0.65926566E+03</pdfrwt>
<totfact> 0.78926953E+02</totfact>
</mgrwt>
</event>
<event>
 4    1  0.5399378E-005  0.5033562E+03  0.7818608E-02  0.1012907E+00
          2   -1    0    0  501    0  0.00000000000E+00  0.00000000000E+00  0.75892167579E+03  0.75892167580E+03  0.25500000000E-02 0.  1.
         -2   -1    0    0    0  501 -0.00000000000E+00 -0.00000000000E+00 -0.83462987560E+02  0.83462987599E+02  0.25500000000E-02 0. -1.
    5000001    1    1    2    0    0  0.42005120579E+02  0.17388121743E+03  0.44511979353E+03  0.50730241328E+03  0.16500000000E+03 0.  0.
   -5000001    1    1    2    0    0 -0.42005120579E+02 -0.17388121743E+03  0.23033889471E+03  0.33508225012E+03  0.16500000000E+03 0.  0.
<mgrwt>
<rscale>  0 0.50335622E+03</rscale>
<asrwt>0</asrwt>
<pdfrwt beam="1">  1        2 0.10841739E+00 0.50335622E+03</pdfrwt>
<pdfrwt beam="2">  1       -2 0.11923283E-01 0.50335622E+03</pdfrwt>
<totfact> 0.20881527E+03</totfact>
</mgrwt>
</event>
<event>
 4    1  0.5399378E-005  0.6122396E+03  0.7818608E-02  0.9880333E-01
         -2   -1    0    0    0  501 -0.00000000000E+00  0.00000000000E+00  0.88605737186E+02  0.88605737223E+02  0.25500000000E-02 0. -1.
          2   -1    0    0  501    0  0.00000000000E+00 -0.00000000000E+00 -0.10575987986E+04  0.10575987986E+04  0.25500000000E-02 0.  1.
    5000001    1    1    2    0    0 -0.25395802336E+03  0.44245612816E+02 -0.49508193837E+03  0.58205109533E+03  0.16500000000E+03 0.  0.
   -5000001    1    1    2    0    0  0.25395802336E+03 -0.44245612816E+02 -0.47391112308E+03  0.56415344053E+03  0.16500000000E+03 0.  0.
<mgrwt>
<rscale>  0 0.61223956E+03</rscale>
<asrwt>0</asrwt>
<pdfrwt beam="1">  1        2 0.15108554E+00 0.61223956E+03</pdfrwt>
<pdfrwt beam="2">  1       -2 0.12657963E-01 0.61223956E+03</pdfrwt>
<totfact> 0.12131269E+03</totfact>
</mgrwt>
</event>
<event>
 4    1  0.5399378E-005  0.4930271E+03  0.7818608E-02  0.1015615E+00
         -2   -1    0    0    0  501 -0.00000000000E+00  0.00000000000E+00  0.61837890352E+02  0.61837890405E+02  0.25500000000E-02 0. -1.
          2   -1    0    0  501    0  0.00000000000E+00 -0.00000000000E+00 -0.98271365004E+03  0.98271365004E+03  0.25500000000E-02 0.  1.
    5000001    1    1    2    0    0 -0.44559650438E+02  0.14139913652E+03 -0.23260022627E+03  0.32141428642E+03  0.16500000000E+03 0.  0.
   -5000001    1    1    2    0    0  0.44559650438E+02 -0.14139913652E+03 -0.68827553342E+03  0.72313725403E+03  0.16500000000E+03 0.  0.
<mgrwt>
<rscale>  0 0.49302714E+03</rscale>
<asrwt>0</asrwt>
<pdfrwt beam="1">  1        2 0.14038765E+00 0.49302714E+03</pdfrwt>
<pdfrwt beam="2">  1       -2 0.88339849E-02 0.49302714E+03</pdfrwt>
<totfact> 0.24185765E+03</totfact>
</mgrwt>
</event>
<event>
 4    1  0.5399378E-005  0.4395194E+03  0.7818608E-02  0.1030894E+00
         -2   -1    0    0    0  501 -0.00000000000E+00  0.00000000000E+00  0.81771664369E+02  0.81771664409E+02  0.25500000000E-02 0. -1.
          2   -1    0    0  501    0  0.00000000000E+00 -0.00000000000E+00 -0.59059989244E+03  0.59059989244E+03  0.25500000000E-02 0.  1.
    5000001    1    1    2    0    0  0.14324827865E+03  0.23140101201E+02 -0.24873067349E+03  0.33188474137E+03  0.16500000000E+03 0.  0.
   -5000001    1    1    2    0    0 -0.14324827865E+03 -0.23140101201E+02 -0.26009755457E+03  0.34048681548E+03  0.16500000000E+03 0.  0.
<mgrwt>
<rscale>  0 0.43951945E+03</rscale>
<asrwt>0</asrwt>
<pdfrwt beam="1">  1        2 0.84371411E-01 0.43951945E+03</pdfrwt>
<pdfrwt beam="2">  1       -2 0.11681667E-01 0.43951945E+03</pdfrwt>
<totfact> 0.29143587E+03</totfact>
</mgrwt>
</event>
<event>
 4    1  0.5399378E-005  0.3827003E+03  0.7818608E-02  0.1049940E+00
          2   -1    0    0  501    0  0.00000000000E+00  0.00000000000E+00  0.33454911694E+03  0.33454911694E+03  0.25500000000E-02 0.  1.
         -2   -1    0    0    0  501 -0.00000000000E+00 -0.00000000000E+00 -0.10944543400E+03  0.10944543403E+03  0.25500000000E-02 0. -1.
    5000001    1    1    2    0    0  0.84547812644E+02  0.44669468755E+02  0.13075490953E+03  0.23122616726E+03  0.16500000000E+03 0.  0.
   -5000001    1    1    2    0    0 -0.84547812644E+02 -0.44669468755E+02  0.94348773412E+02  0.21276838371E+03  0.16500000000E+03 0.  0.
<mgrwt>
<rscale>  0 0.38270027E+03</rscale>
<asrwt>0</asrwt>
<pdfrwt beam="1">  1        2 0.47792732E-01 0.38270027E+03</pdfrwt>
<pdfrwt beam="2">  1       -2 0.15635062E-01 0.38270027E+03</pdfrwt>
<totfact> 0.33828384E+03</totfact>
</mgrwt>
</event>
<event>
 4    1  0.5399378E-005  0.3975905E+03  0.7818608E-02  0.1044617E+00
         -2   -1    0    0    0  501 -0.00000000000E+00  0.00000000000E+00  0.16137431945E+02  0.16137432146E+02  0.25500000000E-02 0. -1.
          2   -1    0    0  501    0  0.00000000000E+00 -0.00000000000E+00 -0.24489370185E+04  0.24489370185E+04  0.25500000000E-02 0.  1.
    5000001    1    1    2    0    0 -0.33256161906E+02  0.83961513117E+02 -0.16152815634E+04  0.16261964940E+04  0.16500000000E+03 0.  0.
   -5000001    1    1    2    0    0  0.33256161906E+02 -0.83961513117E+02 -0.81751802315E+03  0.83887795665E+03  0.16500000000E+03 0.  0.
<mgrwt>
<rscale>  0 0.39759052E+03</rscale>
<asrwt>0</asrwt>
<pdfrwt beam="1">  1        2 0.34984791E+00 0.39759052E+03</pdfrwt>
<pdfrwt beam="2">  1       -2 0.23053490E-02 0.39759052E+03</pdfrwt>
<totfact> 0.33122975E+03</totfact>
</mgrwt>
</event>
<event>
 4    1  0.5399378E-005  0.5121702E+03  0.7818608E-02  0.1010650E+00
          2   -1    0    0  501    0  0.00000000000E+00  0.00000000000E+00  0.15110737459E+03  0.15110737462E+03  0.25500000000E-02 0.  1.
         -2   -1    0    0    0  501 -0.00000000000E+00 -0.00000000000E+00 -0.43399323711E+03  0.43399323711E+03  0.25500000000E-02 0. -1.
    5000001    1    1    2    0    0  0.10273836657E+03 -0.13005224581E+03 -0.26063485271E+03  0.35017750507E+03  0.16500000000E+03 0.  0.
   -5000001    1    1    2    0    0 -0.10273836657E+03  0.13005224581E+03 -0.22251009798E+02  0.23492310666E+03  0.16500000000E+03 0.  0.
<mgrwt>
<rscale>  0 0.51217020E+03</rscale>
<asrwt>0</asrwt>
<pdfrwt beam="1">  1        2 0.21586768E-01 0.51217020E+03</pdfrwt>
<pdfrwt beam="2">  1       -2 0.61999033E-01 0.51217020E+03</pdfrwt>
<totfact> 0.63187115E+02</totfact>
</mgrwt>
</event>
<event>
 4    1  0.5399378E-005  0.4765316E+03  0.7818608E-02  0.1020093E+00
         -2   -1    0    0    0  501 -0.00000000000E+00  0.00000000000E+00  0.15896078229E+03  0.15896078231E+03  0.25500000000E-02 0. -1.
          2   -1    0    0  501    0  0.00000000000E+00 -0.00000000000E+00 -0.35713584670E+03  0.35713584671E+03  0.25500000000E-02 0.  1.
    5000001    1    1    2    0    0  0.30975028590E+02  0.13984416171E+03  0.38271201848E+01  0.21853029266E+03  0.16500000000E+03 0.  0.
   -5000001    1    1    2    0    0 -0.30975028590E+02 -0.13984416171E+03 -0.20200218459E+03  0.29756633637E+03  0.16500000000E+03 0.  0.
<mgrwt>
<rscale>  0 0.47653161E+03</rscale>
<asrwt>0</asrwt>
<pdfrwt beam="1">  1        2 0.51019406E-01 0.47653161E+03</pdfrwt>
<pdfrwt beam="2">  1       -2 0.22708683E-01 0.47653161E+03</pdfrwt>
<totfact> 0.16647193E+03</totfact>
</mgrwt>
</event>
<event>
 4    1  0.5399378E-005  0.4710070E+03  0.7818608E-02  0.1021636E+00
         -2   -1    0    0    0  501 -0.00000000000E+00  0.00000000000E+00  0.21504046423E+02  0.21504046574E+02  0.25500000000E-02 0. -1.
          2   -1    0    0  501    0  0.00000000000E+00 -0.00000000000E+00 -0.25791382257E+04  0.25791382257E+04  0.25500000000E-02 0.  1.
    5000001    1    1    2    0    0 -0.13945036208E+03  0.67523365405E+02 -0.91966378968E+03  0.94710732993E+03  0.16500000000E+03 0.  0.
   -5000001    1    1    2    0    0  0.13945036208E+03 -0.67523365405E+02 -0.16379703896E+04  0.16535349423E+04  0.16500000000E+03 0.  0.
<mgrwt>
<rscale>  0 0.47100704E+03</rscale>
<asrwt>0</asrwt>
<pdfrwt beam="1">  1        2 0.36844812E+00 0.47100704E+03</pdfrwt>
<pdfrwt beam="2">  1       -2 0.30720083E-02 0.47100704E+03</pdfrwt>
<totfact> 0.18401001E+03</totfact>
</mgrwt>
</event>
<event>
 4    1  0.5399378E-005  0.4289561E+03  0.7818608E-02  0.1034190E+00
          2   -1    0    0  501    0  0.00000000000E+00  0.00000000000E+00  0.14457439707E+04  0.14457439707E+04  0.25500000000E-02 0.  1.
         -2   -1    0    0    0  501 -0.00000000000E+00 -0.00000000000E+00 -0.31818098688E+02  0.31818098790E+02  0.25500000000E-02 0. -1.
    5000001    1    1    2    0    0  0.64719457796E+02 -0.95525178513E+02  0.45238837773E+03  0.49517058904E+03  0.16500000000E+03 0.  0.
   -5000001    1    1    2    0    0 -0.64719457796E+02  0.95525178513E+02  0.96153749425E+03  0.98239148042E+03  0.16500000000E+03 0.  0.
<mgrwt>
<rscale>  0 0.42895606E+03</rscale>
<asrwt>0</asrwt>
<pdfrwt beam="1">  1        2 0.20653483E+00 0.42895606E+03</pdfrwt>
<pdfrwt beam="2">  1       -2 0.45454432E-02 0.42895606E+03</pdfrwt>
<totfact> 0.37737600E+03</totfact>
</mgrwt>
</event>
<event>
 4    1  0.5399378E-005  0.6140240E+03  0.7818608E-02  0.9876730E-01
         -2   -1    0    0    0  501 -0.00000000000E+00  0.00000000000E+00  0.58225418950E+02  0.58225419006E+02  0.25500000000E-02 0. -1.
          2   -1    0    0  501    0  0.00000000000E+00 -0.00000000000E+00 -0.16188180765E+04  0.16188180765E+04  0.25500000000E-02 0.  1.
    5000001    1    1    2    0    0 -0.23652294346E+03 -0.58899203758E+02 -0.10186994980E+04  0.10603706362E+04  0.16500000000E+03 0.  0.
   -5000001    1    1    2    0    0  0.23652294346E+03  0.58899203758E+02 -0.54189315958E+03  0.61667285929E+03  0.16500000000E+03 0.  0.
<mgrwt>
<rscale>  0 0.61402398E+03</rscale>
<asrwt>0</asrwt>
<pdfrwt beam="1">  1        2 0.23125970E+00 0.61402398E+03</pdfrwt>
<pdfrwt beam="2">  1       -2 0.83179180E-02 0.61402398E+03</pdfrwt>
<totfact> 0.11891063E+03</totfact>
</mgrwt>
</event>
<event>
 4    1  0.5399378E-005  0.1173253E+04  0.7818608E-02  0.9136595E-01
          2   -1    0    0  501    0  0.00000000000E+00  0.00000000000E+00  0.38832641662E+03  0.38832641663E+03  0.25500000000E-02 0.  1.
         -2   -1    0    0    0  501 -0.00000000000E+00 -0.00000000000E+00 -0.88618961605E+03  0.88618961606E+03  0.25500000000E-02 0. -1.
    5000001    1    1    2    0    0  0.43650753968E+03 -0.15422640862E+03 -0.59685804725E+03  0.77316825199E+03  0.16500000000E+03 0.  0.
   -5000001    1    1    2    0    0 -0.43650753968E+03  0.15422640862E+03  0.98994847816E+02  0.50134778070E+03  0.16500000000E+03 0.  0.
<mgrwt>
<rscale>  0 0.11732533E+04</rscale>
<asrwt>0</asrwt>
<pdfrwt beam="1">  1        2 0.55475203E-01 0.11732533E+04</pdfrwt>
<pdfrwt beam="2">  1       -2 0.12659852E+00 0.11732533E+04</pdfrwt>
<totfact> 0.41057363E+01</totfact>
</mgrwt>
</event>
<event>
 4    1  0.5399378E-005  0.1098426E+04  0.7818608E-02  0.9206727E-01
          2   -1    0    0  501    0  0.00000000000E+00  0.00000000000E+00  0.25900397570E+04  0.25900397570E+04  0.25500000000E-02 0.  1.
         -2   -1    0    0    0  501 -0.00000000000E+00 -0.00000000000E+00 -0.11645956151E+03  0.11645956154E+03  0.25500000000E-02 0. -1.
    5000001    1    1    2    0    0  0.45843037861E+02  0.50934492882E+03  0.15163845353E+04  0.16087824276E+04  0.16500000000E+03 0.  0.
   -5000001    1    1    2    0    0 -0.45843037861E+02 -0.50934492882E+03  0.95719566022E+03  0.10977168909E+04  0.16500000000E+03 0.  0.
<mgrwt>
<rscale>  0 0.10984260E+04</rscale>
<asrwt>0</asrwt>
<pdfrwt beam="1">  1        2 0.37000569E+00 0.10984260E+04</pdfrwt>
<pdfrwt beam="2">  1       -2 0.16637080E-01 0.10984260E+04</pdfrwt>
<totfact> 0.11632633E+02</totfact>
</mgrwt>
</event>
<event>
 4    1  0.5399378E-005  0.5687760E+03  0.7818608E-02  0.9972391E-01
         -2   -1    0    0    0  501 -0.00000000000E+00  0.00000000000E+00  0.16398771694E+03  0.16398771696E+03  0.25500000000E-02 0. -1.
          2   -1    0    0  501    0  0.00000000000E+00 -0.00000000000E+00 -0.49318660248E+03  0.49318660249E+03  0.25500000000E-02 0.  1.
    5000001    1    1    2    0    0 -0.22504177864E+03 -0.15773747331E+01 -0.22793971684E+03  0.36031625658E+03  0.16500000000E+03 0.  0.
   -5000001    1    1    2    0    0  0.22504177864E+03  0.15773747331E+01 -0.10125916870E+03  0.29685806287E+03  0.16500000000E+03 0.  0.
<mgrwt>
<rscale>  0 0.56877604E+03</rscale>
<asrwt>0</asrwt>
<pdfrwt beam="1">  1        2 0.70455228E-01 0.56877604E+03</pdfrwt>
<pdfrwt beam="2">  1       -2 0.23426817E-01 0.56877604E+03</pdfrwt>
<totfact> 0.11004263E+03</totfact>
</mgrwt>
</event>
<event>
 4    1  0.5399378E-005  0.8644290E+03  0.7818608E-02  0.9471173E-01
         -2   -1    0    0    0  501 -0.00000000000E+00  0.00000000000E+00  0.21906574858E+03  0.21906574859E+03  0.25500000000E-02 0. -1.
          2   -1    0    0  501    0  0.00000000000E+00 -0.00000000000E+00 -0.85275486235E+03  0.85275486235E+03  0.25500000000E-02 0.  1.
    5000001    1    1    2    0    0 -0.33521489744E+03 -0.21642116451E+03 -0.29276223305E+03  0.52167218923E+03  0.16500000000E+03 0.  0.
   -5000001    1    1    2    0    0  0.33521489744E+03  0.21642116451E+03 -0.34092688072E+03  0.55014842171E+03  0.16500000000E+03 0.  0.
<mgrwt>
<rscale>  0 0.86442902E+03</rscale>
<asrwt>0</asrwt>
<pdfrwt beam="1">  1        2 0.12182212E+00 0.86442902E+03</pdfrwt>
<pdfrwt beam="2">  1       -2 0.31295107E-01 0.86442902E+03</pdfrwt>
<totfact> 0.33150559E+02</totfact>
</mgrwt>
</event>
<event>
 4    1  0.5399378E-005  0.3743354E+03  0.7818608E-02  0.1053047E+00
          2   -1    0    0  501    0  0.00000000000E+00  0.00000000000E+00  0.23187487695E+04  0.23187487695E+04  0.25500000000E-02 0.  1.
         -2   -1    0    0    0  501 -0.00000000000E+00 -0.00000000000E+00 -0.15108041906E+02  0.15108042122E+02  0.25500000000E-02 0. -1.
    5000001    1    1    2    0    0  0.23451868500E+01 -0.71246908210E+02  0.14772874258E+04  0.14881816959E+04  0.16500000000E+03 0.  0.
   -5000001    1    1    2    0    0 -0.23451868500E+01  0.71246908210E+02  0.82635330188E+03  0.84567511572E+03  0.16500000000E+03 0.  0.
<mgrwt>
<rscale>  0 0.37433543E+03</rscale>
<asrwt>0</asrwt>
<pdfrwt beam="1">  1        2 0.33124981E+00 0.37433543E+03</pdfrwt>
<pdfrwt beam="2">  1       -2 0.21582918E-02 0.37433543E+03</pdfrwt>
<totfact> 0.42498463E+03</totfact>
</mgrwt>
</event>
<event>
 4    1  0.5399378E-005  0.6214797E+03  0.7818608E-02  0.9861818E-01
          2   -1    0    0  501    0  0.00000000000E+00  0.00000000000E+00  0.39225795543E+03  0.39225795544E+03  0.25500000000E-02 0.  1.
         -2   -1    0    0    0  501 -0.00000000000E+00 -0.00000000000E+00 -0.24616264404E+03  0.24616264405E+03  0.25500000000E-02 0. -1.
    5000001    1    1    2    0    0 -0.11117710727E+03 -0.19886776185E+03 -0.62556440961E+02  0.28817884063E+03  0.16500000000E+03 0.  0.
   -5000001    1    1    2    0    0  0.11117710727E+03  0.19886776185E+03  0.20865175235E+03  0.35024175885E+03  0.16500000000E+03 0.  0.
<mgrwt>
<rscale>  0 0.62147970E+03</rscale>
<asrwt>0</asrwt>
<pdfrwt beam="1">  1        2 0.56036851E-01 0.62147970E+03</pdfrwt>
<pdfrwt beam="2">  1       -2 0.35166092E-01 0.62147970E+03</pdfrwt>
<totfact> 0.67456706E+02</totfact>
</mgrwt>
</event>
<event>
 4    1  0.5399378E-005  0.5661175E+03  0.7818608E-02  0.9978307E-01
          2   -1    0    0  501    0  0.00000000000E+00  0.00000000000E+00  0.77268146129E+03  0.77268146129E+03  0.25500000000E-02 0.  1.
         -2   -1    0    0    0  501 -0.00000000000E+00 -0.00000000000E+00 -0.10369377572E+03  0.10369377575E+03  0.25500000000E-02 0. -1.
    5000001    1    1    2    0    0 -0.16154463070E+03  0.10960174863E+03  0.14624213495E+03  0.29448424923E+03  0.16500000000E+03 0.  0.
   -5000001    1    1    2    0    0  0.16154463070E+03 -0.10960174863E+03  0.52274555062E+03  0.58189098781E+03  0.16500000000E+03 0.  0.
<mgrwt>
<rscale>  0 0.56611751E+03</rscale>
<asrwt>0</asrwt>
<pdfrwt beam="1">  1        2 0.11038307E+00 0.56611751E+03</pdfrwt>
<pdfrwt beam="2">  1       -2 0.14813396E-01 0.56611751E+03</pdfrwt>
<totfact> 0.14241210E+03</totfact>
</mgrwt>
</event>
<event>
 4    1  0.5399378E-005  0.5866134E+03  0.7818608E-02  0.9933575E-01
          2   -1    0    0  501    0  0.00000000000E+00  0.00000000000E+00  0.11589972208E+04  0.11589972208E+04  0.25500000000E-02 0.  1.
         -2   -1    0    0    0  501 -0.00000000000E+00 -0.00000000000E+00 -0.74226935365E+02  0.74226935409E+02  0.25500000000E-02 0. -1.
    5000001    1    1    2    0    0  0.13969768149E+03 -0.27053248975E+02  0.12958597029E+03  0.25350511669E+03  0.16500000000E+03 0.  0.
   -5000001    1    1    2    0    0 -0.13969768149E+03  0.27053248975E+02  0.95518431514E+03  0.97971903951E+03  0.16500000000E+03 0.  0.
<mgrwt>
<rscale>  0 0.58661337E+03</rscale>
<asrwt>0</asrwt>
<pdfrwt beam="1">  1        2 0.16557103E+00 0.58661337E+03</pdfrwt>
<pdfrwt beam="2">  1       -2 0.10603848E-01 0.58661337E+03</pdfrwt>
<totfact> 0.14176135E+03</totfact>
</mgrwt>
</event>
<event>
 4    1  0.5399378E-005  0.3606585E+03  0.7818608E-02  0.1058323E+00
          2   -1    0    0  501    0  0.00000000000E+00  0.00000000000E+00  0.22097884510E+03  0.22097884512E+03  0.25500000000E-02 0.  1.
         -2   -1    0    0    0  501 -0.00000000000E+00 -0.00000000000E+00 -0.14715727058E+03  0.14715727060E+03  0.25500000000E-02 0. -1.
    5000001    1    1    2    0    0  0.15398942955E+02  0.69302529644E+02  0.53168206624E+02  0.18732812457E+03  0.16500000000E+03 0.  0.
   -5000001    1    1    2    0    0 -0.15398942955E+02 -0.69302529644E+02  0.20653367898E+02  0.18080799115E+03  0.16500000000E+03 0.  0.
<mgrwt>
<rscale>  0 0.36065853E+03</rscale>
<asrwt>0</asrwt>
<pdfrwt beam="1">  1        2 0.31568406E-01 0.36065853E+03</pdfrwt>
<pdfrwt beam="2">  1       -2 0.21022467E-01 0.36065853E+03</pdfrwt>
<totfact> 0.32112227E+03</totfact>
</mgrwt>
</event>
<event>
 4    1  0.5399378E-005  0.5611091E+03  0.7818608E-02  0.9989548E-01
          2   -1    0    0  501    0  0.00000000000E+00  0.00000000000E+00  0.18444991911E+04  0.18444991911E+04  0.25500000000E-02 0.  1.
         -2   -1    0    0    0  501 -0.00000000000E+00 -0.00000000000E+00 -0.42673288188E+02  0.42673288265E+02  0.25500000000E-02 0. -1.
    5000001    1    1    2    0    0 -0.19582813750E+03  0.11460232444E+03  0.90719916909E+03  0.94958816578E+03  0.16500000000E+03 0.  0.
   -5000001    1    1    2    0    0  0.19582813750E+03 -0.11460232444E+03  0.89462673378E+03  0.93758431354E+03  0.16500000000E+03 0.  0.
<mgrwt>
<rscale>  0 0.56110906E+03</rscale>
<asrwt>0</asrwt>
<pdfrwt beam="1">  1        2 0.26349995E+00 0.56110906E+03</pdfrwt>
<pdfrwt beam="2">  1       -2 0.60961824E-02 0.56110906E+03</pdfrwt>
<totfact> 0.14967780E+03</totfact>
</mgrwt>
</event>
<event>
 4    1  0.5399378E-005  0.5963244E+03  0.7818608E-02  0.9913061E-01
         -2   -1    0    0    0  501 -0.00000000000E+00  0.00000000000E+00  0.65812497693E+02  0.65812497743E+02  0.25500000000E-02 0. -1.
          2   -1    0    0  501    0  0.00000000000E+00 -0.00000000000E+00 -0.13508178273E+04  0.13508178273E+04  0.25500000000E-02 0.  1.
    5000001    1    1    2    0    0  0.96784241220E+02  0.22086552344E+03 -0.50142048608E+03  0.58034151381E+03  0.16500000000E+03 0.  0.
   -5000001    1    1    2    0    0 -0.96784241220E+02 -0.22086552344E+03 -0.78358484356E+03  0.83628881127E+03  0.16500000000E+03 0.  0.
<mgrwt>
<rscale>  0 0.59632439E+03</rscale>
<asrwt>0</asrwt>
<pdfrwt beam="1">  1        2 0.19297396E+00 0.59632439E+03</pdfrwt>
<pdfrwt beam="2">  1       -2 0.94017862E-02 0.59632439E+03</pdfrwt>
<totfact> 0.13501464E+03</totfact>
</mgrwt>
</event>
<event>
 4    1  0.5399378E-005  0.5555977E+03  0.7818608E-02  0.1000207E+00
          2   -1    0    0  501    0  0.00000000000E+00  0.00000000000E+00  0.14644353013E+04  0.14644353013E+04  0.25500000000E-02 0.  1.
         -2   -1    0    0    0  501 -0.00000000000E+00 -0.00000000000E+00 -0.52697578585E+02  0.52697578646E+02  0.25500000000E-02 0. -1.
    5000001    1    1    2    0    0 -0.18948144261E+03 -0.11825772550E+03  0.72685882517E+03  0.77809823188E+03  0.16500000000E+03 0.  0.
   -5000001    1    1    2    0    0  0.18948144261E+03  0.11825772550E+03  0.68487889756E+03  0.73903464808E+03  0.16500000000E+03 0.  0.
<mgrwt>
<rscale>  0 0.55559768E+03</rscale>
<asrwt>0</asrwt>
<pdfrwt beam="1">  1        2 0.20920507E+00 0.55559768E+03</pdfrwt>
<pdfrwt beam="2">  1       -2 0.75282245E-02 0.55559768E+03</pdfrwt>
<totfact> 0.16788049E+03</totfact>
</mgrwt>
</event>
<event>
 4    1  0.5399378E-005  0.5143126E+03  0.7818608E-02  0.1010109E+00
          2   -1    0    0  501    0  0.00000000000E+00  0.00000000000E+00  0.66493070154E+03  0.66493070154E+03  0.25500000000E-02 0.  1.
         -2   -1    0    0    0  501 -0.00000000000E+00 -0.00000000000E+00 -0.99453032022E+02  0.99453032055E+02  0.25500000000E-02 0. -1.
    5000001    1    1    2    0    0 -0.10207331437E+03  0.15832463057E+03  0.19583953678E+03  0.31790529143E+03  0.16500000000E+03 0.  0.
   -5000001    1    1    2    0    0  0.10207331437E+03 -0.15832463057E+03  0.36963813273E+03  0.44647844217E+03  0.16500000000E+03 0.  0.
<mgrwt>
<rscale>  0 0.51431265E+03</rscale>
<asrwt>0</asrwt>
<pdfrwt beam="1">  1        2 0.94990099E-01 0.51431265E+03</pdfrwt>
<pdfrwt beam="2">  1       -2 0.14207576E-01 0.51431265E+03</pdfrwt>
<totfact> 0.18370245E+03</totfact>
</mgrwt>
</event>
<event>
 4    1  0.5399378E-005  0.7590008E+03  0.7818608E-02  0.9621334E-01
          2   -1    0    0  501    0  0.00000000000E+00  0.00000000000E+00  0.13158987978E+04  0.13158987979E+04  0.25500000000E-02 0.  1.
         -2   -1    0    0    0  501 -0.00000000000E+00 -0.00000000000E+00 -0.10944652631E+03  0.10944652634E+03  0.25500000000E-02 0. -1.
    5000001    1    1    2    0    0  0.26093947218E+03  0.36892558977E+02  0.19461019390E+03  0.36680866487E+03  0.16500000000E+03 0.  0.
   -5000001    1    1    2    0    0 -0.26093947218E+03 -0.36892558977E+02  0.10118420776E+04  0.10585366593E+04  0.16500000000E+03 0.  0.
<mgrwt>
<rscale>  0 0.75900080E+03</rscale>
<asrwt>0</asrwt>
<pdfrwt beam="1">  1        2 0.18798555E+00 0.75900080E+03</pdfrwt>
<pdfrwt beam="2">  1       -2 0.15635218E-01 0.75900080E+03</pdfrwt>
<totfact> 0.60453227E+02</totfact>
</mgrwt>
</event>
<event>
 4    1  0.5399378E-005  0.4211417E+03  0.7818608E-02  0.1036695E+00
          2   -1    0    0  501    0  0.00000000000E+00  0.00000000000E+00  0.18163566573E+04  0.18163566573E+04  0.25500000000E-02 0.  1.
         -2   -1    0    0    0  501 -0.00000000000E+00 -0.00000000000E+00 -0.24411548774E+02  0.24411548907E+02  0.25500000000E-02 0. -1.
    5000001    1    1    2    0    0 -0.72666771747E+02  0.99595082193E+02  0.10872681871E+04  0.11066059601E+04  0.16500000000E+03 0.  0.
   -5000001    1    1    2    0    0  0.72666771747E+02 -0.99595082193E+02  0.70467692145E+03  0.73416224619E+03  0.16500000000E+03 0.  0.
<mgrwt>
<rscale>  0 0.42114168E+03</rscale>
<asrwt>0</asrwt>
<pdfrwt beam="1">  1        2 0.25947948E+00 0.42114168E+03</pdfrwt>
<pdfrwt beam="2">  1       -2 0.34873648E-02 0.42114168E+03</pdfrwt>
<totfact> 0.36672759E+03</totfact>
</mgrwt>
</event>
<event>
 4    1  0.5399378E-005  0.7462904E+03  0.7818608E-02  0.9641188E-01
          2   -1    0    0  501    0  0.00000000000E+00  0.00000000000E+00  0.14856344027E+04  0.14856344027E+04  0.25500000000E-02 0.  1.
         -2   -1    0    0    0  501 -0.00000000000E+00 -0.00000000000E+00 -0.93722473482E+02  0.93722473517E+02  0.25500000000E-02 0. -1.
    5000001    1    1    2    0    0  0.31573085714E+03 -0.51794332128E+01  0.93065791459E+03  0.99652493931E+03  0.16500000000E+03 0.  0.
   -5000001    1    1    2    0    0 -0.31573085714E+03  0.51794332128E+01  0.46125401466E+03  0.58283193694E+03  0.16500000000E+03 0.  0.
<mgrwt>
<rscale>  0 0.74629037E+03</rscale>
<asrwt>0</asrwt>
<pdfrwt beam="1">  1        2 0.21223349E+00 0.74629037E+03</pdfrwt>
<pdfrwt beam="2">  1       -2 0.13388925E-01 0.74629037E+03</pdfrwt>
<totfact> 0.63715074E+02</totfact>
</mgrwt>
</event>
<event>
 4    1  0.5399378E-005  0.6328222E+03  0.7818608E-02  0.9839557E-01
         -2   -1    0    0    0  501 -0.00000000000E+00  0.00000000000E+00  0.41695674635E+02  0.41695674713E+02  0.25500000000E-02 0. -1.
          2   -1    0    0  501    0  0.00000000000E+00 -0.00000000000E+00 -0.24011117513E+04  0.24011117513E+04  0.25500000000E-02 0.  1.
    5000001    1    1    2    0    0  0.26975729649E+03  0.99768915351E+01 -0.11979928543E+04  0.12390643310E+04  0.16500000000E+03 0.  0.
   -5000001    1    1    2    0    0 -0.26975729649E+03 -0.99768915351E+01 -0.11614232224E+04  0.12037430951E+04  0.16500000000E+03 0.  0.
<mgrwt>
<rscale>  0 0.63282217E+03</rscale>
<asrwt>0</asrwt>
<pdfrwt beam="1">  1        2 0.34301588E+00 0.63282217E+03</pdfrwt>
<pdfrwt beam="2">  1       -2 0.59565265E-02 0.63282217E+03</pdfrwt>
<totfact> 0.81028642E+02</totfact>
</mgrwt>
</event>
<event>
 4    1  0.5399378E-005  0.9524364E+03  0.7818608E-02  0.9362307E-01
         -2   -1    0    0    0  501 -0.00000000000E+00  0.00000000000E+00  0.20128280020E+03  0.20128280022E+03  0.25500000000E-02 0. -1.
          2   -1    0    0  501    0  0.00000000000E+00 -0.00000000000E+00 -0.11266923065E+04  0.11266923065E+04  0.25500000000E-02 0.  1.
    5000001    1    1    2    0    0 -0.41846500176E+03  0.45120972677E+02 -0.67142958462E+03  0.80943903228E+03  0.16500000000E+03 0.  0.
   -5000001    1    1    2    0    0  0.41846500176E+03 -0.45120972677E+02 -0.25397992167E+03  0.51853607443E+03  0.16500000000E+03 0.  0.
<mgrwt>
<rscale>  0 0.95243642E+03</rscale>
<asrwt>0</asrwt>
<pdfrwt beam="1">  1        2 0.16095604E+00 0.95243642E+03</pdfrwt>
<pdfrwt beam="2">  1       -2 0.28754686E-01 0.95243642E+03</pdfrwt>
<totfact> 0.26079865E+02</totfact>
</mgrwt>
</event>
<event>
 4    1  0.5399378E-005  0.5794506E+03  0.7818608E-02  0.9948981E-01
         -2   -1    0    0    0  501 -0.00000000000E+00  0.00000000000E+00  0.40388122159E+02  0.40388122240E+02  0.25500000000E-02 0. -1.
          2   -1    0    0  501    0  0.00000000000E+00 -0.00000000000E+00 -0.20783522018E+04  0.20783522018E+04  0.25500000000E-02 0.  1.
    5000001    1    1    2    0    0 -0.14378780899E+03 -0.18952058358E+03 -0.97846995235E+03  0.10204025839E+04  0.16500000000E+03 0.  0.
   -5000001    1    1    2    0    0  0.14378780899E+03  0.18952058358E+03 -0.10594941273E+04  0.10983377401E+04  0.16500000000E+03 0.  0.
<mgrwt>
<rscale>  0 0.57945058E+03</rscale>
<asrwt>0</asrwt>
<pdfrwt beam="1">  1        2 0.29690739E+00 0.57945058E+03</pdfrwt>
<pdfrwt beam="2">  1       -2 0.57697330E-02 0.57945058E+03</pdfrwt>
<totfact> 0.12439389E+03</totfact>
</mgrwt>
</event>
<event>
 4    1  0.5399378E-005  0.9962951E+03  0.7818608E-02  0.9312618E-01
         -2   -1    0    0    0  501 -0.00000000000E+00  0.00000000000E+00  0.74601860080E+02  0.74601860124E+02  0.25500000000E-02 0. -1.
          2   -1    0    0  501    0  0.00000000000E+00 -0.00000000000E+00 -0.33263377633E+04  0.33263377633E+04  0.25500000000E-02 0.  1.
    5000001    1    1    2    0    0  0.15444185061E+03 -0.16542099050E+03 -0.21961280844E+03  0.35590894193E+03  0.16500000000E+03 0.  0.
   -5000001    1    1    2    0    0 -0.15444185061E+03  0.16542099050E+03 -0.30321230948E+04  0.30450306815E+04  0.16500000000E+03 0.  0.
<mgrwt>
<rscale>  0 0.99629511E+03</rscale>
<asrwt>0</asrwt>
<pdfrwt beam="1">  1        2 0.47519102E+00 0.99629511E+03</pdfrwt>
<pdfrwt beam="2">  1       -2 0.10657411E-01 0.99629511E+03</pdfrwt>
<totfact> 0.97457898E+01</totfact>
</mgrwt>
</event>
<event>
 4    1  0.5399378E-005  0.3517713E+03  0.7818608E-02  0.1061890E+00
         -2   -1    0    0    0  501 -0.00000000000E+00  0.00000000000E+00  0.12283865668E+02  0.12283865933E+02  0.25500000000E-02 0. -1.
          2   -1    0    0  501    0  0.00000000000E+00 -0.00000000000E+00 -0.25184054092E+04  0.25184054092E+04  0.25500000000E-02 0.  1.
    5000001    1    1    2    0    0 -0.13250048443E+02  0.40717963359E+02 -0.94135982900E+03  0.95666966294E+03  0.16500000000E+03 0.  0.
   -5000001    1    1    2    0    0  0.13250048443E+02 -0.40717963359E+02 -0.15647617145E+04  0.15740196122E+04  0.16500000000E+03 0.  0.
<mgrwt>
<rscale>  0 0.35177126E+03</rscale>
<asrwt>0</asrwt>
<pdfrwt beam="1">  1        2 0.35977187E+00 0.35177126E+03</pdfrwt>
<pdfrwt beam="2">  1       -2 0.17548396E-02 0.35177126E+03</pdfrwt>
<totfact> 0.45905903E+03</totfact>
</mgrwt>
</event>
<event>
 4    1  0.5399378E-005  0.3827246E+03  0.7818608E-02  0.1049931E+00
          2   -1    0    0  501    0  0.00000000000E+00  0.00000000000E+00  0.20715059900E+02  0.20715060057E+02  0.25500000000E-02 0.  1.
         -2   -1    0    0    0  501 -0.00000000000E+00 -0.00000000000E+00 -0.17677732327E+04  0.17677732327E+04  0.25500000000E-02 0. -1.
    5000001    1    1    2    0    0  0.81698413656E+02  0.51044340004E+02 -0.92350510940E+03  0.94306248072E+03  0.16500000000E+03 0.  0.
   -5000001    1    1    2    0    0 -0.81698413656E+02 -0.51044340004E+02 -0.82355306344E+03  0.84542581209E+03  0.16500000000E+03 0.  0.
<mgrwt>
<rscale>  0 0.38272459E+03</rscale>
<asrwt>0</asrwt>
<pdfrwt beam="1">  1        2 0.29592954E-02 0.38272459E+03</pdfrwt>
<pdfrwt beam="2">  1       -2 0.25253894E+00 0.38272459E+03</pdfrwt>
<totfact> 0.22058320E+02</totfact>
</mgrwt>
</event>
<event>
 4    1  0.5399378E-005  0.5079592E+03  0.7818608E-02  0.1011722E+00
          2   -1    0    0  501    0  0.00000000000E+00  0.00000000000E+00  0.11673483971E+04  0.11673483971E+04  0.25500000000E-02 0.  1.
         -2   -1    0    0    0  501 -0.00000000000E+00 -0.00000000000E+00 -0.55258258615E+02  0.55258258674E+02  0.25500000000E-02 0. -1.
    5000001    1    1    2    0    0 -0.16765526998E+03  0.88230683012E+02  0.46638373615E+03  0.52974685683E+03  0.16500000000E+03 0.  0.
   -5000001    1    1    2    0    0  0.16765526998E+03 -0.88230683012E+02  0.64570640230E+03  0.69285979891E+03  0.16500000000E+03 0.  0.
<mgrwt>
<rscale>  0 0.50795921E+03</rscale>
<asrwt>0</asrwt>
<pdfrwt beam="1">  1        2 0.16676404E+00 0.50795921E+03</pdfrwt>
<pdfrwt beam="2">  1       -2 0.78940377E-02 0.50795921E+03</pdfrwt>
<totfact> 0.22558016E+03</totfact>
</mgrwt>
</event>
<event>
 4    1  0.5399378E-005  0.5582691E+03  0.7818608E-02  0.9995979E-01
         -2   -1    0    0    0  501 -0.00000000000E+00  0.00000000000E+00  0.11425089563E+03  0.11425089566E+03  0.25500000000E-02 0. -1.
          2   -1    0    0  501    0  0.00000000000E+00 -0.00000000000E+00 -0.68197359357E+03  0.68197359357E+03  0.25500000000E-02 0.  1.
    5000001    1    1    2    0    0 -0.12581463455E+03  0.15302198284E+03 -0.43644909639E+03  0.50691011357E+03  0.16500000000E+03 0.  0.
   -5000001    1    1    2    0    0  0.12581463455E+03 -0.15302198284E+03 -0.13127360155E+03  0.28931437566E+03  0.16500000000E+03 0.  0.
<mgrwt>
<rscale>  0 0.55826909E+03</rscale>
<asrwt>0</asrwt>
<pdfrwt beam="1">  1        2 0.97424797E-01 0.55826909E+03</pdfrwt>
<pdfrwt beam="2">  1       -2 0.16321557E-01 0.55826909E+03</pdfrwt>
<totfact> 0.14108523E+03</totfact>
</mgrwt>
</event>
<event>
 4    1  0.5399378E-005  0.6931781E+03  0.7818608E-02  0.9728970E-01
          2   -1    0    0  501    0  0.00000000000E+00  0.00000000000E+00  0.69012766149E+03  0.69012766149E+03  0.25500000000E-02 0.  1.
         -2   -1    0    0    0  501 -0.00000000000E+00 -0.00000000000E+00 -0.17406048357E+03  0.17406048359E+03  0.25500000000E-02 0. -1.
    5000001    1    1    2    0    0 -0.22431047319E+03 -0.31871657956E+02  0.38527127347E+01  0.28030489535E+03  0.16500000000E+03 0.  0.
   -5000001    1    1    2    0    0  0.22431047319E+03  0.31871657956E+02  0.51221446518E+03  0.58388324972E+03  0.16500000000E+03 0.  0.
<mgrwt>
<rscale>  0 0.69317806E+03</rscale>
<asrwt>0</asrwt>
<pdfrwt beam="1">  1        2 0.98589665E-01 0.69317806E+03</pdfrwt>
<pdfrwt beam="2">  1       -2 0.24865784E-01 0.69317806E+03</pdfrwt>
<totfact> 0.66533510E+02</totfact>
</mgrwt>
</event>
<event>
 4    1  0.5399378E-005  0.5282032E+03  0.7818608E-02  0.1006669E+00
         -2   -1    0    0    0  501 -0.00000000000E+00  0.00000000000E+00  0.18562853705E+02  0.18562853880E+02  0.25500000000E-02 0. -1.
          2   -1    0    0  501    0  0.00000000000E+00 -0.00000000000E+00 -0.37574856513E+04  0.37574856513E+04  0.25500000000E-02 0.  1.
    5000001    1    1    2    0    0 -0.72059717623E+02  0.19038188953E+03 -0.21051341381E+04  0.21213798825E+04  0.16500000000E+03 0.  0.
   -5000001    1    1    2    0    0  0.72059717623E+02 -0.19038188953E+03 -0.16337886595E+04  0.16546686226E+04  0.16500000000E+03 0.  0.
<mgrwt>
<rscale>  0 0.52820321E+03</rscale>
<asrwt>0</asrwt>
<pdfrwt beam="1">  1        2 0.53678318E+00 0.52820321E+03</pdfrwt>
<pdfrwt beam="2">  1       -2 0.26518387E-02 0.52820321E+03</pdfrwt>
<totfact> 0.50002001E+02</totfact>
</mgrwt>
</event>
<event>
 4    1  0.5399378E-005  0.4822732E+03  0.7818608E-02  0.1018512E+00
         -2   -1    0    0    0  501 -0.00000000000E+00  0.00000000000E+00  0.22316411874E+02  0.22316412020E+02  0.25500000000E-02 0. -1.
          2   -1    0    0  501    0  0.00000000000E+00 -0.00000000000E+00 -0.26055650732E+04  0.26055650732E+04  0.25500000000E-02 0.  1.
    5000001    1    1    2    0    0  0.10354739623E+03  0.49048606493E+02 -0.56476587619E+03  0.59942749684E+03  0.16500000000E+03 0.  0.
   -5000001    1    1    2    0    0 -0.10354739623E+03 -0.49048606493E+02 -0.20184827851E+04  0.20284539883E+04  0.16500000000E+03 0.  0.
<mgrwt>
<rscale>  0 0.48227322E+03</rscale>
<asrwt>0</asrwt>
<pdfrwt beam="1">  1        2 0.37222339E+00 0.48227322E+03</pdfrwt>
<pdfrwt beam="2">  1       -2 0.31880605E-02 0.48227322E+03</pdfrwt>
<totfact> 0.16847983E+03</totfact>
</mgrwt>
</event>
<event>
 4    1  0.5399378E-005  0.3624088E+03  0.7818608E-02  0.1057634E+00
         -2   -1    0    0    0  501 -0.00000000000E+00  0.00000000000E+00  0.23253529552E+03  0.23253529554E+03  0.25500000000E-02 0. -1.
          2   -1    0    0  501    0  0.00000000000E+00 -0.00000000000E+00 -0.14120453459E+03  0.14120453461E+03  0.25500000000E-02 0.  1.
    5000001    1    1    2    0    0  0.24798038131E+02  0.64268190933E+02  0.15340288224E+02  0.17945937564E+03  0.16500000000E+03 0.  0.
   -5000001    1    1    2    0    0 -0.24798038131E+02 -0.64268190933E+02  0.75990472713E+02  0.19428045451E+03  0.16500000000E+03 0.  0.
<mgrwt>
<rscale>  0 0.36240882E+03</rscale>
<asrwt>0</asrwt>
<pdfrwt beam="1">  1        2 0.20172077E-01 0.36240882E+03</pdfrwt>
<pdfrwt beam="2">  1       -2 0.33219328E-01 0.36240882E+03</pdfrwt>
<totfact> 0.23423095E+03</totfact>
</mgrwt>
</event>
<event>
 4    1  0.5399378E-005  0.6012673E+03  0.7818608E-02  0.9902780E-01
         -2   -1    0    0    0  501 -0.00000000000E+00  0.00000000000E+00  0.74023694534E+02  0.74023694578E+02  0.25500000000E-02 0. -1.
          2   -1    0    0  501    0  0.00000000000E+00 -0.00000000000E+00 -0.12209682708E+04  0.12209682708E+04  0.25500000000E-02 0.  1.
    5000001    1    1    2    0    0  0.15147659182E+03  0.18142945663E+03 -0.75741210233E+03  0.81040724230E+03  0.16500000000E+03 0.  0.
   -5000001    1    1    2    0    0 -0.15147659182E+03 -0.18142945663E+03 -0.38953247394E+03  0.48458472309E+03  0.16500000000E+03 0.  0.
<mgrwt>
<rscale>  0 0.60126727E+03</rscale>
<asrwt>0</asrwt>
<pdfrwt beam="1">  1        2 0.17442403E+00 0.60126727E+03</pdfrwt>
<pdfrwt beam="2">  1       -2 0.10574814E-01 0.60126727E+03</pdfrwt>
<totfact> 0.13136978E+03</totfact>
</mgrwt>
</event>
<event>
 4    1  0.5399378E-005  0.8804513E+03  0.7818608E-02  0.9450354E-01
          2   -1    0    0  501    0  0.00000000000E+00  0.00000000000E+00  0.18707019813E+04  0.18707019813E+04  0.25500000000E-02 0.  1.
         -2   -1    0    0    0  501 -0.00000000000E+00 -0.00000000000E+00 -0.10359674931E+03  0.10359674934E+03  0.25500000000E-02 0. -1.
    5000001    1    1    2    0    0  0.36060640027E+03 -0.18709648931E+03  0.97130849302E+03  0.10656956699E+04  0.16500000000E+03 0.  0.
   -5000001    1    1    2    0    0 -0.36060640027E+03  0.18709648931E+03  0.79579673899E+03  0.90860306075E+03  0.16500000000E+03 0.  0.
<mgrwt>
<rscale>  0 0.88045135E+03</rscale>
<asrwt>0</asrwt>
<pdfrwt beam="1">  1        2 0.26724312E+00 0.88045135E+03</pdfrwt>
<pdfrwt beam="2">  1       -2 0.14799537E-01 0.88045135E+03</pdfrwt>
<totfact> 0.33816707E+02</totfact>
</mgrwt>
</event>
<event>
 4    1  0.5399378E-005  0.9167340E+03  0.7818608E-02  0.9404901E-01
         -2   -1    0    0    0  501 -0.00000000000E+00  0.00000000000E+00  0.15861026099E+03  0.15861026101E+03  0.25500000000E-02 0. -1.
          2   -1    0    0  501    0  0.00000000000E+00 -0.00000000000E+00 -0.13246325738E+04  0.13246325738E+04  0.25500000000E-02 0.  1.
    5000001    1    1    2    0    0  0.20685045595E+03 -0.36936050331E+03 -0.68090836283E+03  0.81858138942E+03  0.16500000000E+03 0.  0.
   -5000001    1    1    2    0    0 -0.20685045595E+03  0.36936050331E+03 -0.48511394997E+03  0.66466144539E+03  0.16500000000E+03 0.  0.
<mgrwt>
<rscale>  0 0.91673403E+03</rscale>
<asrwt>0</asrwt>
<pdfrwt beam="1">  1        2 0.18923322E+00 0.91673403E+03</pdfrwt>
<pdfrwt beam="2">  1       -2 0.22658609E-01 0.91673403E+03</pdfrwt>
<totfact> 0.31124668E+02</totfact>
</mgrwt>
</event>
<event>
 4    1  0.5399378E-005  0.4948229E+03  0.7818608E-02  0.1015139E+00
          2   -1    0    0  501    0  0.00000000000E+00  0.00000000000E+00  0.16175050546E+04  0.16175050546E+04  0.25500000000E-02 0.  1.
         -2   -1    0    0    0  501 -0.00000000000E+00 -0.00000000000E+00 -0.37843735153E+02  0.37843735239E+02  0.25500000000E-02 0. -1.
    5000001    1    1    2    0    0 -0.60237191778E+02 -0.40252338156E+02  0.22271325110E+03  0.28648728107E+03  0.16500000000E+03 0.  0.
   -5000001    1    1    2    0    0  0.60237191778E+02  0.40252338156E+02  0.13569480683E+04  0.13688615088E+04  0.16500000000E+03 0.  0.
<mgrwt>
<rscale>  0 0.49482293E+03</rscale>
<asrwt>0</asrwt>
<pdfrwt beam="1">  1        2 0.23107213E+00 0.49482293E+03</pdfrwt>
<pdfrwt beam="2">  1       -2 0.54062485E-02 0.49482293E+03</pdfrwt>
<totfact> 0.23555942E+03</totfact>
</mgrwt>
</event>
<event>
 4    1  0.5399378E-005  0.7227515E+03  0.7818608E-02  0.9679096E-01
         -2   -1    0    0    0  501 -0.00000000000E+00  0.00000000000E+00  0.48830891133E+02  0.48830891200E+02  0.25500000000E-02 0. -1.
          2   -1    0    0  501    0  0.00000000000E+00 -0.00000000000E+00 -0.26743816260E+04  0.26743816260E+04  0.25500000000E-02 0.  1.
    5000001    1    1    2    0    0 -0.12468453841E+03 -0.25612760903E+03 -0.18744219282E+04  0.19031106513E+04  0.16500000000E+03 0.  0.
   -5000001    1    1    2    0    0  0.12468453841E+03  0.25612760903E+03 -0.75112880667E+03  0.82010186589E+03  0.16500000000E+03 0.  0.
<mgrwt>
<rscale>  0 0.72275152E+03</rscale>
<asrwt>0</asrwt>
<pdfrwt beam="1">  1        2 0.38205443E+00 0.72275152E+03</pdfrwt>
<pdfrwt beam="2">  1       -2 0.69758433E-02 0.72275152E+03</pdfrwt>
<totfact> 0.45301622E+02</totfact>
</mgrwt>
</event>
<event>
 4    1  0.5399378E-005  0.6551237E+03  0.7818608E-02  0.9797212E-01
          2   -1    0    0  501    0  0.00000000000E+00  0.00000000000E+00  0.51785501239E+03  0.51785501239E+03  0.25500000000E-02 0.  1.
         -2   -1    0    0    0  501 -0.00000000000E+00 -0.00000000000E+00 -0.20719462314E+03  0.20719462316E+03  0.25500000000E-02 0. -1.
    5000001    1    1    2    0    0  0.82831054799E+02 -0.20355665345E+03 -0.41953169810E+02  0.27799525762E+03  0.16500000000E+03 0.  0.
   -5000001    1    1    2    0    0 -0.82831054799E+02  0.20355665345E+03  0.35261355905E+03  0.44705437793E+03  0.16500000000E+03 0.  0.
<mgrwt>
<rscale>  0 0.65512373E+03</rscale>
<asrwt>0</asrwt>
<pdfrwt beam="1">  1        2 0.73979285E-01 0.65512373E+03</pdfrwt>
<pdfrwt beam="2">  1       -2 0.29599233E-01 0.65512373E+03</pdfrwt>
<totfact> 0.68069009E+02</totfact>
</mgrwt>
</event>
<event>
 4    1  0.5399378E-005  0.5472270E+03  0.7818608E-02  0.1002138E+00
         -2   -1    0    0    0  501 -0.00000000000E+00  0.00000000000E+00  0.46532415660E+02  0.46532415730E+02  0.25500000000E-02 0. -1.
          2   -1    0    0  501    0  0.00000000000E+00 -0.00000000000E+00 -0.16088643032E+04  0.16088643032E+04  0.25500000000E-02 0.  1.
    5000001    1    1    2    0    0 -0.70501577332E+02 -0.10218940476E+03 -0.13242150546E+04  0.13402177650E+04  0.16500000000E+03 0.  0.
   -5000001    1    1    2    0    0  0.70501577332E+02  0.10218940476E+03 -0.23811683290E+03  0.31517895387E+03  0.16500000000E+03 0.  0.
<mgrwt>
<rscale>  0 0.54722698E+03</rscale>
<asrwt>0</asrwt>
<pdfrwt beam="1">  1        2 0.22983772E+00 0.54722698E+03</pdfrwt>
<pdfrwt beam="2">  1       -2 0.66474890E-02 0.54722698E+03</pdfrwt>
<totfact> 0.17208582E+03</totfact>
</mgrwt>
</event>
<event>
 4    1  0.5399378E-005  0.4586007E+03  0.7818608E-02  0.1025188E+00
         -2   -1    0    0    0  501 -0.00000000000E+00  0.00000000000E+00  0.13015091564E+03  0.13015091567E+03  0.25500000000E-02 0. -1.
          2   -1    0    0  501    0  0.00000000000E+00 -0.00000000000E+00 -0.40398209710E+03  0.40398209711E+03  0.25500000000E-02 0.  1.
    5000001    1    1    2    0    0  0.93137179134E+02  0.12754163791E+03 -0.16056323446E+03  0.27918982037E+03  0.16500000000E+03 0.  0.
   -5000001    1    1    2    0    0 -0.93137179134E+02 -0.12754163791E+03 -0.11326794700E+03  0.25494319241E+03  0.16500000000E+03 0.  0.
<mgrwt>
<rscale>  0 0.45860065E+03</rscale>
<asrwt>0</asrwt>
<pdfrwt beam="1">  1        2 0.57711728E-01 0.45860065E+03</pdfrwt>
<pdfrwt beam="2">  1       -2 0.18592988E-01 0.45860065E+03</pdfrwt>
<totfact> 0.20571922E+03</totfact>
</mgrwt>
</event>
<event>
 4    1  0.5399378E-005  0.4068988E+03  0.7818608E-02  0.1041417E+00
          2   -1    0    0  501    0  0.00000000000E+00  0.00000000000E+00  0.23728001752E+04  0.23728001752E+04  0.25500000000E-02 0.  1.
         -2   -1    0    0    0  501 -0.00000000000E+00 -0.00000000000E+00 -0.17444228301E+02  0.17444228488E+02  0.25500000000E-02 0. -1.
    5000001    1    1    2    0    0  0.75310050199E+02 -0.51648161560E+02  0.72924433738E+03  0.75323398745E+03  0.16500000000E+03 0.  0.
   -5000001    1    1    2    0    0 -0.75310050199E+02  0.51648161560E+02  0.16261116095E+04  0.16370104162E+04  0.16500000000E+03 0.  0.
<mgrwt>
<rscale>  0 0.40689885E+03</rscale>
<asrwt>0</asrwt>
<pdfrwt beam="1">  1        2 0.33897115E+00 0.40689885E+03</pdfrwt>
<pdfrwt beam="2">  1       -2 0.24920349E-02 0.40689885E+03</pdfrwt>
<totfact> 0.32185479E+03</totfact>
</mgrwt>
</event>
<event>
 4    1  0.5399378E-005  0.5918712E+03  0.7818608E-02  0.9922416E-01
          2   -1    0    0  501    0  0.00000000000E+00  0.00000000000E+00  0.46733843390E+03  0.46733843391E+03  0.25500000000E-02 0.  1.
         -2   -1    0    0    0  501 -0.00000000000E+00 -0.00000000000E+00 -0.18739709862E+03  0.18739709864E+03  0.25500000000E-02 0. -1.
    5000001    1    1    2    0    0  0.24174652445E+03 -0.95817977152E+00  0.91618070905E+02  0.30669393719E+03  0.16500000000E+03 0.  0.
   -5000001    1    1    2    0    0 -0.24174652445E+03  0.95817977152E+00  0.18832326437E+03  0.34804159536E+03  0.16500000000E+03 0.  0.
<mgrwt>
<rscale>  0 0.59187116E+03</rscale>
<asrwt>0</asrwt>
<pdfrwt beam="1">  1        2 0.66762633E-01 0.59187116E+03</pdfrwt>
<pdfrwt beam="2">  1       -2 0.26771014E-01 0.59187116E+03</pdfrwt>
<totfact> 0.92022133E+02</totfact>
</mgrwt>
</event>
<event>
 4    1  0.5399378E-005  0.8227673E+03  0.7818608E-02  0.9527635E-01
          2   -1    0    0  501    0  0.00000000000E+00  0.00000000000E+00  0.12848765304E+04  0.12848765304E+04  0.25500000000E-02 0.  1.
         -2   -1    0    0    0  501 -0.00000000000E+00 -0.00000000000E+00 -0.13171422358E+03  0.13171422360E+03  0.25500000000E-02 0. -1.
    5000001    1    1    2    0    0 -0.74223159186E+02 -0.36524578664E+03  0.48075043259E+03  0.63028528497E+03  0.16500000000E+03 0.  0.
   -5000001    1    1    2    0    0  0.74223159186E+02  0.36524578664E+03  0.67241187424E+03  0.78630546903E+03  0.16500000000E+03 0.  0.
<mgrwt>
<rscale>  0 0.82276732E+03</rscale>
<asrwt>0</asrwt>
<pdfrwt beam="1">  1        2 0.18355377E+00 0.82276732E+03</pdfrwt>
<pdfrwt beam="2">  1       -2 0.18816319E-01 0.82276732E+03</pdfrwt>
<totfact> 0.45608731E+02</totfact>
</mgrwt>
</event>
<event>
 4    1  0.5399378E-005  0.5223391E+03  0.7818608E-02  0.1008107E+00
         -2   -1    0    0    0  501 -0.00000000000E+00  0.00000000000E+00  0.71053663300E+02  0.71053663346E+02  0.25500000000E-02 0. -1.
          2   -1    0    0  501    0  0.00000000000E+00 -0.00000000000E+00 -0.95997223626E+03  0.95997223627E+03  0.25500000000E-02 0.  1.
    5000001    1    1    2    0    0 -0.65752899956E+02  0.13867698197E+03 -0.70505252574E+03  0.74018836334E+03  0.16500000000E+03 0.  0.
   -5000001    1    1    2    0    0  0.65752899956E+02 -0.13867698197E+03 -0.18386604723E+03  0.29083753627E+03  0.16500000000E+03 0.  0.
<mgrwt>
<rscale>  0 0.52233914E+03</rscale>
<asrwt>0</asrwt>
<pdfrwt beam="1">  1        2 0.13713888E+00 0.52233914E+03</pdfrwt>
<pdfrwt beam="2">  1       -2 0.10150524E-01 0.52233914E+03</pdfrwt>
<totfact> 0.19975263E+03</totfact>
</mgrwt>
</event>
<event>
 4    1  0.5399378E-005  0.6934669E+03  0.7818608E-02  0.9728470E-01
         -2   -1    0    0    0  501 -0.00000000000E+00  0.00000000000E+00  0.17508001129E+03  0.17508001131E+03  0.25500000000E-02 0. -1.
          2   -1    0    0  501    0  0.00000000000E+00 -0.00000000000E+00 -0.68668090154E+03  0.68668090155E+03  0.25500000000E-02 0.  1.
    5000001    1    1    2    0    0 -0.74731698582E+02 -0.27406546515E+03 -0.11796660834E+03  0.34905275625E+03  0.16500000000E+03 0.  0.
   -5000001    1    1    2    0    0  0.74731698582E+02  0.27406546515E+03 -0.39363428191E+03  0.51270815661E+03  0.16500000000E+03 0.  0.
<mgrwt>
<rscale>  0 0.69346694E+03</rscale>
<asrwt>0</asrwt>
<pdfrwt beam="1">  1        2 0.98097270E-01 0.69346694E+03</pdfrwt>
<pdfrwt beam="2">  1       -2 0.25011431E-01 0.69346694E+03</pdfrwt>
<totfact> 0.66242005E+02</totfact>
</mgrwt>
</event>
<event>
 4    1  0.5399378E-005  0.7417910E+03  0.7818608E-02  0.9648318E-01
          2   -1    0    0  501    0  0.00000000000E+00  0.00000000000E+00  0.32529201017E+04  0.32529201017E+04  0.25500000000E-02 0.  1.
         -2   -1    0    0    0  501 -0.00000000000E+00 -0.00000000000E+00 -0.42289225581E+02  0.42289225658E+02  0.25500000000E-02 0. -1.
    5000001    1    1    2    0    0  0.11846072787E+03 -0.21159102712E+03  0.26137590039E+04  0.26301644126E+04  0.16500000000E+03 0.  0.
   -5000001    1    1    2    0    0 -0.11846072787E+03  0.21159102712E+03  0.59687187217E+03  0.66504491471E+03  0.16500000000E+03 0.  0.
<mgrwt>
<rscale>  0 0.74179100E+03</rscale>
<asrwt>0</asrwt>
<pdfrwt beam="1">  1        2 0.46470285E+00 0.74179100E+03</pdfrwt>
<pdfrwt beam="2">  1       -2 0.60413182E-02 0.74179100E+03</pdfrwt>
<totfact> 0.27445056E+02</totfact>
</mgrwt>
</event>
<event>
 4    1  0.5399378E-005  0.4825509E+03  0.7818608E-02  0.1018436E+00
          2   -1    0    0  501    0  0.00000000000E+00  0.00000000000E+00  0.36789515732E+02  0.36789515821E+02  0.25500000000E-02 0.  1.
         -2   -1    0    0    0  501 -0.00000000000E+00 -0.00000000000E+00 -0.15823490123E+04  0.15823490123E+04  0.25500000000E-02 0. -1.
    5000001    1    1    2    0    0 -0.11495819015E+03 -0.78068242211E+02 -0.11353901695E+04  0.11557014635E+04  0.16500000000E+03 0.  0.
   -5000001    1    1    2    0    0  0.11495819015E+03  0.78068242211E+02 -0.41016932707E+03  0.46343706454E+03  0.16500000000E+03 0.  0.
<mgrwt>
<rscale>  0 0.48255095E+03</rscale>
<asrwt>0</asrwt>
<pdfrwt beam="1">  1        2 0.52556461E-02 0.48255095E+03</pdfrwt>
<pdfrwt beam="2">  1       -2 0.22604982E+00 0.48255095E+03</pdfrwt>
<totfact> 0.14514654E+02</totfact>
</mgrwt>
</event>
<event>
 4    1  0.5399378E-005  0.9913074E+03  0.7818608E-02  0.9318130E-01
         -2   -1    0    0    0  501 -0.00000000000E+00  0.00000000000E+00  0.15366021762E+03  0.15366021765E+03  0.25500000000E-02 0. -1.
          2   -1    0    0  501    0  0.00000000000E+00 -0.00000000000E+00 -0.15988039935E+04  0.15988039935E+04  0.25500000000E-02 0.  1.
    5000001    1    1    2    0    0 -0.33423169581E+03  0.27789222135E+03 -0.10262720186E+04  0.11266739410E+04  0.16500000000E+03 0.  0.
   -5000001    1    1    2    0    0  0.33423169581E+03 -0.27789222135E+03 -0.41887175730E+03  0.62579027017E+03  0.16500000000E+03 0.  0.
<mgrwt>
<rscale>  0 0.99130736E+03</rscale>
<asrwt>0</asrwt>
<pdfrwt beam="1">  1        2 0.22840056E+00 0.99130736E+03</pdfrwt>
<pdfrwt beam="2">  1       -2 0.21951461E-01 0.99130736E+03</pdfrwt>
<totfact> 0.23417591E+02</totfact>
</mgrwt>
</event>
<event>
 4    1  0.5399378E-005  0.4832566E+03  0.7818608E-02  0.1018244E+00
          2   -1    0    0  501    0  0.00000000000E+00  0.00000000000E+00  0.81734923625E+03  0.81734923626E+03  0.25500000000E-02 0.  1.
         -2   -1    0    0    0  501 -0.00000000000E+00 -0.00000000000E+00 -0.71431202583E+02  0.71431202628E+02  0.25500000000E-02 0. -1.
    5000001    1    1    2    0    0  0.73661411434E+02  0.12053431484E+03  0.17828092792E+03  0.28100465094E+03  0.16500000000E+03 0.  0.
   -5000001    1    1    2    0    0 -0.73661411434E+02 -0.12053431484E+03  0.56763710575E+03  0.60777578794E+03  0.16500000000E+03 0.  0.
<mgrwt>
<rscale>  0 0.48325661E+03</rscale>
<asrwt>0</asrwt>
<pdfrwt beam="1">  1        2 0.11676418E+00 0.48325661E+03</pdfrwt>
<pdfrwt beam="2">  1       -2 0.10204457E-01 0.48325661E+03</pdfrwt>
<totfact> 0.24493940E+03</totfact>
</mgrwt>
</event>
<event>
 4    1  0.5399378E-005  0.4398046E+03  0.7818608E-02  0.1030807E+00
         -2   -1    0    0    0  501 -0.00000000000E+00  0.00000000000E+00  0.18723515973E+03  0.18723515975E+03  0.25500000000E-02 0. -1.
          2   -1    0    0  501    0  0.00000000000E+00 -0.00000000000E+00 -0.25826892137E+03  0.25826892138E+03  0.25500000000E-02 0.  1.
    5000001    1    1    2    0    0  0.14127477210E+03  0.95314853124E+01 -0.21874118320E+01  0.21743779619E+03  0.16500000000E+03 0.  0.
   -5000001    1    1    2    0    0 -0.14127477210E+03 -0.95314853124E+01 -0.68846349809E+02  0.22806628494E+03  0.16500000000E+03 0.  0.
<mgrwt>
<rscale>  0 0.43980461E+03</rscale>
<asrwt>0</asrwt>
<pdfrwt beam="1">  1        2 0.36895560E-01 0.43980461E+03</pdfrwt>
<pdfrwt beam="2">  1       -2 0.26747880E-01 0.43980461E+03</pdfrwt>
<totfact> 0.17728608E+03</totfact>
</mgrwt>
</event>
<event>
 4    1  0.5399378E-005  0.9583107E+03  0.7818608E-02  0.9355489E-01
          2   -1    0    0  501    0  0.00000000000E+00  0.00000000000E+00  0.19573855804E+04  0.19573855804E+04  0.25500000000E-02 0.  1.
         -2   -1    0    0    0  501 -0.00000000000E+00 -0.00000000000E+00 -0.11729413096E+03  0.11729413099E+03  0.25500000000E-02 0. -1.
    5000001    1    1    2    0    0  0.79720417700E+02 -0.36119844252E+03  0.14743077365E+04  0.15289303325E+04  0.16500000000E+03 0.  0.
   -5000001    1    1    2    0    0 -0.79720417700E+02  0.36119844252E+03  0.36578371300E+03  0.54574937890E+03  0.16500000000E+03 0.  0.
<mgrwt>
<rscale>  0 0.95831068E+03</rscale>
<asrwt>0</asrwt>
<pdfrwt beam="1">  1        2 0.27962652E+00 0.95831068E+03</pdfrwt>
<pdfrwt beam="2">  1       -2 0.16756304E-01 0.95831068E+03</pdfrwt>
<totfact> 0.24593029E+02</totfact>
</mgrwt>
</event>
<event>
 4    1  0.5399378E-005  0.5079103E+03  0.7818608E-02  0.1011735E+00
          2   -1    0    0  501    0  0.00000000000E+00  0.00000000000E+00  0.31866823672E+04  0.31866823672E+04  0.25500000000E-02 0.  1.
         -2   -1    0    0    0  501 -0.00000000000E+00 -0.00000000000E+00 -0.20238361627E+02  0.20238361788E+02  0.25500000000E-02 0. -1.
    5000001    1    1    2    0    0 -0.85170465158E+02  0.17255694452E+03  0.16806949929E+04  0.16997030819E+04  0.16500000000E+03 0.  0.
   -5000001    1    1    2    0    0  0.85170465158E+02 -0.17255694452E+03  0.14857490126E+04  0.15072176471E+04  0.16500000000E+03 0.  0.
<mgrwt>
<rscale>  0 0.50791035E+03</rscale>
<asrwt>0</asrwt>
<pdfrwt beam="1">  1        2 0.45524042E+00 0.50791035E+03</pdfrwt>
<pdfrwt beam="2">  1       -2 0.28911940E-02 0.50791035E+03</pdfrwt>
<totfact> 0.95411763E+02</totfact>
</mgrwt>
</event>
<event>
 4    1  0.5399378E-005  0.5000613E+03  0.7818608E-02  0.1013763E+00
          2   -1    0    0  501    0  0.00000000000E+00  0.00000000000E+00  0.52675663142E+03  0.52675663143E+03  0.25500000000E-02 0.  1.
         -2   -1    0    0    0  501 -0.00000000000E+00 -0.00000000000E+00 -0.11867973210E+03  0.11867973213E+03  0.25500000000E-02 0. -1.
    5000001    1    1    2    0    0  0.75860361715E+02  0.12564412959E+03  0.35538314105E+03  0.41840580627E+03  0.16500000000E+03 0.  0.
   -5000001    1    1    2    0    0 -0.75860361715E+02 -0.12564412959E+03  0.52693758267E+02  0.22703055728E+03  0.16500000000E+03 0.  0.
<mgrwt>
<rscale>  0 0.50006134E+03</rscale>
<asrwt>0</asrwt>
<pdfrwt beam="1">  1        2 0.75250947E-01 0.50006134E+03</pdfrwt>
<pdfrwt beam="2">  1       -2 0.16954248E-01 0.50006134E+03</pdfrwt>
<totfact> 0.17905756E+03</totfact>
</mgrwt>
</event>
<event>
 4    1  0.5399378E-005  0.5860593E+03  0.7818608E-02  0.9934758E-01
         -2   -1    0    0    0  501 -0.00000000000E+00  0.00000000000E+00  0.11027253411E+03  0.11027253414E+03  0.25500000000E-02 0. -1.
          2   -1    0    0  501    0  0.00000000000E+00 -0.00000000000E+00 -0.77867416466E+03  0.77867416466E+03  0.25500000000E-02 0.  1.
    5000001    1    1    2    0    0 -0.10305859277E+03 -0.21912981353E+03 -0.33183891656E+03  0.44269743083E+03  0.16500000000E+03 0.  0.
   -5000001    1    1    2    0    0  0.10305859277E+03  0.21912981353E+03 -0.33656271398E+03  0.44624926797E+03  0.16500000000E+03 0.  0.
<mgrwt>
<rscale>  0 0.58605929E+03</rscale>
<asrwt>0</asrwt>
<pdfrwt beam="1">  1        2 0.11123916E+00 0.58605929E+03</pdfrwt>
<pdfrwt beam="2">  1       -2 0.15753220E-01 0.58605929E+03</pdfrwt>
<totfact> 0.12711438E+03</totfact>
</mgrwt>
</event>
<event>
 4    1  0.5399378E-005  0.4426331E+03  0.7818608E-02  0.1029942E+00
         -2   -1    0    0    0  501 -0.00000000000E+00  0.00000000000E+00  0.67083010188E+02  0.67083010236E+02  0.25500000000E-02 0. -1.
          2   -1    0    0  501    0  0.00000000000E+00 -0.00000000000E+00 -0.73015532750E+03  0.73015532751E+03  0.25500000000E-02 0.  1.
    5000001    1    1    2    0    0 -0.11269465824E+03 -0.73334648853E+02 -0.44076763760E+03  0.48946824930E+03  0.16500000000E+03 0.  0.
   -5000001    1    1    2    0    0  0.11269465824E+03  0.73334648853E+02 -0.22230467971E+03  0.30777008844E+03  0.16500000000E+03 0.  0.
<mgrwt>
<rscale>  0 0.44263311E+03</rscale>
<asrwt>0</asrwt>
<pdfrwt beam="1">  1        2 0.10430790E+00 0.44263311E+03</pdfrwt>
<pdfrwt beam="2">  1       -2 0.95832876E-02 0.44263311E+03</pdfrwt>
<totfact> 0.31185785E+03</totfact>
</mgrwt>
</event>
<event>
 4    1  0.5399378E-005  0.4118530E+03  0.7818608E-02  0.1039751E+00
          2   -1    0    0  501    0  0.00000000000E+00  0.00000000000E+00  0.10786820618E+04  0.10786820618E+04  0.25500000000E-02 0.  1.
         -2   -1    0    0    0  501 -0.00000000000E+00 -0.00000000000E+00 -0.39312534387E+02  0.39312534470E+02  0.25500000000E-02 0. -1.
    5000001    1    1    2    0    0 -0.99261513477E+02 -0.24124220327E+02  0.70669127731E+03  0.73285222760E+03  0.16500000000E+03 0.  0.
   -5000001    1    1    2    0    0  0.99261513477E+02  0.24124220327E+02  0.33267825014E+03  0.38514236872E+03  0.16500000000E+03 0.  0.
<mgrwt>
<rscale>  0 0.41185301E+03</rscale>
<asrwt>0</asrwt>
<pdfrwt beam="1">  1        2 0.15409741E+00 0.41185301E+03</pdfrwt>
<pdfrwt beam="2">  1       -2 0.56160772E-02 0.41185301E+03</pdfrwt>
<totfact> 0.43167913E+03</totfact>
</mgrwt>
</event>
<event>
 4    1  0.5399378E-005  0.4008624E+03  0.7818608E-02  0.1043481E+00
          2   -1    0    0  501    0  0.00000000000E+00  0.00000000000E+00  0.34784301818E+04  0.34784301818E+04  0.25500000000E-02 0. -1.
         -2   -1    0    0    0  501 -0.00000000000E+00 -0.00000000000E+00 -0.11549077610E+02  0.11549077892E+02  0.25500000000E-02 0.  1.
    5000001    1    1    2    0    0 -0.78582934313E+02  0.70434183017E+02  0.21039811547E+04  0.21130778384E+04  0.16500000000E+03 0.  0.
   -5000001    1    1    2    0    0  0.78582934313E+02 -0.70434183017E+02  0.13628999494E+04  0.13769014212E+04  0.16500000000E+03 0.  0.
<mgrwt>
<rscale>  0 0.40086237E+03</rscale>
<asrwt>0</asrwt>
<pdfrwt beam="1">  1        2 0.49691910E+00 0.40086237E+03</pdfrwt>
<pdfrwt beam="2">  1       -2 0.16498666E-02 0.40086237E+03</pdfrwt>
<totfact> 0.15233432E+03</totfact>
</mgrwt>
</event>
<event>
 4    1  0.5399378E-005  0.5113604E+03  0.7818608E-02  0.1010856E+00
          2   -1    0    0  501    0  0.00000000000E+00  0.00000000000E+00  0.69745683537E+03  0.69745683538E+03  0.25500000000E-02 0.  1.
         -2   -1    0    0    0  501 -0.00000000000E+00 -0.00000000000E+00 -0.93729607581E+02  0.93729607615E+02  0.25500000000E-02 0. -1.
    5000001    1    1    2    0    0  0.23778353356E+02  0.14434983986E+03  0.10164924292E+03  0.24281650468E+03  0.16500000000E+03 0.  0.
   -5000001    1    1    2    0    0 -0.23778353356E+02 -0.14434983986E+03  0.50207798487E+03  0.54836993832E+03  0.16500000000E+03 0.  0.
<mgrwt>
<rscale>  0 0.51136036E+03</rscale>
<asrwt>0</asrwt>
<pdfrwt beam="1">  1        2 0.99636690E-01 0.51136036E+03</pdfrwt>
<pdfrwt beam="2">  1       -2 0.13389944E-01 0.51136036E+03</pdfrwt>
<totfact> 0.19137188E+03</totfact>
</mgrwt>
</event>
<event>
 4    1  0.5399378E-005  0.4710239E+03  0.7818608E-02  0.1021632E+00
         -2   -1    0    0    0  501 -0.00000000000E+00  0.00000000000E+00  0.29793346189E+02  0.29793346298E+02  0.25500000000E-02 0. -1.
          2   -1    0    0  501    0  0.00000000000E+00 -0.00000000000E+00 -0.18616865960E+04  0.18616865960E+04  0.25500000000E-02 0.  1.
    5000001    1    1    2    0    0 -0.40931105701E+02 -0.15891579735E+03 -0.77053211522E+03  0.80490640862E+03  0.16500000000E+03 0.  0.
   -5000001    1    1    2    0    0  0.40931105701E+02  0.15891579735E+03 -0.10613611346E+04  0.10865735337E+04  0.16500000000E+03 0.  0.
<mgrwt>
<rscale>  0 0.47102388E+03</rscale>
<asrwt>0</asrwt>
<pdfrwt beam="1">  1        2 0.26595515E+00 0.47102388E+03</pdfrwt>
<pdfrwt beam="2">  1       -2 0.42561935E-02 0.47102388E+03</pdfrwt>
<totfact> 0.25674117E+03</totfact>
</mgrwt>
</event>
<event>
 4    1  0.5399378E-005  0.6311963E+03  0.7818608E-02  0.9842717E-01
         -2   -1    0    0    0  501 -0.00000000000E+00  0.00000000000E+00  0.54894760288E+02  0.54894760347E+02  0.25500000000E-02 0. -1.
          2   -1    0    0  501    0  0.00000000000E+00 -0.00000000000E+00 -0.18144208199E+04  0.18144208199E+04  0.25500000000E-02 0.  1.
    5000001    1    1    2    0    0 -0.26385945330E+03 -0.35470216692E+02 -0.99435789012E+03  0.10425222113E+04  0.16500000000E+03 0.  0.
   -5000001    1    1    2    0    0  0.26385945330E+03  0.35470216692E+02 -0.76516816950E+03  0.82679336897E+03  0.16500000000E+03 0.  0.
<mgrwt>
<rscale>  0 0.63119631E+03</rscale>
<asrwt>0</asrwt>
<pdfrwt beam="1">  1        2 0.25920294E+00 0.63119631E+03</pdfrwt>
<pdfrwt beam="2">  1       -2 0.78421098E-02 0.63119631E+03</pdfrwt>
<totfact> 0.10379539E+03</totfact>
</mgrwt>
</event>
<event>
 4    1  0.5399378E-005  0.4531812E+03  0.7818608E-02  0.1026778E+00
          2   -1    0    0  501    0  0.00000000000E+00  0.00000000000E+00  0.19689155916E+03  0.19689155917E+03  0.25500000000E-02 0.  1.
         -2   -1    0    0    0  501 -0.00000000000E+00 -0.00000000000E+00 -0.26076943374E+03  0.26076943375E+03  0.25500000000E-02 0. -1.
    5000001    1    1    2    0    0 -0.13165111283E+03 -0.10112495469E+02  0.50625106889E+02  0.21730664859E+03  0.16500000000E+03 0.  0.
   -5000001    1    1    2    0    0  0.13165111283E+03  0.10112495469E+02 -0.11450298147E+03  0.24035434433E+03  0.16500000000E+03 0.  0.
<mgrwt>
<rscale>  0 0.45318120E+03</rscale>
<asrwt>0</asrwt>
<pdfrwt beam="1">  1        2 0.28127366E-01 0.45318120E+03</pdfrwt>
<pdfrwt beam="2">  1       -2 0.37252776E-01 0.45318120E+03</pdfrwt>
<totfact> 0.12972930E+03</totfact>
</mgrwt>
</event>
<event>
 4    1  0.5399378E-005  0.4888775E+03  0.7818608E-02  0.1016724E+00
          2   -1    0    0  501    0  0.00000000000E+00  0.00000000000E+00  0.86896395373E+03  0.86896395374E+03  0.25500000000E-02 0.  1.
         -2   -1    0    0    0  501 -0.00000000000E+00 -0.00000000000E+00 -0.68760400135E+02  0.68760400183E+02  0.25500000000E-02 0. -1.
    5000001    1    1    2    0    0  0.13945264879E+03  0.72178363438E+02  0.22995547074E+03  0.32366846607E+03  0.16500000000E+03 0.  0.
   -5000001    1    1    2    0    0 -0.13945264879E+03 -0.72178363438E+02  0.57024808286E+03  0.61405588785E+03  0.16500000000E+03 0.  0.
<mgrwt>
<rscale>  0 0.48887753E+03</rscale>
<asrwt>0</asrwt>
<pdfrwt beam="1">  1        2 0.12413770E+00 0.48887753E+03</pdfrwt>
<pdfrwt beam="2">  1       -2 0.98229153E-02 0.48887753E+03</pdfrwt>
<totfact> 0.24065487E+03</totfact>
</mgrwt>
</event>
<event>
 4    1  0.5399378E-005  0.4316261E+03  0.7818608E-02  0.1033348E+00
          2   -1    0    0  501    0  0.00000000000E+00  0.00000000000E+00  0.45974953246E+03  0.45974953247E+03  0.25500000000E-02 0.  1.
         -2   -1    0    0    0  501 -0.00000000000E+00 -0.00000000000E+00 -0.10130573027E+03  0.10130573030E+03  0.25500000000E-02 0. -1.
    5000001    1    1    2    0    0 -0.36184404825E+02  0.13374717128E+03  0.16316212408E+03  0.27026745219E+03  0.16500000000E+03 0.  0.
   -5000001    1    1    2    0    0  0.36184404825E+02 -0.13374717128E+03  0.19528167812E+03  0.29078781059E+03  0.16500000000E+03 0.  0.
<mgrwt>
<rscale>  0 0.43162605E+03</rscale>
<asrwt>0</asrwt>
<pdfrwt beam="1">  1        2 0.65678506E-01 0.43162605E+03</pdfrwt>
<pdfrwt beam="2">  1       -2 0.14472247E-01 0.43162605E+03</pdfrwt>
<totfact> 0.27201023E+03</totfact>
</mgrwt>
</event>
<event>
 4    1  0.5399378E-005  0.4330241E+03  0.7818608E-02  0.1032909E+00
          2   -1    0    0  501    0  0.00000000000E+00  0.00000000000E+00  0.21509729714E+04  0.21509729714E+04  0.25500000000E-02 0.  1.
         -2   -1    0    0    0  501 -0.00000000000E+00 -0.00000000000E+00 -0.21793606739E+02  0.21793606888E+02  0.25500000000E-02 0. -1.
    5000001    1    1    2    0    0  0.64796054487E+02  0.78887135659E+02  0.15466701628E+04  0.15587928988E+04  0.16500000000E+03 0.  0.
   -5000001    1    1    2    0    0 -0.64796054487E+02 -0.78887135659E+02  0.58250920179E+03  0.61397367942E+03  0.16500000000E+03 0.  0.
<mgrwt>
<rscale>  0 0.43302406E+03</rscale>
<asrwt>0</asrwt>
<pdfrwt beam="1">  1        2 0.30728184E+00 0.43302406E+03</pdfrwt>
<pdfrwt beam="2">  1       -2 0.31133726E-02 0.43302406E+03</pdfrwt>
<totfact> 0.29687844E+03</totfact>
</mgrwt>
</event>
<event>
 4    1  0.5399378E-005  0.8369241E+03  0.7818608E-02  0.9508057E-01
         -2   -1    0    0    0  501 -0.00000000000E+00  0.00000000000E+00  0.65453541280E+02  0.65453541329E+02  0.25500000000E-02 0.  1.
          2   -1    0    0  501    0  0.00000000000E+00 -0.00000000000E+00 -0.26753404552E+04  0.26753404552E+04  0.25500000000E-02 0. -1.
    5000001    1    1    2    0    0 -0.37778353044E+03  0.14204787909E+02 -0.15356591287E+04  0.15900931203E+04  0.16500000000E+03 0.  0.
   -5000001    1    1    2    0    0  0.37778353044E+03 -0.14204787909E+02 -0.10742277853E+04  0.11507008762E+04  0.16500000000E+03 0.  0.
<mgrwt>
<rscale>  0 0.83692415E+03</rscale>
<asrwt>0</asrwt>
<pdfrwt beam="1">  1        2 0.38219142E+00 0.83692415E+03</pdfrwt>
<pdfrwt beam="2">  1       -2 0.93505076E-02 0.83692415E+03</pdfrwt>
<totfact> 0.28016448E+02</totfact>
</mgrwt>
</event>
<event>
 4    1  0.5399378E-005  0.9932338E+03  0.7818608E-02  0.9315997E-01
         -2   -1    0    0    0  501 -0.00000000000E+00  0.00000000000E+00  0.30599297226E+03  0.30599297227E+03  0.25500000000E-02 0. -1.
          2   -1    0    0  501    0  0.00000000000E+00 -0.00000000000E+00 -0.80599344665E+03  0.80599344666E+03  0.25500000000E-02 0.  1.
    5000001    1    1    2    0    0  0.17045868472E+03 -0.41661505454E+03 -0.39502156089E+03  0.62120149745E+03  0.16500000000E+03 0.  0.
   -5000001    1    1    2    0    0 -0.17045868472E+03  0.41661505454E+03 -0.10497891350E+03  0.49078492148E+03  0.16500000000E+03 0.  0.
<mgrwt>
<rscale>  0 0.99323377E+03</rscale>
<asrwt>0</asrwt>
<pdfrwt beam="1">  1        2 0.11514192E+00 0.99323377E+03</pdfrwt>
<pdfrwt beam="2">  1       -2 0.43713282E-01 0.99323377E+03</pdfrwt>
<totfact> 0.18638615E+02</totfact>
</mgrwt>
</event>
<event>
 4    1  0.5399378E-005  0.3909552E+03  0.7818608E-02  0.1046957E+00
         -2   -1    0    0    0  501 -0.00000000000E+00  0.00000000000E+00  0.21105497721E+02  0.21105497875E+02  0.25500000000E-02 0. -1.
          2   -1    0    0  501    0  0.00000000000E+00 -0.00000000000E+00 -0.18104997462E+04  0.18104997462E+04  0.25500000000E-02 0.  1.
    5000001    1    1    2    0    0  0.58320490484E+02 -0.84266996806E+02 -0.79159715923E+03  0.81507868875E+03  0.16500000000E+03 0.  0.
   -5000001    1    1    2    0    0 -0.58320490484E+02  0.84266996806E+02 -0.99779708922E+03  0.10165265553E+04  0.16500000000E+03 0.  0.
<mgrwt>
<rscale>  0 0.39095523E+03</rscale>
<asrwt>0</asrwt>
<pdfrwt beam="1">  1        2 0.25864272E+00 0.39095523E+03</pdfrwt>
<pdfrwt beam="2">  1       -2 0.30150723E-02 0.39095523E+03</pdfrwt>
<totfact> 0.46001379E+03</totfact>
</mgrwt>
</event>
<event>
 4    1  0.5399378E-005  0.3997785E+03  0.7818608E-02  0.1043856E+00
          2   -1    0    0  501    0  0.00000000000E+00  0.00000000000E+00  0.42247110713E+03  0.42247110714E+03  0.25500000000E-02 0.  1.
         -2   -1    0    0    0  501 -0.00000000000E+00 -0.00000000000E+00 -0.94576200288E+02  0.94576200322E+02  0.25500000000E-02 0. -1.
    5000001    1    1    2    0    0  0.32021531454E+02  0.94920211348E+02  0.23109489548E+03  0.30110641925E+03  0.16500000000E+03 0.  0.
   -5000001    1    1    2    0    0 -0.32021531454E+02 -0.94920211348E+02  0.96800011360E+02  0.21594088820E+03  0.16500000000E+03 0.  0.
<mgrwt>
<rscale>  0 0.39977850E+03</rscale>
<asrwt>0</asrwt>
<pdfrwt beam="1">  1        2 0.60353014E-01 0.39977850E+03</pdfrwt>
<pdfrwt beam="2">  1       -2 0.13510886E-01 0.39977850E+03</pdfrwt>
<totfact> 0.33433774E+03</totfact>
</mgrwt>
</event>
<event>
 4    1  0.5399378E-005  0.6064495E+03  0.7818608E-02  0.9892115E-01
          2   -1    0    0  501    0  0.00000000000E+00  0.00000000000E+00  0.16231470482E+04  0.16231470482E+04  0.25500000000E-02 0.  1.
         -2   -1    0    0    0  501 -0.00000000000E+00 -0.00000000000E+00 -0.56646282992E+02  0.56646283049E+02  0.25500000000E-02 0. -1.
    5000001    1    1    2    0    0  0.68182891249E+02  0.24508725946E+03  0.77801269216E+03  0.83501222780E+03  0.16500000000E+03 0.  0.
   -5000001    1    1    2    0    0 -0.68182891249E+02 -0.24508725946E+03  0.78848807300E+03  0.84478110340E+03  0.16500000000E+03 0.  0.
<mgrwt>
<rscale>  0 0.60644949E+03</rscale>
<asrwt>0</asrwt>
<pdfrwt beam="1">  1        2 0.23187812E+00 0.60644949E+03</pdfrwt>
<pdfrwt beam="2">  1       -2 0.80923272E-02 0.60644949E+03</pdfrwt>
<totfact> 0.12365411E+03</totfact>
</mgrwt>
</event>
<event>
 4    1  0.5399378E-005  0.5453478E+03  0.7818608E-02  0.1002576E+00
         -2   -1    0    0    0  501 -0.00000000000E+00  0.00000000000E+00  0.10964447638E+03  0.10964447641E+03  0.25500000000E-02 0. -1.
          2   -1    0    0  501    0  0.00000000000E+00 -0.00000000000E+00 -0.67811042635E+03  0.67811042635E+03  0.25500000000E-02 0.  1.
    5000001    1    1    2    0    0  0.54650149242E+01 -0.20171670317E+03 -0.16861369878E+03  0.31044335094E+03  0.16500000000E+03 0.  0.
   -5000001    1    1    2    0    0 -0.54650149242E+01  0.20171670317E+03 -0.39985225119E+03  0.47731155182E+03  0.16500000000E+03 0.  0.
<mgrwt>
<rscale>  0 0.54534783E+03</rscale>
<asrwt>0</asrwt>
<pdfrwt beam="1">  1        2 0.96872916E-01 0.54534783E+03</pdfrwt>
<pdfrwt beam="2">  1       -2 0.15663497E-01 0.54534783E+03</pdfrwt>
<totfact> 0.15231389E+03</totfact>
</mgrwt>
</event>
<event>
 4    1  0.5399378E-005  0.5925726E+03  0.7818608E-02  0.9920937E-01
         -2   -1    0    0    0  501 -0.00000000000E+00  0.00000000000E+00  0.42354929548E+02  0.42354929625E+02  0.25500000000E-02 0. -1.
          2   -1    0    0  501    0  0.00000000000E+00 -0.00000000000E+00 -0.20726173927E+04  0.20726173927E+04  0.25500000000E-02 0.  1.
    5000001    1    1    2    0    0  0.21972902756E+03 -0.67930109986E+02 -0.13276135199E+04  0.13574527629E+04  0.16500000000E+03 0.  0.
   -5000001    1    1    2    0    0 -0.21972902756E+03  0.67930109986E+02 -0.70264894324E+03  0.75751955938E+03  0.16500000000E+03 0.  0.
<mgrwt>
<rscale>  0 0.59257257E+03</rscale>
<asrwt>0</asrwt>
<pdfrwt beam="1">  1        2 0.29608813E+00 0.59257257E+03</pdfrwt>
<pdfrwt beam="2">  1       -2 0.60507055E-02 0.59257257E+03</pdfrwt>
<totfact> 0.11616196E+03</totfact>
</mgrwt>
</event>
<event>
 4    1  0.5399378E-005  0.4747617E+03  0.7818608E-02  0.1020585E+00
          2   -1    0    0  501    0  0.00000000000E+00  0.00000000000E+00  0.26364401124E+03  0.26364401126E+03  0.25500000000E-02 0.  1.
         -2   -1    0    0    0  501 -0.00000000000E+00 -0.00000000000E+00 -0.21373391595E+03  0.21373391596E+03  0.25500000000E-02 0. -1.
    5000001    1    1    2    0    0  0.15705265473E+03 -0.36097125404E+01  0.92001577164E+02  0.24569871099E+03  0.16500000000E+03 0.  0.
   -5000001    1    1    2    0    0 -0.15705265473E+03  0.36097125404E+01 -0.42091481867E+02  0.23167921622E+03  0.16500000000E+03 0.  0.
<mgrwt>
<rscale>  0 0.47476170E+03</rscale>
<asrwt>0</asrwt>
<pdfrwt beam="1">  1        2 0.37663430E-01 0.47476170E+03</pdfrwt>
<pdfrwt beam="2">  1       -2 0.30533417E-01 0.47476170E+03</pdfrwt>
<totfact> 0.13623847E+03</totfact>
</mgrwt>
</event>
<event>
 4    1  0.5399378E-005  0.4991295E+03  0.7818608E-02  0.1014006E+00
         -2   -1    0    0    0  501 -0.00000000000E+00  0.00000000000E+00  0.11261279792E+03  0.11261279795E+03  0.25500000000E-02 0. -1.
          2   -1    0    0  501    0  0.00000000000E+00 -0.00000000000E+00 -0.55306820353E+03  0.55306820354E+03  0.25500000000E-02 0.  1.
    5000001    1    1    2    0    0 -0.15238431756E+03 -0.10106887960E+03 -0.27393493119E+03  0.36837649923E+03  0.16500000000E+03 0.  0.
   -5000001    1    1    2    0    0  0.15238431756E+03  0.10106887960E+03 -0.16652047442E+03  0.29730450226E+03  0.16500000000E+03 0.  0.
<mgrwt>
<rscale>  0 0.49912947E+03</rscale>
<asrwt>0</asrwt>
<pdfrwt beam="1">  1        2 0.79009742E-01 0.49912947E+03</pdfrwt>
<pdfrwt beam="2">  1       -2 0.16087543E-01 0.49912947E+03</pdfrwt>
<totfact> 0.18507907E+03</totfact>
</mgrwt>
</event>
<event>
 4    1  0.5399378E-005  0.5772086E+03  0.7818608E-02  0.9953853E-01
          2   -1    0    0  501    0  0.00000000000E+00  0.00000000000E+00  0.23216462658E+04  0.23216462658E+04  0.25500000000E-02 0.  1.
         -2   -1    0    0    0  501 -0.00000000000E+00 -0.00000000000E+00 -0.35876462372E+02  0.35876462462E+02  0.25500000000E-02 0. -1.
    5000001    1    1    2    0    0  0.32925032665E+02 -0.23258190187E+03  0.12646681788E+04  0.12968380783E+04  0.16500000000E+03 0.  0.
   -5000001    1    1    2    0    0 -0.32925032665E+02  0.23258190187E+03  0.10211016246E+04  0.10606846499E+04  0.16500000000E+03 0.  0.
<mgrwt>
<rscale>  0 0.57720865E+03</rscale>
<asrwt>0</asrwt>
<pdfrwt beam="1">  1        2 0.33166370E+00 0.57720865E+03</pdfrwt>
<pdfrwt beam="2">  1       -2 0.51252098E-02 0.57720865E+03</pdfrwt>
<totfact> 0.11283914E+03</totfact>
</mgrwt>
</event>
<event>
 4    1  0.5399378E-005  0.7282487E+03  0.7818608E-02  0.9670106E-01
          2   -1    0    0  501    0  0.00000000000E+00  0.00000000000E+00  0.58791328323E+03  0.58791328324E+03  0.25500000000E-02 0.  1.
         -2   -1    0    0    0  501 -0.00000000000E+00 -0.00000000000E+00 -0.22552060593E+03  0.22552060594E+03  0.25500000000E-02 0. -1.
    5000001    1    1    2    0    0  0.48318495912E+01 -0.21692409684E+03 -0.88459789668E+02  0.28658252729E+03  0.16500000000E+03 0.  0.
   -5000001    1    1    2    0    0 -0.48318495912E+01  0.21692409684E+03  0.45085246697E+03  0.52685136189E+03  0.16500000000E+03 0.  0.
<mgrwt>
<rscale>  0 0.72824875E+03</rscale>
<asrwt>0</asrwt>
<pdfrwt beam="1">  1        2 0.83987611E-01 0.72824875E+03</pdfrwt>
<pdfrwt beam="2">  1       -2 0.32217230E-01 0.72824875E+03</pdfrwt>
<totfact> 0.50077733E+02</totfact>
</mgrwt>
</event>
<event>
 4    1  0.5399378E-005  0.3714329E+03  0.7818608E-02  0.1054146E+00
          2   -1    0    0  501    0  0.00000000000E+00  0.00000000000E+00  0.10349912733E+04  0.10349912733E+04  0.25500000000E-02 0.  1.
         -2   -1    0    0    0  501 -0.00000000000E+00 -0.00000000000E+00 -0.33324535455E+02  0.33324535552E+02  0.25500000000E-02 0. -1.
    5000001    1    1    2    0    0 -0.66923961913E+02  0.18965117685E+02  0.35913524883E+03  0.40129991193E+03  0.16500000000E+03 0.  0.
   -5000001    1    1    2    0    0  0.66923961913E+02 -0.18965117685E+02  0.64253148899E+03  0.66701589690E+03  0.16500000000E+03 0.  0.
<mgrwt>
<rscale>  0 0.37143292E+03</rscale>
<asrwt>0</asrwt>
<pdfrwt beam="1">  1        2 0.14785591E+00 0.37143292E+03</pdfrwt>
<pdfrwt beam="2">  1       -2 0.47606474E-02 0.37143292E+03</pdfrwt>
<totfact> 0.58931702E+03</totfact>
</mgrwt>
</event>
<event>
 4    1  0.5399378E-005  0.4930382E+03  0.7818608E-02  0.1015612E+00
         -2   -1    0    0    0  501 -0.00000000000E+00  0.00000000000E+00  0.22704959879E+03  0.22704959880E+03  0.25500000000E-02 0. -1.
          2   -1    0    0  501    0  0.00000000000E+00 -0.00000000000E+00 -0.26765807567E+03  0.26765807568E+03  0.25500000000E-02 0.  1.
    5000001    1    1    2    0    0  0.25715145968E+02  0.17290013117E+03  0.34570386646E+02  0.24284940956E+03  0.16500000000E+03 0.  0.
   -5000001    1    1    2    0    0 -0.25715145968E+02 -0.17290013117E+03 -0.75178863524E+02  0.25185826492E+03  0.16500000000E+03 0.  0.
<mgrwt>
<rscale>  0 0.49303817E+03</rscale>
<asrwt>0</asrwt>
<pdfrwt beam="1">  1        2 0.38236868E-01 0.49303817E+03</pdfrwt>
<pdfrwt beam="2">  1       -2 0.32435657E-01 0.49303817E+03</pdfrwt>
<totfact> 0.11981046E+03</totfact>
</mgrwt>
</event>
<event>
 4    1  0.5399378E-005  0.3817972E+03  0.7818608E-02  0.1050271E+00
          2   -1    0    0  501    0  0.00000000000E+00  0.00000000000E+00  0.34600783824E+03  0.34600783825E+03  0.25500000000E-02 0.  1.
         -2   -1    0    0    0  501 -0.00000000000E+00 -0.00000000000E+00 -0.10532212679E+03  0.10532212682E+03  0.25500000000E-02 0. -1.
    5000001    1    1    2    0    0  0.78024260459E+02 -0.52902760709E+02  0.14184294561E+03  0.23713057275E+03  0.16500000000E+03 0.  0.
   -5000001    1    1    2    0    0 -0.78024260459E+02  0.52902760709E+02  0.98842765836E+02  0.21419939232E+03  0.16500000000E+03 0.  0.
<mgrwt>
<rscale>  0 0.38179723E+03</rscale>
<asrwt>0</asrwt>
<pdfrwt beam="1">  1        2 0.49429690E-01 0.38179723E+03</pdfrwt>
<pdfrwt beam="2">  1       -2 0.15046018E-01 0.38179723E+03</pdfrwt>
<totfact> 0.34768477E+03</totfact>
</mgrwt>
</event>
<event>
 4    1  0.5399378E-005  0.4582217E+03  0.7818608E-02  0.1025298E+00
         -2   -1    0    0    0  501 -0.00000000000E+00  0.00000000000E+00  0.46068498873E+03  0.46068498873E+03  0.25500000000E-02 0. -1.
          2   -1    0    0  501    0  0.00000000000E+00 -0.00000000000E+00 -0.11394288317E+03  0.11394288319E+03  0.25500000000E-02 0.  1.
    5000001    1    1    2    0    0 -0.13261182707E+03 -0.87610706384E+02  0.17049952090E+03  0.28558119542E+03  0.16500000000E+03 0.  0.
   -5000001    1    1    2    0    0  0.13261182707E+03  0.87610706384E+02  0.17624258467E+03  0.28904667651E+03  0.16500000000E+03 0.  0.
<mgrwt>
<rscale>  0 0.45822167E+03</rscale>
<asrwt>0</asrwt>
<pdfrwt beam="1">  1        2 0.16277555E-01 0.45822167E+03</pdfrwt>
<pdfrwt beam="2">  1       -2 0.65812141E-01 0.45822167E+03</pdfrwt>
<totfact> 0.77541392E+02</totfact>
</mgrwt>
</event>
<event>
 4    1  0.5399378E-005  0.5177345E+03  0.7818608E-02  0.1009251E+00
          2   -1    0    0  501    0  0.00000000000E+00  0.00000000000E+00  0.18348430379E+03  0.18348430381E+03  0.25500000000E-02 0. -1.
         -2   -1    0    0    0  501 -0.00000000000E+00 -0.00000000000E+00 -0.36522056325E+03  0.36522056326E+03  0.25500000000E-02 0.  1.
    5000001    1    1    2    0    0 -0.58963703935E+02  0.18931664739E+03 -0.11383784596E+03  0.28196022154E+03  0.16500000000E+03 0.  0.
   -5000001    1    1    2    0    0  0.58963703935E+02 -0.18931664739E+03 -0.67898413495E+02  0.26674464552E+03  0.16500000000E+03 0.  0.
<mgrwt>
<rscale>  0 0.51773445E+03</rscale>
<asrwt>0</asrwt>
<pdfrwt beam="1">  1        2 0.26212044E-01 0.51773445E+03</pdfrwt>
<pdfrwt beam="2">  1       -2 0.52174366E-01 0.51773445E+03</pdfrwt>
<totfact> 0.72360398E+02</totfact>
</mgrwt>
</event>
<event>
 4    1  0.5399378E-005  0.7617581E+03  0.7818608E-02  0.9617082E-01
         -2   -1    0    0    0  501 -0.00000000000E+00  0.00000000000E+00  0.22858845842E+03  0.22858845844E+03  0.25500000000E-02 0. -1.
          2   -1    0    0  501    0  0.00000000000E+00 -0.00000000000E+00 -0.63462893880E+03  0.63462893881E+03  0.25500000000E-02 0.  1.
    5000001    1    1    2    0    0  0.96987080927E+02  0.29266509209E+03 -0.37407015507E+03  0.51206721328E+03  0.16500000000E+03 0.  0.
   -5000001    1    1    2    0    0 -0.96987080927E+02 -0.29266509209E+03 -0.31970325305E+02  0.35115018396E+03  0.16500000000E+03 0.  0.
<mgrwt>
<rscale>  0 0.76175810E+03</rscale>
<asrwt>0</asrwt>
<pdfrwt beam="1">  1        2 0.90661276E-01 0.76175810E+03</pdfrwt>
<pdfrwt beam="2">  1       -2 0.32655494E-01 0.76175810E+03</pdfrwt>
<totfact> 0.44533726E+02</totfact>
</mgrwt>
</event>
<event>
 4    1  0.5399378E-005  0.5098162E+03  0.7818608E-02  0.1011248E+00
          2   -1    0    0  501    0  0.00000000000E+00  0.00000000000E+00  0.24606233238E+04  0.24606233238E+04  0.25500000000E-02 0.  1.
         -2   -1    0    0    0  501 -0.00000000000E+00 -0.00000000000E+00 -0.26407185222E+02  0.26407185345E+02  0.25500000000E-02 0. -1.
    5000001    1    1    2    0    0  0.17526925864E+03 -0.47488908711E+02  0.15543325066E+04  0.15735784221E+04  0.16500000000E+03 0.  0.
   -5000001    1    1    2    0    0 -0.17526925864E+03  0.47488908711E+02  0.87988363199E+03  0.91345208704E+03  0.16500000000E+03 0.  0.
<mgrwt>
<rscale>  0 0.50981619E+03</rscale>
<asrwt>0</asrwt>
<pdfrwt beam="1">  1        2 0.35151757E+00 0.50981619E+03</pdfrwt>
<pdfrwt beam="2">  1       -2 0.37724555E-02 0.50981619E+03</pdfrwt>
<totfact> 0.15441603E+03</totfact>
</mgrwt>
</event>
<event>
 4    1  0.5399378E-005  0.3702477E+03  0.7818608E-02  0.1054598E+00
          2   -1    0    0  501    0  0.00000000000E+00  0.00000000000E+00  0.12140398189E+04  0.12140398189E+04  0.25500000000E-02 0.  1.
         -2   -1    0    0    0  501 -0.00000000000E+00 -0.00000000000E+00 -0.28228764554E+02  0.28228764669E+02  0.25500000000E-02 0. -1.
    5000001    1    1    2    0    0 -0.42797514108E+02  0.62813233287E+02  0.47339529055E+03  0.50705545121E+03  0.16500000000E+03 0.  0.
   -5000001    1    1    2    0    0  0.42797514108E+02 -0.62813233287E+02  0.71241576383E+03  0.73521313240E+03  0.16500000000E+03 0.  0.
<mgrwt>
<rscale>  0 0.37024772E+03</rscale>
<asrwt>0</asrwt>
<pdfrwt beam="1">  1        2 0.17343426E+00 0.37024772E+03</pdfrwt>
<pdfrwt beam="2">  1       -2 0.40326807E-02 0.37024772E+03</pdfrwt>
<totfact> 0.60089287E+03</totfact>
</mgrwt>
</event>
<event>
 4    1  0.5399378E-005  0.5948566E+03  0.7818608E-02  0.9916135E-01
          2   -1    0    0  501    0  0.00000000000E+00  0.00000000000E+00  0.18243239186E+04  0.18243239186E+04  0.25500000000E-02 0.  1.
         -2   -1    0    0    0  501 -0.00000000000E+00 -0.00000000000E+00 -0.48491159314E+02  0.48491159381E+02  0.25500000000E-02 0. -1.
    5000001    1    1    2    0    0 -0.24693819988E+02 -0.24610320382E+03  0.86312423590E+03  0.91289923774E+03  0.16500000000E+03 0.  0.
   -5000001    1    1    2    0    0  0.24693819988E+02  0.24610320382E+03  0.91270852335E+03  0.95991584020E+03  0.16500000000E+03 0.  0.
<mgrwt>
<rscale>  0 0.59485656E+03</rscale>
<asrwt>0</asrwt>
<pdfrwt beam="1">  1        2 0.26061771E+00 0.59485656E+03</pdfrwt>
<pdfrwt beam="2">  1       -2 0.69273082E-02 0.59485656E+03</pdfrwt>
<totfact> 0.12513674E+03</totfact>
</mgrwt>
</event>
<event>
 4    1  0.5399378E-005  0.1434765E+04  0.7818608E-02  0.8929031E-01
          2   -1    0    0  501    0  0.00000000000E+00  0.00000000000E+00  0.22005666883E+04  0.22005666883E+04  0.25500000000E-02 0.  1.
         -2   -1    0    0    0  501 -0.00000000000E+00 -0.00000000000E+00 -0.23386600291E+03  0.23386600293E+03  0.25500000000E-02 0. -1.
    5000001    1    1    2    0    0 -0.13073220099E+03 -0.67632341582E+03  0.79057377101E+03  0.10614782893E+04  0.16500000000E+03 0.  0.
   -5000001    1    1    2    0    0  0.13073220099E+03  0.67632341582E+03  0.11761269143E+04  0.13729544019E+04  0.16500000000E+03 0.  0.
<mgrwt>
<rscale>  0 0.14347651E+04</rscale>
<asrwt>0</asrwt>
<pdfrwt beam="1">  1        2 0.31436668E+00 0.14347651E+04</pdfrwt>
<pdfrwt beam="2">  1       -2 0.33409428E-01 0.14347651E+04</pdfrwt>
<totfact> 0.51457984E+01</totfact>
</mgrwt>
</event>
<event>
 4    1  0.5399378E-005  0.4478032E+03  0.7818608E-02  0.1028379E+00
         -2   -1    0    0    0  501 -0.00000000000E+00  0.00000000000E+00  0.18970789566E+02  0.18970789737E+02  0.25500000000E-02 0.  1.
          2   -1    0    0  501    0  0.00000000000E+00 -0.00000000000E+00 -0.26425857016E+04  0.26425857016E+04  0.25500000000E-02 0. -1.
    5000001    1    1    2    0    0  0.83247144541E+02  0.12360971290E+03 -0.11548372534E+04  0.11760457176E+04  0.16500000000E+03 0.  0.
   -5000001    1    1    2    0    0 -0.83247144541E+02 -0.12360971290E+03 -0.14687776587E+04  0.14855107737E+04  0.16500000000E+03 0.  0.
<mgrwt>
<rscale>  0 0.44780325E+03</rscale>
<asrwt>0</asrwt>
<pdfrwt beam="1">  1        2 0.37751201E+00 0.44780325E+03</pdfrwt>
<pdfrwt beam="2">  1       -2 0.27101145E-02 0.44780325E+03</pdfrwt>
<totfact> 0.20655206E+03</totfact>
</mgrwt>
</event>
<event>
 4    1  0.5399378E-005  0.4302569E+03  0.7818608E-02  0.1033779E+00
          2   -1    0    0  501    0  0.00000000000E+00  0.00000000000E+00  0.73011468476E+03  0.73011468477E+03  0.25500000000E-02 0.  1.
         -2   -1    0    0    0  501 -0.00000000000E+00 -0.00000000000E+00 -0.63387632207E+02  0.63387632259E+02  0.25500000000E-02 0. -1.
    5000001    1    1    2    0    0 -0.13231039509E+03 -0.15306119066E+02  0.26648747978E+03  0.34055967878E+03  0.16500000000E+03 0.  0.
   -5000001    1    1    2    0    0  0.13231039509E+03  0.15306119066E+02  0.40023957277E+03  0.45294263825E+03  0.16500000000E+03 0.  0.
<mgrwt>
<rscale>  0 0.43025686E+03</rscale>
<asrwt>0</asrwt>
<pdfrwt beam="1">  1        2 0.10430210E+00 0.43025686E+03</pdfrwt>
<pdfrwt beam="2">  1       -2 0.90553761E-02 0.43025686E+03</pdfrwt>
<totfact> 0.34136818E+03</totfact>
</mgrwt>
</event>
<event>
 4    1  0.5399378E-005  0.4704485E+03  0.7818608E-02  0.1021794E+00
         -2   -1    0    0    0  501 -0.00000000000E+00  0.00000000000E+00  0.51275027148E+02  0.51275027211E+02  0.25500000000E-02 0. -1.
          2   -1    0    0  501    0  0.00000000000E+00 -0.00000000000E+00 -0.10790914000E+04  0.10790914000E+04  0.25500000000E-02 0.  1.
    5000001    1    1    2    0    0  0.91476425087E+00  0.11844753948E+03 -0.79896279428E+03  0.82437685742E+03  0.16500000000E+03 0.  0.
   -5000001    1    1    2    0    0 -0.91476425087E+00 -0.11844753948E+03 -0.22885357860E+03  0.30598956982E+03  0.16500000000E+03 0.  0.
<mgrwt>
<rscale>  0 0.47044847E+03</rscale>
<asrwt>0</asrwt>
<pdfrwt beam="1">  1        2 0.15415590E+00 0.47044847E+03</pdfrwt>
<pdfrwt beam="2">  1       -2 0.73250046E-02 0.47044847E+03</pdfrwt>
<totfact> 0.28523765E+03</totfact>
</mgrwt>
</event>
<event>
 4    1  0.5399378E-005  0.7276482E+03  0.7818608E-02  0.9671084E-01
         -2   -1    0    0    0  501 -0.00000000000E+00  0.00000000000E+00  0.25246817986E+03  0.25246817988E+03  0.25500000000E-02 0. -1.
          2   -1    0    0  501    0  0.00000000000E+00 -0.00000000000E+00 -0.52429567360E+03  0.52429567361E+03  0.25500000000E-02 0.  1.
    5000001    1    1    2    0    0 -0.22660615432E+03  0.12833410383E+03  0.70318096728E+02  0.31621136303E+03  0.16500000000E+03 0.  0.
   -5000001    1    1    2    0    0  0.22660615432E+03 -0.12833410383E+03 -0.34214559046E+03  0.46055249045E+03  0.16500000000E+03 0.  0.
<mgrwt>
<rscale>  0 0.72764820E+03</rscale>
<asrwt>0</asrwt>
<pdfrwt beam="1">  1        2 0.74899382E-01 0.72764820E+03</pdfrwt>
<pdfrwt beam="2">  1       -2 0.36066883E-01 0.72764820E+03</pdfrwt>
<totfact> 0.46217603E+02</totfact>
</mgrwt>
</event>
<event>
 4    1  0.5399378E-005  0.3988106E+03  0.7818608E-02  0.1044192E+00
         -2   -1    0    0    0  501 -0.00000000000E+00  0.00000000000E+00  0.24609650448E+03  0.24609650449E+03  0.25500000000E-02 0. -1.
          2   -1    0    0  501    0  0.00000000000E+00 -0.00000000000E+00 -0.16157267963E+03  0.16157267965E+03  0.25500000000E-02 0.  1.
    5000001    1    1    2    0    0 -0.62799409612E+02 -0.64188029067E+02 -0.26108769413E+02  0.18965900127E+03  0.16500000000E+03 0.  0.
   -5000001    1    1    2    0    0  0.62799409612E+02  0.64188029067E+02  0.11063259426E+03  0.21801018287E+03  0.16500000000E+03 0.  0.
<mgrwt>
<rscale>  0 0.39881059E+03</rscale>
<asrwt>0</asrwt>
<pdfrwt beam="1">  1        2 0.23081811E-01 0.39881059E+03</pdfrwt>
<pdfrwt beam="2">  1       -2 0.35156644E-01 0.39881059E+03</pdfrwt>
<totfact> 0.18079620E+03</totfact>
</mgrwt>
</event>
<event>
 4    1  0.5399378E-005  0.5175424E+03  0.7818608E-02  0.1009299E+00
          2   -1    0    0  501    0  0.00000000000E+00  0.00000000000E+00  0.88729783417E+03  0.88729783417E+03  0.25500000000E-02 0.  1.
         -2   -1    0    0    0  501 -0.00000000000E+00 -0.00000000000E+00 -0.75467945959E+02  0.75467946002E+02  0.25500000000E-02 0. -1.
    5000001    1    1    2    0    0  0.15121077094E+03 -0.12604309886E+03  0.34750190143E+03  0.43212744823E+03  0.16500000000E+03 0.  0.
   -5000001    1    1    2    0    0 -0.15121077094E+03  0.12604309886E+03  0.46432798678E+03  0.53063833194E+03  0.16500000000E+03 0.  0.
<mgrwt>
<rscale>  0 0.51754244E+03</rscale>
<asrwt>0</asrwt>
<pdfrwt beam="1">  1        2 0.12675682E+00 0.51754244E+03</pdfrwt>
<pdfrwt beam="2">  1       -2 0.10781136E-01 0.51754244E+03</pdfrwt>
<totfact> 0.20139838E+03</totfact>
</mgrwt>
</event>
<event>
 4    1  0.5399378E-005  0.5185923E+03  0.7818608E-02  0.1009037E+00
         -2   -1    0    0    0  501 -0.00000000000E+00  0.00000000000E+00  0.82031370042E+02  0.82031370081E+02  0.25500000000E-02 0. -1.
          2   -1    0    0  501    0  0.00000000000E+00 -0.00000000000E+00 -0.81961932427E+03  0.81961932427E+03  0.25500000000E-02 0.  1.
    5000001    1    1    2    0    0 -0.88737803792E+02 -0.14487929320E+03 -0.55234381822E+03  0.60097678903E+03  0.16500000000E+03 0.  0.
   -5000001    1    1    2    0    0  0.88737803792E+02  0.14487929320E+03 -0.18524413600E+03  0.30067390533E+03  0.16500000000E+03 0.  0.
<mgrwt>
<rscale>  0 0.51859231E+03</rscale>
<asrwt>0</asrwt>
<pdfrwt beam="1">  1        2 0.11708847E+00 0.51859231E+03</pdfrwt>
<pdfrwt beam="2">  1       -2 0.11718768E-01 0.51859231E+03</pdfrwt>
<totfact> 0.19491060E+03</totfact>
</mgrwt>
</event>
<event>
 4    1  0.5399378E-005  0.4926087E+03  0.7818608E-02  0.1015726E+00
          2   -1    0    0  501    0  0.00000000000E+00  0.00000000000E+00  0.95787483862E+03  0.95787483862E+03  0.25500000000E-02 0.  1.
         -2   -1    0    0    0  501 -0.00000000000E+00 -0.00000000000E+00 -0.63333786104E+02  0.63333786156E+02  0.25500000000E-02 0. -1.
    5000001    1    1    2    0    0 -0.14246012296E+03  0.11373285705E+03  0.47736856245E+03  0.53696908088E+03  0.16500000000E+03 0.  0.
   -5000001    1    1    2    0    0  0.14246012296E+03 -0.11373285705E+03  0.41717249007E+03  0.48423954390E+03  0.16500000000E+03 0.  0.
<mgrwt>
<rscale>  0 0.49260873E+03</rscale>
<asrwt>0</asrwt>
<pdfrwt beam="1">  1        2 0.13683926E+00 0.49260873E+03</pdfrwt>
<pdfrwt beam="2">  1       -2 0.90476840E-02 0.49260873E+03</pdfrwt>
<totfact> 0.24111333E+03</totfact>
</mgrwt>
</event>
<event>
 4    1  0.5399378E-005  0.4975054E+03  0.7818608E-02  0.1014432E+00
          2   -1    0    0  501    0  0.00000000000E+00  0.00000000000E+00  0.17678741566E+04  0.17678741566E+04  0.25500000000E-02 0.  1.
         -2   -1    0    0    0  501 -0.00000000000E+00 -0.00000000000E+00 -0.35001304028E+02  0.35001304121E+02  0.25500000000E-02 0. -1.
    5000001    1    1    2    0    0  0.77860405349E+02 -0.15040729061E+03  0.11463947954E+04  0.11705257890E+04  0.16500000000E+03 0.  0.
   -5000001    1    1    2    0    0 -0.77860405349E+02  0.15040729061E+03  0.58647805721E+03  0.63234967176E+03  0.16500000000E+03 0.  0.
<mgrwt>
<rscale>  0 0.49750538E+03</rscale>
<asrwt>0</asrwt>
<pdfrwt beam="1">  1        2 0.25255340E+00 0.49750538E+03</pdfrwt>
<pdfrwt beam="2">  1       -2 0.50001872E-02 0.49750538E+03</pdfrwt>
<totfact> 0.22311014E+03</totfact>
</mgrwt>
</event>
<event>
 4    1  0.5399378E-005  0.6706940E+03  0.7818608E-02  0.9768705E-01
         -2   -1    0    0    0  501 -0.00000000000E+00  0.00000000000E+00  0.61241704949E+02  0.61241705002E+02  0.25500000000E-02 0. -1.
          2   -1    0    0  501    0  0.00000000000E+00 -0.00000000000E+00 -0.18362914663E+04  0.18362914663E+04  0.25500000000E-02 0.  1.
    5000001    1    1    2    0    0  0.23411221491E+03 -0.13823299324E+03 -0.11884831196E+04  0.12302983440E+04  0.16500000000E+03 0.  0.
   -5000001    1    1    2    0    0 -0.23411221491E+03  0.13823299324E+03 -0.58656664169E+03  0.66723482728E+03  0.16500000000E+03 0.  0.
<mgrwt>
<rscale>  0 0.67069403E+03</rscale>
<asrwt>0</asrwt>
<pdfrwt beam="1">  1        2 0.26232732E+00 0.67069403E+03</pdfrwt>
<pdfrwt beam="2">  1       -2 0.87488161E-02 0.67069403E+03</pdfrwt>
<totfact> 0.84757266E+02</totfact>
</mgrwt>
</event>
<event>
 4    1  0.5399378E-005  0.4245199E+03  0.7818608E-02  0.1035605E+00
          2   -1    0    0  501    0  0.00000000000E+00  0.00000000000E+00  0.66802800709E+03  0.66802800709E+03  0.25500000000E-02 0.  1.
         -2   -1    0    0    0  501 -0.00000000000E+00 -0.00000000000E+00 -0.67443703099E+02  0.67443703148E+02  0.25500000000E-02 0. -1.
    5000001    1    1    2    0    0 -0.13078015974E+03  0.74452152780E+01  0.34514967846E+03  0.40436639568E+03  0.16500000000E+03 0.  0.
   -5000001    1    1    2    0    0  0.13078015974E+03 -0.74452152780E+01  0.25543462553E+03  0.33110531456E+03  0.16500000000E+03 0.  0.
<mgrwt>
<rscale>  0 0.42451988E+03</rscale>
<asrwt>0</asrwt>
<pdfrwt beam="1">  1        2 0.95432575E-01 0.42451988E+03</pdfrwt>
<pdfrwt beam="2">  1       -2 0.96348145E-02 0.42451988E+03</pdfrwt>
<totfact> 0.34410938E+03</totfact>
</mgrwt>
</event>
<event>
 4    1  0.5399378E-005  0.4876398E+03  0.7818608E-02  0.1017056E+00
         -2   -1    0    0    0  501 -0.00000000000E+00  0.00000000000E+00  0.78787734343E+02  0.78787734385E+02  0.25500000000E-02 0. -1.
          2   -1    0    0  501    0  0.00000000000E+00 -0.00000000000E+00 -0.75453564827E+03  0.75453564827E+03  0.25500000000E-02 0.  1.
    5000001    1    1    2    0    0 -0.39472007979E+02  0.17459680984E+03 -0.36086910481E+03  0.43530862181E+03  0.16500000000E+03 0.  0.
   -5000001    1    1    2    0    0  0.39472007979E+02 -0.17459680984E+03 -0.31487880912E+03  0.39801476085E+03  0.16500000000E+03 0.  0.
<mgrwt>
<rscale>  0 0.48763984E+03</rscale>
<asrwt>0</asrwt>
<pdfrwt beam="1">  1        2 0.10779080E+00 0.48763984E+03</pdfrwt>
<pdfrwt beam="2">  1       -2 0.11255391E-01 0.48763984E+03</pdfrwt>
<totfact> 0.23108046E+03</totfact>
</mgrwt>
</event>
<event>
 4    1  0.5399378E-005  0.6365277E+03  0.7818608E-02  0.9832393E-01
         -2   -1    0    0    0  501 -0.00000000000E+00  0.00000000000E+00  0.15274900501E+03  0.15274900503E+03  0.25500000000E-02 0. -1.
          2   -1    0    0  501    0  0.00000000000E+00 -0.00000000000E+00 -0.66312632542E+03  0.66312632543E+03  0.25500000000E-02 0.  1.
    5000001    1    1    2    0    0 -0.22257564992E+03  0.48122170652E+02 -0.64162558028E+02  0.28843976338E+03  0.16500000000E+03 0.  0.
   -5000001    1    1    2    0    0  0.22257564992E+03 -0.48122170652E+02 -0.44621476238E+03  0.52743556708E+03  0.16500000000E+03 0.  0.
<mgrwt>
<rscale>  0 0.63652773E+03</rscale>
<asrwt>0</asrwt>
<pdfrwt beam="1">  1        2 0.94732331E-01 0.63652773E+03</pdfrwt>
<pdfrwt beam="2">  1       -2 0.21821287E-01 0.63652773E+03</pdfrwt>
<totfact> 0.88247144E+02</totfact>
</mgrwt>
</event>
<event>
 4    1  0.5399378E-005  0.6284366E+03  0.7818608E-02  0.9848104E-01
         -2   -1    0    0    0  501 -0.00000000000E+00  0.00000000000E+00  0.17568606559E+03  0.17568606561E+03  0.25500000000E-02 0. -1.
          2   -1    0    0  501    0  0.00000000000E+00 -0.00000000000E+00 -0.56198613491E+03  0.56198613491E+03  0.25500000000E-02 0.  1.
    5000001    1    1    2    0    0  0.19191252456E+03 -0.53221066260E+02 -0.40262116905E+03  0.47853077722E+03  0.16500000000E+03 0.  0.
   -5000001    1    1    2    0    0 -0.19191252456E+03  0.53221066260E+02  0.16321099740E+02  0.25914142330E+03  0.16500000000E+03 0.  0.
<mgrwt>
<rscale>  0 0.62843658E+03</rscale>
<asrwt>0</asrwt>
<pdfrwt beam="1">  1        2 0.80283733E-01 0.62843658E+03</pdfrwt>
<pdfrwt beam="2">  1       -2 0.25098010E-01 0.62843658E+03</pdfrwt>
<totfact> 0.83687851E+02</totfact>
</mgrwt>
</event>
<event>
 4    1  0.5399378E-005  0.3511299E+03  0.7818608E-02  0.1062152E+00
          2   -1    0    0  501    0  0.00000000000E+00  0.00000000000E+00  0.12696572928E+03  0.12696572930E+03  0.25500000000E-02 0.  1.
         -2   -1    0    0    0  501 -0.00000000000E+00 -0.00000000000E+00 -0.24276671121E+03  0.24276671123E+03  0.25500000000E-02 0. -1.
    5000001    1    1    2    0    0 -0.10540533626E+02  0.29697342534E+02 -0.41571000961E+01  0.16803367664E+03  0.16500000000E+03 0.  0.
   -5000001    1    1    2    0    0  0.10540533626E+02 -0.29697342534E+02 -0.11164388184E+03  0.20169876389E+03  0.16500000000E+03 0.  0.
<mgrwt>
<rscale>  0 0.35112990E+03</rscale>
<asrwt>0</asrwt>
<pdfrwt beam="1">  1        2 0.18137961E-01 0.35112990E+03</pdfrwt>
<pdfrwt beam="2">  1       -2 0.34680959E-01 0.35112990E+03</pdfrwt>
<totfact> 0.24438501E+03</totfact>
</mgrwt>
</event>
<event>
 4    1  0.5399378E-005  0.5599192E+03  0.7818608E-02  0.9992238E-01
          2   -1    0    0  501    0  0.00000000000E+00  0.00000000000E+00  0.11594475987E+04  0.11594475987E+04  0.25500000000E-02 0. -1.
         -2   -1    0    0    0  501 -0.00000000000E+00 -0.00000000000E+00 -0.67598883895E+02  0.67598883943E+02  0.25500000000E-02 0.  1.
    5000001    1    1    2    0    0  0.93579365917E+02  0.23436409711E+02  0.99421809514E+03  0.10124233224E+04  0.16500000000E+03 0.  0.
   -5000001    1    1    2    0    0 -0.93579365917E+02 -0.23436409711E+02  0.97630619688E+02  0.21462316027E+03  0.16500000000E+03 0.  0.
<mgrwt>
<rscale>  0 0.55991915E+03</rscale>
<asrwt>0</asrwt>
<pdfrwt beam="1">  1        2 0.16563536E+00 0.55991915E+03</pdfrwt>
<pdfrwt beam="2">  1       -2 0.96569840E-02 0.55991915E+03</pdfrwt>
<totfact> 0.16496278E+03</totfact>
</mgrwt>
</event>
<event>
 4    1  0.5399378E-005  0.3716015E+03  0.7818608E-02  0.1054082E+00
         -2   -1    0    0    0  501 -0.00000000000E+00  0.00000000000E+00  0.13154481551E+04  0.13154481551E+04  0.25500000000E-02 0. -1.
          2   -1    0    0  501    0  0.00000000000E+00 -0.00000000000E+00 -0.26243461595E+02  0.26243461719E+02  0.25500000000E-02 0.  1.
    5000001    1    1    2    0    0 -0.69801457334E+02 -0.49239529512E+02  0.64594608632E+03  0.67213698093E+03  0.16500000000E+03 0.  0.
   -5000001    1    1    2    0    0  0.69801457334E+02  0.49239529512E+02  0.64325860715E+03  0.66955463585E+03  0.16500000000E+03 0.  0.
<mgrwt>
<rscale>  0 0.37160147E+03</rscale>
<asrwt>0</asrwt>
<pdfrwt beam="1">  1        2 0.37490666E-02 0.37160147E+03</pdfrwt>
<pdfrwt beam="2">  1       -2 0.18792113E+00 0.37160147E+03</pdfrwt>
<totfact> 0.40027427E+02</totfact>
</mgrwt>
</event>
<event>
 4    1  0.5399378E-005  0.6128024E+03  0.7818608E-02  0.9879195E-01
          2   -1    0    0  501    0  0.00000000000E+00  0.00000000000E+00  0.68033321068E+03  0.68033321069E+03  0.25500000000E-02 0.  1.
         -2   -1    0    0    0  501 -0.00000000000E+00 -0.00000000000E+00 -0.13799371306E+03  0.13799371309E+03  0.25500000000E-02 0. -1.
    5000001    1    1    2    0    0 -0.12423827532E+03  0.16842842630E+03  0.47304448783E+03  0.54295429946E+03  0.16500000000E+03 0.  0.
   -5000001    1    1    2    0    0  0.12423827532E+03 -0.16842842630E+03  0.69295009790E+02  0.27537262431E+03  0.16500000000E+03 0.  0.
<mgrwt>
<rscale>  0 0.61280243E+03</rscale>
<asrwt>0</asrwt>
<pdfrwt beam="1">  1        2 0.97190459E-01 0.61280243E+03</pdfrwt>
<pdfrwt beam="2">  1       -2 0.19713388E-01 0.61280243E+03</pdfrwt>
<totfact> 0.10225373E+03</totfact>
</mgrwt>
</event>
<event>
 4    1  0.5399378E-005  0.5136255E+03  0.7818608E-02  0.1010282E+00
         -2   -1    0    0    0  501 -0.00000000000E+00  0.00000000000E+00  0.72924145639E+02  0.72924145684E+02  0.25500000000E-02 0. -1.
          2   -1    0    0  501    0  0.00000000000E+00 -0.00000000000E+00 -0.90440254865E+03  0.90440254866E+03  0.25500000000E-02 0.  1.
    5000001    1    1    2    0    0 -0.10335891661E+03 -0.12846580221E+03 -0.62015747886E+03  0.66257590250E+03  0.16500000000E+03 0.  0.
   -5000001    1    1    2    0    0  0.10335891661E+03  0.12846580221E+03 -0.21132092415E+03  0.31475079184E+03  0.16500000000E+03 0.  0.
<mgrwt>
<rscale>  0 0.51362548E+03</rscale>
<asrwt>0</asrwt>
<pdfrwt beam="1">  1        2 0.12920036E+00 0.51362548E+03</pdfrwt>
<pdfrwt beam="2">  1       -2 0.10417736E-01 0.51362548E+03</pdfrwt>
<totfact> 0.20759632E+03</totfact>
</mgrwt>
</event>
<event>
 4    1  0.5399378E-005  0.5404054E+03  0.7818608E-02  0.1003739E+00
          2   -1    0    0  501    0  0.00000000000E+00  0.00000000000E+00  0.29139648291E+03  0.29139648292E+03  0.25500000000E-02 0.  1.
         -2   -1    0    0    0  501 -0.00000000000E+00 -0.00000000000E+00 -0.25055033678E+03  0.25055033679E+03  0.25500000000E-02 0. -1.
    5000001    1    1    2    0    0  0.55442767184E+02  0.13053031208E+03 -0.14026012530E+03  0.25886283154E+03  0.16500000000E+03 0.  0.
   -5000001    1    1    2    0    0 -0.55442767184E+02 -0.13053031208E+03  0.18110627143E+03  0.28308398817E+03  0.16500000000E+03 0.  0.
<mgrwt>
<rscale>  0 0.54040536E+03</rscale>
<asrwt>0</asrwt>
<pdfrwt beam="1">  1        2 0.41628069E-01 0.54040536E+03</pdfrwt>
<pdfrwt beam="2">  1       -2 0.35792905E-01 0.54040536E+03</pdfrwt>
<totfact> 0.90654482E+02</totfact>
</mgrwt>
</event>
<event>
 4    1  0.5399378E-005  0.3838736E+03  0.7818608E-02  0.1049511E+00
         -2   -1    0    0    0  501 -0.00000000000E+00  0.00000000000E+00  0.94381403490E+03  0.94381403490E+03  0.25500000000E-02 0. -1.
          2   -1    0    0  501    0  0.00000000000E+00 -0.00000000000E+00 -0.39032834392E+02  0.39032834475E+02  0.25500000000E-02 0.  1.
    5000001    1    1    2    0    0  0.88988531303E+02  0.76877554289E+01  0.55597134981E+03  0.58677696112E+03  0.16500000000E+03 0.  0.
   -5000001    1    1    2    0    0 -0.88988531303E+02 -0.76877554289E+01  0.34880985070E+03  0.39606990826E+03  0.16500000000E+03 0.  0.
<mgrwt>
<rscale>  0 0.38387361E+03</rscale>
<asrwt>0</asrwt>
<pdfrwt beam="1">  1        2 0.55761195E-02 0.38387361E+03</pdfrwt>
<pdfrwt beam="2">  1       -2 0.13483057E+00 0.38387361E+03</pdfrwt>
<totfact> 0.56979662E+02</totfact>
</mgrwt>
</event>
<event>
 4    1  0.5399378E-005  0.6525253E+03  0.7818608E-02  0.9802052E-01
          2   -1    0    0  501    0  0.00000000000E+00  0.00000000000E+00  0.57360091992E+03  0.57360091993E+03  0.25500000000E-02 0.  1.
         -2   -1    0    0    0  501 -0.00000000000E+00 -0.00000000000E+00 -0.18557733669E+03  0.18557733671E+03  0.25500000000E-02 0. -1.
    5000001    1    1    2    0    0 -0.22564970956E+03 -0.16470742485E+03  0.15411382668E+03  0.35919688028E+03  0.16500000000E+03 0.  0.
   -5000001    1    1    2    0    0  0.22564970956E+03  0.16470742485E+03  0.23390975656E+03  0.39998137637E+03  0.16500000000E+03 0.  0.
<mgrwt>
<rscale>  0 0.65252534E+03</rscale>
<asrwt>0</asrwt>
<pdfrwt beam="1">  1        2 0.81942986E-01 0.65252534E+03</pdfrwt>
<pdfrwt beam="2">  1       -2 0.26511049E-01 0.65252534E+03</pdfrwt>
<totfact> 0.73985852E+02</totfact>
</mgrwt>
</event>
<event>
 4    1  0.5399378E-005  0.6638798E+03  0.7818608E-02  0.9781078E-01
         -2   -1    0    0    0  501 -0.00000000000E+00  0.00000000000E+00  0.67252561761E+02  0.67252561809E+02  0.25500000000E-02 0. -1.
          2   -1    0    0  501    0  0.00000000000E+00 -0.00000000000E+00 -0.16383629461E+04  0.16383629461E+04  0.25500000000E-02 0.  1.
    5000001    1    1    2    0    0 -0.19362798680E+03 -0.19288435775E+03 -0.55201654028E+03  0.63768599912E+03  0.16500000000E+03 0.  0.
   -5000001    1    1    2    0    0  0.19362798680E+03  0.19288435775E+03 -0.10190938440E+04  0.10679295087E+04  0.16500000000E+03 0.  0.
<mgrwt>
<rscale>  0 0.66387982E+03</rscale>
<asrwt>0</asrwt>
<pdfrwt beam="1">  1        2 0.23405182E+00 0.66387982E+03</pdfrwt>
<pdfrwt beam="2">  1       -2 0.96075099E-02 0.66387982E+03</pdfrwt>
<totfact> 0.91942410E+02</totfact>
</mgrwt>
</event>
<event>
 4    1  0.5399378E-005  0.3725502E+03  0.7818608E-02  0.1053722E+00
          2   -1    0    0  501    0  0.00000000000E+00  0.00000000000E+00  0.22057759074E+04  0.22057759074E+04  0.25500000000E-02 0.  1.
         -2   -1    0    0    0  501 -0.00000000000E+00 -0.00000000000E+00 -0.15730703680E+02  0.15730703886E+02  0.25500000000E-02 0. -1.
    5000001    1    1    2    0    0 -0.58295288017E+02  0.62846362758E+02  0.11617976489E+04  0.11765826715E+04  0.16500000000E+03 0.  0.
   -5000001    1    1    2    0    0  0.58295288017E+02 -0.62846362758E+02  0.10282475548E+04  0.10449239398E+04  0.16500000000E+03 0.  0.
<mgrwt>
<rscale>  0 0.37255017E+03</rscale>
<asrwt>0</asrwt>
<pdfrwt beam="1">  1        2 0.31511070E+00 0.37255017E+03</pdfrwt>
<pdfrwt beam="2">  1       -2 0.22472444E-02 0.37255017E+03</pdfrwt>
<totfact> 0.45539753E+03</totfact>
</mgrwt>
</event>
<event>
 4    1  0.5399378E-005  0.8792939E+03  0.7818608E-02  0.9451842E-01
         -2   -1    0    0    0  501 -0.00000000000E+00  0.00000000000E+00  0.26518373034E+03  0.26518373035E+03  0.25500000000E-02 0. -1.
          2   -1    0    0  501    0  0.00000000000E+00 -0.00000000000E+00 -0.72888868919E+03  0.72888868919E+03  0.25500000000E-02 0.  1.
    5000001    1    1    2    0    0 -0.37909700567E+03 -0.12825188299E+03 -0.14500460940E+03  0.45652428407E+03  0.16500000000E+03 0.  0.
   -5000001    1    1    2    0    0  0.37909700567E+03  0.12825188299E+03 -0.31870034945E+03  0.53754813547E+03  0.16500000000E+03 0.  0.
<mgrwt>
<rscale>  0 0.87929386E+03</rscale>
<asrwt>0</asrwt>
<pdfrwt beam="1">  1        2 0.10412695E+00 0.87929386E+03</pdfrwt>
<pdfrwt beam="2">  1       -2 0.37883390E-01 0.87929386E+03</pdfrwt>
<totfact> 0.28193274E+02</totfact>
</mgrwt>
</event>
<event>
 4    1  0.5399378E-005  0.6599318E+03  0.7818608E-02  0.9788319E-01
         -2   -1    0    0    0  501 -0.00000000000E+00  0.00000000000E+00  0.60489162488E+02  0.60489162542E+02  0.25500000000E-02 0. -1.
          2   -1    0    0  501    0  0.00000000000E+00 -0.00000000000E+00 -0.17999505271E+04  0.17999505271E+04  0.25500000000E-02 0.  1.
    5000001    1    1    2    0    0 -0.22679623578E+01 -0.25302495015E+03 -0.12440050609E+04  0.12801563813E+04  0.16500000000E+03 0.  0.
   -5000001    1    1    2    0    0  0.22679623578E+01  0.25302495015E+03 -0.49545630375E+03  0.58028330838E+03  0.16500000000E+03 0.  0.
<mgrwt>
<rscale>  0 0.65993181E+03</rscale>
<asrwt>0</asrwt>
<pdfrwt beam="1">  1        2 0.25713576E+00 0.65993181E+03</pdfrwt>
<pdfrwt beam="2">  1       -2 0.86413100E-02 0.65993181E+03</pdfrwt>
<totfact> 0.90251414E+02</totfact>
</mgrwt>
</event>
<event>
 4    1  0.5399378E-005  0.6526806E+03  0.7818608E-02  0.9801762E-01
          2   -1    0    0  501    0  0.00000000000E+00  0.00000000000E+00  0.15848566428E+04  0.15848566428E+04  0.25500000000E-02 0.  1.
         -2   -1    0    0    0  501 -0.00000000000E+00 -0.00000000000E+00 -0.67197242983E+02  0.67197243032E+02  0.25500000000E-02 0. -1.
    5000001    1    1    2    0    0 -0.12761143166E+03  0.23542450698E+03  0.97896433216E+03  0.10282536358E+04  0.16500000000E+03 0.  0.
   -5000001    1    1    2    0    0  0.12761143166E+03 -0.23542450698E+03  0.53869506765E+03  0.62380024999E+03  0.16500000000E+03 0.  0.
<mgrwt>
<rscale>  0 0.65268062E+03</rscale>
<asrwt>0</asrwt>
<pdfrwt beam="1">  1        2 0.22640812E+00 0.65268062E+03</pdfrwt>
<pdfrwt beam="2">  1       -2 0.95996049E-02 0.65268062E+03</pdfrwt>
<totfact> 0.98144713E+02</totfact>
</mgrwt>
</event>
<event>
 4    1  0.5399378E-005  0.5164539E+03  0.7818608E-02  0.1009571E+00
          2   -1    0    0  501    0  0.00000000000E+00  0.00000000000E+00  0.13962173245E+04  0.13962173245E+04  0.25500000000E-02 0.  1.
         -2   -1    0    0    0  501 -0.00000000000E+00 -0.00000000000E+00 -0.47758440375E+02  0.47758440443E+02  0.25500000000E-02 0. -1.
    5000001    1    1    2    0    0 -0.98104953257E+02  0.17187829742E+03  0.62666298675E+03  0.67756787847E+03  0.16500000000E+03 0.  0.
   -5000001    1    1    2    0    0  0.98104953257E+02 -0.17187829742E+03  0.72179589739E+03  0.76640788649E+03  0.16500000000E+03 0.  0.
<mgrwt>
<rscale>  0 0.51645392E+03</rscale>
<asrwt>0</asrwt>
<pdfrwt beam="1">  1        2 0.19945960E+00 0.51645392E+03</pdfrwt>
<pdfrwt beam="2">  1       -2 0.68226348E-02 0.51645392E+03</pdfrwt>
<totfact> 0.21317737E+03</totfact>
</mgrwt>
</event>
<event>
 4    1  0.5399378E-005  0.6542286E+03  0.7818608E-02  0.9798877E-01
         -2   -1    0    0    0  501 -0.00000000000E+00  0.00000000000E+00  0.74244056693E+02  0.74244056736E+02  0.25500000000E-02 0. -1.
          2   -1    0    0  501    0  0.00000000000E+00 -0.00000000000E+00 -0.14412436829E+04  0.14412436829E+04  0.25500000000E-02 0.  1.
    5000001    1    1    2    0    0 -0.17530608662E+03  0.21970394388E+03 -0.61894061417E+03  0.69951020781E+03  0.16500000000E+03 0.  0.
   -5000001    1    1    2    0    0  0.17530608662E+03 -0.21970394388E+03 -0.74805901208E+03  0.81597753187E+03  0.16500000000E+03 0.  0.
<mgrwt>
<rscale>  0 0.65422864E+03</rscale>
<asrwt>0</asrwt>
<pdfrwt beam="1">  1        2 0.20589194E+00 0.65422864E+03</pdfrwt>
<pdfrwt beam="2">  1       -2 0.10606295E-01 0.65422864E+03</pdfrwt>
<totfact> 0.99179457E+02</totfact>
</mgrwt>
</event>
<event>
 4    1  0.5399378E-005  0.3816286E+03  0.7818608E-02  0.1050333E+00
         -2   -1    0    0    0  501 -0.00000000000E+00  0.00000000000E+00  0.13012633123E+03  0.13012633126E+03  0.25500000000E-02 0. -1.
          2   -1    0    0  501    0  0.00000000000E+00 -0.00000000000E+00 -0.27980576979E+03  0.27980576980E+03  0.25500000000E-02 0.  1.
    5000001    1    1    2    0    0 -0.68452678110E+02 -0.31799821876E+02 -0.11399379488E+02  0.18180193526E+03  0.16500000000E+03 0.  0.
   -5000001    1    1    2    0    0  0.68452678110E+02  0.31799821876E+02 -0.13828005906E+03  0.22813016580E+03  0.16500000000E+03 0.  0.
<mgrwt>
<rscale>  0 0.38162861E+03</rscale>
<asrwt>0</asrwt>
<pdfrwt beam="1">  1        2 0.39972252E-01 0.38162861E+03</pdfrwt>
<pdfrwt beam="2">  1       -2 0.18589476E-01 0.38162861E+03</pdfrwt>
<totfact> 0.30668532E+03</totfact>
</mgrwt>
</event>
<event>
 4    1  0.5399378E-005  0.5033319E+03  0.7818608E-02  0.1012913E+00
          2   -1    0    0  501    0  0.00000000000E+00  0.00000000000E+00  0.23945679543E+03  0.23945679544E+03  0.25500000000E-02 0.  1.
         -2   -1    0    0    0  501 -0.00000000000E+00 -0.00000000000E+00 -0.26449761979E+03  0.26449761980E+03  0.25500000000E-02 0. -1.
    5000001    1    1    2    0    0 -0.35066901266E+02  0.18674299304E+03 -0.96674278458E+01  0.25183544662E+03  0.16500000000E+03 0.  0.
   -5000001    1    1    2    0    0  0.35066901266E+02 -0.18674299304E+03 -0.15373396516E+02  0.25211896861E+03  0.16500000000E+03 0.  0.
<mgrwt>
<rscale>  0 0.50333191E+03</rscale>
<asrwt>0</asrwt>
<pdfrwt beam="1">  1        2 0.34208114E-01 0.50333191E+03</pdfrwt>
<pdfrwt beam="2">  1       -2 0.37785374E-01 0.50333191E+03</pdfrwt>
<totfact> 0.10156068E+03</totfact>
</mgrwt>
</event>
<event>
 4    1  0.5399378E-005  0.5183058E+03  0.7818608E-02  0.1009108E+00
         -2   -1    0    0    0  501 -0.00000000000E+00  0.00000000000E+00  0.32009463352E+03  0.32009463353E+03  0.25500000000E-02 0. -1.
          2   -1    0    0  501    0  0.00000000000E+00 -0.00000000000E+00 -0.20981368466E+03  0.20981368467E+03  0.25500000000E-02 0.  1.
    5000001    1    1    2    0    0  0.16583637702E+03 -0.29356524070E+02 -0.54839519759E+02  0.24206586372E+03  0.16500000000E+03 0.  0.
   -5000001    1    1    2    0    0 -0.16583637702E+03  0.29356524070E+02  0.16512046863E+03  0.28784245449E+03  0.16500000000E+03 0.  0.
<mgrwt>
<rscale>  0 0.51830583E+03</rscale>
<asrwt>0</asrwt>
<pdfrwt beam="1">  1        2 0.29973384E-01 0.51830583E+03</pdfrwt>
<pdfrwt beam="2">  1       -2 0.45727805E-01 0.51830583E+03</pdfrwt>
<totfact> 0.81119433E+02</totfact>
</mgrwt>
</event>
<event>
 4    1  0.5399378E-005  0.3987042E+03  0.7818608E-02  0.1044229E+00
         -2   -1    0    0    0  501 -0.00000000000E+00  0.00000000000E+00  0.13091812439E+02  0.13091812687E+02  0.25500000000E-02 0. -1.
          2   -1    0    0  501    0  0.00000000000E+00 -0.00000000000E+00 -0.30355811025E+04  0.30355811025E+04  0.25500000000E-02 0.  1.
    5000001    1    1    2    0    0 -0.90147652483E+02  0.57678806481E+02 -0.12619638424E+04  0.12771966111E+04  0.16500000000E+03 0.  0.
   -5000001    1    1    2    0    0  0.90147652483E+02 -0.57678806481E+02 -0.17605254477E+04  0.17714763041E+04  0.16500000000E+03 0.  0.
<mgrwt>
<rscale>  0 0.39870420E+03</rscale>
<asrwt>0</asrwt>
<pdfrwt beam="1">  1        2 0.43365399E+00 0.39870420E+03</pdfrwt>
<pdfrwt beam="2">  1       -2 0.18702609E-02 0.39870420E+03</pdfrwt>
<totfact> 0.22409294E+03</totfact>
</mgrwt>
</event>
<event>
 4    1  0.5399378E-005  0.9575008E+03  0.7818608E-02  0.9356426E-01
         -2   -1    0    0    0  501 -0.00000000000E+00  0.00000000000E+00  0.10289297530E+03  0.10289297533E+03  0.25500000000E-02 0. -1.
          2   -1    0    0  501    0  0.00000000000E+00 -0.00000000000E+00 -0.22275763339E+04  0.22275763339E+04  0.25500000000E-02 0.  1.
    5000001    1    1    2    0    0  0.29259551455E+03 -0.23706585827E+03 -0.16593422555E+04  0.17095186683E+04  0.16500000000E+03 0.  0.
   -5000001    1    1    2    0    0 -0.29259551455E+03  0.23706585827E+03 -0.46534110317E+03  0.62095064102E+03  0.16500000000E+03 0.  0.
<mgrwt>
<rscale>  0 0.95750082E+03</rscale>
<asrwt>0</asrwt>
<pdfrwt beam="1">  1        2 0.31822516E+00 0.95750082E+03</pdfrwt>
<pdfrwt beam="2">  1       -2 0.14698998E-01 0.95750082E+03</pdfrwt>
<totfact> 0.22387747E+02</totfact>
</mgrwt>
</event>
<event>
 4    1  0.5399378E-005  0.5481257E+03  0.7818608E-02  0.1001929E+00
          2   -1    0    0  501    0  0.00000000000E+00  0.00000000000E+00  0.14686722979E+04  0.14686722979E+04  0.25500000000E-02 0.  1.
         -2   -1    0    0    0  501 -0.00000000000E+00 -0.00000000000E+00 -0.51141736433E+02  0.51141736496E+02  0.25500000000E-02 0. -1.
    5000001    1    1    2    0    0  0.20602005096E+03  0.73557042187E+02  0.69343929565E+03  0.74561247079E+03  0.16500000000E+03 0.  0.
   -5000001    1    1    2    0    0 -0.20602005096E+03 -0.73557042187E+02  0.72409126584E+03  0.77420156362E+03  0.16500000000E+03 0.  0.
<mgrwt>
<rscale>  0 0.54812572E+03</rscale>
<asrwt>0</asrwt>
<pdfrwt beam="1">  1        2 0.20981031E+00 0.54812572E+03</pdfrwt>
<pdfrwt beam="2">  1       -2 0.73059630E-02 0.54812572E+03</pdfrwt>
<totfact> 0.17517862E+03</totfact>
</mgrwt>
</event>
<event>
 4    1  0.5399378E-005  0.4748191E+03  0.7818608E-02  0.1020569E+00
         -2   -1    0    0    0  501 -0.00000000000E+00  0.00000000000E+00  0.24173824386E+02  0.24173824521E+02  0.25500000000E-02 0. -1.
          2   -1    0    0  501    0  0.00000000000E+00 -0.00000000000E+00 -0.23315832837E+04  0.23315832837E+04  0.25500000000E-02 0.  1.
    5000001    1    1    2    0    0 -0.98830692023E+01  0.14761744412E+03 -0.15761421558E+04  0.15916462170E+04  0.16500000000E+03 0.  0.
   -5000001    1    1    2    0    0  0.98830692023E+01 -0.14761744412E+03 -0.73126730350E+03  0.76411089119E+03  0.16500000000E+03 0.  0.
<mgrwt>
<rscale>  0 0.47481906E+03</rscale>
<asrwt>0</asrwt>
<pdfrwt beam="1">  1        2 0.33308318E+00 0.47481906E+03</pdfrwt>
<pdfrwt beam="2">  1       -2 0.34534050E-02 0.47481906E+03</pdfrwt>
<totfact> 0.20573280E+03</totfact>
</mgrwt>
</event>
<event>
 4    1  0.5399378E-005  0.3762480E+03  0.7818608E-02  0.1052329E+00
         -2   -1    0    0    0  501 -0.00000000000E+00  0.00000000000E+00  0.30426696908E+02  0.30426697014E+02  0.25500000000E-02 0. -1.
          2   -1    0    0  501    0  0.00000000000E+00 -0.00000000000E+00 -0.11631440040E+04  0.11631440040E+04  0.25500000000E-02 0.  1.
    5000001    1    1    2    0    0  0.26936121609E+02  0.85769502762E+02 -0.59537571271E+03  0.62432299456E+03  0.16500000000E+03 0.  0.
   -5000001    1    1    2    0    0 -0.26936121609E+02 -0.85769502762E+02 -0.53734159434E+03  0.56924770642E+03  0.16500000000E+03 0.  0.
<mgrwt>
<rscale>  0 0.37624795E+03</rscale>
<asrwt>0</asrwt>
<pdfrwt beam="1">  1        2 0.16616340E+00 0.37624795E+03</pdfrwt>
<pdfrwt beam="2">  1       -2 0.43466717E-02 0.37624795E+03</pdfrwt>
<totfact> 0.57211917E+03</totfact>
</mgrwt>
</event>
<event>
 4    1  0.5399378E-005  0.5984799E+03  0.7818608E-02  0.9908565E-01
          2   -1    0    0  501    0  0.00000000000E+00  0.00000000000E+00  0.11216757682E+04  0.11216757682E+04  0.25500000000E-02 0.  1.
         -2   -1    0    0    0  501 -0.00000000000E+00 -0.00000000000E+00 -0.79831052187E+02  0.79831052227E+02  0.25500000000E-02 0. -1.
    5000001    1    1    2    0    0 -0.26558914858E+02 -0.17541510123E+03  0.87350428498E+03  0.90648252580E+03  0.16500000000E+03 0.  0.
   -5000001    1    1    2    0    0  0.26558914858E+02  0.17541510123E+03  0.16834043101E+03  0.29502429461E+03  0.16500000000E+03 0.  0.
<mgrwt>
<rscale>  0 0.59847993E+03</rscale>
<asrwt>0</asrwt>
<pdfrwt beam="1">  1        2 0.16023939E+00 0.59847993E+03</pdfrwt>
<pdfrwt beam="2">  1       -2 0.11404437E-01 0.59847993E+03</pdfrwt>
<totfact> 0.13218162E+03</totfact>
</mgrwt>
</event>
<event>
 4    1  0.5399378E-005  0.6907236E+03  0.7818608E-02  0.9733229E-01
          2   -1    0    0  501    0  0.00000000000E+00  0.00000000000E+00  0.23817180596E+04  0.23817180596E+04  0.25500000000E-02 0.  1.
         -2   -1    0    0    0  501 -0.00000000000E+00 -0.00000000000E+00 -0.50079301860E+02  0.50079301925E+02  0.25500000000E-02 0. -1.
    5000001    1    1    2    0    0  0.26984177750E+03 -0.46461789710E+02  0.70575093471E+03  0.77477910699E+03  0.16500000000E+03 0.  0.
   -5000001    1    1    2    0    0 -0.26984177750E+03  0.46461789710E+02  0.16258878230E+04  0.16570182545E+04  0.16500000000E+03 0.  0.
<mgrwt>
<rscale>  0 0.69072361E+03</rscale>
<asrwt>0</asrwt>
<pdfrwt beam="1">  1        2 0.34024545E+00 0.69072361E+03</pdfrwt>
<pdfrwt beam="2">  1       -2 0.71541857E-02 0.69072361E+03</pdfrwt>
<totfact> 0.61834881E+02</totfact>
</mgrwt>
</event>
<event>
 4    1  0.5399378E-005  0.5193295E+03  0.7818608E-02  0.1008853E+00
         -2   -1    0    0    0  501 -0.00000000000E+00  0.00000000000E+00  0.40058853220E+02  0.40058853302E+02  0.25500000000E-02 0. -1.
          2   -1    0    0  501    0  0.00000000000E+00 -0.00000000000E+00 -0.16831681706E+04  0.16831681706E+04  0.25500000000E-02 0.  1.
    5000001    1    1    2    0    0 -0.16137480861E+03  0.50429405729E+02 -0.11791770217E+04  0.12026089981E+04  0.16500000000E+03 0.  0.
   -5000001    1    1    2    0    0  0.16137480861E+03 -0.50429405729E+02 -0.46393229571E+03  0.52061802583E+03  0.16500000000E+03 0.  0.
<mgrwt>
<rscale>  0 0.51932952E+03</rscale>
<asrwt>0</asrwt>
<pdfrwt beam="1">  1        2 0.24045255E+00 0.51932952E+03</pdfrwt>
<pdfrwt beam="2">  1       -2 0.57226944E-02 0.51932952E+03</pdfrwt>
<totfact> 0.19956166E+03</totfact>
</mgrwt>
</event>
<event>
 4    1  0.5399378E-005  0.3624325E+03  0.7818608E-02  0.1057625E+00
          2   -1    0    0  501    0  0.00000000000E+00  0.00000000000E+00  0.31022187092E+03  0.31022187094E+03  0.25500000000E-02 0.  1.
         -2   -1    0    0    0  501 -0.00000000000E+00 -0.00000000000E+00 -0.10585753770E+03  0.10585753773E+03  0.25500000000E-02 0. -1.
    5000001    1    1    2    0    0 -0.52973185576E+02 -0.33655073680E+02  0.14917390132E+03  0.23112047769E+03  0.16500000000E+03 0.  0.
   -5000001    1    1    2    0    0  0.52973185576E+02  0.33655073680E+02  0.55190431899E+02  0.18495893098E+03  0.16500000000E+03 0.  0.
<mgrwt>
<rscale>  0 0.36243247E+03</rscale>
<asrwt>0</asrwt>
<pdfrwt beam="1">  1        2 0.44317410E-01 0.36243247E+03</pdfrwt>
<pdfrwt beam="2">  1       -2 0.15122505E-01 0.36243247E+03</pdfrwt>
<totfact> 0.38777241E+03</totfact>
</mgrwt>
</event>
<event>
 4    1  0.5399378E-005  0.4563424E+03  0.7818608E-02  0.1025847E+00
         -2   -1    0    0    0  501 -0.00000000000E+00  0.00000000000E+00  0.35329215707E+02  0.35329215799E+02  0.25500000000E-02 0.  1.
          2   -1    0    0  501    0  0.00000000000E+00 -0.00000000000E+00 -0.14736274941E+04  0.14736274941E+04  0.25500000000E-02 0. -1.
    5000001    1    1    2    0    0  0.10768907664E+03 -0.97984445388E+02 -0.91862473934E+03  0.94461330738E+03  0.16500000000E+03 0.  0.
   -5000001    1    1    2    0    0 -0.10768907664E+03  0.97984445388E+02 -0.51967353903E+03  0.56434340249E+03  0.16500000000E+03 0.  0.
<mgrwt>
<rscale>  0 0.45634243E+03</rscale>
<asrwt>0</asrwt>
<pdfrwt beam="1">  1        2 0.21051817E+00 0.45634243E+03</pdfrwt>
<pdfrwt beam="2">  1       -2 0.50470317E-02 0.45634243E+03</pdfrwt>
<totfact> 0.31073839E+03</totfact>
</mgrwt>
</event>
<event>
 4    1  0.5399378E-005  0.6229592E+03  0.7818608E-02  0.9858886E-01
         -2   -1    0    0    0  501 -0.00000000000E+00  0.00000000000E+00  0.44288176178E+02  0.44288176252E+02  0.25500000000E-02 0. -1.
          2   -1    0    0  501    0  0.00000000000E+00 -0.00000000000E+00 -0.21906418172E+04  0.21906418172E+04  0.25500000000E-02 0.  1.
    5000001    1    1    2    0    0  0.12091092236E+03 -0.14306159112E+03 -0.17415546270E+04  0.17593531734E+04  0.16500000000E+03 0.  0.
   -5000001    1    1    2    0    0 -0.12091092236E+03  0.14306159112E+03 -0.40479901401E+03  0.47557682002E+03  0.16500000000E+03 0.  0.
<mgrwt>
<rscale>  0 0.62295917E+03</rscale>
<asrwt>0</asrwt>
<pdfrwt beam="1">  1        2 0.31294876E+00 0.62295917E+03</pdfrwt>
<pdfrwt beam="2">  1       -2 0.63268837E-02 0.62295917E+03</pdfrwt>
<totfact> 0.94295367E+02</totfact>
</mgrwt>
</event>
<event>
 4    1  0.5399378E-005  0.5209792E+03  0.7818608E-02  0.1008444E+00
          2   -1    0    0  501    0  0.00000000000E+00  0.00000000000E+00  0.10028885312E+04  0.10028885312E+04  0.25500000000E-02 0.  1.
         -2   -1    0    0    0  501 -0.00000000000E+00 -0.00000000000E+00 -0.67659396802E+02  0.67659396850E+02  0.25500000000E-02 0. -1.
    5000001    1    1    2    0    0 -0.48101678996E+02  0.16102752712E+03  0.69630854026E+03  0.73506069087E+03  0.16500000000E+03 0.  0.
   -5000001    1    1    2    0    0  0.48101678996E+02 -0.16102752712E+03  0.23892059414E+03  0.33548723719E+03  0.16500000000E+03 0.  0.
<mgrwt>
<rscale>  0 0.52097921E+03</rscale>
<asrwt>0</asrwt>
<pdfrwt beam="1">  1        2 0.14326980E+00 0.52097921E+03</pdfrwt>
<pdfrwt beam="2">  1       -2 0.96656276E-02 0.52097921E+03</pdfrwt>
<totfact> 0.20348996E+03</totfact>
</mgrwt>
</event>
<event>
 4    1  0.5399378E-005  0.5353920E+03  0.7818608E-02  0.1004933E+00
          2   -1    0    0  501    0  0.00000000000E+00  0.00000000000E+00  0.37665690843E+04  0.37665690843E+04  0.25500000000E-02 0.  1.
         -2   -1    0    0    0  501 -0.00000000000E+00 -0.00000000000E+00 -0.19025574322E+02  0.19025574493E+02  0.25500000000E-02 0. -1.
    5000001    1    1    2    0    0 -0.17416215914E+03  0.11762862659E+03  0.17581947409E+04  0.17783820451E+04  0.16500000000E+03 0.  0.
   -5000001    1    1    2    0    0  0.17416215914E+03 -0.11762862659E+03  0.19893487691E+04  0.20072126137E+04  0.16500000000E+03 0.  0.
<mgrwt>
<rscale>  0 0.53539197E+03</rscale>
<asrwt>0</asrwt>
<pdfrwt beam="1">  1        2 0.53808175E+00 0.53539197E+03</pdfrwt>
<pdfrwt beam="2">  1       -2 0.27179369E-02 0.53539197E+03</pdfrwt>
<totfact> 0.47503010E+02</totfact>
</mgrwt>
</event>
<event>
 4    1  0.5399378E-005  0.1272059E+04  0.7818608E-02  0.9052021E-01
          2   -1    0    0  501    0  0.00000000000E+00  0.00000000000E+00  0.26800058654E+04  0.26800058654E+04  0.25500000000E-02 0.  1.
         -2   -1    0    0    0  501 -0.00000000000E+00 -0.00000000000E+00 -0.15094493379E+03  0.15094493381E+03  0.25500000000E-02 0. -1.
    5000001    1    1    2    0    0 -0.28432244408E+03 -0.49753630928E+03  0.77226650497E+03  0.97570599361E+03  0.16500000000E+03 0.  0.
   -5000001    1    1    2    0    0  0.28432244408E+03  0.49753630928E+03  0.17567944266E+04  0.18552448056E+04  0.16500000000E+03 0.  0.
<mgrwt>
<rscale>  0 0.12720587E+04</rscale>
<asrwt>0</asrwt>
<pdfrwt beam="1">  1        2 0.38285799E+00 0.12720587E+04</pdfrwt>
<pdfrwt beam="2">  1       -2 0.21563562E-01 0.12720587E+04</pdfrwt>
<totfact> 0.65319321E+01</totfact>
</mgrwt>
</event>
<event>
 4    1  0.5399378E-005  0.6986244E+03  0.7818608E-02  0.9719588E-01
         -2   -1    0    0    0  501 -0.00000000000E+00  0.00000000000E+00  0.98728184036E+02  0.98728184068E+02  0.25500000000E-02 0. -1.
          2   -1    0    0  501    0  0.00000000000E+00 -0.00000000000E+00 -0.12359085605E+04  0.12359085605E+04  0.25500000000E-02 0.  1.
    5000001    1    1    2    0    0 -0.30711924231E+03 -0.48223835880E+01 -0.52813148900E+03  0.63284544247E+03  0.16500000000E+03 0.  0.
   -5000001    1    1    2    0    0  0.30711924231E+03  0.48223835880E+01 -0.60904888747E+03  0.70179130211E+03  0.16500000000E+03 0.  0.
<mgrwt>
<rscale>  0 0.69862439E+03</rscale>
<asrwt>0</asrwt>
<pdfrwt beam="1">  1        2 0.17655836E+00 0.69862439E+03</pdfrwt>
<pdfrwt beam="2">  1       -2 0.14104027E-01 0.69862439E+03</pdfrwt>
<totfact> 0.79828269E+02</totfact>
</mgrwt>
</event>
<event>
 4    1  0.5399378E-005  0.4464300E+03  0.7818608E-02  0.1028792E+00
          2   -1    0    0  501    0  0.00000000000E+00  0.00000000000E+00  0.42746492319E+04  0.42746492319E+04  0.25500000000E-02 0.  1.
         -2   -1    0    0    0  501 -0.00000000000E+00 -0.00000000000E+00 -0.11655913156E+02  0.11655913435E+02  0.25500000000E-02 0. -1.
    5000001    1    1    2    0    0  0.14433106003E+03 -0.33910192406E+02  0.18926994158E+04  0.19056540700E+04  0.16500000000E+03 0.  0.
   -5000001    1    1    2    0    0 -0.14433106003E+03  0.33910192406E+02  0.23702939029E+04  0.23806510753E+04  0.16500000000E+03 0.  0.
<mgrwt>
<rscale>  0 0.44643002E+03</rscale>
<asrwt>0</asrwt>
<pdfrwt beam="1">  1        2 0.61066573E+00 0.44643002E+03</pdfrwt>
<pdfrwt beam="2">  1       -2 0.16651262E-02 0.44643002E+03</pdfrwt>
<totfact> 0.45916363E+02</totfact>
</mgrwt>
</event>
<event>
 4    1  0.5399378E-005  0.4169695E+03  0.7818608E-02  0.1038057E+00
          2   -1    0    0  501    0  0.00000000000E+00  0.00000000000E+00  0.85239446115E+03  0.85239446115E+03  0.25500000000E-02 0.  1.
         -2   -1    0    0    0  501 -0.00000000000E+00 -0.00000000000E+00 -0.50992704800E+02  0.50992704863E+02  0.25500000000E-02 0. -1.
    5000001    1    1    2    0    0  0.41944998698E+01 -0.44794205847E+02  0.65902816118E+03  0.68085771783E+03  0.16500000000E+03 0.  0.
   -5000001    1    1    2    0    0 -0.41944998698E+01  0.44794205847E+02  0.14237359517E+03  0.22252944818E+03  0.16500000000E+03 0.  0.
<mgrwt>
<rscale>  0 0.41696954E+03</rscale>
<asrwt>0</asrwt>
<pdfrwt beam="1">  1        2 0.12177062E+00 0.41696954E+03</pdfrwt>
<pdfrwt beam="2">  1       -2 0.72846731E-02 0.41696954E+03</pdfrwt>
<totfact> 0.39642240E+03</totfact>
</mgrwt>
</event>
<event>
 4    1  0.5399378E-005  0.8046001E+03  0.7818608E-02  0.9553382E-01
          2   -1    0    0  501    0  0.00000000000E+00  0.00000000000E+00  0.11703006047E+04  0.11703006047E+04  0.25500000000E-02 0.  1.
         -2   -1    0    0    0  501 -0.00000000000E+00 -0.00000000000E+00 -0.13829379931E+03  0.13829379933E+03  0.25500000000E-02 0. -1.
    5000001    1    1    2    0    0 -0.24080724699E+03  0.22632480753E+03  0.77525478083E+03  0.85875259761E+03  0.16500000000E+03 0.  0.
   -5000001    1    1    2    0    0  0.24080724699E+03 -0.22632480753E+03  0.25675202459E+03  0.44984180646E+03  0.16500000000E+03 0.  0.
<mgrwt>
<rscale>  0 0.80460007E+03</rscale>
<asrwt>0</asrwt>
<pdfrwt beam="1">  1        2 0.16718581E+00 0.80460007E+03</pdfrwt>
<pdfrwt beam="2">  1       -2 0.19756256E-01 0.80460007E+03</pdfrwt>
<totfact> 0.48621511E+02</totfact>
</mgrwt>
</event>
<event>
 4    1  0.5399378E-005  0.6466955E+03  0.7818608E-02  0.9813000E-01
          2   -1    0    0  501    0  0.00000000000E+00  0.00000000000E+00  0.37395556500E+03  0.37395556500E+03  0.25500000000E-02 0.  1.
         -2   -1    0    0    0  501 -0.00000000000E+00 -0.00000000000E+00 -0.27958875624E+03  0.27958875625E+03  0.25500000000E-02 0. -1.
    5000001    1    1    2    0    0 -0.13447565809E+03  0.21495876127E+03  0.16257584255E+03  0.34343394743E+03  0.16500000000E+03 0.  0.
   -5000001    1    1    2    0    0  0.13447565809E+03 -0.21495876127E+03 -0.68209033793E+02  0.31011037383E+03  0.16500000000E+03 0.  0.
<mgrwt>
<rscale>  0 0.64669551E+03</rscale>
<asrwt>0</asrwt>
<pdfrwt beam="1">  1        2 0.53422224E-01 0.64669551E+03</pdfrwt>
<pdfrwt beam="2">  1       -2 0.39941251E-01 0.64669551E+03</pdfrwt>
<totfact> 0.55680566E+02</totfact>
</mgrwt>
</event>
<event>
 4    1  0.5399378E-005  0.4566882E+03  0.7818608E-02  0.1025746E+00
          2   -1    0    0  501    0  0.00000000000E+00  0.00000000000E+00  0.11142992940E+04  0.11142992940E+04  0.25500000000E-02 0.  1.
         -2   -1    0    0    0  501 -0.00000000000E+00 -0.00000000000E+00 -0.46792664196E+02  0.46792664265E+02  0.25500000000E-02 0. -1.
    5000001    1    1    2    0    0 -0.71084699557E+02 -0.13957109372E+03  0.58350342324E+03  0.62628617232E+03  0.16500000000E+03 0.  0.
   -5000001    1    1    2    0    0  0.71084699557E+02  0.13957109372E+03  0.48400320656E+03  0.53480578594E+03  0.16500000000E+03 0.  0.
<mgrwt>
<rscale>  0 0.45668822E+03</rscale>
<asrwt>0</asrwt>
<pdfrwt beam="1">  1        2 0.15918564E+00 0.45668822E+03</pdfrwt>
<pdfrwt beam="2">  1       -2 0.66846652E-02 0.45668822E+03</pdfrwt>
<totfact> 0.31424244E+03</totfact>
</mgrwt>
</event>
<event>
 4    1  0.5399378E-005  0.7261497E+03  0.7818608E-02  0.9673529E-01
          2   -1    0    0  501    0  0.00000000000E+00  0.00000000000E+00  0.56063453046E+03  0.56063453046E+03  0.25500000000E-02 0.  1.
         -2   -1    0    0    0  501 -0.00000000000E+00 -0.00000000000E+00 -0.23513237559E+03  0.23513237561E+03  0.25500000000E-02 0. -1.
    5000001    1    1    2    0    0 -0.13266936857E+03  0.27374265054E+03  0.42393975005E+02  0.34865233285E+03  0.16500000000E+03 0.  0.
   -5000001    1    1    2    0    0  0.13266936857E+03 -0.27374265054E+03  0.28310817986E+03  0.44711457322E+03  0.16500000000E+03 0.  0.
<mgrwt>
<rscale>  0 0.72614965E+03</rscale>
<asrwt>0</asrwt>
<pdfrwt beam="1">  1        2 0.80090647E-01 0.72614965E+03</pdfrwt>
<pdfrwt beam="2">  1       -2 0.33590339E-01 0.72614965E+03</pdfrwt>
<totfact> 0.48950785E+02</totfact>
</mgrwt>
</event>
<event>
 4    1  0.5399378E-005  0.4850531E+03  0.7818608E-02  0.1017756E+00
          2   -1    0    0  501    0  0.00000000000E+00  0.00000000000E+00  0.49160168664E+03  0.49160168665E+03  0.25500000000E-02 0.  1.
         -2   -1    0    0    0  501 -0.00000000000E+00 -0.00000000000E+00 -0.11964794900E+03  0.11964794902E+03  0.25500000000E-02 0. -1.
    5000001    1    1    2    0    0 -0.20765329458E+02 -0.15344385199E+03  0.29596541947E+03  0.37255435059E+03  0.16500000000E+03 0.  0.
   -5000001    1    1    2    0    0  0.20765329458E+02  0.15344385199E+03  0.75988318177E+02  0.23869528508E+03  0.16500000000E+03 0.  0.
<mgrwt>
<rscale>  0 0.48505313E+03</rscale>
<asrwt>0</asrwt>
<pdfrwt beam="1">  1        2 0.70228812E-01 0.48505313E+03</pdfrwt>
<pdfrwt beam="2">  1       -2 0.17092564E-01 0.48505313E+03</pdfrwt>
<totfact> 0.19095771E+03</totfact>
</mgrwt>
</event>
<event>
 4    1  0.5399378E-005  0.7695774E+03  0.7818608E-02  0.9605127E-01
         -2   -1    0    0    0  501 -0.00000000000E+00  0.00000000000E+00  0.38900073654E+02  0.38900073738E+02  0.25500000000E-02 0. -1.
          2   -1    0    0  501    0  0.00000000000E+00 -0.00000000000E+00 -0.38062222881E+04  0.38062222881E+04  0.25500000000E-02 0.  1.
    5000001    1    1    2    0    0  0.33599581360E+03 -0.63672655254E+02 -0.15720384804E+04  0.16172437595E+04  0.16500000000E+03 0.  0.
   -5000001    1    1    2    0    0 -0.33599581360E+03  0.63672655254E+02 -0.21952837340E+04  0.22278786023E+04  0.16500000000E+03 0.  0.
<mgrwt>
<rscale>  0 0.76957736E+03</rscale>
<asrwt>0</asrwt>
<pdfrwt beam="1">  1        2 0.54374580E+00 0.76957736E+03</pdfrwt>
<pdfrwt beam="2">  1       -2 0.55571558E-02 0.76957736E+03</pdfrwt>
<totfact> 0.14478692E+02</totfact>
</mgrwt>
</event>
<event>
 4    1  0.5399378E-005  0.4181011E+03  0.7818608E-02  0.1037686E+00
         -2   -1    0    0    0  501 -0.00000000000E+00  0.00000000000E+00  0.19461880796E+02  0.19461880963E+02  0.25500000000E-02 0. -1.
          2   -1    0    0  501    0  0.00000000000E+00 -0.00000000000E+00 -0.22455250594E+04  0.22455250594E+04  0.25500000000E-02 0.  1.
    5000001    1    1    2    0    0  0.57105916119E+02 -0.10491786551E+03 -0.85845814655E+03  0.88229486768E+03  0.16500000000E+03 0.  0.
   -5000001    1    1    2    0    0 -0.57105916119E+02  0.10491786551E+03 -0.13676050320E+04  0.13826920727E+04  0.16500000000E+03 0.  0.
<mgrwt>
<rscale>  0 0.41810114E+03</rscale>
<asrwt>0</asrwt>
<pdfrwt beam="1">  1        2 0.32078913E+00 0.41810114E+03</pdfrwt>
<pdfrwt beam="2">  1       -2 0.27802701E-02 0.41810114E+03</pdfrwt>
<totfact> 0.31607110E+03</totfact>
</mgrwt>
</event>
<event>
 4    1  0.5399378E-005  0.1398734E+04  0.7818608E-02  0.8954735E-01
          2   -1    0    0  501    0  0.00000000000E+00  0.00000000000E+00  0.77520098998E+03  0.77520098998E+03  0.25500000000E-02 0.  1.
         -2   -1    0    0    0  501 -0.00000000000E+00 -0.00000000000E+00 -0.63095149136E+03  0.63095149136E+03  0.25500000000E-02 0. -1.
    5000001    1    1    2    0    0  0.10307549156E+02 -0.65892170345E+03 -0.94904466407E+02  0.68594162623E+03  0.16500000000E+03 0.  0.
   -5000001    1    1    2    0    0 -0.10307549156E+02  0.65892170345E+03  0.23915396503E+03  0.72021085512E+03  0.16500000000E+03 0.  0.
<mgrwt>
<rscale>  0 0.13987340E+04</rscale>
<asrwt>0</asrwt>
<pdfrwt beam="1">  1        2 0.11074300E+00 0.13987340E+04</pdfrwt>
<pdfrwt beam="2">  1       -2 0.90135928E-01 0.13987340E+04</pdfrwt>
<totfact> 0.40654098E+01</totfact>
</mgrwt>
</event>
<event>
 4    1  0.5399378E-005  0.5495910E+03  0.7818608E-02  0.1001589E+00
          2   -1    0    0  501    0  0.00000000000E+00  0.00000000000E+00  0.71280933545E+03  0.71280933546E+03  0.25500000000E-02 0.  1.
         -2   -1    0    0    0  501 -0.00000000000E+00 -0.00000000000E+00 -0.10593657283E+03  0.10593657286E+03  0.25500000000E-02 0. -1.
    5000001    1    1    2    0    0  0.29891515914E+02 -0.20113782436E+03  0.17935239940E+03  0.31739913403E+03  0.16500000000E+03 0.  0.
   -5000001    1    1    2    0    0 -0.29891515914E+02  0.20113782436E+03  0.42752036323E+03  0.50134677429E+03  0.16500000000E+03 0.  0.
<mgrwt>
<rscale>  0 0.54959104E+03</rscale>
<asrwt>0</asrwt>
<pdfrwt beam="1">  1        2 0.10182991E+00 0.54959104E+03</pdfrwt>
<pdfrwt beam="2">  1       -2 0.15133796E-01 0.54959104E+03</pdfrwt>
<totfact> 0.15188470E+03</totfact>
</mgrwt>
</event>
<event>
 4    1  0.5399378E-005  0.6575593E+03  0.7818608E-02  0.9792697E-01
          2   -1    0    0  501    0  0.00000000000E+00  0.00000000000E+00  0.43358754879E+03  0.43358754879E+03  0.25500000000E-02 0.  1.
         -2   -1    0    0    0  501 -0.00000000000E+00 -0.00000000000E+00 -0.24930618376E+03  0.24930618378E+03  0.25500000000E-02 0. -1.
    5000001    1    1    2    0    0 -0.18728372719E+03 -0.12763531091E+03 -0.86247744912E+02  0.29330809836E+03  0.16500000000E+03 0.  0.
   -5000001    1    1    2    0    0  0.18728372719E+03  0.12763531091E+03  0.27052910993E+03  0.38958563421E+03  0.16500000000E+03 0.  0.
<mgrwt>
<rscale>  0 0.65755930E+03</rscale>
<asrwt>0</asrwt>
<pdfrwt beam="1">  1        2 0.61941078E-01 0.65755930E+03</pdfrwt>
<pdfrwt beam="2">  1       -2 0.35615169E-01 0.65755930E+03</pdfrwt>
<totfact> 0.58843669E+02</totfact>
</mgrwt>
</event>
<event>
 4    1  0.5399378E-005  0.3551379E+03  0.7818608E-02  0.1060526E+00
          2   -1    0    0  501    0  0.00000000000E+00  0.00000000000E+00  0.12335495641E+04  0.12335495641E+04  0.25500000000E-02 0.  1.
         -2   -1    0    0    0  501 -0.00000000000E+00 -0.00000000000E+00 -0.25560977293E+02  0.25560977420E+02  0.25500000000E-02 0. -1.
    5000001    1    1    2    0    0 -0.29120825473E+02  0.50158080660E+02  0.71280306776E+03  0.73394623028E+03  0.16500000000E+03 0.  0.
   -5000001    1    1    2    0    0  0.29120825473E+02 -0.50158080660E+02  0.49518551905E+03  0.52516431125E+03  0.16500000000E+03 0.  0.
<mgrwt>
<rscale>  0 0.35513790E+03</rscale>
<asrwt>0</asrwt>
<pdfrwt beam="1">  1        2 0.17622138E+00 0.35513790E+03</pdfrwt>
<pdfrwt beam="2">  1       -2 0.36515678E-02 0.35513790E+03</pdfrwt>
<totfact> 0.68101094E+03</totfact>
</mgrwt>
</event>
<event>
 4    1  0.5399378E-005  0.5245868E+03  0.7818608E-02  0.1007553E+00
         -2   -1    0    0    0  501 -0.00000000000E+00  0.00000000000E+00  0.63999469488E+02  0.63999469539E+02  0.25500000000E-02 0. -1.
          2   -1    0    0  501    0  0.00000000000E+00 -0.00000000000E+00 -0.10749750194E+04  0.10749750194E+04  0.25500000000E-02 0.  1.
    5000001    1    1    2    0    0  0.13419352903E+03  0.14533539103E+03 -0.39818312922E+03  0.47424158771E+03  0.16500000000E+03 0.  0.
   -5000001    1    1    2    0    0 -0.13419352903E+03 -0.14533539103E+03 -0.61279242067E+03  0.66473290121E+03  0.16500000000E+03 0.  0.
<mgrwt>
<rscale>  0 0.52458681E+03</rscale>
<asrwt>0</asrwt>
<pdfrwt beam="1">  1        2 0.15356785E+00 0.52458681E+03</pdfrwt>
<pdfrwt beam="2">  1       -2 0.91427820E-02 0.52458681E+03</pdfrwt>
<totfact> 0.20159735E+03</totfact>
</mgrwt>
</event>
<event>
 4    1  0.5399378E-005  0.6398081E+03  0.7818608E-02  0.9826094E-01
         -2   -1    0    0    0  501 -0.00000000000E+00  0.00000000000E+00  0.37705846751E+03  0.37705846751E+03  0.25500000000E-02 0. -1.
          2   -1    0    0  501    0  0.00000000000E+00 -0.00000000000E+00 -0.27141307866E+03  0.27141307867E+03  0.25500000000E-02 0.  1.
    5000001    1    1    2    0    0  0.95799199787E+01  0.25830643696E+03  0.14515847349E+03  0.33927860626E+03  0.16500000000E+03 0.  0.
   -5000001    1    1    2    0    0 -0.95799199787E+01 -0.25830643696E+03 -0.39513084643E+02  0.30919293992E+03  0.16500000000E+03 0.  0.
<mgrwt>
<rscale>  0 0.63980809E+03</rscale>
<asrwt>0</asrwt>
<pdfrwt beam="1">  1        2 0.38773297E-01 0.63980809E+03</pdfrwt>
<pdfrwt beam="2">  1       -2 0.53865495E-01 0.63980809E+03</pdfrwt>
<totfact> 0.43663744E+02</totfact>
</mgrwt>
</event>
<event>
 4    1  0.5399378E-005  0.4583285E+03  0.7818608E-02  0.1025267E+00
          2   -1    0    0  501    0  0.00000000000E+00  0.00000000000E+00  0.12275498760E+03  0.12275498763E+03  0.25500000000E-02 0.  1.
         -2   -1    0    0    0  501 -0.00000000000E+00 -0.00000000000E+00 -0.42781360656E+03  0.42781360657E+03  0.25500000000E-02 0. -1.
    5000001    1    1    2    0    0 -0.85497782057E+02 -0.10471665912E+03 -0.51911858777E+02  0.21953425818E+03  0.16500000000E+03 0.  0.
   -5000001    1    1    2    0    0  0.85497782057E+02  0.10471665912E+03 -0.25314676018E+03  0.33103433602E+03  0.16500000000E+03 0.  0.
<mgrwt>
<rscale>  0 0.45832850E+03</rscale>
<asrwt>0</asrwt>
<pdfrwt beam="1">  1        2 0.17536427E-01 0.45832850E+03</pdfrwt>
<pdfrwt beam="2">  1       -2 0.61116229E-01 0.45832850E+03</pdfrwt>
<totfact> 0.83024235E+02</totfact>
</mgrwt>
</event>
<event>
 4    1  0.5399378E-005  0.4783449E+03  0.7818608E-02  0.1019591E+00
         -2   -1    0    0    0  501 -0.00000000000E+00  0.00000000000E+00  0.85124516907E+02  0.85124516946E+02  0.25500000000E-02 0. -1.
          2   -1    0    0  501    0  0.00000000000E+00 -0.00000000000E+00 -0.67199761674E+03  0.67199761675E+03  0.25500000000E-02 0.  1.
    5000001    1    1    2    0    0 -0.12810779801E+02  0.13026643639E+03 -0.11404912032E+03  0.23951129905E+03  0.16500000000E+03 0.  0.
   -5000001    1    1    2    0    0  0.12810779801E+02 -0.13026643639E+03 -0.47282397952E+03  0.51761083464E+03  0.16500000000E+03 0.  0.
<mgrwt>
<rscale>  0 0.47834495E+03</rscale>
<asrwt>0</asrwt>
<pdfrwt beam="1">  1        2 0.95999657E-01 0.47834495E+03</pdfrwt>
<pdfrwt beam="2">  1       -2 0.12160646E-01 0.47834495E+03</pdfrwt>
<totfact> 0.23454702E+03</totfact>
</mgrwt>
</event>
<event>
 4    1  0.5399378E-005  0.3922661E+03  0.7818608E-02  0.1046491E+00
          2   -1    0    0  501    0  0.00000000000E+00  0.00000000000E+00  0.50625364554E+03  0.50625364555E+03  0.25500000000E-02 0.  1.
         -2   -1    0    0    0  501 -0.00000000000E+00 -0.00000000000E+00 -0.75985984960E+02  0.75985985002E+02  0.25500000000E-02 0. -1.
    5000001    1    1    2    0    0  0.42533001559E+02  0.12964427706E+02  0.35801277694E+03  0.39670553445E+03  0.16500000000E+03 0.  0.
   -5000001    1    1    2    0    0 -0.42533001559E+02 -0.12964427706E+02  0.72254883642E+02  0.18553409610E+03  0.16500000000E+03 0.  0.
<mgrwt>
<rscale>  0 0.39226614E+03</rscale>
<asrwt>0</asrwt>
<pdfrwt beam="1">  1        2 0.72321948E-01 0.39226614E+03</pdfrwt>
<pdfrwt beam="2">  1       -2 0.10855141E-01 0.39226614E+03</pdfrwt>
<totfact> 0.39069862E+03</totfact>
</mgrwt>
</event>
<event>
 4    1  0.5399378E-005  0.4808448E+03  0.7818608E-02  0.1018903E+00
         -2   -1    0    0    0  501 -0.00000000000E+00  0.00000000000E+00  0.90121943808E+03  0.90121943808E+03  0.25500000000E-02 0. -1.
          2   -1    0    0  501    0  0.00000000000E+00 -0.00000000000E+00 -0.64138585664E+02  0.64138585715E+02  0.25500000000E-02 0.  1.
    5000001    1    1    2    0    0 -0.15414106423E+03  0.82532256842E+02  0.42381367590E+03  0.48725155001E+03  0.16500000000E+03 0.  0.
   -5000001    1    1    2    0    0  0.15414106423E+03 -0.82532256842E+02  0.41326717651E+03  0.47810647379E+03  0.16500000000E+03 0.  0.
<mgrwt>
<rscale>  0 0.48084484E+03</rscale>
<asrwt>0</asrwt>
<pdfrwt beam="1">  1        2 0.91626554E-02 0.48084484E+03</pdfrwt>
<pdfrwt beam="2">  1       -2 0.12874563E+00 0.48084484E+03</pdfrwt>
<totfact> 0.33520659E+02</totfact>
</mgrwt>
</event>
<event>
 4    1  0.5399378E-005  0.7799671E+03  0.7818608E-02  0.9589475E-01
          2   -1    0    0  501    0  0.00000000000E+00  0.00000000000E+00  0.11200027289E+04  0.11200027289E+04  0.25500000000E-02 0.  1.
         -2   -1    0    0    0  501 -0.00000000000E+00 -0.00000000000E+00 -0.13579179843E+03  0.13579179846E+03  0.25500000000E-02 0. -1.
    5000001    1    1    2    0    0  0.20460036796E+03  0.25262529209E+03  0.26911735501E+03  0.45313353390E+03  0.16500000000E+03 0.  0.
   -5000001    1    1    2    0    0 -0.20460036796E+03 -0.25262529209E+03  0.71509357544E+03  0.80266099346E+03  0.16500000000E+03 0.  0.
<mgrwt>
<rscale>  0 0.77996714E+03</rscale>
<asrwt>0</asrwt>
<pdfrwt beam="1">  1        2 0.16000039E+00 0.77996714E+03</pdfrwt>
<pdfrwt beam="2">  1       -2 0.19398828E-01 0.77996714E+03</pdfrwt>
<totfact> 0.53720757E+02</totfact>
</mgrwt>
</event>
<event>
 4    1  0.5399378E-005  0.6699083E+03  0.7818608E-02  0.9770123E-01
         -2   -1    0    0    0  501 -0.00000000000E+00  0.00000000000E+00  0.53148089168E+02  0.53148089229E+02  0.25500000000E-02 0. -1.
          2   -1    0    0  501    0  0.00000000000E+00 -0.00000000000E+00 -0.21109750421E+04  0.21109750421E+04  0.25500000000E-02 0.  1.
    5000001    1    1    2    0    0  0.28641503444E+03  0.19504511877E+02 -0.86561322496E+03  0.92678220374E+03  0.16500000000E+03 0.  0.
   -5000001    1    1    2    0    0 -0.28641503444E+03 -0.19504511877E+02 -0.11922137279E+04  0.12373409276E+04  0.16500000000E+03 0.  0.
<mgrwt>
<rscale>  0 0.66990832E+03</rscale>
<asrwt>0</asrwt>
<pdfrwt beam="1">  1        2 0.30156781E+00 0.66990832E+03</pdfrwt>
<pdfrwt beam="2">  1       -2 0.75925855E-02 0.66990832E+03</pdfrwt>
<totfact> 0.77284391E+02</totfact>
</mgrwt>
</event>
<event>
 4    1  0.5399378E-005  0.4495791E+03  0.7818608E-02  0.1027848E+00
          2   -1    0    0  501    0  0.00000000000E+00  0.00000000000E+00  0.34314919048E+03  0.34314919049E+03  0.25500000000E-02 0.  1.
         -2   -1    0    0    0  501 -0.00000000000E+00 -0.00000000000E+00 -0.14725470655E+03  0.14725470657E+03  0.25500000000E-02 0. -1.
    5000001    1    1    2    0    0  0.28785915601E+02  0.11899043261E+03 -0.15375753654E+01  0.20546220121E+03  0.16500000000E+03 0.  0.
   -5000001    1    1    2    0    0 -0.28785915601E+02 -0.11899043261E+03  0.19743205930E+03  0.28494169584E+03  0.16500000000E+03 0.  0.
<mgrwt>
<rscale>  0 0.44957906E+03</rscale>
<asrwt>0</asrwt>
<pdfrwt beam="1">  1        2 0.49021312E-01 0.44957906E+03</pdfrwt>
<pdfrwt beam="2">  1       -2 0.21036387E-01 0.44957906E+03</pdfrwt>
<totfact> 0.19877796E+03</totfact>
</mgrwt>
</event>
<event>
 4    1  0.5399378E-005  0.9854873E+03  0.7818608E-02  0.9324607E-01
          2   -1    0    0  501    0  0.00000000000E+00  0.00000000000E+00  0.28876558032E+04  0.28876558032E+04  0.25500000000E-02 0.  1.
         -2   -1    0    0    0  501 -0.00000000000E+00 -0.00000000000E+00 -0.84080768759E+02  0.84080768798E+02  0.25500000000E-02 0. -1.
    5000001    1    1    2    0    0  0.33233511543E+03  0.62253787641E+00  0.23794992546E+04  0.24082542887E+04  0.16500000000E+03 0.  0.
   -5000001    1    1    2    0    0 -0.33233511543E+03 -0.62253787641E+00  0.42407577978E+03  0.56348228322E+03  0.16500000000E+03 0.  0.
<mgrwt>
<rscale>  0 0.98548733E+03</rscale>
<asrwt>0</asrwt>
<pdfrwt beam="1">  1        2 0.41252216E+00 0.98548733E+03</pdfrwt>
<pdfrwt beam="2">  1       -2 0.12011541E-01 0.98548733E+03</pdfrwt>
<totfact> 0.14117123E+02</totfact>
</mgrwt>
</event>
<event>
 4    1  0.5399378E-005  0.6187734E+03  0.7818608E-02  0.9867205E-01
          2   -1    0    0  501    0  0.00000000000E+00  0.00000000000E+00  0.32007625228E+04  0.32007625228E+04  0.25500000000E-02 0. -1.
         -2   -1    0    0    0  501 -0.00000000000E+00 -0.00000000000E+00 -0.29905415519E+02  0.29905415628E+02  0.25500000000E-02 0.  1.
    5000001    1    1    2    0    0  0.59891330313E+02  0.21869787997E+03  0.90309461408E+03  0.94563238953E+03  0.16500000000E+03 0.  0.
   -5000001    1    1    2    0    0 -0.59891330313E+02 -0.21869787997E+03  0.22677624932E+04  0.22850355489E+04  0.16500000000E+03 0.  0.
<mgrwt>
<rscale>  0 0.61877341E+03</rscale>
<asrwt>0</asrwt>
<pdfrwt beam="1">  1        2 0.45725145E+00 0.61877341E+03</pdfrwt>
<pdfrwt beam="2">  1       -2 0.42722054E-02 0.61877341E+03</pdfrwt>
<totfact> 0.51035795E+02</totfact>
</mgrwt>
</event>
<event>
 4    1  0.5399378E-005  0.5498134E+03  0.7818608E-02  0.1001537E+00
         -2   -1    0    0    0  501 -0.00000000000E+00  0.00000000000E+00  0.30726454392E+02  0.30726454498E+02  0.25500000000E-02 0. -1.
          2   -1    0    0  501    0  0.00000000000E+00 -0.00000000000E+00 -0.24595643767E+04  0.24595643767E+04  0.25500000000E-02 0.  1.
    5000001    1    1    2    0    0 -0.86653366284E+02  0.91277963875E+02 -0.39777764470E+03  0.44865635758E+03  0.16500000000E+03 0.  0.
   -5000001    1    1    2    0    0  0.86653366284E+02 -0.91277963875E+02 -0.20310602776E+04  0.20416344736E+04  0.16500000000E+03 0.  0.
<mgrwt>
<rscale>  0 0.54981340E+03</rscale>
<asrwt>0</asrwt>
<pdfrwt beam="1">  1        2 0.35136621E+00 0.54981340E+03</pdfrwt>
<pdfrwt beam="2">  1       -2 0.43894951E-02 0.54981340E+03</pdfrwt>
<totfact> 0.12224417E+03</totfact>
</mgrwt>
</event>
<event>
 4    1  0.5399378E-005  0.7101468E+03  0.7818608E-02  0.9700035E-01
          2   -1    0    0  501    0  0.00000000000E+00  0.00000000000E+00  0.21720045981E+04  0.21720045981E+04  0.25500000000E-02 0.  1.
         -2   -1    0    0    0  501 -0.00000000000E+00 -0.00000000000E+00 -0.58046432285E+02  0.58046432341E+02  0.25500000000E-02 0. -1.
    5000001    1    1    2    0    0 -0.13261515787E+03 -0.28504228638E+03  0.10443269744E+04  0.11030320551E+04  0.16500000000E+03 0.  0.
   -5000001    1    1    2    0    0  0.13261515787E+03  0.28504228638E+03  0.10696311913E+04  0.11270189753E+04  0.16500000000E+03 0.  0.
<mgrwt>
<rscale>  0 0.71014680E+03</rscale>
<asrwt>0</asrwt>
<pdfrwt beam="1">  1        2 0.31028643E+00 0.71014680E+03</pdfrwt>
<pdfrwt beam="2">  1       -2 0.82923458E-02 0.71014680E+03</pdfrwt>
<totfact> 0.62365422E+02</totfact>
</mgrwt>
</event>
<event>
 4    1  0.5399378E-005  0.4367760E+03  0.7818608E-02  0.1031741E+00
         -2   -1    0    0    0  501 -0.00000000000E+00  0.00000000000E+00  0.35276106154E+02  0.35276106246E+02  0.25500000000E-02 0.  1.
          2   -1    0    0  501    0  0.00000000000E+00 -0.00000000000E+00 -0.13520008347E+04  0.13520008347E+04  0.25500000000E-02 0. -1.
    5000001    1    1    2    0    0  0.10413661174E+03  0.94473957087E+02 -0.74230972059E+03  0.77331654822E+03  0.16500000000E+03 0.  0.
   -5000001    1    1    2    0    0 -0.10413661174E+03 -0.94473957087E+02 -0.57441500795E+03  0.61396039272E+03  0.16500000000E+03 0.  0.
<mgrwt>
<rscale>  0 0.43677603E+03</rscale>
<asrwt>0</asrwt>
<pdfrwt beam="1">  1        2 0.19314294E+00 0.43677603E+03</pdfrwt>
<pdfrwt beam="2">  1       -2 0.50394446E-02 0.43677603E+03</pdfrwt>
<totfact> 0.36069534E+03</totfact>
</mgrwt>
</event>
<event>
 4    1  0.5399378E-005  0.6115434E+03  0.7818608E-02  0.9881742E-01
          2   -1    0    0  501    0  0.00000000000E+00  0.00000000000E+00  0.25819282646E+03  0.25819282647E+03  0.25500000000E-02 0.  1.
         -2   -1    0    0    0  501 -0.00000000000E+00 -0.00000000000E+00 -0.36211819870E+03  0.36211819871E+03  0.25500000000E-02 0. -1.
    5000001    1    1    2    0    0  0.74473933274E+02  0.24390888772E+03 -0.16339250704E+02  0.30418725048E+03  0.16500000000E+03 0.  0.
   -5000001    1    1    2    0    0 -0.74473933274E+02 -0.24390888772E+03 -0.87586121532E+02  0.31612377470E+03  0.16500000000E+03 0.  0.
<mgrwt>
<rscale>  0 0.61154336E+03</rscale>
<asrwt>0</asrwt>
<pdfrwt beam="1">  1        2 0.36884690E-01 0.61154336E+03</pdfrwt>
<pdfrwt beam="2">  1       -2 0.51731171E-01 0.61154336E+03</pdfrwt>
<totfact> 0.50168694E+02</totfact>
</mgrwt>
</event>
<event>
 4    1  0.5399378E-005  0.5564579E+03  0.7818608E-02  0.1000010E+00
          2   -1    0    0  501    0  0.00000000000E+00  0.00000000000E+00  0.51813904172E+03  0.51813904172E+03  0.25500000000E-02 0.  1.
         -2   -1    0    0    0  501 -0.00000000000E+00 -0.00000000000E+00 -0.14940266448E+03  0.14940266450E+03  0.25500000000E-02 0. -1.
    5000001    1    1    2    0    0 -0.90862867973E+01  0.14126024193E+03  0.39266612175E+03  0.44883036854E+03  0.16500000000E+03 0.  0.
   -5000001    1    1    2    0    0  0.90862867973E+01 -0.14126024193E+03 -0.23929744508E+02  0.21871133768E+03  0.16500000000E+03 0.  0.
<mgrwt>
<rscale>  0 0.55645792E+03</rscale>
<asrwt>0</asrwt>
<pdfrwt beam="1">  1        2 0.74019864E-01 0.55645792E+03</pdfrwt>
<pdfrwt beam="2">  1       -2 0.21343238E-01 0.55645792E+03</pdfrwt>
<totfact> 0.12263528E+03</totfact>
</mgrwt>
</event>
<event>
 4    1  0.5399378E-005  0.4966289E+03  0.7818608E-02  0.1014663E+00
          2   -1    0    0  501    0  0.00000000000E+00  0.00000000000E+00  0.63340919670E+03  0.63340919671E+03  0.25500000000E-02 0.  1.
         -2   -1    0    0    0  501 -0.00000000000E+00 -0.00000000000E+00 -0.97346334516E+02  0.97346334550E+02  0.25500000000E-02 0. -1.
    5000001    1    1    2    0    0  0.16441969266E+03 -0.27521234557E+02  0.38796720162E+03  0.45335946358E+03  0.16500000000E+03 0.  0.
   -5000001    1    1    2    0    0 -0.16441969266E+03  0.27521234557E+02  0.14809566057E+03  0.27739606768E+03  0.16500000000E+03 0.  0.
<mgrwt>
<rscale>  0 0.49662889E+03</rscale>
<asrwt>0</asrwt>
<pdfrwt beam="1">  1        2 0.90487026E-01 0.49662889E+03</pdfrwt>
<pdfrwt beam="2">  1       -2 0.13906620E-01 0.49662889E+03</pdfrwt>
<totfact> 0.20170081E+03</totfact>
</mgrwt>
</event>
<event>
 4    1  0.5399378E-005  0.3946444E+03  0.7818608E-02  0.1045650E+00
          2   -1    0    0  501    0  0.00000000000E+00  0.00000000000E+00  0.25245349113E+04  0.25245349113E+04  0.25500000000E-02 0.  1.
         -2   -1    0    0    0  501 -0.00000000000E+00 -0.00000000000E+00 -0.15423055794E+02  0.15423056005E+02  0.25500000000E-02 0. -1.
    5000001    1    1    2    0    0 -0.82681288310E+02 -0.13124819680E+02  0.16959119272E+04  0.17059750060E+04  0.16500000000E+03 0.  0.
   -5000001    1    1    2    0    0  0.82681288310E+02  0.13124819680E+02  0.81319992834E+03  0.83398296132E+03  0.16500000000E+03 0.  0.
<mgrwt>
<rscale>  0 0.39464436E+03</rscale>
<asrwt>0</asrwt>
<pdfrwt beam="1">  1        2 0.36064776E+00 0.39464436E+03</pdfrwt>
<pdfrwt beam="2">  1       -2 0.22032942E-02 0.39464436E+03</pdfrwt>
<totfact> 0.32458153E+03</totfact>
</mgrwt>
</event>
<event>
 4    1  0.5399378E-005  0.7127679E+03  0.7818608E-02  0.9695643E-01
         -2   -1    0    0    0  501 -0.00000000000E+00  0.00000000000E+00  0.13786378538E+03  0.13786378540E+03  0.25500000000E-02 0. -1.
          2   -1    0    0  501    0  0.00000000000E+00 -0.00000000000E+00 -0.92126830275E+03  0.92126830275E+03  0.25500000000E-02 0.  1.
    5000001    1    1    2    0    0  0.10406155967E+03  0.23219553842E+03 -0.66985923703E+03  0.73530944078E+03  0.16500000000E+03 0.  0.
   -5000001    1    1    2    0    0 -0.10406155967E+03 -0.23219553842E+03 -0.11354528034E+03  0.32382264737E+03  0.16500000000E+03 0.  0.
<mgrwt>
<rscale>  0 0.71276794E+03</rscale>
<asrwt>0</asrwt>
<pdfrwt beam="1">  1        2 0.13160975E+00 0.71276794E+03</pdfrwt>
<pdfrwt beam="2">  1       -2 0.19694827E-01 0.71276794E+03</pdfrwt>
<totfact> 0.69303297E+02</totfact>
</mgrwt>
</event>
<event>
 4    1  0.5399378E-005  0.4649140E+03  0.7818608E-02  0.1023366E+00
         -2   -1    0    0    0  501 -0.00000000000E+00  0.00000000000E+00  0.84225418209E+02  0.84225418247E+02  0.25500000000E-02 0. -1.
          2   -1    0    0  501    0  0.00000000000E+00 -0.00000000000E+00 -0.64156720645E+03  0.64156720646E+03  0.25500000000E-02 0.  1.
    5000001    1    1    2    0    0 -0.12029753531E+03  0.20469479765E+02 -0.10822284412E+03  0.23200793218E+03  0.16500000000E+03 0.  0.
   -5000001    1    1    2    0    0  0.12029753531E+03 -0.20469479765E+02 -0.44911894412E+03  0.49378469252E+03  0.16500000000E+03 0.  0.
<mgrwt>
<rscale>  0 0.46491404E+03</rscale>
<asrwt>0</asrwt>
<pdfrwt beam="1">  1        2 0.91652455E-01 0.46491404E+03</pdfrwt>
<pdfrwt beam="2">  1       -2 0.12032203E-01 0.46491404E+03</pdfrwt>
<totfact> 0.25216644E+03</totfact>
</mgrwt>
</event>
<event>
 4    1  0.5399378E-005  0.8325424E+03  0.7818608E-02  0.9514072E-01
          2   -1    0    0  501    0  0.00000000000E+00  0.00000000000E+00  0.88176161894E+03  0.88176161894E+03  0.25500000000E-02 0. -1.
         -2   -1    0    0    0  501 -0.00000000000E+00 -0.00000000000E+00 -0.19651762350E+03  0.19651762352E+03  0.25500000000E-02 0.  1.
    5000001    1    1    2    0    0  0.30775324068E+03  0.22657764426E+03  0.34610014257E+03  0.54134997434E+03  0.16500000000E+03 0.  0.
   -5000001    1    1    2    0    0 -0.30775324068E+03 -0.22657764426E+03  0.33914385286E+03  0.53692926812E+03  0.16500000000E+03 0.  0.
<mgrwt>
<rscale>  0 0.83254237E+03</rscale>
<asrwt>0</asrwt>
<pdfrwt beam="1">  1        2 0.12596594E+00 0.83254237E+03</pdfrwt>
<pdfrwt beam="2">  1       -2 0.28073947E-01 0.83254237E+03</pdfrwt>
<totfact> 0.38830581E+02</totfact>
</mgrwt>
</event>
<event>
 4    1  0.5399378E-005  0.4896743E+03  0.7818608E-02  0.1016510E+00
          2   -1    0    0  501    0  0.00000000000E+00  0.00000000000E+00  0.29352286779E+03  0.29352286780E+03  0.25500000000E-02 0.  1.
         -2   -1    0    0    0  501 -0.00000000000E+00 -0.00000000000E+00 -0.20422677869E+03  0.20422677870E+03  0.25500000000E-02 0. -1.
    5000001    1    1    2    0    0  0.16688544890E+03  0.55395913789E+02  0.87783333000E+02  0.25661327688E+03  0.16500000000E+03 0.  0.
   -5000001    1    1    2    0    0 -0.16688544890E+03 -0.55395913789E+02  0.15127560996E+01  0.24113636961E+03  0.16500000000E+03 0.  0.
<mgrwt>
<rscale>  0 0.48967430E+03</rscale>
<asrwt>0</asrwt>
<pdfrwt beam="1">  1        2 0.41931838E-01 0.48967430E+03</pdfrwt>
<pdfrwt beam="2">  1       -2 0.29175254E-01 0.48967430E+03</pdfrwt>
<totfact> 0.13165458E+03</totfact>
</mgrwt>
</event>
<event>
 4    1  0.5399378E-005  0.4995120E+03  0.7818608E-02  0.1013906E+00
         -2   -1    0    0    0  501 -0.00000000000E+00  0.00000000000E+00  0.42528651569E+02  0.42528651645E+02  0.25500000000E-02 0. -1.
          2   -1    0    0  501    0  0.00000000000E+00 -0.00000000000E+00 -0.14667304691E+04  0.14667304691E+04  0.25500000000E-02 0.  1.
    5000001    1    1    2    0    0 -0.20547552348E+02 -0.18633957385E+03 -0.72087380303E+03  0.76290804071E+03  0.16500000000E+03 0.  0.
   -5000001    1    1    2    0    0  0.20547552348E+02  0.18633957385E+03 -0.70332801451E+03  0.74635108005E+03  0.16500000000E+03 0.  0.
<mgrwt>
<rscale>  0 0.49951204E+03</rscale>
<asrwt>0</asrwt>
<pdfrwt beam="1">  1        2 0.20953289E+00 0.49951204E+03</pdfrwt>
<pdfrwt beam="2">  1       -2 0.60755226E-02 0.49951204E+03</pdfrwt>
<totfact> 0.23485561E+03</totfact>
</mgrwt>
</event>
<event>
 4    1  0.5399378E-005  0.4356879E+03  0.7818608E-02  0.1032078E+00
         -2   -1    0    0    0  501 -0.00000000000E+00  0.00000000000E+00  0.69842501757E+02  0.69842501804E+02  0.25500000000E-02 0. -1.
          2   -1    0    0  501    0  0.00000000000E+00 -0.00000000000E+00 -0.67947152901E+03  0.67947152902E+03  0.25500000000E-02 0.  1.
    5000001    1    1    2    0    0  0.71851372892E+02 -0.11035799972E+03 -0.39726271359E+03  0.44987128326E+03  0.16500000000E+03 0.  0.
   -5000001    1    1    2    0    0 -0.71851372892E+02  0.11035799972E+03 -0.21236631366E+03  0.29944274756E+03  0.16500000000E+03 0.  0.
<mgrwt>
<rscale>  0 0.43568792E+03</rscale>
<asrwt>0</asrwt>
<pdfrwt beam="1">  1        2 0.97067357E-01 0.43568792E+03</pdfrwt>
<pdfrwt beam="2">  1       -2 0.99775007E-02 0.43568792E+03</pdfrwt>
<totfact> 0.31888842E+03</totfact>
</mgrwt>
</event>
<event>
 4    1  0.5399378E-005  0.4441069E+03  0.7818608E-02  0.1029494E+00
          2   -1    0    0  501    0  0.00000000000E+00  0.00000000000E+00  0.14804752838E+04  0.14804752838E+04  0.25500000000E-02 0.  1.
         -2   -1    0    0    0  501 -0.00000000000E+00 -0.00000000000E+00 -0.33305339914E+02  0.33305340011E+02  0.25500000000E-02 0. -1.
    5000001    1    1    2    0    0  0.73562073008E+02  0.12587388075E+03  0.82161513910E+03  0.85060687114E+03  0.16500000000E+03 0.  0.
   -5000001    1    1    2    0    0 -0.73562073008E+02 -0.12587388075E+03  0.62555480480E+03  0.66317375268E+03  0.16500000000E+03 0.  0.
<mgrwt>
<rscale>  0 0.44410689E+03</rscale>
<asrwt>0</asrwt>
<pdfrwt beam="1">  1        2 0.21149647E+00 0.44410689E+03</pdfrwt>
<pdfrwt beam="2">  1       -2 0.47579056E-02 0.44410689E+03</pdfrwt>
<totfact> 0.33753782E+03</totfact>
</mgrwt>
</event>
<event>
 4    1  0.5399378E-005  0.4583016E+03  0.7818608E-02  0.1025275E+00
          2   -1    0    0  501    0  0.00000000000E+00  0.00000000000E+00  0.49381667238E+03  0.49381667239E+03  0.25500000000E-02 0.  1.
         -2   -1    0    0    0  501 -0.00000000000E+00 -0.00000000000E+00 -0.10633519354E+03  0.10633519357E+03  0.25500000000E-02 0. -1.
    5000001    1    1    2    0    0 -0.33624786786E+02 -0.14643356589E+03  0.12554948633E+03  0.25604899731E+03  0.16500000000E+03 0.  0.
   -5000001    1    1    2    0    0  0.33624786786E+02  0.14643356589E+03  0.26193199252E+03  0.34410286864E+03  0.16500000000E+03 0.  0.
<mgrwt>
<rscale>  0 0.45830161E+03</rscale>
<asrwt>0</asrwt>
<pdfrwt beam="1">  1        2 0.70545240E-01 0.45830161E+03</pdfrwt>
<pdfrwt beam="2">  1       -2 0.15190742E-01 0.45830161E+03</pdfrwt>
<totfact> 0.23173288E+03</totfact>
</mgrwt>
</event>
<event>
 4    1  0.5399378E-005  0.5301687E+03  0.7818608E-02  0.1006191E+00
         -2   -1    0    0    0  501 -0.00000000000E+00  0.00000000000E+00  0.16359780557E+02  0.16359780756E+02  0.25500000000E-02 0. -1.
          2   -1    0    0  501    0  0.00000000000E+00 -0.00000000000E+00 -0.42952725938E+04  0.42952725938E+04  0.25500000000E-02 0.  1.
    5000001    1    1    2    0    0  0.16579366945E+01 -0.18021268321E+03 -0.13035267669E+04  0.13262301429E+04  0.16500000000E+03 0.  0.
   -5000001    1    1    2    0    0 -0.16579366945E+01  0.18021268321E+03 -0.29753860463E+04  0.29854022316E+04  0.16500000000E+03 0.  0.
<mgrwt>
<rscale>  0 0.53016872E+03</rscale>
<asrwt>0</asrwt>
<pdfrwt beam="1">  1        2 0.61360965E+00 0.53016872E+03</pdfrwt>
<pdfrwt beam="2">  1       -2 0.23371143E-02 0.53016872E+03</pdfrwt>
<totfact> 0.26346103E+02</totfact>
</mgrwt>
</event>
<event>
 4    1  0.5399378E-005  0.7501518E+03  0.7818608E-02  0.9635112E-01
          2   -1    0    0  501    0  0.00000000000E+00  0.00000000000E+00  0.23442500144E+04  0.23442500144E+04  0.25500000000E-02 0.  1.
         -2   -1    0    0    0  501 -0.00000000000E+00 -0.00000000000E+00 -0.60011491373E+02  0.60011491427E+02  0.25500000000E-02 0. -1.
    5000001    1    1    2    0    0 -0.17431707695E+03 -0.26959403822E+03  0.14688055596E+04  0.15125085655E+04  0.16500000000E+03 0.  0.
   -5000001    1    1    2    0    0  0.17431707695E+03  0.26959403822E+03  0.81543296341E+03  0.89175294033E+03  0.16500000000E+03 0.  0.
<mgrwt>
<rscale>  0 0.75015182E+03</rscale>
<asrwt>0</asrwt>
<pdfrwt beam="1">  1        2 0.33489279E+00 0.75015182E+03</pdfrwt>
<pdfrwt beam="2">  1       -2 0.85730720E-02 0.75015182E+03</pdfrwt>
<totfact> 0.48188828E+02</totfact>
</mgrwt>
</event>
<event>
 4    1  0.5399378E-005  0.4317606E+03  0.7818608E-02  0.1033305E+00
          2   -1    0    0  501    0  0.00000000000E+00  0.00000000000E+00  0.31980990665E+04  0.31980990665E+04  0.25500000000E-02 0.  1.
         -2   -1    0    0    0  501 -0.00000000000E+00 -0.00000000000E+00 -0.14572501981E+02  0.14572502204E+02  0.25500000000E-02 0. -1.
    5000001    1    1    2    0    0  0.13083103410E+03 -0.45160848177E+02  0.17028899383E+04  0.17164543116E+04  0.16500000000E+03 0.  0.
   -5000001    1    1    2    0    0 -0.13083103410E+03  0.45160848177E+02  0.14806366262E+04  0.14962172571E+04  0.16500000000E+03 0.  0.
<mgrwt>
<rscale>  0 0.43176061E+03</rscale>
<asrwt>0</asrwt>
<pdfrwt beam="1">  1        2 0.45687141E+00 0.43176061E+03</pdfrwt>
<pdfrwt beam="2">  1       -2 0.20817855E-02 0.43176061E+03</pdfrwt>
<totfact> 0.15518834E+03</totfact>
</mgrwt>
</event>
<event>
 4    1  0.5399378E-005  0.4831259E+03  0.7818608E-02  0.1018280E+00
          2   -1    0    0  501    0  0.00000000000E+00  0.00000000000E+00  0.32403104875E+03  0.32403104876E+03  0.25500000000E-02 0.  1.
         -2   -1    0    0    0  501 -0.00000000000E+00 -0.00000000000E+00 -0.18008356584E+03  0.18008356586E+03  0.25500000000E-02 0. -1.
    5000001    1    1    2    0    0  0.88637226922E+02 -0.13256473388E+03 -0.67886201432E+01  0.22956709701E+03  0.16500000000E+03 0.  0.
   -5000001    1    1    2    0    0 -0.88637226922E+02  0.13256473388E+03  0.15073610306E+03  0.27454751762E+03  0.16500000000E+03 0.  0.
<mgrwt>
<rscale>  0 0.48312593E+03</rscale>
<asrwt>0</asrwt>
<pdfrwt beam="1">  1        2 0.46290150E-01 0.48312593E+03</pdfrwt>
<pdfrwt beam="2">  1       -2 0.25726224E-01 0.48312593E+03</pdfrwt>
<totfact> 0.14837620E+03</totfact>
</mgrwt>
</event>
<event>
 4    1  0.5399378E-005  0.6495823E+03  0.7818608E-02  0.9807563E-01
         -2   -1    0    0    0  501 -0.00000000000E+00  0.00000000000E+00  0.19523061291E+03  0.19523061293E+03  0.25500000000E-02 0. -1.
          2   -1    0    0  501    0  0.00000000000E+00 -0.00000000000E+00 -0.54033165464E+03  0.54033165464E+03  0.25500000000E-02 0.  1.
    5000001    1    1    2    0    0 -0.26299766638E+03  0.75843787314E+02 -0.23803421803E+03  0.39850387896E+03  0.16500000000E+03 0.  0.
   -5000001    1    1    2    0    0  0.26299766638E+03 -0.75843787314E+02 -0.10706682370E+03  0.33705838861E+03  0.16500000000E+03 0.  0.
<mgrwt>
<rscale>  0 0.64958227E+03</rscale>
<asrwt>0</asrwt>
<pdfrwt beam="1">  1        2 0.77190236E-01 0.64958227E+03</pdfrwt>
<pdfrwt beam="2">  1       -2 0.27890088E-01 0.64958227E+03</pdfrwt>
<totfact> 0.72312938E+02</totfact>
</mgrwt>
</event>
<event>
 4    1  0.5399378E-005  0.6221759E+03  0.7818608E-02  0.9860437E-01
          2   -1    0    0  501    0  0.00000000000E+00  0.00000000000E+00  0.15720399695E+04  0.15720399695E+04  0.25500000000E-02 0.  1.
         -2   -1    0    0    0  501 -0.00000000000E+00 -0.00000000000E+00 -0.61560586393E+02  0.61560586446E+02  0.25500000000E-02 0. -1.
    5000001    1    1    2    0    0  0.12269001473E+03 -0.14049903500E+03  0.12447472190E+04  0.12694146122E+04  0.16500000000E+03 0.  0.
   -5000001    1    1    2    0    0 -0.12269001473E+03  0.14049903500E+03  0.26573216408E+03  0.36418594369E+03  0.16500000000E+03 0.  0.
<mgrwt>
<rscale>  0 0.62217587E+03</rscale>
<asrwt>0</asrwt>
<pdfrwt beam="1">  1        2 0.22457710E+00 0.62217587E+03</pdfrwt>
<pdfrwt beam="2">  1       -2 0.87943709E-02 0.62217587E+03</pdfrwt>
<totfact> 0.11491998E+03</totfact>
</mgrwt>
</event>
<event>
 4    1  0.5399378E-005  0.3946921E+03  0.7818608E-02  0.1045633E+00
          2   -1    0    0  501    0  0.00000000000E+00  0.00000000000E+00  0.69892887942E+03  0.69892887943E+03  0.25500000000E-02 0.  1.
         -2   -1    0    0    0  501 -0.00000000000E+00 -0.00000000000E+00 -0.55721648430E+02  0.55721648488E+02  0.25500000000E-02 0. -1.
    5000001    1    1    2    0    0  0.11339659746E+02  0.10513395255E+03  0.36598229622E+03  0.41515030653E+03  0.16500000000E+03 0.  0.
   -5000001    1    1    2    0    0 -0.11339659746E+02 -0.10513395255E+03  0.27722493477E+03  0.33950022139E+03  0.16500000000E+03 0.  0.
<mgrwt>
<rscale>  0 0.39469213E+03</rscale>
<asrwt>0</asrwt>
<pdfrwt beam="1">  1        2 0.99846978E-01 0.39469213E+03</pdfrwt>
<pdfrwt beam="2">  1       -2 0.79602359E-02 0.39469213E+03</pdfrwt>
<totfact> 0.44104403E+03</totfact>
</mgrwt>
</event>
<event>
 4    1  0.5399378E-005  0.8822623E+03  0.7818608E-02  0.9448030E-01
         -2   -1    0    0    0  501 -0.00000000000E+00  0.00000000000E+00  0.22519206136E+03  0.22519206138E+03  0.25500000000E-02 0. -1.
          2   -1    0    0  501    0  0.00000000000E+00 -0.00000000000E+00 -0.86413657661E+03  0.86413657661E+03  0.25500000000E-02 0.  1.
    5000001    1    1    2    0    0 -0.35001623780E+03  0.21021824622E+03 -0.28754580820E+03  0.52593789518E+03  0.16500000000E+03 0.  0.
   -5000001    1    1    2    0    0  0.35001623780E+03 -0.21021824622E+03 -0.35139870705E+03  0.56339074281E+03  0.16500000000E+03 0.  0.
<mgrwt>
<rscale>  0 0.88226231E+03</rscale>
<asrwt>0</asrwt>
<pdfrwt beam="1">  1        2 0.12344808E+00 0.88226231E+03</pdfrwt>
<pdfrwt beam="2">  1       -2 0.32170295E-01 0.88226231E+03</pdfrwt>
<totfact> 0.30906898E+02</totfact>
</mgrwt>
</event>
<event>
 4    1  0.5399378E-005  0.6920259E+03  0.7818608E-02  0.9730967E-01
          2   -1    0    0  501    0  0.00000000000E+00  0.00000000000E+00  0.80353922429E+03  0.80353922429E+03  0.25500000000E-02 0.  1.
         -2   -1    0    0    0  501 -0.00000000000E+00 -0.00000000000E+00 -0.14899704571E+03  0.14899704573E+03  0.25500000000E-02 0. -1.
    5000001    1    1    2    0    0  0.46107478727E+02 -0.29231427683E+03  0.23066032602E+03  0.40988135117E+03  0.16500000000E+03 0.  0.
   -5000001    1    1    2    0    0 -0.46107478727E+02  0.29231427683E+03  0.42388185255E+03  0.54265491885E+03  0.16500000000E+03 0.  0.
<mgrwt>
<rscale>  0 0.69202593E+03</rscale>
<asrwt>0</asrwt>
<pdfrwt beam="1">  1        2 0.11479132E+00 0.69202593E+03</pdfrwt>
<pdfrwt beam="2">  1       -2 0.21285292E-01 0.69202593E+03</pdfrwt>
<totfact> 0.72503978E+02</totfact>
</mgrwt>
</event>
<event>
 4    1  0.5399378E-005  0.4533931E+03  0.7818608E-02  0.1026715E+00
         -2   -1    0    0    0  501 -0.00000000000E+00  0.00000000000E+00  0.20350030863E+03  0.20350030864E+03  0.25500000000E-02 0. -1.
          2   -1    0    0  501    0  0.00000000000E+00 -0.00000000000E+00 -0.25253680212E+03  0.25253680213E+03  0.25500000000E-02 0.  1.
    5000001    1    1    2    0    0 -0.15408386574E+03 -0.20394225520E+02 -0.27460207723E+02  0.22833489686E+03  0.16500000000E+03 0.  0.
   -5000001    1    1    2    0    0  0.15408386574E+03  0.20394225520E+02 -0.21576285765E+02  0.22770221392E+03  0.16500000000E+03 0.  0.
<mgrwt>
<rscale>  0 0.45339306E+03</rscale>
<asrwt>0</asrwt>
<pdfrwt beam="1">  1        2 0.36076686E-01 0.45339306E+03</pdfrwt>
<pdfrwt beam="2">  1       -2 0.29071473E-01 0.45339306E+03</pdfrwt>
<totfact> 0.15626820E+03</totfact>
</mgrwt>
</event>
<event>
 4    1  0.5399378E-005  0.5998548E+03  0.7818608E-02  0.9905707E-01
         -2   -1    0    0    0  501 -0.00000000000E+00  0.00000000000E+00  0.19243743220E+04  0.19243743220E+04  0.25500000000E-02 0. -1.
          2   -1    0    0  501    0  0.00000000000E+00 -0.00000000000E+00 -0.46745819007E+02  0.46745819077E+02  0.25500000000E-02 0.  1.
    5000001    1    1    2    0    0 -0.23594921645E+03 -0.80677805978E+02  0.86171492038E+03  0.91211761584E+03  0.16500000000E+03 0.  0.
   -5000001    1    1    2    0    0  0.23594921645E+03  0.80677805978E+02  0.10159135826E+04  0.10590025252E+04  0.16500000000E+03 0.  0.
<mgrwt>
<rscale>  0 0.59985483E+03</rscale>
<asrwt>0</asrwt>
<pdfrwt beam="1">  1        2 0.66779731E-02 0.59985483E+03</pdfrwt>
<pdfrwt beam="2">  1       -2 0.27491066E+00 0.59985483E+03</pdfrwt>
<totfact> 0.53224760E+01</totfact>
</mgrwt>
</event>
<event>
 4    1  0.5399378E-005  0.5043592E+03  0.7818608E-02  0.1012647E+00
         -2   -1    0    0    0  501 -0.00000000000E+00  0.00000000000E+00  0.11021901450E+03  0.11021901452E+03  0.25500000000E-02 0.  1.
          2   -1    0    0  501    0  0.00000000000E+00 -0.00000000000E+00 -0.57698343540E+03  0.57698343541E+03  0.25500000000E-02 0. -1.
    5000001    1    1    2    0    0 -0.70807335230E+02  0.12574032126E+03 -0.40326268450E+03  0.45898812602E+03  0.16500000000E+03 0.  0.
   -5000001    1    1    2    0    0  0.70807335230E+02 -0.12574032126E+03 -0.63501736401E+02  0.22821432391E+03  0.16500000000E+03 0.  0.
<mgrwt>
<rscale>  0 0.50435918E+03</rscale>
<asrwt>0</asrwt>
<pdfrwt beam="1">  1        2 0.82426204E-01 0.50435918E+03</pdfrwt>
<pdfrwt beam="2">  1       -2 0.15745574E-01 0.50435918E+03</pdfrwt>
<totfact> 0.18275908E+03</totfact>
</mgrwt>
</event>
<event>
 4    1  0.5399378E-005  0.1243764E+04  0.7818608E-02  0.9075390E-01
         -2   -1    0    0    0  501 -0.00000000000E+00  0.00000000000E+00  0.10164353366E+04  0.10164353366E+04  0.25500000000E-02 0.  1.
          2   -1    0    0  501    0  0.00000000000E+00 -0.00000000000E+00 -0.38048375332E+03  0.38048375333E+03  0.25500000000E-02 0. -1.
    5000001    1    1    2    0    0 -0.47924121532E+02 -0.48232034097E+03  0.71440152655E+03  0.87893354349E+03  0.16500000000E+03 0.  0.
   -5000001    1    1    2    0    0  0.47924121532E+02  0.48232034097E+03 -0.78449943259E+02  0.51798554645E+03  0.16500000000E+03 0.  0.
<mgrwt>
<rscale>  0 0.12437639E+04</rscale>
<asrwt>0</asrwt>
<pdfrwt beam="1">  1        2 0.54354822E-01 0.12437639E+04</pdfrwt>
<pdfrwt beam="2">  1       -2 0.14520505E+00 0.12437639E+04</pdfrwt>
<totfact> 0.29390751E+01</totfact>
</mgrwt>
</event>
<event>
 4    1  0.5399378E-005  0.4257220E+03  0.7818608E-02  0.1035220E+00
          2   -1    0    0  501    0  0.00000000000E+00  0.00000000000E+00  0.93431882868E+03  0.93431882868E+03  0.25500000000E-02 0.  1.
         -2   -1    0    0    0  501 -0.00000000000E+00 -0.00000000000E+00 -0.48495006754E+02  0.48495006821E+02  0.25500000000E-02 0. -1.
    5000001    1    1    2    0    0 -0.16807319466E+02 -0.56603706986E+02  0.72184293802E+03  0.74281134402E+03  0.16500000000E+03 0.  0.
   -5000001    1    1    2    0    0  0.16807319466E+02  0.56603706986E+02  0.16398088390E+03  0.24000249148E+03  0.16500000000E+03 0.  0.
<mgrwt>
<rscale>  0 0.42572197E+03</rscale>
<asrwt>0</asrwt>
<pdfrwt beam="1">  1        2 0.13347410E+00 0.42572197E+03</pdfrwt>
<pdfrwt beam="2">  1       -2 0.69278590E-02 0.42572197E+03</pdfrwt>
<totfact> 0.38021673E+03</totfact>
</mgrwt>
</event>
<event>
 4    1  0.5399378E-005  0.5028282E+03  0.7818608E-02  0.1013043E+00
          2   -1    0    0  501    0  0.00000000000E+00  0.00000000000E+00  0.31906191187E+04  0.31906191187E+04  0.25500000000E-02 0.  1.
         -2   -1    0    0    0  501 -0.00000000000E+00 -0.00000000000E+00 -0.19810905387E+02  0.19810905552E+02  0.25500000000E-02 0. -1.
    5000001    1    1    2    0    0  0.68199357364E+02 -0.13468168200E+03  0.85202653062E+03  0.88088848142E+03  0.16500000000E+03 0.  0.
   -5000001    1    1    2    0    0 -0.68199357364E+02  0.13468168200E+03  0.23187816827E+04  0.23295415428E+04  0.16500000000E+03 0.  0.
<mgrwt>
<rscale>  0 0.50282822E+03</rscale>
<asrwt>0</asrwt>
<pdfrwt beam="1">  1        2 0.45580268E+00 0.50282822E+03</pdfrwt>
<pdfrwt beam="2">  1       -2 0.28301297E-02 0.50282822E+03</pdfrwt>
<totfact> 0.98093886E+02</totfact>
</mgrwt>
</event>
<event>
 4    1  0.5399378E-005  0.6058748E+03  0.7818608E-02  0.9893292E-01
          2   -1    0    0  501    0  0.00000000000E+00  0.00000000000E+00  0.28099428436E+04  0.28099428436E+04  0.25500000000E-02 0.  1.
         -2   -1    0    0    0  501 -0.00000000000E+00 -0.00000000000E+00 -0.32659407861E+02  0.32659407961E+02  0.25500000000E-02 0. -1.
    5000001    1    1    2    0    0  0.17408369192E+03  0.11812555576E+03  0.72038208014E+03  0.76839711094E+03  0.16500000000E+03 0.  0.
   -5000001    1    1    2    0    0 -0.17408369192E+03 -0.11812555576E+03  0.20569013556E+04  0.20742051407E+04  0.16500000000E+03 0.  0.
<mgrwt>
<rscale>  0 0.60587480E+03</rscale>
<asrwt>0</asrwt>
<pdfrwt beam="1">  1        2 0.40142041E+00 0.60587480E+03</pdfrwt>
<pdfrwt beam="2">  1       -2 0.46656296E-02 0.60587480E+03</pdfrwt>
<totfact> 0.72849507E+02</totfact>
</mgrwt>
</event>
<event>
 4    1  0.5399378E-005  0.4770378E+03  0.7818608E-02  0.1019952E+00
         -2   -1    0    0    0  501 -0.00000000000E+00  0.00000000000E+00  0.12685429985E+03  0.12685429988E+03  0.25500000000E-02 0. -1.
          2   -1    0    0  501    0  0.00000000000E+00 -0.00000000000E+00 -0.44847716560E+03  0.44847716560E+03  0.25500000000E-02 0.  1.
    5000001    1    1    2    0    0 -0.15012176212E+03  0.30939981405E+01 -0.26257906051E+03  0.34455606120E+03  0.16500000000E+03 0.  0.
   -5000001    1    1    2    0    0  0.15012176212E+03 -0.30939981405E+01 -0.59043805228E+02  0.23077540428E+03  0.16500000000E+03 0.  0.
<mgrwt>
<rscale>  0 0.47703776E+03</rscale>
<asrwt>0</asrwt>
<pdfrwt beam="1">  1        2 0.64068166E-01 0.47703776E+03</pdfrwt>
<pdfrwt beam="2">  1       -2 0.18122043E-01 0.47703776E+03</pdfrwt>
<totfact> 0.19153116E+03</totfact>
</mgrwt>
</event>
<event>
 4    1  0.5399378E-005  0.4543016E+03  0.7818608E-02  0.1026447E+00
          2   -1    0    0  501    0  0.00000000000E+00  0.00000000000E+00  0.37758958976E+03  0.37758958977E+03  0.25500000000E-02 0.  1.
         -2   -1    0    0    0  501 -0.00000000000E+00 -0.00000000000E+00 -0.13664965131E+03  0.13664965134E+03  0.25500000000E-02 0. -1.
    5000001    1    1    2    0    0 -0.69729047998E+02  0.13926409401E+03  0.13265379102E+03  0.26282818777E+03  0.16500000000E+03 0.  0.
   -5000001    1    1    2    0    0  0.69729047998E+02 -0.13926409401E+03  0.10828614743E+03  0.25141105333E+03  0.16500000000E+03 0.  0.
<mgrwt>
<rscale>  0 0.45430160E+03</rscale>
<asrwt>0</asrwt>
<pdfrwt beam="1">  1        2 0.53941370E-01 0.45430160E+03</pdfrwt>
<pdfrwt beam="2">  1       -2 0.19521379E-01 0.45430160E+03</pdfrwt>
<totfact> 0.20376914E+03</totfact>
</mgrwt>
</event>
<event>
 4    1  0.5399378E-005  0.5378455E+03  0.7818608E-02  0.1004347E+00
         -2   -1    0    0    0  501 -0.00000000000E+00  0.00000000000E+00  0.61329988875E+02  0.61329988928E+02  0.25500000000E-02 0. -1.
          2   -1    0    0  501    0  0.00000000000E+00 -0.00000000000E+00 -0.11791854817E+04  0.11791854817E+04  0.25500000000E-02 0.  1.
    5000001    1    1    2    0    0 -0.79583391653E+02 -0.19320632331E+03 -0.47164035607E+03  0.54160116790E+03  0.16500000000E+03 0.  0.
   -5000001    1    1    2    0    0  0.79583391653E+02  0.19320632331E+03 -0.64621513675E+03  0.69891430273E+03  0.16500000000E+03 0.  0.
<mgrwt>
<rscale>  0 0.53784545E+03</rscale>
<asrwt>0</asrwt>
<pdfrwt beam="1">  1        2 0.16845506E+00 0.53784545E+03</pdfrwt>
<pdfrwt beam="2">  1       -2 0.87614277E-02 0.53784545E+03</pdfrwt>
<totfact> 0.18807878E+03</totfact>
</mgrwt>
</event>
<event>
 4    1  0.5399378E-005  0.5493898E+03  0.7818608E-02  0.1001635E+00
         -2   -1    0    0    0  501 -0.00000000000E+00  0.00000000000E+00  0.89800915114E+02  0.89800915150E+02  0.25500000000E-02 0. -1.
          2   -1    0    0  501    0  0.00000000000E+00 -0.00000000000E+00 -0.84027293472E+03  0.84027293473E+03  0.25500000000E-02 0.  1.
    5000001    1    1    2    0    0 -0.20636845121E+03  0.72641306321E+02 -0.34277861407E+03  0.43884721180E+03  0.16500000000E+03 0.  0.
   -5000001    1    1    2    0    0  0.20636845121E+03 -0.72641306321E+02 -0.40769340553E+03  0.49122663807E+03  0.16500000000E+03 0.  0.
<mgrwt>
<rscale>  0 0.54938977E+03</rscale>
<asrwt>0</asrwt>
<pdfrwt beam="1">  1        2 0.12003899E+00 0.54938977E+03</pdfrwt>
<pdfrwt beam="2">  1       -2 0.12828703E-01 0.54938977E+03</pdfrwt>
<totfact> 0.16261889E+03</totfact>
</mgrwt>
</event>
<event>
 4    1  0.5399378E-005  0.1741245E+04  0.7818608E-02  0.8738184E-01
          2   -1    0    0  501    0  0.00000000000E+00  0.00000000000E+00  0.19652165779E+04  0.19652165779E+04  0.25500000000E-02 0.  1.
         -2   -1    0    0    0  501 -0.00000000000E+00 -0.00000000000E+00 -0.38569972393E+03  0.38569972394E+03  0.25500000000E-02 0. -1.
    5000001    1    1    2    0    0  0.74407737794E+03  0.40558766147E+03  0.94134679652E+03  0.12773062620E+04  0.16500000000E+03 0.  0.
   -5000001    1    1    2    0    0 -0.74407737794E+03 -0.40558766147E+03  0.63817005743E+03  0.10736100399E+04  0.16500000000E+03 0.  0.
<mgrwt>
<rscale>  0 0.17412449E+04</rscale>
<asrwt>0</asrwt>
<pdfrwt beam="1">  1        2 0.28074523E+00 0.17412449E+04</pdfrwt>
<pdfrwt beam="2">  1       -2 0.55099959E-01 0.17412449E+04</pdfrwt>
<totfact> 0.24624009E+01</totfact>
</mgrwt>
</event>
<event>
 4    1  0.5399378E-005  0.5832179E+03  0.7818608E-02  0.9940848E-01
          2   -1    0    0  501    0  0.00000000000E+00  0.00000000000E+00  0.68924496577E+03  0.68924496577E+03  0.25500000000E-02 0.  1.
         -2   -1    0    0    0  501 -0.00000000000E+00 -0.00000000000E+00 -0.12337528140E+03  0.12337528143E+03  0.25500000000E-02 0. -1.
    5000001    1    1    2    0    0 -0.21137659201E+03  0.11434003117E+03  0.29346218326E+03  0.41364085797E+03  0.16500000000E+03 0.  0.
   -5000001    1    1    2    0    0  0.21137659201E+03 -0.11434003117E+03  0.27240750110E+03  0.39897938923E+03  0.16500000000E+03 0.  0.
<mgrwt>
<rscale>  0 0.58321794E+03</rscale>
<asrwt>0</asrwt>
<pdfrwt beam="1">  1        2 0.98463567E-01 0.58321794E+03</pdfrwt>
<pdfrwt beam="2">  1       -2 0.17625040E-01 0.58321794E+03</pdfrwt>
<totfact> 0.12215620E+03</totfact>
</mgrwt>
</event>
<event>
 4    1  0.5399378E-005  0.6290795E+03  0.7818608E-02  0.9846847E-01
          2   -1    0    0  501    0  0.00000000000E+00  0.00000000000E+00  0.18320797918E+04  0.18320797918E+04  0.25500000000E-02 0.  1.
         -2   -1    0    0    0  501 -0.00000000000E+00 -0.00000000000E+00 -0.54001606165E+02  0.54001606225E+02  0.25500000000E-02 0. -1.
    5000001    1    1    2    0    0 -0.22607658942E+03 -0.95207046198E+02  0.56702985850E+03  0.63947077053E+03  0.16500000000E+03 0.  0.
   -5000001    1    1    2    0    0  0.22607658942E+03  0.95207046198E+02  0.12110483271E+04  0.12466106275E+04  0.16500000000E+03 0.  0.
<mgrwt>
<rscale>  0 0.62907949E+03</rscale>
<asrwt>0</asrwt>
<pdfrwt beam="1">  1        2 0.26172564E+00 0.62907949E+03</pdfrwt>
<pdfrwt beam="2">  1       -2 0.77145164E-02 0.62907949E+03</pdfrwt>
<totfact> 0.10438699E+03</totfact>
</mgrwt>
</event>
<event>
 4    1  0.5399378E-005  0.6471964E+03  0.7818608E-02  0.9812054E-01
         -2   -1    0    0    0  501 -0.00000000000E+00  0.00000000000E+00  0.56806623451E+03  0.56806623452E+03  0.25500000000E-02 0. -1.
          2   -1    0    0  501    0  0.00000000000E+00 -0.00000000000E+00 -0.18433732258E+03  0.18433732260E+03  0.25500000000E-02 0.  1.
    5000001    1    1    2    0    0 -0.15055085568E+02 -0.23796172099E+03  0.35887828842E+03  0.46137952074E+03  0.16500000000E+03 0.  0.
   -5000001    1    1    2    0    0  0.15055085568E+02  0.23796172099E+03  0.24850623504E+02  0.29102403637E+03  0.16500000000E+03 0.  0.
<mgrwt>
<rscale>  0 0.64719644E+03</rscale>
<asrwt>0</asrwt>
<pdfrwt beam="1">  1        2 0.26333903E-01 0.64719644E+03</pdfrwt>
<pdfrwt beam="2">  1       -2 0.81152320E-01 0.64719644E+03</pdfrwt>
<totfact> 0.27912564E+02</totfact>
</mgrwt>
</event>
<event>
 4    1  0.5399378E-005  0.4098731E+03  0.7818608E-02  0.1040414E+00
          2   -1    0    0  501    0  0.00000000000E+00  0.00000000000E+00  0.35393681555E+04  0.35393681555E+04  0.25500000000E-02 0.  1.
         -2   -1    0    0    0  501 -0.00000000000E+00 -0.00000000000E+00 -0.11866239817E+02  0.11866240091E+02  0.25500000000E-02 0. -1.
    5000001    1    1    2    0    0  0.38712860564E+02 -0.86778698767E+02  0.24204494127E+04  0.24279270144E+04  0.16500000000E+03 0.  0.
   -5000001    1    1    2    0    0 -0.38712860564E+02  0.86778698767E+02  0.11070525030E+04  0.11233073812E+04  0.16500000000E+03 0.  0.
<mgrwt>
<rscale>  0 0.40987311E+03</rscale>
<asrwt>0</asrwt>
<pdfrwt beam="1">  1        2 0.50562464E+00 0.40987311E+03</pdfrwt>
<pdfrwt beam="2">  1       -2 0.16951751E-02 0.40987311E+03</pdfrwt>
<totfact> 0.13460035E+03</totfact>
</mgrwt>
</event>
<event>
 4    1  0.5399378E-005  0.7606188E+03  0.7818608E-02  0.9618837E-01
          2   -1    0    0  501    0  0.00000000000E+00  0.00000000000E+00  0.55260990383E+03  0.55260990384E+03  0.25500000000E-02 0.  1.
         -2   -1    0    0    0  501 -0.00000000000E+00 -0.00000000000E+00 -0.26173119950E+03  0.26173119951E+03  0.25500000000E-02 0. -1.
    5000001    1    1    2    0    0  0.11805097815E+03  0.30550249277E+03  0.37616543003E+02  0.36865676562E+03  0.16500000000E+03 0.  0.
   -5000001    1    1    2    0    0 -0.11805097815E+03 -0.30550249277E+03  0.25326216133E+03  0.44568433773E+03  0.16500000000E+03 0.  0.
<mgrwt>
<rscale>  0 0.76061883E+03</rscale>
<asrwt>0</asrwt>
<pdfrwt beam="1">  1        2 0.78944272E-01 0.76061883E+03</pdfrwt>
<pdfrwt beam="2">  1       -2 0.37390171E-01 0.76061883E+03</pdfrwt>
<totfact> 0.40539767E+02</totfact>
</mgrwt>
</event>
<event>
 4    1  0.5399378E-005  0.5755709E+03  0.7818608E-02  0.9957426E-01
          2   -1    0    0  501    0  0.00000000000E+00  0.00000000000E+00  0.11557883554E+04  0.11557883554E+04  0.25500000000E-02 0.  1.
         -2   -1    0    0    0  501 -0.00000000000E+00 -0.00000000000E+00 -0.71657123732E+02  0.71657123777E+02  0.25500000000E-02 0. -1.
    5000001    1    1    2    0    0 -0.10495058998E+03  0.19629513377E+03  0.70792782200E+03  0.76021918355E+03  0.16500000000E+03 0.  0.
   -5000001    1    1    2    0    0  0.10495058998E+03 -0.19629513377E+03  0.37620340967E+03  0.46722629563E+03  0.16500000000E+03 0.  0.
<mgrwt>
<rscale>  0 0.57557091E+03</rscale>
<asrwt>0</asrwt>
<pdfrwt beam="1">  1        2 0.16511261E+00 0.57557091E+03</pdfrwt>
<pdfrwt beam="2">  1       -2 0.10236733E-01 0.57557091E+03</pdfrwt>
<totfact> 0.15078376E+03</totfact>
</mgrwt>
</event>
<event>
 4    1  0.5399378E-005  0.7860092E+03  0.7818608E-02  0.9580492E-01
         -2   -1    0    0    0  501 -0.00000000000E+00  0.00000000000E+00  0.30321965135E+03  0.30321965136E+03  0.25500000000E-02 0. -1.
          2   -1    0    0  501    0  0.00000000000E+00 -0.00000000000E+00 -0.50937534233E+03  0.50937534234E+03  0.25500000000E-02 0.  1.
    5000001    1    1    2    0    0  0.19441242730E+03 -0.29109165757E+03 -0.17393112762E+03  0.42427300426E+03  0.16500000000E+03 0.  0.
   -5000001    1    1    2    0    0 -0.19441242730E+03  0.29109165757E+03 -0.32224563366E+02  0.38832198943E+03  0.16500000000E+03 0.  0.
<mgrwt>
<rscale>  0 0.78600920E+03</rscale>
<asrwt>0</asrwt>
<pdfrwt beam="1">  1        2 0.72767906E-01 0.78600920E+03</pdfrwt>
<pdfrwt beam="2">  1       -2 0.43317093E-01 0.78600920E+03</pdfrwt>
<totfact> 0.33401982E+02</totfact>
</mgrwt>
</event>
<event>
 4    1  0.5399378E-005  0.4599744E+03  0.7818608E-02  0.1024789E+00
          2   -1    0    0  501    0  0.00000000000E+00  0.00000000000E+00  0.98585916150E+03  0.98585916150E+03  0.25500000000E-02 0.  1.
         -2   -1    0    0    0  501 -0.00000000000E+00 -0.00000000000E+00 -0.53652802842E+02  0.53652802903E+02  0.25500000000E-02 0. -1.
    5000001    1    1    2    0    0  0.12802158703E+03  0.96221429673E+02  0.47646368653E+03  0.52904700628E+03  0.16500000000E+03 0.  0.
   -5000001    1    1    2    0    0 -0.12802158703E+03 -0.96221429673E+02  0.45574267213E+03  0.51046495813E+03  0.16500000000E+03 0.  0.
<mgrwt>
<rscale>  0 0.45997438E+03</rscale>
<asrwt>0</asrwt>
<pdfrwt beam="1">  1        2 0.14083702E+00 0.45997438E+03</pdfrwt>
<pdfrwt beam="2">  1       -2 0.76646862E-02 0.45997438E+03</pdfrwt>
<totfact> 0.30165413E+03</totfact>
</mgrwt>
</event>
<event>
 4    1  0.5399378E-005  0.5236534E+03  0.7818608E-02  0.1007783E+00
         -2   -1    0    0    0  501 -0.00000000000E+00  0.00000000000E+00  0.27012369205E+02  0.27012369326E+02  0.25500000000E-02 0. -1.
          2   -1    0    0  501    0  0.00000000000E+00 -0.00000000000E+00 -0.25378456263E+04  0.25378456263E+04  0.25500000000E-02 0.  1.
    5000001    1    1    2    0    0  0.19875064084E+03  0.28592428002E+02 -0.14109913156E+04  0.14347267464E+04  0.16500000000E+03 0.  0.
   -5000001    1    1    2    0    0 -0.19875064084E+03 -0.28592428002E+02 -0.10998419415E+04  0.11301312492E+04  0.16500000000E+03 0.  0.
<mgrwt>
<rscale>  0 0.52365341E+03</rscale>
<asrwt>0</asrwt>
<pdfrwt beam="1">  1        2 0.36254922E+00 0.52365341E+03</pdfrwt>
<pdfrwt beam="2">  1       -2 0.38589115E-02 0.52365341E+03</pdfrwt>
<totfact> 0.13609010E+03</totfact>
</mgrwt>
</event>
<event>
 4    1  0.5399378E-005  0.4533205E+03  0.7818608E-02  0.1026736E+00
          2   -1    0    0  501    0  0.00000000000E+00  0.00000000000E+00  0.40528582644E+03  0.40528582644E+03  0.25500000000E-02 0.  1.
         -2   -1    0    0    0  501 -0.00000000000E+00 -0.00000000000E+00 -0.12676207396E+03  0.12676207399E+03  0.25500000000E-02 0. -1.
    5000001    1    1    2    0    0  0.12918025080E+03 -0.71454820723E+02  0.82287041342E+02  0.23619798004E+03  0.16500000000E+03 0.  0.
   -5000001    1    1    2    0    0 -0.12918025080E+03  0.71454820723E+02  0.19623671113E+03  0.29584992039E+03  0.16500000000E+03 0.  0.
<mgrwt>
<rscale>  0 0.45332051E+03</rscale>
<asrwt>0</asrwt>
<pdfrwt beam="1">  1        2 0.57897976E-01 0.45332051E+03</pdfrwt>
<pdfrwt beam="2">  1       -2 0.18108867E-01 0.45332051E+03</pdfrwt>
<totfact> 0.21443602E+03</totfact>
</mgrwt>
</event>
<event>
 4    1  0.5399378E-005  0.3908847E+03  0.7818608E-02  0.1046982E+00
         -2   -1    0    0    0  501 -0.00000000000E+00  0.00000000000E+00  0.29730489709E+03  0.29730489710E+03  0.25500000000E-02 0. -1.
          2   -1    0    0  501    0  0.00000000000E+00 -0.00000000000E+00 -0.12847994073E+03  0.12847994075E+03  0.25500000000E-02 0.  1.
    5000001    1    1    2    0    0  0.10446359253E+03  0.65306823496E+01  0.88959324689E+02  0.21469525711E+03  0.16500000000E+03 0.  0.
   -5000001    1    1    2    0    0 -0.10446359253E+03 -0.65306823496E+01  0.79865631674E+02  0.21108958075E+03  0.16500000000E+03 0.  0.
<mgrwt>
<rscale>  0 0.39088472E+03</rscale>
<asrwt>0</asrwt>
<pdfrwt beam="1">  1        2 0.18354277E-01 0.39088472E+03</pdfrwt>
<pdfrwt beam="2">  1       -2 0.42472128E-01 0.39088472E+03</pdfrwt>
<totfact> 0.16401650E+03</totfact>
</mgrwt>
</event>
<event>
 4    1  0.5399378E-005  0.7742099E+03  0.7818608E-02  0.9598116E-01
         -2   -1    0    0    0  501 -0.00000000000E+00  0.00000000000E+00  0.31559689987E+02  0.31559690090E+02  0.25500000000E-02 0. -1.
          2   -1    0    0  501    0  0.00000000000E+00 -0.00000000000E+00 -0.47481525741E+04  0.47481525741E+04  0.25500000000E-02 0.  1.
    5000001    1    1    2    0    0  0.28153675616E+03 -0.20326945226E+03 -0.20791943259E+04  0.21144397509E+04  0.16500000000E+03 0.  0.
   -5000001    1    1    2    0    0 -0.28153675616E+03  0.20326945226E+03 -0.26373985582E+04  0.26652725133E+04  0.16500000000E+03 0.  0.
<mgrwt>
<rscale>  0 0.77420985E+03</rscale>
<asrwt>0</asrwt>
<pdfrwt beam="1">  1        2 0.67830706E+00 0.77420985E+03</pdfrwt>
<pdfrwt beam="2">  1       -2 0.45085302E-02 0.77420985E+03</pdfrwt>
<totfact> 0.40939307E+01</totfact>
</mgrwt>
</event>
<event>
 4    1  0.5399378E-005  0.6799957E+03  0.7818608E-02  0.9752067E-01
         -2   -1    0    0    0  501 -0.00000000000E+00  0.00000000000E+00  0.98947671922E+02  0.98947671955E+02  0.25500000000E-02 0. -1.
          2   -1    0    0  501    0  0.00000000000E+00 -0.00000000000E+00 -0.11682795747E+04  0.11682795747E+04  0.25500000000E-02 0.  1.
    5000001    1    1    2    0    0  0.22663069067E+03  0.18743724763E+03 -0.61545498785E+03  0.70178631636E+03  0.16500000000E+03 0.  0.
   -5000001    1    1    2    0    0 -0.22663069067E+03 -0.18743724763E+03 -0.45387691492E+03  0.56544093030E+03  0.16500000000E+03 0.  0.
<mgrwt>
<rscale>  0 0.67999572E+03</rscale>
<asrwt>0</asrwt>
<pdfrwt beam="1">  1        2 0.16689707E+00 0.67999572E+03</pdfrwt>
<pdfrwt beam="2">  1       -2 0.14135382E-01 0.67999572E+03</pdfrwt>
<totfact> 0.86875541E+02</totfact>
</mgrwt>
</event>
<event>
 4    1  0.5399378E-005  0.6073160E+03  0.7818608E-02  0.9890343E-01
          2   -1    0    0  501    0  0.00000000000E+00  0.00000000000E+00  0.56256950486E+02  0.56256950544E+02  0.25500000000E-02 0.  1.
         -2   -1    0    0    0  501 -0.00000000000E+00 -0.00000000000E+00 -0.16390541737E+04  0.16390541737E+04  0.25500000000E-02 0. -1.
    5000001    1    1    2    0    0 -0.23805248600E+03 -0.98440903601E+01 -0.53835279047E+03  0.61140381027E+03  0.16500000000E+03 0.  0.
   -5000001    1    1    2    0    0  0.23805248600E+03  0.98440903601E+01 -0.10444444328E+04  0.10839073140E+04  0.16500000000E+03 0.  0.
<mgrwt>
<rscale>  0 0.60731603E+03</rscale>
<asrwt>0</asrwt>
<pdfrwt beam="1">  1        2 0.80367083E-02 0.60731603E+03</pdfrwt>
<pdfrwt beam="2">  1       -2 0.23415057E+00 0.60731603E+03</pdfrwt>
<totfact> 0.73364723E+01</totfact>
</mgrwt>
</event>
<event>
 4    1  0.5399378E-005  0.5971618E+03  0.7818608E-02  0.9911312E-01
         -2   -1    0    0    0  501 -0.00000000000E+00  0.00000000000E+00  0.16041105714E+03  0.16041105716E+03  0.25500000000E-02 0. -1.
          2   -1    0    0  501    0  0.00000000000E+00 -0.00000000000E+00 -0.55576321278E+03  0.55576321279E+03  0.25500000000E-02 0.  1.
    5000001    1    1    2    0    0  0.24294848498E+03 -0.18687763267E+02 -0.13708647375E+03  0.32463964658E+03  0.16500000000E+03 0.  0.
   -5000001    1    1    2    0    0 -0.24294848498E+03  0.18687763267E+02 -0.25826568190E+03  0.39153462337E+03  0.16500000000E+03 0.  0.
<mgrwt>
<rscale>  0 0.59716184E+03</rscale>
<asrwt>0</asrwt>
<pdfrwt beam="1">  1        2 0.79394744E-01 0.59716184E+03</pdfrwt>
<pdfrwt beam="2">  1       -2 0.22915866E-01 0.59716184E+03</pdfrwt>
<totfact> 0.99774695E+02</totfact>
</mgrwt>
</event>
<event>
 4    1  0.5399378E-005  0.6636889E+03  0.7818608E-02  0.9781427E-01
          2   -1    0    0  501    0  0.00000000000E+00  0.00000000000E+00  0.10268671661E+04  0.10268671661E+04  0.25500000000E-02 0.  1.
         -2   -1    0    0    0  501 -0.00000000000E+00 -0.00000000000E+00 -0.10723950289E+03  0.10723950293E+03  0.25500000000E-02 0. -1.
    5000001    1    1    2    0    0 -0.10162996804E+03 -0.17927579779E+03  0.80339277936E+03  0.84565561549E+03  0.16500000000E+03 0.  0.
   -5000001    1    1    2    0    0  0.10162996804E+03  0.17927579779E+03  0.11623488388E+03  0.28845105357E+03  0.16500000000E+03 0.  0.
<mgrwt>
<rscale>  0 0.66368886E+03</rscale>
<asrwt>0</asrwt>
<pdfrwt beam="1">  1        2 0.14669532E+00 0.66368886E+03</pdfrwt>
<pdfrwt beam="2">  1       -2 0.15319928E-01 0.66368886E+03</pdfrwt>
<totfact> 0.91839393E+02</totfact>
</mgrwt>
</event>
<event>
 4    1  0.5399378E-005  0.3886968E+03  0.7818608E-02  0.1047765E+00
         -2   -1    0    0    0  501 -0.00000000000E+00  0.00000000000E+00  0.33112631522E+03  0.33112631523E+03  0.25500000000E-02 0. -1.
          2   -1    0    0  501    0  0.00000000000E+00 -0.00000000000E+00 -0.11406915290E+03  0.11406915293E+03  0.25500000000E-02 0.  1.
    5000001    1    1    2    0    0 -0.14234013461E+02 -0.63009535747E+02  0.19996693986E+03  0.26717893961E+03  0.16500000000E+03 0.  0.
   -5000001    1    1    2    0    0  0.14234013461E+02  0.63009535747E+02  0.17090222454E+02  0.17801652855E+03  0.16500000000E+03 0.  0.
<mgrwt>
<rscale>  0 0.38869679E+03</rscale>
<asrwt>0</asrwt>
<pdfrwt beam="1">  1        2 0.16295593E-01 0.38869679E+03</pdfrwt>
<pdfrwt beam="2">  1       -2 0.47303761E-01 0.38869679E+03</pdfrwt>
<totfact> 0.15264714E+03</totfact>
</mgrwt>
</event>
<event>
 4    1  0.5399378E-005  0.5570123E+03  0.7818608E-02  0.9998838E-01
          2   -1    0    0  501    0  0.00000000000E+00  0.00000000000E+00  0.13359451137E+04  0.13359451137E+04  0.25500000000E-02 0.  1.
         -2   -1    0    0    0  501 -0.00000000000E+00 -0.00000000000E+00 -0.58060531579E+02  0.58060531635E+02  0.25500000000E-02 0. -1.
    5000001    1    1    2    0    0 -0.18136179982E+03  0.12455488476E+03  0.74902072640E+03  0.79791169332E+03  0.16500000000E+03 0.  0.
   -5000001    1    1    2    0    0  0.18136179982E+03 -0.12455488476E+03  0.52886385572E+03  0.59609395202E+03  0.16500000000E+03 0.  0.
<mgrwt>
<rscale>  0 0.55701233E+03</rscale>
<asrwt>0</asrwt>
<pdfrwt beam="1">  1        2 0.19084929E+00 0.55701233E+03</pdfrwt>
<pdfrwt beam="2">  1       -2 0.82943622E-02 0.55701233E+03</pdfrwt>
<totfact> 0.16831866E+03</totfact>
</mgrwt>
</event>
<event>
 4    1  0.5399378E-005  0.9476528E+03  0.7818608E-02  0.9367898E-01
          2   -1    0    0  501    0  0.00000000000E+00  0.00000000000E+00  0.40158256475E+03  0.40158256476E+03  0.25500000000E-02 0.  1.
         -2   -1    0    0    0  501 -0.00000000000E+00 -0.00000000000E+00 -0.55906669040E+03  0.55906669041E+03  0.25500000000E-02 0. -1.
    5000001    1    1    2    0    0  0.13570912675E+03  0.31823800653E+03  0.20363525080E+03  0.43403307622E+03  0.16500000000E+03 0.  0.
   -5000001    1    1    2    0    0 -0.13570912675E+03 -0.31823800653E+03 -0.36111937645E+03  0.52661617895E+03  0.16500000000E+03 0.  0.
<mgrwt>
<rscale>  0 0.94765275E+03</rscale>
<asrwt>0</asrwt>
<pdfrwt beam="1">  1        2 0.57368938E-01 0.94765275E+03</pdfrwt>
<pdfrwt beam="2">  1       -2 0.79866670E-01 0.94765275E+03</pdfrwt>
<totfact> 0.11968051E+02</totfact>
</mgrwt>
</event>
<event>
 4    1  0.5399378E-005  0.5536787E+03  0.7818608E-02  0.1000646E+00
         -2   -1    0    0    0  501 -0.00000000000E+00  0.00000000000E+00  0.39705287278E+02  0.39705287360E+02  0.25500000000E-02 0. -1.
          2   -1    0    0  501    0  0.00000000000E+00 -0.00000000000E+00 -0.19302224523E+04  0.19302224523E+04  0.25500000000E-02 0.  1.
    5000001    1    1    2    0    0 -0.84323173761E+02  0.20499392936E+03 -0.88549786364E+03  0.92761219010E+03  0.16500000000E+03 0.  0.
   -5000001    1    1    2    0    0  0.84323173761E+02 -0.20499392936E+03 -0.10050193013E+04  0.10423155495E+04  0.16500000000E+03 0.  0.
<mgrwt>
<rscale>  0 0.55367874E+03</rscale>
<asrwt>0</asrwt>
<pdfrwt beam="1">  1        2 0.27574600E+00 0.55367874E+03</pdfrwt>
<pdfrwt beam="2">  1       -2 0.56721851E-02 0.55367874E+03</pdfrwt>
<totfact> 0.15176496E+03</totfact>
</mgrwt>
</event>
<event>
 4    1  0.5399378E-005  0.5825940E+03  0.7818608E-02  0.9942191E-01
          2   -1    0    0  501    0  0.00000000000E+00  0.00000000000E+00  0.16854857411E+03  0.16854857413E+03  0.25500000000E-02 0.  1.
         -2   -1    0    0    0  501 -0.00000000000E+00 -0.00000000000E+00 -0.50343910507E+03  0.50343910508E+03  0.25500000000E-02 0. -1.
    5000001    1    1    2    0    0 -0.23057111078E+03  0.60956421502E+02 -0.19903819301E+03  0.35173843225E+03  0.16500000000E+03 0.  0.
   -5000001    1    1    2    0    0  0.23057111078E+03 -0.60956421502E+02 -0.13585233795E+03  0.32024924695E+03  0.16500000000E+03 0.  0.
<mgrwt>
<rscale>  0 0.58259400E+03</rscale>
<asrwt>0</asrwt>
<pdfrwt beam="1">  1        2 0.24078368E-01 0.58259400E+03</pdfrwt>
<pdfrwt beam="2">  1       -2 0.71919871E-01 0.58259400E+03</pdfrwt>
<totfact> 0.40473240E+02</totfact>
</mgrwt>
</event>
<event>
 4    1  0.5399378E-005  0.6402072E+03  0.7818608E-02  0.9825330E-01
          2   -1    0    0  501    0  0.00000000000E+00  0.00000000000E+00  0.97920220710E+03  0.97920220710E+03  0.25500000000E-02 0.  1.
         -2   -1    0    0    0  501 -0.00000000000E+00 -0.00000000000E+00 -0.10464263840E+03  0.10464263843E+03  0.25500000000E-02 0. -1.
    5000001    1    1    2    0    0  0.42554075281E+02 -0.25969302451E+03  0.56830639265E+03  0.64764841714E+03  0.16500000000E+03 0.  0.
   -5000001    1    1    2    0    0 -0.42554075281E+02  0.25969302451E+03  0.30625317605E+03  0.43619642839E+03  0.16500000000E+03 0.  0.
<mgrwt>
<rscale>  0 0.64020716E+03</rscale>
<asrwt>0</asrwt>
<pdfrwt beam="1">  1        2 0.13988604E+00 0.64020716E+03</pdfrwt>
<pdfrwt beam="2">  1       -2 0.14948947E-01 0.64020716E+03</pdfrwt>
<totfact> 0.10241625E+03</totfact>
</mgrwt>
</event>
<event>
 4    1  0.5399378E-005  0.7415913E+03  0.7818608E-02  0.9648635E-01
         -2   -1    0    0    0  501 -0.00000000000E+00  0.00000000000E+00  0.14784937262E+03  0.14784937264E+03  0.25500000000E-02 0. -1.
          2   -1    0    0  501    0  0.00000000000E+00 -0.00000000000E+00 -0.92992906703E+03  0.92992906703E+03  0.25500000000E-02 0.  1.
    5000001    1    1    2    0    0  0.21345902495E+03  0.23095024380E+03 -0.23612761528E+03  0.42647862917E+03  0.16500000000E+03 0.  0.
   -5000001    1    1    2    0    0 -0.21345902495E+03 -0.23095024380E+03 -0.54595207913E+03  0.65129981050E+03  0.16500000000E+03 0.  0.
<mgrwt>
<rscale>  0 0.74159134E+03</rscale>
<asrwt>0</asrwt>
<pdfrwt beam="1">  1        2 0.13284701E+00 0.74159134E+03</pdfrwt>
<pdfrwt beam="2">  1       -2 0.21121340E-01 0.74159134E+03</pdfrwt>
<totfact> 0.60475382E+02</totfact>
</mgrwt>
</event>
<event>
 4    1  0.5399378E-005  0.8266164E+03  0.7818608E-02  0.9522270E-01
         -2   -1    0    0    0  501 -0.00000000000E+00  0.00000000000E+00  0.12421445043E+03  0.12421445045E+03  0.25500000000E-02 0. -1.
          2   -1    0    0  501    0  0.00000000000E+00 -0.00000000000E+00 -0.13752317927E+04  0.13752317927E+04  0.25500000000E-02 0.  1.
    5000001    1    1    2    0    0 -0.16339460832E+03  0.28673851978E+03 -0.96332313168E+03  0.10315683365E+04  0.16500000000E+03 0.  0.
   -5000001    1    1    2    0    0  0.16339460832E+03 -0.28673851978E+03 -0.28769421054E+03  0.46787790665E+03  0.16500000000E+03 0.  0.
<mgrwt>
<rscale>  0 0.82661638E+03</rscale>
<asrwt>0</asrwt>
<pdfrwt beam="1">  1        2 0.19646168E+00 0.82661638E+03</pdfrwt>
<pdfrwt beam="2">  1       -2 0.17744922E-01 0.82661638E+03</pdfrwt>
<totfact> 0.45055307E+02</totfact>
</mgrwt>
</event>
<event>
 4    1  0.5399378E-005  0.3955955E+03  0.7818608E-02  0.1045316E+00
         -2   -1    0    0    0  501 -0.00000000000E+00  0.00000000000E+00  0.10497276279E+03  0.10497276283E+03  0.25500000000E-02 0. -1.
          2   -1    0    0  501    0  0.00000000000E+00 -0.00000000000E+00 -0.37270580457E+03  0.37270580458E+03  0.25500000000E-02 0.  1.
    5000001    1    1    2    0    0  0.77202987465E+02 -0.75298670235E+02 -0.15366228861E+03  0.24993457135E+03  0.16500000000E+03 0.  0.
   -5000001    1    1    2    0    0 -0.77202987465E+02  0.75298670235E+02 -0.11407075316E+03  0.22774399606E+03  0.16500000000E+03 0.  0.
<mgrwt>
<rscale>  0 0.39559554E+03</rscale>
<asrwt>0</asrwt>
<pdfrwt beam="1">  1        2 0.53243686E-01 0.39559554E+03</pdfrwt>
<pdfrwt beam="2">  1       -2 0.14996109E-01 0.39559554E+03</pdfrwt>
<totfact> 0.32260861E+03</totfact>
</mgrwt>
</event>
<event>
 4    1  0.5399378E-005  0.6561509E+03  0.7818608E-02  0.9795305E-01
          2   -1    0    0  501    0  0.00000000000E+00  0.00000000000E+00  0.40132659872E+03  0.40132659873E+03  0.25500000000E-02 0.  1.
         -2   -1    0    0    0  501 -0.00000000000E+00 -0.00000000000E+00 -0.26819431126E+03  0.26819431127E+03  0.25500000000E-02 0. -1.
    5000001    1    1    2    0    0 -0.27391731680E+03 -0.21795462133E+02  0.13801269180E+03  0.34896739347E+03  0.16500000000E+03 0.  0.
   -5000001    1    1    2    0    0  0.27391731680E+03  0.21795462133E+02 -0.48804043304E+01  0.32055351653E+03  0.16500000000E+03 0.  0.
<mgrwt>
<rscale>  0 0.65615093E+03</rscale>
<asrwt>0</asrwt>
<pdfrwt beam="1">  1        2 0.57332372E-01 0.65615093E+03</pdfrwt>
<pdfrwt beam="2">  1       -2 0.38313473E-01 0.65615093E+03</pdfrwt>
<totfact> 0.55777267E+02</totfact>
</mgrwt>
</event>
<event>
 4    1  0.5399378E-005  0.6829224E+03  0.7818608E-02  0.9746891E-01
          2   -1    0    0  501    0  0.00000000000E+00  0.00000000000E+00  0.81887580957E+03  0.81887580957E+03  0.25500000000E-02 0.  1.
         -2   -1    0    0    0  501 -0.00000000000E+00 -0.00000000000E+00 -0.14238513302E+03  0.14238513305E+03  0.25500000000E-02 0. -1.
    5000001    1    1    2    0    0  0.13143316878E+03  0.26786960531E+03  0.31221717612E+03  0.46231306316E+03  0.16500000000E+03 0.  0.
   -5000001    1    1    2    0    0 -0.13143316878E+03 -0.26786960531E+03  0.36427350042E+03  0.49894787946E+03  0.16500000000E+03 0.  0.
<mgrwt>
<rscale>  0 0.68292237E+03</rscale>
<asrwt>0</asrwt>
<pdfrwt beam="1">  1        2 0.11698226E+00 0.68292237E+03</pdfrwt>
<pdfrwt beam="2">  1       -2 0.20340733E-01 0.68292237E+03</pdfrwt>
<totfact> 0.76644056E+02</totfact>
</mgrwt>
</event>
<event>
 4    1  0.5399378E-005  0.7317406E+03  0.7818608E-02  0.9664440E-01
          2   -1    0    0  501    0  0.00000000000E+00  0.00000000000E+00  0.39260034965E+03  0.39260034966E+03  0.25500000000E-02 0.  1.
         -2   -1    0    0    0  501 -0.00000000000E+00 -0.00000000000E+00 -0.34096018646E+03  0.34096018647E+03  0.25500000000E-02 0. -1.
    5000001    1    1    2    0    0 -0.23931901648E+03  0.25217641509E+01  0.24853503146E+03  0.38245864195E+03  0.16500000000E+03 0.  0.
   -5000001    1    1    2    0    0  0.23931901648E+03 -0.25217641509E+01 -0.19689486828E+03  0.35110189418E+03  0.16500000000E+03 0.  0.
<mgrwt>
<rscale>  0 0.73174063E+03</rscale>
<asrwt>0</asrwt>
<pdfrwt beam="1">  1        2 0.56085764E-01 0.73174063E+03</pdfrwt>
<pdfrwt beam="2">  1       -2 0.48708598E-01 0.73174063E+03</pdfrwt>
<totfact> 0.35518320E+02</totfact>
</mgrwt>
</event>
<event>
 4    1  0.5399378E-005  0.5633390E+03  0.7818608E-02  0.9984528E-01
         -2   -1    0    0    0  501 -0.00000000000E+00  0.00000000000E+00  0.34269734297E+03  0.34269734298E+03  0.25500000000E-02 0. -1.
          2   -1    0    0  501    0  0.00000000000E+00 -0.00000000000E+00 -0.23150954929E+03  0.23150954931E+03  0.25500000000E-02 0.  1.
    5000001    1    1    2    0    0  0.57240642426E+02 -0.15788899676E+03  0.21319660466E+03  0.31762118739E+03  0.16500000000E+03 0.  0.
   -5000001    1    1    2    0    0 -0.57240642426E+02  0.15788899676E+03 -0.10200881098E+03  0.25658570490E+03  0.16500000000E+03 0.  0.
<mgrwt>
<rscale>  0 0.56333900E+03</rscale>
<asrwt>0</asrwt>
<pdfrwt beam="1">  1        2 0.33072793E-01 0.56333900E+03</pdfrwt>
<pdfrwt beam="2">  1       -2 0.48956763E-01 0.56333900E+03</pdfrwt>
<totfact> 0.63383519E+02</totfact>
</mgrwt>
</event>
<event>
 4    1  0.5399378E-005  0.5506658E+03  0.7818608E-02  0.1001340E+00
         -2   -1    0    0    0  501 -0.00000000000E+00  0.00000000000E+00  0.63211843314E+02  0.63211843365E+02  0.25500000000E-02 0. -1.
          2   -1    0    0  501    0  0.00000000000E+00 -0.00000000000E+00 -0.11992721835E+04  0.11992721835E+04  0.25500000000E-02 0.  1.
    5000001    1    1    2    0    0  0.21121018721E+03  0.28244994126E+02 -0.69722832970E+03  0.74750241913E+03  0.16500000000E+03 0.  0.
   -5000001    1    1    2    0    0 -0.21121018721E+03 -0.28244994126E+02 -0.43883201046E+03  0.51498160770E+03  0.16500000000E+03 0.  0.
<mgrwt>
<rscale>  0 0.55066580E+03</rscale>
<asrwt>0</asrwt>
<pdfrwt beam="1">  1        2 0.17132458E+00 0.55066580E+03</pdfrwt>
<pdfrwt beam="2">  1       -2 0.90302641E-02 0.55066580E+03</pdfrwt>
<totfact> 0.17456236E+03</totfact>
</mgrwt>
</event>
<event>
 4    1  0.5399378E-005  0.8795888E+03  0.7818608E-02  0.9451462E-01
          2   -1    0    0  501    0  0.00000000000E+00  0.00000000000E+00  0.95141260729E+03  0.95141260729E+03  0.25500000000E-02 0.  1.
         -2   -1    0    0    0  501 -0.00000000000E+00 -0.00000000000E+00 -0.20329677814E+03  0.20329677815E+03  0.25500000000E-02 0. -1.
    5000001    1    1    2    0    0  0.21171648056E+03  0.31166845962E+03  0.57841833124E+03  0.70975619953E+03  0.16500000000E+03 0.  0.
   -5000001    1    1    2    0    0 -0.21171648056E+03 -0.31166845962E+03  0.16969749792E+03  0.44495318592E+03  0.16500000000E+03 0.  0.
<mgrwt>
<rscale>  0 0.87958881E+03</rscale>
<asrwt>0</asrwt>
<pdfrwt beam="1">  1        2 0.13591609E+00 0.87958881E+03</pdfrwt>
<pdfrwt beam="2">  1       -2 0.29042396E-01 0.87958881E+03</pdfrwt>
<totfact> 0.32820890E+02</totfact>
</mgrwt>
</event>
<event>
 4    1  0.5399378E-005  0.4074695E+03  0.7818608E-02  0.1041224E+00
         -2   -1    0    0    0  501 -0.00000000000E+00  0.00000000000E+00  0.31319153361E+02  0.31319153464E+02  0.25500000000E-02 0. -1.
          2   -1    0    0  501    0  0.00000000000E+00 -0.00000000000E+00 -0.13253182760E+04  0.13253182760E+04  0.25500000000E-02 0.  1.
    5000001    1    1    2    0    0  0.46419971712E+02  0.34448767982E+02 -0.99525945256E+03  0.10104988418E+04  0.16500000000E+03 0.  0.
   -5000001    1    1    2    0    0 -0.46419971712E+02 -0.34448767982E+02 -0.29873967011E+03  0.34613858769E+03  0.16500000000E+03 0.  0.
<mgrwt>
<rscale>  0 0.40746949E+03</rscale>
<asrwt>0</asrwt>
<pdfrwt beam="1">  1        2 0.18933115E+00 0.40746949E+03</pdfrwt>
<pdfrwt beam="2">  1       -2 0.44741656E-02 0.40746949E+03</pdfrwt>
<totfact> 0.44718733E+03</totfact>
</mgrwt>
</event>
<event>
 4    1  0.5399378E-005  0.7349842E+03  0.7818608E-02  0.9659207E-01
          2   -1    0    0  501    0  0.00000000000E+00  0.00000000000E+00  0.19500823390E+03  0.19500823392E+03  0.25500000000E-02 0.  1.
         -2   -1    0    0    0  501 -0.00000000000E+00 -0.00000000000E+00 -0.69253712459E+03  0.69253712459E+03  0.25500000000E-02 0. -1.
    5000001    1    1    2    0    0 -0.28632062963E+03  0.15950316698E+03 -0.27305668456E+03  0.45739011381E+03  0.16500000000E+03 0.  0.
   -5000001    1    1    2    0    0  0.28632062963E+03 -0.15950316698E+03 -0.22447220612E+03  0.43015524470E+03  0.16500000000E+03 0.  0.
<mgrwt>
<rscale>  0 0.73498419E+03</rscale>
<asrwt>0</asrwt>
<pdfrwt beam="1">  1        2 0.27858319E-01 0.73498419E+03</pdfrwt>
<pdfrwt beam="2">  1       -2 0.98933874E-01 0.73498419E+03</pdfrwt>
<totfact> 0.16552219E+02</totfact>
</mgrwt>
</event>
<event>
 4    1  0.5399378E-005  0.1207775E+04  0.7818608E-02  0.9106078E-01
         -2   -1    0    0    0  501 -0.00000000000E+00  0.00000000000E+00  0.10375139480E+04  0.10375139480E+04  0.25500000000E-02 0. -1.
          2   -1    0    0  501    0  0.00000000000E+00 -0.00000000000E+00 -0.35149399254E+03  0.35149399255E+03  0.25500000000E-02 0.  1.
    5000001    1    1    2    0    0  0.56708268576E+03  0.10191680919E+03  0.25783509699E+03  0.65243677527E+03  0.16500000000E+03 0.  0.
   -5000001    1    1    2    0    0 -0.56708268576E+03 -0.10191680919E+03  0.42818485842E+03  0.73657116524E+03  0.16500000000E+03 0.  0.
<mgrwt>
<rscale>  0 0.12077747E+04</rscale>
<asrwt>0</asrwt>
<pdfrwt beam="1">  1        2 0.50213428E-01 0.12077747E+04</pdfrwt>
<pdfrwt beam="2">  1       -2 0.14821628E+00 0.12077747E+04</pdfrwt>
<totfact> 0.30489657E+01</totfact>
</mgrwt>
</event>
<event>
 4    1  0.5399378E-005  0.6594991E+03  0.7818608E-02  0.9789116E-01
         -2   -1    0    0    0  501 -0.00000000000E+00  0.00000000000E+00  0.45737458064E+02  0.45737458135E+02  0.25500000000E-02 0. -1.
          2   -1    0    0  501    0  0.00000000000E+00 -0.00000000000E+00 -0.23773682416E+04  0.23773682416E+04  0.25500000000E-02 0.  1.
    5000001    1    1    2    0    0 -0.27889919331E+03 -0.52699445102E+02 -0.12789287534E+04  0.13203960572E+04  0.16500000000E+03 0.  0.
   -5000001    1    1    2    0    0  0.27889919331E+03  0.52699445102E+02 -0.10527020302E+04  0.11027096426E+04  0.16500000000E+03 0.  0.
<mgrwt>
<rscale>  0 0.65949914E+03</rscale>
<asrwt>0</asrwt>
<pdfrwt beam="1">  1        2 0.33962396E+00 0.65949914E+03</pdfrwt>
<pdfrwt beam="2">  1       -2 0.65339241E-02 0.65949914E+03</pdfrwt>
<totfact> 0.71903913E+02</totfact>
</mgrwt>
</event>
<event>
 4    1  0.5399378E-005  0.3654429E+03  0.7818608E-02  0.1056449E+00
         -2   -1    0    0    0  501 -0.00000000000E+00  0.00000000000E+00  0.57417374713E+02  0.57417374769E+02  0.25500000000E-02 0. -1.
          2   -1    0    0  501    0  0.00000000000E+00 -0.00000000000E+00 -0.58148139967E+03  0.58148139967E+03  0.25500000000E-02 0.  1.
    5000001    1    1    2    0    0  0.11364554787E+02  0.65041412245E+02 -0.33625899475E+03  0.38033491814E+03  0.16500000000E+03 0.  0.
   -5000001    1    1    2    0    0 -0.11364554787E+02 -0.65041412245E+02 -0.18780503021E+03  0.25856385630E+03  0.16500000000E+03 0.  0.
<mgrwt>
<rscale>  0 0.36544294E+03</rscale>
<asrwt>0</asrwt>
<pdfrwt beam="1">  1        2 0.83068768E-01 0.36544294E+03</pdfrwt>
<pdfrwt beam="2">  1       -2 0.82024824E-02 0.36544294E+03</pdfrwt>
<totfact> 0.52127528E+03</totfact>
</mgrwt>
</event>
<event>
 4    1  0.5399378E-005  0.7058148E+03  0.7818608E-02  0.9707340E-01
         -2   -1    0    0    0  501 -0.00000000000E+00  0.00000000000E+00  0.50040486548E+03  0.50040486548E+03  0.25500000000E-02 0. -1.
          2   -1    0    0  501    0  0.00000000000E+00 -0.00000000000E+00 -0.24888570320E+03  0.24888570321E+03  0.25500000000E-02 0.  1.
    5000001    1    1    2    0    0 -0.27366165535E+02  0.28632665130E+03  0.25397460902E+03  0.41768404361E+03  0.16500000000E+03 0.  0.
   -5000001    1    1    2    0    0  0.27366165535E+02 -0.28632665130E+03 -0.24554467446E+01  0.33160652508E+03  0.16500000000E+03 0.  0.
<mgrwt>
<rscale>  0 0.70581475E+03</rscale>
<asrwt>0</asrwt>
<pdfrwt beam="1">  1        2 0.35555101E-01 0.70581475E+03</pdfrwt>
<pdfrwt beam="2">  1       -2 0.71486408E-01 0.70581475E+03</pdfrwt>
<totfact> 0.26328745E+02</totfact>
</mgrwt>
</event>
<event>
 4    1  0.5399378E-005  0.4338298E+03  0.7818608E-02  0.1032657E+00
          2   -1    0    0  501    0  0.00000000000E+00  0.00000000000E+00  0.37363442762E+02  0.37363442849E+02  0.25500000000E-02 0.  1.
         -2   -1    0    0    0  501 -0.00000000000E+00 -0.00000000000E+00 -0.12593077281E+04  0.12593077281E+04  0.25500000000E-02 0. -1.
    5000001    1    1    2    0    0  0.50205190934E+02  0.13092081422E+03 -0.64951050383E+03  0.68465298902E+03  0.16500000000E+03 0.  0.
   -5000001    1    1    2    0    0 -0.50205190934E+02 -0.13092081422E+03 -0.57243378146E+03  0.61201818188E+03  0.16500000000E+03 0.  0.
<mgrwt>
<rscale>  0 0.43382979E+03</rscale>
<asrwt>0</asrwt>
<pdfrwt beam="1">  1        2 0.53376355E-02 0.43382979E+03</pdfrwt>
<pdfrwt beam="2">  1       -2 0.17990108E+00 0.43382979E+03</pdfrwt>
<totfact> 0.28112891E+02</totfact>
</mgrwt>
</event>
<event>
 4    1  0.5399378E-005  0.4196379E+03  0.7818608E-02  0.1037184E+00
         -2   -1    0    0    0  501 -0.00000000000E+00  0.00000000000E+00  0.98282532728E+02  0.98282532762E+02  0.25500000000E-02 0. -1.
          2   -1    0    0  501    0  0.00000000000E+00 -0.00000000000E+00 -0.44793298787E+03  0.44793298787E+03  0.25500000000E-02 0.  1.
    5000001    1    1    2    0    0  0.70609215163E+02 -0.54260510386E+02 -0.52242376519E+02  0.19463846012E+03  0.16500000000E+03 0.  0.
   -5000001    1    1    2    0    0 -0.70609215163E+02  0.54260510386E+02 -0.29740807862E+03  0.35157706052E+03  0.16500000000E+03 0.  0.
<mgrwt>
<rscale>  0 0.41963788E+03</rscale>
<asrwt>0</asrwt>
<pdfrwt beam="1">  1        2 0.63990426E-01 0.41963788E+03</pdfrwt>
<pdfrwt beam="2">  1       -2 0.14040362E-01 0.41963788E+03</pdfrwt>
<totfact> 0.29433599E+03</totfact>
</mgrwt>
</event>
<event>
 4    1  0.5399378E-005  0.6005249E+03  0.7818608E-02  0.9904318E-01
          2   -1    0    0  501    0  0.00000000000E+00  0.00000000000E+00  0.85666080590E+03  0.85666080590E+03  0.25500000000E-02 0.  1.
         -2   -1    0    0    0  501 -0.00000000000E+00 -0.00000000000E+00 -0.10524299291E+03  0.10524299294E+03  0.25500000000E-02 0. -1.
    5000001    1    1    2    0    0 -0.14698551570E+03 -0.17326707439E+03  0.20539058951E+03  0.34790302550E+03  0.16500000000E+03 0.  0.
   -5000001    1    1    2    0    0  0.14698551570E+03  0.17326707439E+03  0.54602722347E+03  0.61400077334E+03  0.16500000000E+03 0.  0.
<mgrwt>
<rscale>  0 0.60052493E+03</rscale>
<asrwt>0</asrwt>
<pdfrwt beam="1">  1        2 0.12238011E+00 0.60052493E+03</pdfrwt>
<pdfrwt beam="2">  1       -2 0.15034714E-01 0.60052493E+03</pdfrwt>
<totfact> 0.12160742E+03</totfact>
</mgrwt>
</event>
<event>
 4    1  0.5399378E-005  0.4417319E+03  0.7818608E-02  0.1030217E+00
         -2   -1    0    0    0  501 -0.00000000000E+00  0.00000000000E+00  0.38121772466E+02  0.38121772551E+02  0.25500000000E-02 0. -1.
          2   -1    0    0  501    0  0.00000000000E+00 -0.00000000000E+00 -0.12796301584E+04  0.12796301584E+04  0.25500000000E-02 0.  1.
    5000001    1    1    2    0    0  0.12078895688E+03 -0.75926523383E+02 -0.51733050246E+03  0.56143624556E+03  0.16500000000E+03 0.  0.
   -5000001    1    1    2    0    0 -0.12078895688E+03  0.75926523383E+02 -0.72417788349E+03  0.75631568541E+03  0.16500000000E+03 0.  0.
<mgrwt>
<rscale>  0 0.44173191E+03</rscale>
<asrwt>0</asrwt>
<pdfrwt beam="1">  1        2 0.18280428E+00 0.44173191E+03</pdfrwt>
<pdfrwt beam="2">  1       -2 0.54459683E-02 0.44173191E+03</pdfrwt>
<totfact> 0.34985553E+03</totfact>
</mgrwt>
</event>
<event>
 4    1  0.5399378E-005  0.7373770E+03  0.7818608E-02  0.9655365E-01
          2   -1    0    0  501    0  0.00000000000E+00  0.00000000000E+00  0.51540129887E+03  0.51540129888E+03  0.25500000000E-02 0.  1.
         -2   -1    0    0    0  501 -0.00000000000E+00 -0.00000000000E+00 -0.26373862164E+03  0.26373862165E+03  0.25500000000E-02 0. -1.
    5000001    1    1    2    0    0 -0.20544576849E+03 -0.18852411856E+03  0.31174218186E+03  0.44961927786E+03  0.16500000000E+03 0.  0.
   -5000001    1    1    2    0    0  0.20544576849E+03  0.18852411856E+03 -0.60079504632E+02  0.32952064267E+03  0.16500000000E+03 0.  0.
<mgrwt>
<rscale>  0 0.73737705E+03</rscale>
<asrwt>0</asrwt>
<pdfrwt beam="1">  1        2 0.73628755E-01 0.73737705E+03</pdfrwt>
<pdfrwt beam="2">  1       -2 0.37676947E-01 0.73737705E+03</pdfrwt>
<totfact> 0.43335459E+02</totfact>
</mgrwt>
</event>
<event>
 4    1  0.5399378E-005  0.6516798E+03  0.7818608E-02  0.9803632E-01
          2   -1    0    0  501    0  0.00000000000E+00  0.00000000000E+00  0.15056286644E+04  0.15056286644E+04  0.25500000000E-02 0.  1.
         -2   -1    0    0    0  501 -0.00000000000E+00 -0.00000000000E+00 -0.70516494431E+02  0.70516494477E+02  0.25500000000E-02 0. -1.
    5000001    1    1    2    0    0  0.22382304318E+03 -0.82667617695E+02  0.10764208276E+04  0.11148262142E+04  0.16500000000E+03 0.  0.
   -5000001    1    1    2    0    0 -0.22382304318E+03  0.82667617695E+02  0.35869134237E+03  0.46131894473E+03  0.16500000000E+03 0.  0.
<mgrwt>
<rscale>  0 0.65167985E+03</rscale>
<asrwt>0</asrwt>
<pdfrwt beam="1">  1        2 0.21508981E+00 0.65167985E+03</pdfrwt>
<pdfrwt beam="2">  1       -2 0.10073785E-01 0.65167985E+03</pdfrwt>
<totfact> 0.99786435E+02</totfact>
</mgrwt>
</event>
<event>
 4    1  0.5399378E-005  0.4311780E+03  0.7818608E-02  0.1033488E+00
          2   -1    0    0  501    0  0.00000000000E+00  0.00000000000E+00  0.18915022237E+04  0.18915022237E+04  0.25500000000E-02 0.  1.
         -2   -1    0    0    0  501 -0.00000000000E+00 -0.00000000000E+00 -0.24572333516E+02  0.24572333648E+02  0.25500000000E-02 0. -1.
    5000001    1    1    2    0    0 -0.13457651798E+03 -0.82479032422E+01  0.10791485979E+04  0.10999843469E+04  0.16500000000E+03 0.  0.
   -5000001    1    1    2    0    0  0.13457651798E+03  0.82479032422E+01  0.78778129227E+03  0.81609021042E+03  0.16500000000E+03 0.  0.
<mgrwt>
<rscale>  0 0.43117803E+03</rscale>
<asrwt>0</asrwt>
<pdfrwt beam="1">  1        2 0.27021455E+00 0.43117803E+03</pdfrwt>
<pdfrwt beam="2">  1       -2 0.35103340E-02 0.43117803E+03</pdfrwt>
<totfact> 0.33309359E+03</totfact>
</mgrwt>
</event>
<event>
 4    1  0.5399378E-005  0.4202984E+03  0.7818608E-02  0.1036969E+00
         -2   -1    0    0    0  501 -0.00000000000E+00  0.00000000000E+00  0.80223113314E+02  0.80223113354E+02  0.25500000000E-02 0. -1.
          2   -1    0    0  501    0  0.00000000000E+00 -0.00000000000E+00 -0.55049823108E+03  0.55049823108E+03  0.25500000000E-02 0.  1.
    5000001    1    1    2    0    0 -0.11306069281E+03  0.55775303922E+02 -0.18664823612E+03  0.27920631947E+03  0.16500000000E+03 0.  0.
   -5000001    1    1    2    0    0  0.11306069281E+03 -0.55775303922E+02 -0.28362688164E+03  0.35151502497E+03  0.16500000000E+03 0.  0.
<mgrwt>
<rscale>  0 0.42029838E+03</rscale>
<asrwt>0</asrwt>
<pdfrwt beam="1">  1        2 0.78642602E-01 0.42029838E+03</pdfrwt>
<pdfrwt beam="2">  1       -2 0.11460445E-01 0.42029838E+03</pdfrwt>
<totfact> 0.32580312E+03</totfact>
</mgrwt>
</event>
<event>
 4    1  0.5399378E-005  0.3545329E+03  0.7818608E-02  0.1060770E+00
         -2   -1    0    0    0  501 -0.00000000000E+00  0.00000000000E+00  0.41253745065E+02  0.41253745144E+02  0.25500000000E-02 0. -1.
          2   -1    0    0  501    0  0.00000000000E+00 -0.00000000000E+00 -0.76170993202E+03  0.76170993202E+03  0.25500000000E-02 0.  1.
    5000001    1    1    2    0    0  0.54774809994E+02 -0.14170922945E+02 -0.43175191066E+03  0.46565631879E+03  0.16500000000E+03 0.  0.
   -5000001    1    1    2    0    0 -0.54774809994E+02  0.14170922945E+02 -0.28870427629E+03  0.33730735838E+03  0.16500000000E+03 0.  0.
<mgrwt>
<rscale>  0 0.35453286E+03</rscale>
<asrwt>0</asrwt>
<pdfrwt beam="1">  1        2 0.10881570E+00 0.35453286E+03</pdfrwt>
<pdfrwt beam="2">  1       -2 0.58933926E-02 0.35453286E+03</pdfrwt>
<totfact> 0.63343809E+03</totfact>
</mgrwt>
</event>
<event>
 4    1  0.5399378E-005  0.6659188E+03  0.7818608E-02  0.9777359E-01
          2   -1    0    0  501    0  0.00000000000E+00  0.00000000000E+00  0.29450572406E+03  0.29450572407E+03  0.25500000000E-02 0.  1.
         -2   -1    0    0    0  501 -0.00000000000E+00 -0.00000000000E+00 -0.37643398336E+03  0.37643398337E+03  0.25500000000E-02 0. -1.
    5000001    1    1    2    0    0  0.63658942115E+02  0.27937549011E+03 -0.15046016473E+01  0.33065146183E+03  0.16500000000E+03 0.  0.
   -5000001    1    1    2    0    0 -0.63658942115E+02 -0.27937549011E+03 -0.80423657656E+02  0.34028824560E+03  0.16500000000E+03 0.  0.
<mgrwt>
<rscale>  0 0.66591880E+03</rscale>
<asrwt>0</asrwt>
<pdfrwt beam="1">  1        2 0.42072247E-01 0.66591880E+03</pdfrwt>
<pdfrwt beam="2">  1       -2 0.53776283E-01 0.66591880E+03</pdfrwt>
<totfact> 0.40000568E+02</totfact>
</mgrwt>
</event>
<event>
 4    1  0.5399378E-005  0.7266071E+03  0.7818608E-02  0.9672782E-01
          2   -1    0    0  501    0  0.00000000000E+00  0.00000000000E+00  0.88895404448E+03  0.88895404448E+03  0.25500000000E-02 0.  1.
         -2   -1    0    0    0  501 -0.00000000000E+00 -0.00000000000E+00 -0.14847725590E+03  0.14847725592E+03  0.25500000000E-02 0. -1.
    5000001    1    1    2    0    0 -0.98154186407E+02 -0.30580020093E+03  0.31283456521E+03  0.47774310292E+03  0.16500000000E+03 0.  0.
   -5000001    1    1    2    0    0  0.98154186407E+02  0.30580020093E+03  0.42764222337E+03  0.55968819749E+03  0.16500000000E+03 0.  0.
<mgrwt>
<rscale>  0 0.72660707E+03</rscale>
<asrwt>0</asrwt>
<pdfrwt beam="1">  1        2 0.12699343E+00 0.72660707E+03</pdfrwt>
<pdfrwt beam="2">  1       -2 0.21211037E-01 0.72660707E+03</pdfrwt>
<totfact> 0.63831183E+02</totfact>
</mgrwt>
</event>
<event>
 4    1  0.5399378E-005  0.4268219E+03  0.7818608E-02  0.1034869E+00
          2   -1    0    0  501    0  0.00000000000E+00  0.00000000000E+00  0.32948557631E+03  0.32948557632E+03  0.25500000000E-02 0.  1.
         -2   -1    0    0    0  501 -0.00000000000E+00 -0.00000000000E+00 -0.13822828121E+03  0.13822828123E+03  0.25500000000E-02 0. -1.
    5000001    1    1    2    0    0 -0.69358681227E+02  0.11591542681E+03  0.10494055138E+03  0.23766474740E+03  0.16500000000E+03 0.  0.
   -5000001    1    1    2    0    0  0.69358681227E+02 -0.11591542681E+03  0.86316743722E+02  0.23004911015E+03  0.16500000000E+03 0.  0.
<mgrwt>
<rscale>  0 0.42682186E+03</rscale>
<asrwt>0</asrwt>
<pdfrwt beam="1">  1        2 0.47069367E-01 0.42682186E+03</pdfrwt>
<pdfrwt beam="2">  1       -2 0.19746898E-01 0.42682186E+03</pdfrwt>
<totfact> 0.23176673E+03</totfact>
</mgrwt>
</event>
<event>
 4    1  0.5399378E-005  0.4929213E+03  0.7818608E-02  0.1015643E+00
         -2   -1    0    0    0  501 -0.00000000000E+00  0.00000000000E+00  0.80978902942E+02  0.80978902982E+02  0.25500000000E-02 0. -1.
          2   -1    0    0  501    0  0.00000000000E+00 -0.00000000000E+00 -0.75010708059E+03  0.75010708059E+03  0.25500000000E-02 0.  1.
    5000001    1    1    2    0    0  0.15111870588E+03  0.48644106107E+02 -0.18082205501E+03  0.29176142292E+03  0.16500000000E+03 0.  0.
   -5000001    1    1    2    0    0 -0.15111870588E+03 -0.48644106107E+02 -0.48830612263E+03  0.53932456066E+03  0.16500000000E+03 0.  0.
<mgrwt>
<rscale>  0 0.49292129E+03</rscale>
<asrwt>0</asrwt>
<pdfrwt beam="1">  1        2 0.10715815E+00 0.49292129E+03</pdfrwt>
<pdfrwt beam="2">  1       -2 0.11568415E-01 0.49292129E+03</pdfrwt>
<totfact> 0.22259946E+03</totfact>
</mgrwt>
</event>
<event>
 4    1  0.5399378E-005  0.4279287E+03  0.7818608E-02  0.1034516E+00
          2   -1    0    0  501    0  0.00000000000E+00  0.00000000000E+00  0.24727610129E+04  0.24727610129E+04  0.25500000000E-02 0.  1.
         -2   -1    0    0    0  501 -0.00000000000E+00 -0.00000000000E+00 -0.18514015667E+02  0.18514015842E+02  0.25500000000E-02 0. -1.
    5000001    1    1    2    0    0 -0.34528001428E+02 -0.98370411233E+02  0.17375386122E+04  0.17484662850E+04  0.16500000000E+03 0.  0.
   -5000001    1    1    2    0    0  0.34528001428E+02  0.98370411233E+02  0.71670838495E+03  0.74280874372E+03  0.16500000000E+03 0.  0.
<mgrwt>
<rscale>  0 0.42792867E+03</rscale>
<asrwt>0</asrwt>
<pdfrwt beam="1">  1        2 0.35325152E+00 0.42792867E+03</pdfrwt>
<pdfrwt beam="2">  1       -2 0.26448598E-02 0.42792867E+03</pdfrwt>
<totfact> 0.26189662E+03</totfact>
</mgrwt>
</event>
<event>
 4    1  0.5399378E-005  0.3774813E+03  0.7818608E-02  0.1051869E+00
          2   -1    0    0  501    0  0.00000000000E+00  0.00000000000E+00  0.14135385394E+04  0.14135385394E+04  0.25500000000E-02 0.  1.
         -2   -1    0    0    0  501 -0.00000000000E+00 -0.00000000000E+00 -0.25201315369E+02  0.25201315498E+02  0.25500000000E-02 0. -1.
    5000001    1    1    2    0    0 -0.18610490566E+02  0.89389019363E+02  0.72400584348E+03  0.74816188658E+03  0.16500000000E+03 0.  0.
   -5000001    1    1    2    0    0  0.18610490566E+02 -0.89389019363E+02  0.66433138059E+03  0.69057796836E+03  0.16500000000E+03 0.  0.
<mgrwt>
<rscale>  0 0.37748129E+03</rscale>
<asrwt>0</asrwt>
<pdfrwt beam="1">  1        2 0.20193406E+00 0.37748129E+03</pdfrwt>
<pdfrwt beam="2">  1       -2 0.36001882E-02 0.37748129E+03</pdfrwt>
<totfact> 0.55886477E+03</totfact>
</mgrwt>
</event>
<event>
 4    1  0.5399378E-005  0.4986714E+03  0.7818608E-02  0.1014126E+00
         -2   -1    0    0    0  501 -0.00000000000E+00  0.00000000000E+00  0.31390919831E+02  0.31390919934E+02  0.25500000000E-02 0. -1.
          2   -1    0    0  501    0  0.00000000000E+00 -0.00000000000E+00 -0.19804544954E+04  0.19804544954E+04  0.25500000000E-02 0.  1.
    5000001    1    1    2    0    0 -0.42329616080E+02 -0.17985602973E+03 -0.10888773187E+04  0.11166999610E+04  0.16500000000E+03 0.  0.
   -5000001    1    1    2    0    0  0.42329616080E+02  0.17985602973E+03 -0.86018625690E+03  0.89514545432E+03  0.16500000000E+03 0.  0.
<mgrwt>
<rscale>  0 0.49867139E+03</rscale>
<asrwt>0</asrwt>
<pdfrwt beam="1">  1        2 0.28292199E+00 0.49867139E+03</pdfrwt>
<pdfrwt beam="2">  1       -2 0.44844184E-02 0.49867139E+03</pdfrwt>
<totfact> 0.20654189E+03</totfact>
</mgrwt>
</event>
<event>
 4    1  0.5399378E-005  0.6674968E+03  0.7818608E-02  0.9774491E-01
          2   -1    0    0  501    0  0.00000000000E+00  0.00000000000E+00  0.13512521343E+04  0.13512521343E+04  0.25500000000E-02 0.  1.
         -2   -1    0    0    0  501 -0.00000000000E+00 -0.00000000000E+00 -0.82433162001E+02  0.82433162040E+02  0.25500000000E-02 0. -1.
    5000001    1    1    2    0    0  0.60160518219E+02 -0.27909915888E+03  0.52389709636E+03  0.61903860624E+03  0.16500000000E+03 0.  0.
   -5000001    1    1    2    0    0 -0.60160518219E+02  0.27909915888E+03  0.74492187592E+03  0.81464669009E+03  0.16500000000E+03 0.  0.
<mgrwt>
<rscale>  0 0.66749677E+03</rscale>
<asrwt>0</asrwt>
<pdfrwt beam="1">  1        2 0.19303601E+00 0.66749677E+03</pdfrwt>
<pdfrwt beam="2">  1       -2 0.11776167E-01 0.66749677E+03</pdfrwt>
<totfact> 0.93264342E+02</totfact>
</mgrwt>
</event>
<event>
 4    1  0.5399378E-005  0.7339203E+03  0.7818608E-02  0.9660920E-01
         -2   -1    0    0    0  501 -0.00000000000E+00  0.00000000000E+00  0.59041372132E+02  0.59041372187E+02  0.25500000000E-02 0. -1.
          2   -1    0    0  501    0  0.00000000000E+00 -0.00000000000E+00 -0.22807690983E+04  0.22807690983E+04  0.25500000000E-02 0.  1.
    5000001    1    1    2    0    0  0.32292602680E+03  0.56154984716E+02 -0.11096879384E+04  0.11687886558E+04  0.16500000000E+03 0.  0.
   -5000001    1    1    2    0    0 -0.32292602680E+03 -0.56154984716E+02 -0.11120397877E+04  0.11710218147E+04  0.16500000000E+03 0.  0.
<mgrwt>
<rscale>  0 0.73392026E+03</rscale>
<asrwt>0</asrwt>
<pdfrwt beam="1">  1        2 0.32582410E+00 0.73392026E+03</pdfrwt>
<pdfrwt beam="2">  1       -2 0.84344832E-02 0.73392026E+03</pdfrwt>
<totfact> 0.53357875E+02</totfact>
</mgrwt>
</event>
<event>
 4    1  0.5399378E-005  0.1347905E+04  0.7818608E-02  0.8992416E-01
          2   -1    0    0  501    0  0.00000000000E+00  0.00000000000E+00  0.29695191003E+04  0.29695191003E+04  0.25500000000E-02 0.  1.
         -2   -1    0    0    0  501 -0.00000000000E+00 -0.00000000000E+00 -0.15295800338E+03  0.15295800340E+03  0.25500000000E-02 0. -1.
    5000001    1    1    2    0    0 -0.36534849155E+03 -0.50899827708E+03  0.97845160072E+03  0.11735208994E+04  0.16500000000E+03 0.  0.
   -5000001    1    1    2    0    0  0.36534849155E+03  0.50899827708E+03  0.18381094962E+04  0.19489562043E+04  0.16500000000E+03 0.  0.
<mgrwt>
<rscale>  0 0.13479046E+04</rscale>
<asrwt>0</asrwt>
<pdfrwt beam="1">  1        2 0.42421699E+00 0.13479046E+04</pdfrwt>
<pdfrwt beam="2">  1       -2 0.21851144E-01 0.13479046E+04</pdfrwt>
<totfact> 0.44148599E+01</totfact>
</mgrwt>
</event>
<event>
 4    1  0.5399378E-005  0.3727884E+03  0.7818608E-02  0.1053632E+00
         -2   -1    0    0    0  501 -0.00000000000E+00  0.00000000000E+00  0.17452443739E+03  0.17452443741E+03  0.25500000000E-02 0. -1.
          2   -1    0    0  501    0  0.00000000000E+00 -0.00000000000E+00 -0.19907127621E+03  0.19907127623E+03  0.25500000000E-02 0.  1.
    5000001    1    1    2    0    0  0.32778640890E+02  0.30980789234E+02  0.61937963278E+02  0.18192185107E+03  0.16500000000E+03 0.  0.
   -5000001    1    1    2    0    0 -0.32778640890E+02 -0.30980789234E+02 -0.86484802097E+02  0.19167386257E+03  0.16500000000E+03 0.  0.
<mgrwt>
<rscale>  0 0.37278843E+03</rscale>
<asrwt>0</asrwt>
<pdfrwt beam="1">  1        2 0.28438754E-01 0.37278843E+03</pdfrwt>
<pdfrwt beam="2">  1       -2 0.24932062E-01 0.37278843E+03</pdfrwt>
<totfact> 0.26746000E+03</totfact>
</mgrwt>
</event>
<event>
 4    1  0.5399378E-005  0.3468190E+03  0.7818608E-02  0.1063928E+00
         -2   -1    0    0    0  501 -0.00000000000E+00  0.00000000000E+00  0.77669027728E+02  0.77669027770E+02  0.25500000000E-02 0. -1.
          2   -1    0    0  501    0  0.00000000000E+00 -0.00000000000E+00 -0.38716667287E+03  0.38716667288E+03  0.25500000000E-02 0.  1.
    5000001    1    1    2    0    0  0.24540971541E+02  0.11668013860E+02 -0.21627726869E+03  0.27338481813E+03  0.16500000000E+03 0.  0.
   -5000001    1    1    2    0    0 -0.24540971541E+02 -0.11668013860E+02 -0.93220376454E+02  0.19145088252E+03  0.16500000000E+03 0.  0.
<mgrwt>
<rscale>  0 0.34681903E+03</rscale>
<asrwt>0</asrwt>
<pdfrwt beam="1">  1        2 0.55309524E-01 0.34681903E+03</pdfrwt>
<pdfrwt beam="2">  1       -2 0.11095576E-01 0.34681903E+03</pdfrwt>
<totfact> 0.50559609E+03</totfact>
</mgrwt>
</event>
<event>
 4    1  0.5399378E-005  0.3575329E+03  0.7818608E-02  0.1059565E+00
         -2   -1    0    0    0  501 -0.00000000000E+00  0.00000000000E+00  0.80610927227E+02  0.80610927268E+02  0.25500000000E-02 0. -1.
          2   -1    0    0  501    0  0.00000000000E+00 -0.00000000000E+00 -0.39644059925E+03  0.39644059926E+03  0.25500000000E-02 0.  1.
    5000001    1    1    2    0    0 -0.27629158213E+02 -0.62993672351E+02 -0.15916021124E+03  0.23935025795E+03  0.16500000000E+03 0.  0.
   -5000001    1    1    2    0    0  0.27629158213E+02  0.62993672351E+02 -0.15666946079E+03  0.23770126858E+03  0.16500000000E+03 0.  0.
<mgrwt>
<rscale>  0 0.35753290E+03</rscale>
<asrwt>0</asrwt>
<pdfrwt beam="1">  1        2 0.56634370E-01 0.35753290E+03</pdfrwt>
<pdfrwt beam="2">  1       -2 0.11515847E-01 0.35753290E+03</pdfrwt>
<totfact> 0.46431738E+03</totfact>
</mgrwt>
</event>
<event>
 4    1  0.5399378E-005  0.4016492E+03  0.7818608E-02  0.1043210E+00
          2   -1    0    0  501    0  0.00000000000E+00  0.00000000000E+00  0.94329486513E+03  0.94329486513E+03  0.25500000000E-02 0.  1.
         -2   -1    0    0    0  501 -0.00000000000E+00 -0.00000000000E+00 -0.42754934911E+02  0.42754934987E+02  0.25500000000E-02 0. -1.
    5000001    1    1    2    0    0  0.44358002093E+02  0.10223735655E+03  0.38599758010E+03  0.43432619224E+03  0.16500000000E+03 0.  0.
   -5000001    1    1    2    0    0 -0.44358002093E+02 -0.10223735655E+03  0.51454235012E+03  0.55172360788E+03  0.16500000000E+03 0.  0.
<mgrwt>
<rscale>  0 0.40164915E+03</rscale>
<asrwt>0</asrwt>
<pdfrwt beam="1">  1        2 0.13475641E+00 0.40164915E+03</pdfrwt>
<pdfrwt beam="2">  1       -2 0.61078477E-02 0.40164915E+03</pdfrwt>
<totfact> 0.45652260E+03</totfact>
</mgrwt>
</event>
<event>
 4    1  0.5399378E-005  0.7053932E+03  0.7818608E-02  0.9708053E-01
          2   -1    0    0  501    0  0.00000000000E+00  0.00000000000E+00  0.60717536980E+03  0.60717536981E+03  0.25500000000E-02 0.  1.
         -2   -1    0    0    0  501 -0.00000000000E+00 -0.00000000000E+00 -0.20487470730E+03  0.20487470732E+03  0.25500000000E-02 0. -1.
    5000001    1    1    2    0    0  0.30843528414E+03 -0.38167450192E+02  0.22889400117E+03  0.41976963031E+03  0.16500000000E+03 0.  0.
   -5000001    1    1    2    0    0 -0.30843528414E+03  0.38167450192E+02  0.17340666133E+03  0.39228044682E+03  0.16500000000E+03 0.  0.
<mgrwt>
<rscale>  0 0.70539316E+03</rscale>
<asrwt>0</asrwt>
<pdfrwt beam="1">  1        2 0.86739340E-01 0.70539316E+03</pdfrwt>
<pdfrwt beam="2">  1       -2 0.29267815E-01 0.70539316E+03</pdfrwt>
<totfact> 0.57667508E+02</totfact>
</mgrwt>
</event>
<event>
 4    1  0.5399378E-005  0.9166876E+03  0.7818608E-02  0.9404958E-01
         -2   -1    0    0    0  501 -0.00000000000E+00  0.00000000000E+00  0.17614990729E+03  0.17614990731E+03  0.25500000000E-02 0. -1.
          2   -1    0    0  501    0  0.00000000000E+00 -0.00000000000E+00 -0.11926152073E+04  0.11926152073E+04  0.25500000000E-02 0.  1.
    5000001    1    1    2    0    0 -0.62280983916E+02 -0.32871258926E+03 -0.11058206699E+03  0.38908132933E+03  0.16500000000E+03 0.  0.
   -5000001    1    1    2    0    0  0.62280983916E+02  0.32871258926E+03 -0.90588323305E+03  0.97968378532E+03  0.16500000000E+03 0.  0.
<mgrwt>
<rscale>  0 0.91668764E+03</rscale>
<asrwt>0</asrwt>
<pdfrwt beam="1">  1        2 0.17037360E+00 0.91668764E+03</pdfrwt>
<pdfrwt beam="2">  1       -2 0.25164273E-01 0.91668764E+03</pdfrwt>
<totfact> 0.30547377E+02</totfact>
</mgrwt>
</event>
<event>
 4    1  0.5399378E-005  0.5738047E+03  0.7818608E-02  0.9961295E-01
         -2   -1    0    0    0  501 -0.00000000000E+00  0.00000000000E+00  0.19566315656E+03  0.19566315658E+03  0.25500000000E-02 0. -1.
          2   -1    0    0  501    0  0.00000000000E+00 -0.00000000000E+00 -0.42068706920E+03  0.42068706921E+03  0.25500000000E-02 0.  1.
    5000001    1    1    2    0    0 -0.55742972096E+02  0.21891552394E+03 -0.18092651447E+03  0.33315265150E+03  0.16500000000E+03 0.  0.
   -5000001    1    1    2    0    0  0.55742972096E+02 -0.21891552394E+03 -0.44097398174E+02  0.28319757430E+03  0.16500000000E+03 0.  0.
<mgrwt>
<rscale>  0 0.57380471E+03</rscale>
<asrwt>0</asrwt>
<pdfrwt beam="1">  1        2 0.60098152E-01 0.57380471E+03</pdfrwt>
<pdfrwt beam="2">  1       -2 0.27951880E-01 0.57380471E+03</pdfrwt>
<totfact> 0.95722656E+02</totfact>
</mgrwt>
</event>
<event>
 4    1  0.5399378E-005  0.8940651E+03  0.7818608E-02  0.9433031E-01
          2   -1    0    0  501    0  0.00000000000E+00  0.00000000000E+00  0.61549897918E+03  0.61549897918E+03  0.25500000000E-02 0.  1.
         -2   -1    0    0    0  501 -0.00000000000E+00 -0.00000000000E+00 -0.32467655854E+03  0.32467655855E+03  0.25500000000E-02 0. -1.
    5000001    1    1    2    0    0 -0.41493390749E+03 -0.20954499643E+02  0.14334741530E+03  0.46944937971E+03  0.16500000000E+03 0.  0.
   -5000001    1    1    2    0    0  0.41493390749E+03  0.20954499643E+02  0.14747500534E+03  0.47072615801E+03  0.16500000000E+03 0.  0.
<mgrwt>
<rscale>  0 0.89406508E+03</rscale>
<asrwt>0</asrwt>
<pdfrwt beam="1">  1        2 0.87928426E-01 0.89406508E+03</pdfrwt>
<pdfrwt beam="2">  1       -2 0.46382365E-01 0.89406508E+03</pdfrwt>
<totfact> 0.23256426E+02</totfact>
</mgrwt>
</event>
<event>
 4    1  0.5399378E-005  0.6206383E+03  0.7818608E-02  0.9863490E-01
         -2   -1    0    0    0  501 -0.00000000000E+00  0.00000000000E+00  0.71284331144E+02  0.71284331190E+02  0.25500000000E-02 0. -1.
          2   -1    0    0  501    0  0.00000000000E+00 -0.00000000000E+00 -0.13508993886E+04  0.13508993886E+04  0.25500000000E-02 0.  1.
    5000001    1    1    2    0    0 -0.20742868488E+03 -0.15505374328E+03 -0.74240461137E+03  0.80340396414E+03  0.16500000000E+03 0.  0.
   -5000001    1    1    2    0    0  0.20742868488E+03  0.15505374328E+03 -0.53721044608E+03  0.61877975564E+03  0.16500000000E+03 0.  0.
<mgrwt>
<rscale>  0 0.62063825E+03</rscale>
<asrwt>0</asrwt>
<pdfrwt beam="1">  1        2 0.19298561E+00 0.62063825E+03</pdfrwt>
<pdfrwt beam="2">  1       -2 0.10183477E-01 0.62063825E+03</pdfrwt>
<totfact> 0.11853668E+03</totfact>
</mgrwt>
</event>
<event>
 4    1  0.5399378E-005  0.6633268E+03  0.7818608E-02  0.9782089E-01
          2   -1    0    0  501    0  0.00000000000E+00  0.00000000000E+00  0.98576916755E+03  0.98576916755E+03  0.25500000000E-02 0.  1.
         -2   -1    0    0    0  501 -0.00000000000E+00 -0.00000000000E+00 -0.11158860870E+03  0.11158860873E+03  0.25500000000E-02 0. -1.
    5000001    1    1    2    0    0  0.24063974779E+03 -0.78240728126E+01  0.69764983225E+03  0.75624664810E+03  0.16500000000E+03 0.  0.
   -5000001    1    1    2    0    0 -0.24063974779E+03  0.78240728126E+01  0.17653072660E+03  0.34111112818E+03  0.16500000000E+03 0.  0.
<mgrwt>
<rscale>  0 0.66332680E+03</rscale>
<asrwt>0</asrwt>
<pdfrwt beam="1">  1        2 0.14082417E+00 0.66332680E+03</pdfrwt>
<pdfrwt beam="2">  1       -2 0.15941229E-01 0.66332680E+03</pdfrwt>
<totfact> 0.90957340E+02</totfact>
</mgrwt>
</event>
<event>
 4    1  0.5399378E-005  0.4658242E+03  0.7818608E-02  0.1023105E+00
          2   -1    0    0  501    0  0.00000000000E+00  0.00000000000E+00  0.23470844738E+04  0.23470844738E+04  0.25500000000E-02 0.  1.
         -2   -1    0    0    0  501 -0.00000000000E+00 -0.00000000000E+00 -0.23112953294E+02  0.23112953434E+02  0.25500000000E-02 0. -1.
    5000001    1    1    2    0    0  0.10142311217E+03  0.11804645171E+03  0.89267529673E+03  0.92104060597E+03  0.16500000000E+03 0.  0.
   -5000001    1    1    2    0    0 -0.10142311217E+03 -0.11804645171E+03  0.14312962238E+04  0.14491568213E+04  0.16500000000E+03 0.  0.
<mgrwt>
<rscale>  0 0.46582423E+03</rscale>
<asrwt>0</asrwt>
<pdfrwt beam="1">  1        2 0.33529784E+00 0.46582423E+03</pdfrwt>
<pdfrwt beam="2">  1       -2 0.33018500E-02 0.46582423E+03</pdfrwt>
<totfact> 0.21641867E+03</totfact>
</mgrwt>
</event>
<event>
 4    1  0.5399378E-005  0.6114219E+03  0.7818608E-02  0.9881989E-01
          2   -1    0    0  501    0  0.00000000000E+00  0.00000000000E+00  0.83051950530E+03  0.83051950530E+03  0.25500000000E-02 0.  1.
         -2   -1    0    0    0  501 -0.00000000000E+00 -0.00000000000E+00 -0.11253099174E+03  0.11253099177E+03  0.25500000000E-02 0. -1.
    5000001    1    1    2    0    0  0.63946766491E+02 -0.22672648372E+03  0.19914962787E+03  0.34982804582E+03  0.16500000000E+03 0.  0.
   -5000001    1    1    2    0    0 -0.63946766491E+02  0.22672648372E+03  0.51883888569E+03  0.59322245125E+03  0.16500000000E+03 0.  0.
<mgrwt>
<rscale>  0 0.61142190E+03</rscale>
<asrwt>0</asrwt>
<pdfrwt beam="1">  1        2 0.11864565E+00 0.61142190E+03</pdfrwt>
<pdfrwt beam="2">  1       -2 0.16075855E-01 0.61142190E+03</pdfrwt>
<totfact> 0.11304946E+03</totfact>
</mgrwt>
</event>
<event>
 4    1  0.5399378E-005  0.4464901E+03  0.7818608E-02  0.1028774E+00
         -2   -1    0    0    0  501 -0.00000000000E+00  0.00000000000E+00  0.30362509216E+02  0.30362509323E+02  0.25500000000E-02 0. -1.
          2   -1    0    0  501    0  0.00000000000E+00 -0.00000000000E+00 -0.16414439417E+04  0.16414439417E+04  0.25500000000E-02 0.  1.
    5000001    1    1    2    0    0 -0.14302130085E+03  0.29458774122E+02 -0.94004741001E+03  0.96552423322E+03  0.16500000000E+03 0.  0.
   -5000001    1    1    2    0    0  0.14302130085E+03 -0.29458774122E+02 -0.67103402247E+03  0.70628221780E+03  0.16500000000E+03 0.  0.
<mgrwt>
<rscale>  0 0.44649012E+03</rscale>
<asrwt>0</asrwt>
<pdfrwt beam="1">  1        2 0.23449194E+00 0.44649012E+03</pdfrwt>
<pdfrwt beam="2">  1       -2 0.43375024E-02 0.44649012E+03</pdfrwt>
<totfact> 0.32186988E+03</totfact>
</mgrwt>
</event>
<event>
 4    1  0.5399378E-005  0.6354957E+03  0.7818608E-02  0.9834383E-01
          2   -1    0    0  501    0  0.00000000000E+00  0.00000000000E+00  0.20049024165E+04  0.20049024165E+04  0.25500000000E-02 0.  1.
         -2   -1    0    0    0  501 -0.00000000000E+00 -0.00000000000E+00 -0.50358402286E+02  0.50358402351E+02  0.25500000000E-02 0. -1.
    5000001    1    1    2    0    0  0.57549574932E+02 -0.19322860519E+03  0.38897175787E+03  0.46815945559E+03  0.16500000000E+03 0.  0.
   -5000001    1    1    2    0    0 -0.57549574932E+02  0.19322860519E+03  0.15655722563E+04  0.15871013632E+04  0.16500000000E+03 0.  0.
<mgrwt>
<rscale>  0 0.63549566E+03</rscale>
<asrwt>0</asrwt>
<pdfrwt beam="1">  1        2 0.28641460E+00 0.63549566E+03</pdfrwt>
<pdfrwt beam="2">  1       -2 0.71940582E-02 0.63549566E+03</pdfrwt>
<totfact> 0.95413838E+02</totfact>
</mgrwt>
</event>
<event>
 4    1  0.5399378E-005  0.3713785E+03  0.7818608E-02  0.1054167E+00
          2   -1    0    0  501    0  0.00000000000E+00  0.00000000000E+00  0.10030242106E+04  0.10030242106E+04  0.25500000000E-02 0.  1.
         -2   -1    0    0    0  501 -0.00000000000E+00 -0.00000000000E+00 -0.34376528741E+02  0.34376528836E+02  0.25500000000E-02 0. -1.
    5000001    1    1    2    0    0 -0.59250869401E+02 -0.17278720809E+02  0.32033868102E+03  0.36558321935E+03  0.16500000000E+03 0.  0.
   -5000001    1    1    2    0    0  0.59250869401E+02  0.17278720809E+02  0.64830900079E+03  0.67181752004E+03  0.16500000000E+03 0.  0.
<mgrwt>
<rscale>  0 0.37137846E+03</rscale>
<asrwt>0</asrwt>
<pdfrwt beam="1">  1        2 0.14328917E+00 0.37137846E+03</pdfrwt>
<pdfrwt beam="2">  1       -2 0.49109329E-02 0.37137846E+03</pdfrwt>
<totfact> 0.58698377E+03</totfact>
</mgrwt>
</event>
<event>
 4    1  0.5399378E-005  0.4882899E+03  0.7818608E-02  0.1016881E+00
          2   -1    0    0  501    0  0.00000000000E+00  0.00000000000E+00  0.77619272832E+03  0.77619272833E+03  0.25500000000E-02 0.  1.
         -2   -1    0    0    0  501 -0.00000000000E+00 -0.00000000000E+00 -0.76793764419E+02  0.76793764462E+02  0.25500000000E-02 0. -1.
    5000001    1    1    2    0    0 -0.17011417743E+03  0.48032831902E+02  0.40857172638E+03  0.47476503863E+03  0.16500000000E+03 0.  0.
   -5000001    1    1    2    0    0  0.17011417743E+03 -0.48032831902E+02  0.29082723752E+03  0.37822145416E+03  0.16500000000E+03 0.  0.
<mgrwt>
<rscale>  0 0.48828992E+03</rscale>
<asrwt>0</asrwt>
<pdfrwt beam="1">  1        2 0.11088468E+00 0.48828992E+03</pdfrwt>
<pdfrwt beam="2">  1       -2 0.10970537E-01 0.48828992E+03</pdfrwt>
<totfact> 0.23256011E+03</totfact>
</mgrwt>
</event>
<event>
 4    1  0.5399378E-005  0.8952460E+03  0.7818608E-02  0.9431544E-01
         -2   -1    0    0    0  501 -0.00000000000E+00  0.00000000000E+00  0.14250531404E+03  0.14250531406E+03  0.25500000000E-02 0. -1.
          2   -1    0    0  501    0  0.00000000000E+00 -0.00000000000E+00 -0.14060273377E+04  0.14060273377E+04  0.25500000000E-02 0.  1.
    5000001    1    1    2    0    0  0.46536569881E+02 -0.41189896562E+03 -0.56903701085E+03  0.72308680664E+03  0.16500000000E+03 0.  0.
   -5000001    1    1    2    0    0 -0.46536569881E+02  0.41189896562E+03 -0.69448501281E+03  0.82544584512E+03  0.16500000000E+03 0.  0.
<mgrwt>
<rscale>  0 0.89524604E+03</rscale>
<asrwt>0</asrwt>
<pdfrwt beam="1">  1        2 0.20086104E+00 0.89524604E+03</pdfrwt>
<pdfrwt beam="2">  1       -2 0.20357903E-01 0.89524604E+03</pdfrwt>
<totfact> 0.34021419E+02</totfact>
</mgrwt>
</event>
<event>
 4    1  0.5399378E-005  0.7390551E+03  0.7818608E-02  0.9652679E-01
          2   -1    0    0  501    0  0.00000000000E+00  0.00000000000E+00  0.17604378812E+04  0.17604378812E+04  0.25500000000E-02 0.  1.
         -2   -1    0    0    0  501 -0.00000000000E+00 -0.00000000000E+00 -0.77566286215E+02  0.77566286257E+02  0.25500000000E-02 0. -1.
    5000001    1    1    2    0    0 -0.29904175612E+03 -0.12714936996E+03  0.68949273955E+03  0.77988343493E+03  0.16500000000E+03 0.  0.
   -5000001    1    1    2    0    0  0.29904175612E+03  0.12714936996E+03  0.99337885548E+03  0.10581207326E+04  0.16500000000E+03 0.  0.
<mgrwt>
<rscale>  0 0.73905515E+03</rscale>
<asrwt>0</asrwt>
<pdfrwt beam="1">  1        2 0.25149108E+00 0.73905515E+03</pdfrwt>
<pdfrwt beam="2">  1       -2 0.11080900E-01 0.73905515E+03</pdfrwt>
<totfact> 0.62861782E+02</totfact>
</mgrwt>
</event>
<event>
 4    1  0.5399378E-005  0.4964615E+03  0.7818608E-02  0.1014707E+00
         -2   -1    0    0    0  501 -0.00000000000E+00  0.00000000000E+00  0.17306033173E+03  0.17306033175E+03  0.25500000000E-02 0. -1.
          2   -1    0    0  501    0  0.00000000000E+00 -0.00000000000E+00 -0.35605214131E+03  0.35605214132E+03  0.25500000000E-02 0.  1.
    5000001    1    1    2    0    0  0.11250548938E+03 -0.43839728972E+02  0.58524231029E+02  0.21267226569E+03  0.16500000000E+03 0.  0.
   -5000001    1    1    2    0    0 -0.11250548938E+03  0.43839728972E+02 -0.24151604060E+03  0.31644020738E+03  0.16500000000E+03 0.  0.
<mgrwt>
<rscale>  0 0.49646149E+03</rscale>
<asrwt>0</asrwt>
<pdfrwt beam="1">  1        2 0.50864591E-01 0.49646149E+03</pdfrwt>
<pdfrwt beam="2">  1       -2 0.24722905E-01 0.49646149E+03</pdfrwt>
<totfact> 0.14368776E+03</totfact>
</mgrwt>
</event>
<event>
 4    1  0.5399378E-005  0.6376111E+03  0.7818608E-02  0.9830308E-01
          2   -1    0    0  501    0  0.00000000000E+00  0.00000000000E+00  0.15425307021E+04  0.15425307021E+04  0.25500000000E-02 0.  1.
         -2   -1    0    0    0  501 -0.00000000000E+00 -0.00000000000E+00 -0.65889763802E+02  0.65889763851E+02  0.25500000000E-02 0. -1.
    5000001    1    1    2    0    0  0.42676173253E+01  0.23907096404E+03  0.10695261648E+04  0.11082799085E+04  0.16500000000E+03 0.  0.
   -5000001    1    1    2    0    0 -0.42676173253E+01 -0.23907096404E+03  0.40711477351E+03  0.50014055746E+03  0.16500000000E+03 0.  0.
<mgrwt>
<rscale>  0 0.63761112E+03</rscale>
<asrwt>0</asrwt>
<pdfrwt beam="1">  1        2 0.22036154E+00 0.63761112E+03</pdfrwt>
<pdfrwt beam="2">  1       -2 0.94128231E-02 0.63761112E+03</pdfrwt>
<totfact> 0.10662453E+03</totfact>
</mgrwt>
</event>
<event>
 4    1  0.5399378E-005  0.1167330E+04  0.7818608E-02  0.9141943E-01
          2   -1    0    0  501    0  0.00000000000E+00  0.00000000000E+00  0.41329501647E+03  0.41329501648E+03  0.25500000000E-02 0.  1.
         -2   -1    0    0    0  501 -0.00000000000E+00 -0.00000000000E+00 -0.82426590812E+03  0.82426590812E+03  0.25500000000E-02 0. -1.
    5000001    1    1    2    0    0 -0.52236334375E+03 -0.89089596917E+02 -0.13951801053E+02  0.55517571266E+03  0.16500000000E+03 0.  0.
   -5000001    1    1    2    0    0  0.52236334375E+03  0.89089596917E+02 -0.39701909060E+03  0.68238521194E+03  0.16500000000E+03 0.  0.
<mgrwt>
<rscale>  0 0.11673303E+04</rscale>
<asrwt>0</asrwt>
<pdfrwt beam="1">  1        2 0.59042145E-01 0.11673303E+04</pdfrwt>
<pdfrwt beam="2">  1       -2 0.11775227E+00 0.11673303E+04</pdfrwt>
<totfact> 0.45897672E+01</totfact>
</mgrwt>
</event>
<event>
 4    1  0.5399378E-005  0.5159116E+03  0.7818608E-02  0.1009707E+00
          2   -1    0    0  501    0  0.00000000000E+00  0.00000000000E+00  0.29426295103E+04  0.29426295103E+04  0.25500000000E-02 0.  1.
         -2   -1    0    0    0  501 -0.00000000000E+00 -0.00000000000E+00 -0.22612837703E+02  0.22612837847E+02  0.25500000000E-02 0. -1.
    5000001    1    1    2    0    0  0.10734761717E+03  0.10641710874E+03  0.21975838855E+04  0.22089472710E+04  0.16500000000E+03 0.  0.
   -5000001    1    1    2    0    0 -0.10734761717E+03 -0.10641710874E+03  0.72243278704E+03  0.75629507716E+03  0.16500000000E+03 0.  0.
<mgrwt>
<rscale>  0 0.51591163E+03</rscale>
<asrwt>0</asrwt>
<pdfrwt beam="1">  1        2 0.42037529E+00 0.51591163E+03</pdfrwt>
<pdfrwt beam="2">  1       -2 0.32304082E-02 0.51591163E+03</pdfrwt>
<totfact> 0.10957688E+03</totfact>
</mgrwt>
</event>
<event>
 4    1  0.5399378E-005  0.4224570E+03  0.7818608E-02  0.1036270E+00
          2   -1    0    0  501    0  0.00000000000E+00  0.00000000000E+00  0.12466433472E+03  0.12466433475E+03  0.25500000000E-02 0.  1.
         -2   -1    0    0    0  501 -0.00000000000E+00 -0.00000000000E+00 -0.35790089776E+03  0.35790089777E+03  0.25500000000E-02 0. -1.
    5000001    1    1    2    0    0 -0.11645476811E+03  0.61471474120E+02 -0.12485715420E+03  0.24526468172E+03  0.16500000000E+03 0.  0.
   -5000001    1    1    2    0    0  0.11645476811E+03 -0.61471474120E+02 -0.10837940884E+03  0.23730055079E+03  0.16500000000E+03 0.  0.
<mgrwt>
<rscale>  0 0.42245699E+03</rscale>
<asrwt>0</asrwt>
<pdfrwt beam="1">  1        2 0.17809191E-01 0.42245699E+03</pdfrwt>
<pdfrwt beam="2">  1       -2 0.51128699E-01 0.42245699E+03</pdfrwt>
<totfact> 0.11770978E+03</totfact>
</mgrwt>
</event>
<event>
 4    1  0.5399378E-005  0.7690700E+03  0.7818608E-02  0.9605899E-01
          2   -1    0    0  501    0  0.00000000000E+00  0.00000000000E+00  0.78497948167E+03  0.78497948167E+03  0.25500000000E-02 0.  1.
         -2   -1    0    0    0  501 -0.00000000000E+00 -0.00000000000E+00 -0.18837072156E+03  0.18837072158E+03  0.25500000000E-02 0. -1.
    5000001    1    1    2    0    0  0.34471774544E+03  0.40723616712E+02  0.31398041966E+03  0.49628362949E+03  0.16500000000E+03 0.  0.
   -5000001    1    1    2    0    0 -0.34471774544E+03 -0.40723616712E+02  0.28262834045E+03  0.47706657376E+03  0.16500000000E+03 0.  0.
<mgrwt>
<rscale>  0 0.76906996E+03</rscale>
<asrwt>0</asrwt>
<pdfrwt beam="1">  1        2 0.11213993E+00 0.76906996E+03</pdfrwt>
<pdfrwt beam="2">  1       -2 0.26910103E-01 0.76906996E+03</pdfrwt>
<totfact> 0.48971435E+02</totfact>
</mgrwt>
</event>
<event>
 4    1  0.5399378E-005  0.1045310E+04  0.7818608E-02  0.9260199E-01
         -2   -1    0    0    0  501 -0.00000000000E+00  0.00000000000E+00  0.89817215699E+02  0.89817215736E+02  0.25500000000E-02 0. -1.
          2   -1    0    0  501    0  0.00000000000E+00 -0.00000000000E+00 -0.30413809733E+04  0.30413809733E+04  0.25500000000E-02 0.  1.
    5000001    1    1    2    0    0 -0.43683520552E+03  0.97679903758E+02 -0.21152785279E+04  0.21684083128E+04  0.16500000000E+03 0.  0.
   -5000001    1    1    2    0    0  0.43683520552E+03 -0.97679903758E+02 -0.83628522967E+03  0.96278987622E+03  0.16500000000E+03 0.  0.
<mgrwt>
<rscale>  0 0.10453102E+04</rscale>
<asrwt>0</asrwt>
<pdfrwt beam="1">  1        2 0.43448293E+00 0.10453102E+04</pdfrwt>
<pdfrwt beam="2">  1       -2 0.12831033E-01 0.10453102E+04</pdfrwt>
<totfact> 0.10355085E+02</totfact>
</mgrwt>
</event>
<event>
 4    1  0.5399378E-005  0.5775697E+03  0.7818608E-02  0.9953066E-01
          2   -1    0    0  501    0  0.00000000000E+00  0.00000000000E+00  0.21971228369E+04  0.21971228369E+04  0.25500000000E-02 0.  1.
         -2   -1    0    0    0  501 -0.00000000000E+00 -0.00000000000E+00 -0.37957228678E+02  0.37957228764E+02  0.25500000000E-02 0. -1.
    5000001    1    1    2    0    0  0.15777142736E+02  0.15509601673E+03  0.17704046866E+04  0.17848981615E+04  0.16500000000E+03 0.  0.
   -5000001    1    1    2    0    0 -0.15777142736E+02 -0.15509601673E+03  0.38876092157E+03  0.45018190410E+03  0.16500000000E+03 0.  0.
<mgrwt>
<rscale>  0 0.57756972E+03</rscale>
<asrwt>0</asrwt>
<pdfrwt beam="1">  1        2 0.31387482E+00 0.57756972E+03</pdfrwt>
<pdfrwt beam="2">  1       -2 0.54224590E-02 0.57756972E+03</pdfrwt>
<totfact> 0.11945751E+03</totfact>
</mgrwt>
</event>
<event>
 4    1  0.5399378E-005  0.6543135E+03  0.7818608E-02  0.9798719E-01
         -2   -1    0    0    0  501 -0.00000000000E+00  0.00000000000E+00  0.87435515125E+02  0.87435515162E+02  0.25500000000E-02 0. -1.
          2   -1    0    0  501    0  0.00000000000E+00 -0.00000000000E+00 -0.12241197256E+04  0.12241197256E+04  0.25500000000E-02 0.  1.
    5000001    1    1    2    0    0  0.27304945341E+03 -0.24878612909E+02 -0.70475823785E+03  0.77400524753E+03  0.16500000000E+03 0.  0.
   -5000001    1    1    2    0    0 -0.27304945341E+03  0.24878612909E+02 -0.43192597258E+03  0.53754999319E+03  0.16500000000E+03 0.  0.
<mgrwt>
<rscale>  0 0.65431350E+03</rscale>
<asrwt>0</asrwt>
<pdfrwt beam="1">  1        2 0.17487424E+00 0.65431350E+03</pdfrwt>
<pdfrwt beam="2">  1       -2 0.12490789E-01 0.65431350E+03</pdfrwt>
<totfact> 0.99386123E+02</totfact>
</mgrwt>
</event>
<event>
 4    1  0.5399378E-005  0.6101325E+03  0.7818608E-02  0.9884605E-01
         -2   -1    0    0    0  501 -0.00000000000E+00  0.00000000000E+00  0.63605850370E+02  0.63605850421E+02  0.25500000000E-02 0. -1.
          2   -1    0    0  501    0  0.00000000000E+00 -0.00000000000E+00 -0.14631580991E+04  0.14631580991E+04  0.25500000000E-02 0.  1.
    5000001    1    1    2    0    0 -0.18210555177E+03 -0.15537692604E+03 -0.93096918418E+03  0.97531176709E+03  0.16500000000E+03 0.  0.
   -5000001    1    1    2    0    0  0.18210555177E+03  0.15537692604E+03 -0.46858306459E+03  0.55145218247E+03  0.16500000000E+03 0.  0.
<mgrwt>
<rscale>  0 0.61013249E+03</rscale>
<asrwt>0</asrwt>
<pdfrwt beam="1">  1        2 0.20902256E+00 0.61013249E+03</pdfrwt>
<pdfrwt beam="2">  1       -2 0.90865510E-02 0.61013249E+03</pdfrwt>
<totfact> 0.12429147E+03</totfact>
</mgrwt>
</event>
<event>
 4    1  0.5399378E-005  0.5115277E+03  0.7818608E-02  0.1010813E+00
          2   -1    0    0  501    0  0.00000000000E+00  0.00000000000E+00  0.85443783811E+03  0.85443783811E+03  0.25500000000E-02 0.  1.
         -2   -1    0    0    0  501 -0.00000000000E+00 -0.00000000000E+00 -0.76559292187E+02  0.76559292229E+02  0.25500000000E-02 0. -1.
    5000001    1    1    2    0    0  0.23466577065E+02  0.19398077912E+03  0.38292125904E+03  0.46047031775E+03  0.16500000000E+03 0.  0.
   -5000001    1    1    2    0    0 -0.23466577065E+02 -0.19398077912E+03  0.39495728689E+03  0.47052681260E+03  0.16500000000E+03 0.  0.
<mgrwt>
<rscale>  0 0.51152774E+03</rscale>
<asrwt>0</asrwt>
<pdfrwt beam="1">  1        2 0.12206255E+00 0.51152774E+03</pdfrwt>
<pdfrwt beam="2">  1       -2 0.10937042E-01 0.51152774E+03</pdfrwt>
<totfact> 0.20674241E+03</totfact>
</mgrwt>
</event>
<event>
 4    1  0.5399378E-005  0.4539715E+03  0.7818608E-02  0.1026544E+00
          2   -1    0    0  501    0  0.00000000000E+00  0.00000000000E+00  0.11457499040E+04  0.11457499040E+04  0.25500000000E-02 0.  1.
         -2   -1    0    0    0  501 -0.00000000000E+00 -0.00000000000E+00 -0.44968396079E+02  0.44968396151E+02  0.25500000000E-02 0. -1.
    5000001    1    1    2    0    0 -0.59331714191E+02 -0.14222587865E+03  0.61185170637E+03  0.65217786183E+03  0.16500000000E+03 0.  0.
   -5000001    1    1    2    0    0  0.59331714191E+02  0.14222587865E+03  0.48892980154E+03  0.53854043831E+03  0.16500000000E+03 0.  0.
<mgrwt>
<rscale>  0 0.45397152E+03</rscale>
<asrwt>0</asrwt>
<pdfrwt beam="1">  1        2 0.16367857E+00 0.45397152E+03</pdfrwt>
<pdfrwt beam="2">  1       -2 0.64240560E-02 0.45397152E+03</pdfrwt>
<totfact> 0.32090538E+03</totfact>
</mgrwt>
</event>
<event>
 4    1  0.5399378E-005  0.7420719E+03  0.7818608E-02  0.9647871E-01
          2   -1    0    0  501    0  0.00000000000E+00  0.00000000000E+00  0.31752354164E+04  0.31752354164E+04  0.25500000000E-02 0.  1.
         -2   -1    0    0    0  501 -0.00000000000E+00 -0.00000000000E+00 -0.43356682447E+02  0.43356682522E+02  0.25500000000E-02 0. -1.
    5000001    1    1    2    0    0  0.21435110165E+02 -0.32801106371E+03  0.13538122549E+04  0.14028839380E+04  0.16500000000E+03 0.  0.
   -5000001    1    1    2    0    0 -0.21435110165E+02  0.32801106371E+03  0.17780664790E+04  0.18157081609E+04  0.16500000000E+03 0.  0.
<mgrwt>
<rscale>  0 0.74207189E+03</rscale>
<asrwt>0</asrwt>
<pdfrwt beam="1">  1        2 0.45360485E+00 0.74207189E+03</pdfrwt>
<pdfrwt beam="2">  1       -2 0.61938146E-02 0.74207189E+03</pdfrwt>
<totfact> 0.29201483E+02</totfact>
</mgrwt>
</event>
<event>
 4    1  0.5399378E-005  0.8698184E+03  0.7818608E-02  0.9464117E-01
          2   -1    0    0  501    0  0.00000000000E+00  0.00000000000E+00  0.71805802029E+03  0.71805802030E+03  0.25500000000E-02 0.  1.
         -2   -1    0    0    0  501 -0.00000000000E+00 -0.00000000000E+00 -0.26341328187E+03  0.26341328188E+03  0.25500000000E-02 0. -1.
    5000001    1    1    2    0    0 -0.94434774584E+02 -0.23595791159E+03 -0.12469620460E+03  0.32767088082E+03  0.16500000000E+03 0.  0.
   -5000001    1    1    2    0    0  0.94434774584E+02  0.23595791159E+03  0.57934094303E+03  0.65380042136E+03  0.16500000000E+03 0.  0.
<mgrwt>
<rscale>  0 0.86981842E+03</rscale>
<asrwt>0</asrwt>
<pdfrwt beam="1">  1        2 0.10257972E+00 0.86981842E+03</pdfrwt>
<pdfrwt beam="2">  1       -2 0.37630469E-01 0.86981842E+03</pdfrwt>
<totfact> 0.29111150E+02</totfact>
</mgrwt>
</event>
<event>
 4    1  0.5399378E-005  0.1028672E+04  0.7818608E-02  0.9277645E-01
         -2   -1    0    0    0  501 -0.00000000000E+00  0.00000000000E+00  0.18661958771E+03  0.18661958772E+03  0.25500000000E-02 0.  1.
          2   -1    0    0  501    0  0.00000000000E+00 -0.00000000000E+00 -0.14175455265E+04  0.14175455265E+04  0.25500000000E-02 0. -1.
    5000001    1    1    2    0    0 -0.10031272096E+03 -0.47506192186E+03 -0.55366675043E+03  0.75466439039E+03  0.16500000000E+03 0.  0.
   -5000001    1    1    2    0    0  0.10031272096E+03  0.47506192186E+03 -0.67725918838E+03  0.84950072386E+03  0.16500000000E+03 0.  0.
<mgrwt>
<rscale>  0 0.10286725E+04</rscale>
<asrwt>0</asrwt>
<pdfrwt beam="1">  1        2 0.20250650E+00 0.10286725E+04</pdfrwt>
<pdfrwt beam="2">  1       -2 0.26659942E-01 0.10286725E+04</pdfrwt>
<totfact> 0.20536655E+02</totfact>
</mgrwt>
</event>
