<event>
 4    1  0.5900026E-005  0.8694573E+03  0.7818608E-02  0.9464588E-01
          2   -1    0    0  501    0  0.00000000000E+00  0.00000000000E+00  0.32935247869E+04  0.32935247869E+04  0.25500000000E-02 0.  1.
         -2   -1    0    0    0  501 -0.00000000000E+00 -0.00000000000E+00 -0.57381991448E+02  0.57381991505E+02  0.25500000000E-02 0. -1.
    5000001    1    1    2    0    0 -0.99470073961E+02  0.37604443332E+03  0.17285211980E+04  0.17821204346E+04  0.19200000000E+03 0.  0.
   -5000001    1    1    2    0    0  0.99470073961E+02 -0.37604443332E+03  0.15076215974E+04  0.15687863438E+04  0.19200000000E+03 0.  0.
<mgrwt>
<rscale>  0 0.86945733E+03</rscale>
<asrwt>0</asrwt>
<pdfrwt beam="1">  1        2 0.47050366E+00 0.86945733E+03</pdfrwt>
<pdfrwt beam="2">  1       -2 0.81974253E-02 0.86945733E+03</pdfrwt>
<totfact> 0.15799341E+02</totfact>
</mgrwt>
</event>
<event>
 4    1  0.5900026E-005  0.4046925E+03  0.7818608E-02  0.1042167E+00
          2   -1    0    0  501    0  0.00000000000E+00  0.00000000000E+00  0.34182883708E+03  0.34182883709E+03  0.25500000000E-02 0.  1.
         -2   -1    0    0    0  501 -0.00000000000E+00 -0.00000000000E+00 -0.11977923216E+03  0.11977923219E+03  0.25500000000E-02 0. -1.
    5000001    1    1    2    0    0 -0.44408337038E+02 -0.41681956171E+02  0.13298054451E+03  0.24136551346E+03  0.19200000000E+03 0.  0.
   -5000001    1    1    2    0    0  0.44408337038E+02  0.41681956171E+02  0.89069060406E+02  0.22024255581E+03  0.19200000000E+03 0.  0.
<mgrwt>
<rscale>  0 0.40469245E+03</rscale>
<asrwt>0</asrwt>
<pdfrwt beam="1">  1        2 0.48832691E-01 0.40469245E+03</pdfrwt>
<pdfrwt beam="2">  1       -2 0.17111319E-01 0.40469245E+03</pdfrwt>
<totfact> 0.28418814E+03</totfact>
</mgrwt>
</event>
<event>
 4    1  0.5900026E-005  0.5740952E+03  0.7818608E-02  0.9960657E-01
         -2   -1    0    0    0  501 -0.00000000000E+00  0.00000000000E+00  0.29216695133E+02  0.29216695244E+02  0.25500000000E-02 0. -1.
          2   -1    0    0  501    0  0.00000000000E+00 -0.00000000000E+00 -0.28201795700E+04  0.28201795700E+04  0.25500000000E-02 0.  1.
    5000001    1    1    2    0    0 -0.77548544018E+02 -0.19714861383E+03 -0.15221155870E+04  0.15487353592E+04  0.19200000000E+03 0.  0.
   -5000001    1    1    2    0    0  0.77548544018E+02  0.19714861383E+03 -0.12688472879E+04  0.13006609061E+04  0.19200000000E+03 0.  0.
<mgrwt>
<rscale>  0 0.57409521E+03</rscale>
<asrwt>0</asrwt>
<pdfrwt beam="1">  1        2 0.40288262E+00 0.57409521E+03</pdfrwt>
<pdfrwt beam="2">  1       -2 0.41738154E-02 0.57409521E+03</pdfrwt>
<totfact> 0.85666886E+02</totfact>
</mgrwt>
</event>
<event>
 4    1  0.5900026E-005  0.6619654E+03  0.7818608E-02  0.9784582E-01
         -2   -1    0    0    0  501 -0.00000000000E+00  0.00000000000E+00  0.40087116252E+03  0.40087116252E+03  0.25500000000E-02 0. -1.
          2   -1    0    0  501    0  0.00000000000E+00 -0.00000000000E+00 -0.27327872166E+03  0.27327872167E+03  0.25500000000E-02 0.  1.
    5000001    1    1    2    0    0 -0.13368907758E+03  0.77700486977E+02  0.28871290727E+03  0.37964361968E+03  0.19200000000E+03 0.  0.
   -5000001    1    1    2    0    0  0.13368907758E+03 -0.77700486977E+02 -0.16112046641E+03  0.29450626451E+03  0.19200000000E+03 0.  0.
<mgrwt>
<rscale>  0 0.66196543E+03</rscale>
<asrwt>0</asrwt>
<pdfrwt beam="1">  1        2 0.39039818E-01 0.66196543E+03</pdfrwt>
<pdfrwt beam="2">  1       -2 0.57267309E-01 0.66196543E+03</pdfrwt>
<totfact> 0.38148261E+02</totfact>
</mgrwt>
</event>
<event>
 4    1  0.5900026E-005  0.5226360E+03  0.7818608E-02  0.1008034E+00
          2   -1    0    0  501    0  0.00000000000E+00  0.00000000000E+00  0.40006293266E+03  0.40006293267E+03  0.25500000000E-02 0.  1.
         -2   -1    0    0    0  501 -0.00000000000E+00 -0.00000000000E+00 -0.17069089601E+03  0.17069089603E+03  0.25500000000E-02 0. -1.
    5000001    1    1    2    0    0  0.40548473855E+02  0.12068355990E+03 -0.20016873033E+02  0.23124310923E+03  0.19200000000E+03 0.  0.
   -5000001    1    1    2    0    0 -0.40548473855E+02 -0.12068355990E+03  0.24938890968E+03  0.33951071947E+03  0.19200000000E+03 0.  0.
<mgrwt>
<rscale>  0 0.52263601E+03</rscale>
<asrwt>0</asrwt>
<pdfrwt beam="1">  1        2 0.57151847E-01 0.52263601E+03</pdfrwt>
<pdfrwt beam="2">  1       -2 0.24384414E-01 0.52263601E+03</pdfrwt>
<totfact> 0.12950708E+03</totfact>
</mgrwt>
</event>
<event>
 4    1  0.5900026E-005  0.8153290E+03  0.7818608E-02  0.9538090E-01
          2   -1    0    0  501    0  0.00000000000E+00  0.00000000000E+00  0.11006928213E+04  0.11006928213E+04  0.25500000000E-02 0.  1.
         -2   -1    0    0    0  501 -0.00000000000E+00 -0.00000000000E+00 -0.15098701729E+03  0.15098701731E+03  0.25500000000E-02 0. -1.
    5000001    1    1    2    0    0 -0.27468614627E+03  0.23094804615E+03  0.51042305151E+03  0.65282859196E+03  0.19200000000E+03 0.  0.
   -5000001    1    1    2    0    0  0.27468614627E+03 -0.23094804615E+03  0.43928275250E+03  0.59885124666E+03  0.19200000000E+03 0.  0.
<mgrwt>
<rscale>  0 0.81532895E+03</rscale>
<asrwt>0</asrwt>
<pdfrwt beam="1">  1        2 0.15724183E+00 0.81532895E+03</pdfrwt>
<pdfrwt beam="2">  1       -2 0.21569575E-01 0.81532895E+03</pdfrwt>
<totfact> 0.45699327E+02</totfact>
</mgrwt>
</event>
<event>
 4    1  0.5900026E-005  0.9691950E+03  0.7818608E-02  0.9342992E-01
         -2   -1    0    0    0  501 -0.00000000000E+00  0.00000000000E+00  0.10240015561E+03  0.10240015565E+03  0.25500000000E-02 0. -1.
          2   -1    0    0  501    0  0.00000000000E+00 -0.00000000000E+00 -0.22933044531E+04  0.22933044531E+04  0.25500000000E-02 0.  1.
    5000001    1    1    2    0    0 -0.12068891614E+03 -0.42721475264E+03 -0.10216073715E+04  0.11303202559E+04  0.19200000000E+03 0.  0.
   -5000001    1    1    2    0    0  0.12068891614E+03  0.42721475264E+03 -0.11692969260E+04  0.12653843529E+04  0.19200000000E+03 0.  0.
<mgrwt>
<rscale>  0 0.96919499E+03</rscale>
<asrwt>0</asrwt>
<pdfrwt beam="1">  1        2 0.32761489E+00 0.96919499E+03</pdfrwt>
<pdfrwt beam="2">  1       -2 0.14628595E-01 0.96919499E+03</pdfrwt>
<totfact> 0.20867968E+02</totfact>
</mgrwt>
</event>
<event>
 4    1  0.5900026E-005  0.6100533E+03  0.7818608E-02  0.9884766E-01
          2   -1    0    0  501    0  0.00000000000E+00  0.00000000000E+00  0.48512595865E+03  0.48512595865E+03  0.25500000000E-02 0.  1.
         -2   -1    0    0    0  501 -0.00000000000E+00 -0.00000000000E+00 -0.19178780682E+03  0.19178780684E+03  0.25500000000E-02 0. -1.
    5000001    1    1    2    0    0 -0.94295101431E+02 -0.17063330975E+03 -0.29002292221E+01  0.27364156095E+03  0.19200000000E+03 0.  0.
   -5000001    1    1    2    0    0  0.94295101431E+02  0.17063330975E+03  0.29623838105E+03  0.40327220454E+03  0.19200000000E+03 0.  0.
<mgrwt>
<rscale>  0 0.61005326E+03</rscale>
<asrwt>0</asrwt>
<pdfrwt beam="1">  1        2 0.69303709E-01 0.61005326E+03</pdfrwt>
<pdfrwt beam="2">  1       -2 0.27398258E-01 0.61005326E+03</pdfrwt>
<totfact> 0.84561114E+02</totfact>
</mgrwt>
</event>
<event>
 4    1  0.5900026E-005  0.8160796E+03  0.7818608E-02  0.9537030E-01
          2   -1    0    0  501    0  0.00000000000E+00  0.00000000000E+00  0.55165585819E+03  0.55165585820E+03  0.25500000000E-02 0.  1.
         -2   -1    0    0    0  501 -0.00000000000E+00 -0.00000000000E+00 -0.30181224214E+03  0.30181224215E+03  0.25500000000E-02 0. -1.
    5000001    1    1    2    0    0 -0.29110596495E+03 -0.41040034068E+02 -0.92460599409E+02  0.36309768613E+03  0.19200000000E+03 0.  0.
   -5000001    1    1    2    0    0  0.29110596495E+03  0.41040034068E+02  0.34230421546E+03  0.49037041423E+03  0.19200000000E+03 0.  0.
<mgrwt>
<rscale>  0 0.81607963E+03</rscale>
<asrwt>0</asrwt>
<pdfrwt beam="1">  1        2 0.78807979E-01 0.81607963E+03</pdfrwt>
<pdfrwt beam="2">  1       -2 0.43116035E-01 0.81607963E+03</pdfrwt>
<totfact> 0.30705309E+02</totfact>
</mgrwt>
</event>
<event>
 4    1  0.5900026E-005  0.7760952E+03  0.7818608E-02  0.9595278E-01
         -2   -1    0    0    0  501 -0.00000000000E+00  0.00000000000E+00  0.16533159306E+04  0.16533159306E+04  0.25500000000E-02 0. -1.
          2   -1    0    0  501    0  0.00000000000E+00 -0.00000000000E+00 -0.91078137179E+02  0.91078137215E+02  0.25500000000E-02 0.  1.
    5000001    1    1    2    0    0 -0.92235438770E+02 -0.32420413303E+03  0.75850352147E+03  0.85194324231E+03  0.19200000000E+03 0.  0.
   -5000001    1    1    2    0    0  0.92235438770E+02  0.32420413303E+03  0.80373427197E+03  0.89245082552E+03  0.19200000000E+03 0.  0.
<mgrwt>
<rscale>  0 0.77609519E+03</rscale>
<asrwt>0</asrwt>
<pdfrwt beam="1">  1        2 0.13011162E-01 0.77609519E+03</pdfrwt>
<pdfrwt beam="2">  1       -2 0.23618800E+00 0.77609519E+03</pdfrwt>
<totfact> 0.38214220E+01</totfact>
</mgrwt>
</event>
<event>
 4    1  0.5900026E-005  0.4050724E+03  0.7818608E-02  0.1042037E+00
          2   -1    0    0  501    0  0.00000000000E+00  0.00000000000E+00  0.48591833817E+03  0.48591833818E+03  0.25500000000E-02 0.  1.
         -2   -1    0    0    0  501 -0.00000000000E+00 -0.00000000000E+00 -0.84419364681E+02  0.84419364720E+02  0.25500000000E-02 0. -1.
    5000001    1    1    2    0    0  0.27461025875E+02 -0.60521286410E+01  0.28243934593E+03  0.34267582396E+03  0.19200000000E+03 0.  0.
   -5000001    1    1    2    0    0 -0.27461025875E+02  0.60521286410E+01  0.11905962756E+03  0.22766187893E+03  0.19200000000E+03 0.  0.
<mgrwt>
<rscale>  0 0.40507243E+03</rscale>
<asrwt>0</asrwt>
<pdfrwt beam="1">  1        2 0.69416905E-01 0.40507243E+03</pdfrwt>
<pdfrwt beam="2">  1       -2 0.12059909E-01 0.40507243E+03</pdfrwt>
<totfact> 0.34503096E+03</totfact>
</mgrwt>
</event>
<event>
 4    1  0.5900026E-005  0.6399912E+03  0.7818608E-02  0.9825743E-01
         -2   -1    0    0    0  501 -0.00000000000E+00  0.00000000000E+00  0.26541647355E+03  0.26541647356E+03  0.25500000000E-02 0. -1.
          2   -1    0    0  501    0  0.00000000000E+00 -0.00000000000E+00 -0.38579810339E+03  0.38579810340E+03  0.25500000000E-02 0.  1.
    5000001    1    1    2    0    0 -0.14149534602E+03  0.15804627128E+03 -0.20599931646E+03  0.35256102336E+03  0.19200000000E+03 0.  0.
   -5000001    1    1    2    0    0  0.14149534602E+03 -0.15804627128E+03  0.85617686623E+02  0.29865355359E+03  0.19200000000E+03 0.  0.
<mgrwt>
<rscale>  0 0.63999116E+03</rscale>
<asrwt>0</asrwt>
<pdfrwt beam="1">  1        2 0.55114015E-01 0.63999116E+03</pdfrwt>
<pdfrwt beam="2">  1       -2 0.37916639E-01 0.63999116E+03</pdfrwt>
<totfact> 0.59483619E+02</totfact>
</mgrwt>
</event>
<event>
 4    1  0.5900026E-005  0.4326708E+03  0.7818608E-02  0.1033020E+00
          2   -1    0    0  501    0  0.00000000000E+00  0.00000000000E+00  0.31648797422E+03  0.31648797423E+03  0.25500000000E-02 0.  1.
         -2   -1    0    0    0  501 -0.00000000000E+00 -0.00000000000E+00 -0.14787606103E+03  0.14787606105E+03  0.25500000000E-02 0. -1.
    5000001    1    1    2    0    0  0.69378589697E+02 -0.53847714366E+02  0.33691875907E+02  0.21380389976E+03  0.19200000000E+03 0.  0.
   -5000001    1    1    2    0    0 -0.69378589697E+02  0.53847714366E+02  0.13492003729E+03  0.25056013552E+03  0.19200000000E+03 0.  0.
<mgrwt>
<rscale>  0 0.43267075E+03</rscale>
<asrwt>0</asrwt>
<pdfrwt beam="1">  1        2 0.45212568E-01 0.43267075E+03</pdfrwt>
<pdfrwt beam="2">  1       -2 0.21125152E-01 0.43267075E+03</pdfrwt>
<totfact> 0.21548457E+03</totfact>
</mgrwt>
</event>
<event>
 4    1  0.5900026E-005  0.8254492E+03  0.7818608E-02  0.9523894E-01
          2   -1    0    0  501    0  0.00000000000E+00  0.00000000000E+00  0.92952182014E+03  0.92952182015E+03  0.25500000000E-02 0.  1.
         -2   -1    0    0    0  501 -0.00000000000E+00 -0.00000000000E+00 -0.18325724032E+03  0.18325724034E+03  0.25500000000E-02 0. -1.
    5000001    1    1    2    0    0 -0.34296344167E+03 -0.63332950057E+02  0.22642812052E+03  0.45800510766E+03  0.19200000000E+03 0.  0.
   -5000001    1    1    2    0    0  0.34296344167E+03  0.63332950057E+02  0.51983645930E+03  0.65477395283E+03  0.19200000000E+03 0.  0.
<mgrwt>
<rscale>  0 0.82544922E+03</rscale>
<asrwt>0</asrwt>
<pdfrwt beam="1">  1        2 0.13278883E+00 0.82544922E+03</pdfrwt>
<pdfrwt beam="2">  1       -2 0.26179606E-01 0.82544922E+03</pdfrwt>
<totfact> 0.41086692E+02</totfact>
</mgrwt>
</event>
<event>
 4    1  0.5900026E-005  0.4231460E+03  0.7818608E-02  0.1036047E+00
         -2   -1    0    0    0  501 -0.00000000000E+00  0.00000000000E+00  0.22239645451E+02  0.22239645597E+02  0.25500000000E-02 0. -1.
          2   -1    0    0  501    0  0.00000000000E+00 -0.00000000000E+00 -0.20127628344E+04  0.20127628344E+04  0.25500000000E-02 0.  1.
    5000001    1    1    2    0    0  0.85006419343E+01 -0.86125778428E+02 -0.89797480954E+03  0.92234086389E+03  0.19200000000E+03 0.  0.
   -5000001    1    1    2    0    0 -0.85006419343E+01  0.86125778428E+02 -0.10925483794E+04  0.11126616161E+04  0.19200000000E+03 0.  0.
<mgrwt>
<rscale>  0 0.42314599E+03</rscale>
<asrwt>0</asrwt>
<pdfrwt beam="1">  1        2 0.28753743E+00 0.42314599E+03</pdfrwt>
<pdfrwt beam="2">  1       -2 0.31770935E-02 0.42314599E+03</pdfrwt>
<totfact> 0.33730130E+03</totfact>
</mgrwt>
</event>
<event>
 4    1  0.5900026E-005  0.1134257E+04  0.7818608E-02  0.9172431E-01
         -2   -1    0    0    0  501 -0.00000000000E+00  0.00000000000E+00  0.18821405317E+03  0.18821405319E+03  0.25500000000E-02 0. -1.
          2   -1    0    0  501    0  0.00000000000E+00 -0.00000000000E+00 -0.17088775120E+04  0.17088775120E+04  0.25500000000E-02 0.  1.
    5000001    1    1    2    0    0  0.52752274685E+03  0.14067639512E+02 -0.89300774525E+03  0.10548957200E+04  0.19200000000E+03 0.  0.
   -5000001    1    1    2    0    0 -0.52752274685E+03 -0.14067639512E+02 -0.62765571356E+03  0.84219584520E+03  0.19200000000E+03 0.  0.
<mgrwt>
<rscale>  0 0.11342570E+04</rscale>
<asrwt>0</asrwt>
<pdfrwt beam="1">  1        2 0.24412535E+00 0.11342570E+04</pdfrwt>
<pdfrwt beam="2">  1       -2 0.26887723E-01 0.11342570E+04</pdfrwt>
<totfact> 0.14110489E+02</totfact>
</mgrwt>
</event>
<event>
 4    1  0.5900026E-005  0.6373460E+03  0.7818608E-02  0.9830817E-01
         -2   -1    0    0    0  501 -0.00000000000E+00  0.00000000000E+00  0.32525710080E+03  0.32525710081E+03  0.25500000000E-02 0. -1.
          2   -1    0    0  501    0  0.00000000000E+00 -0.00000000000E+00 -0.31222222482E+03  0.31222222483E+03  0.25500000000E-02 0.  1.
    5000001    1    1    2    0    0  0.81870269888E+02  0.21091918513E+03 -0.10969141778E+03  0.31636347906E+03  0.19200000000E+03 0.  0.
   -5000001    1    1    2    0    0 -0.81870269888E+02 -0.21091918513E+03  0.12272629376E+03  0.32111584659E+03  0.19200000000E+03 0.  0.
<mgrwt>
<rscale>  0 0.63734605E+03</rscale>
<asrwt>0</asrwt>
<pdfrwt beam="1">  1        2 0.44603175E-01 0.63734605E+03</pdfrwt>
<pdfrwt beam="2">  1       -2 0.46465300E-01 0.63734605E+03</pdfrwt>
<totfact> 0.50471245E+02</totfact>
</mgrwt>
</event>
<event>
 4    1  0.5900026E-005  0.5364990E+03  0.7818608E-02  0.1004668E+00
          2   -1    0    0  501    0  0.00000000000E+00  0.00000000000E+00  0.84154228746E+03  0.84154228747E+03  0.25500000000E-02 0.  1.
         -2   -1    0    0    0  501 -0.00000000000E+00 -0.00000000000E+00 -0.85507040801E+02  0.85507040840E+02  0.25500000000E-02 0. -1.
    5000001    1    1    2    0    0  0.26094427799E+02  0.18483603510E+03  0.40525763906E+03  0.48573967622E+03  0.19200000000E+03 0.  0.
   -5000001    1    1    2    0    0 -0.26094427799E+02 -0.18483603510E+03  0.35077760760E+03  0.44130965209E+03  0.19200000000E+03 0.  0.
<mgrwt>
<rscale>  0 0.53649899E+03</rscale>
<asrwt>0</asrwt>
<pdfrwt beam="1">  1        2 0.12022033E+00 0.53649899E+03</pdfrwt>
<pdfrwt beam="2">  1       -2 0.12215291E-01 0.53649899E+03</pdfrwt>
<totfact> 0.17597406E+03</totfact>
</mgrwt>
</event>
<event>
 4    1  0.5900026E-005  0.1083882E+04  0.7818608E-02  0.9221046E-01
         -2   -1    0    0    0  501 -0.00000000000E+00  0.00000000000E+00  0.30912163298E+03  0.30912163300E+03  0.25500000000E-02 0.  1.
          2   -1    0    0  501    0  0.00000000000E+00 -0.00000000000E+00 -0.95011135245E+03  0.95011135245E+03  0.25500000000E-02 0. -1.
    5000001    1    1    2    0    0 -0.35185824771E+03 -0.35495443596E+03 -0.41796745884E+03  0.67923315197E+03  0.19200000000E+03 0.  0.
   -5000001    1    1    2    0    0  0.35185824771E+03  0.35495443596E+03 -0.22302226062E+03  0.57999983347E+03  0.19200000000E+03 0.  0.
<mgrwt>
<rscale>  0 0.10838819E+04</rscale>
<asrwt>0</asrwt>
<pdfrwt beam="1">  1        2 0.13573019E+00 0.10838819E+04</pdfrwt>
<pdfrwt beam="2">  1       -2 0.44160234E-01 0.10838819E+04</pdfrwt>
<totfact> 0.14575786E+02</totfact>
</mgrwt>
</event>
<event>
 4    1  0.5900026E-005  0.5236672E+03  0.7818608E-02  0.1007780E+00
          2   -1    0    0  501    0  0.00000000000E+00  0.00000000000E+00  0.31968653412E+04  0.31968653412E+04  0.25500000000E-02 0.  1.
         -2   -1    0    0    0  501 -0.00000000000E+00 -0.00000000000E+00 -0.21445016482E+02  0.21445016633E+02  0.25500000000E-02 0. -1.
    5000001    1    1    2    0    0  0.15265282910E+03 -0.16271677780E+02  0.10337366968E+04  0.10625644508E+04  0.19200000000E+03 0.  0.
   -5000001    1    1    2    0    0 -0.15265282910E+03  0.16271677780E+02  0.21416836279E+04  0.21557459070E+04  0.19200000000E+03 0.  0.
<mgrwt>
<rscale>  0 0.52366719E+03</rscale>
<asrwt>0</asrwt>
<pdfrwt beam="1">  1        2 0.45669550E+00 0.52366719E+03</pdfrwt>
<pdfrwt beam="2">  1       -2 0.30635708E-02 0.52366719E+03</pdfrwt>
<totfact> 0.86125603E+02</totfact>
</mgrwt>
</event>
<event>
 4    1  0.5900026E-005  0.5620818E+03  0.7818608E-02  0.9987355E-01
         -2   -1    0    0    0  501 -0.00000000000E+00  0.00000000000E+00  0.29848268830E+03  0.29848268831E+03  0.25500000000E-02 0. -1.
          2   -1    0    0  501    0  0.00000000000E+00 -0.00000000000E+00 -0.26461832750E+03  0.26461832751E+03  0.25500000000E-02 0.  1.
    5000001    1    1    2    0    0  0.86257645504E+02  0.15653436286E+03  0.11799424537E+03  0.28762828461E+03  0.19200000000E+03 0.  0.
   -5000001    1    1    2    0    0 -0.86257645504E+02 -0.15653436286E+03 -0.84129884565E+02  0.27547273121E+03  0.19200000000E+03 0.  0.
<mgrwt>
<rscale>  0 0.56208181E+03</rscale>
<asrwt>0</asrwt>
<pdfrwt beam="1">  1        2 0.37802618E-01 0.56208181E+03</pdfrwt>
<pdfrwt beam="2">  1       -2 0.42640384E-01 0.56208181E+03</pdfrwt>
<totfact> 0.71913257E+02</totfact>
</mgrwt>
</event>
<event>
 4    1  0.5900026E-005  0.8834094E+03  0.7818608E-02  0.9446561E-01
          2   -1    0    0  501    0  0.00000000000E+00  0.00000000000E+00  0.49582879101E+03  0.49582879102E+03  0.25500000000E-02 0.  1.
         -2   -1    0    0    0  501 -0.00000000000E+00 -0.00000000000E+00 -0.39348869203E+03  0.39348869204E+03  0.25500000000E-02 0. -1.
    5000001    1    1    2    0    0 -0.31278764542E+03 -0.23989779720E+03 -0.25908362698E+01  0.43847209337E+03  0.19200000000E+03 0.  0.
   -5000001    1    1    2    0    0  0.31278764542E+03  0.23989779720E+03  0.10493093525E+03  0.45084538969E+03  0.19200000000E+03 0.  0.
<mgrwt>
<rscale>  0 0.88340936E+03</rscale>
<asrwt>0</asrwt>
<pdfrwt beam="1">  1        2 0.70832684E-01 0.88340936E+03</pdfrwt>
<pdfrwt beam="2">  1       -2 0.56212670E-01 0.88340936E+03</pdfrwt>
<totfact> 0.20219661E+02</totfact>
</mgrwt>
</event>
<event>
 4    1  0.5900026E-005  0.5363930E+03  0.7818608E-02  0.1004693E+00
          2   -1    0    0  501    0  0.00000000000E+00  0.00000000000E+00  0.23606595772E+03  0.23606595773E+03  0.25500000000E-02 0.  1.
         -2   -1    0    0    0  501 -0.00000000000E+00 -0.00000000000E+00 -0.30470027990E+03  0.30470027992E+03  0.25500000000E-02 0. -1.
    5000001    1    1    2    0    0  0.71810554367E+02 -0.11737555890E+03 -0.16236286055E+03  0.28663474324E+03  0.19200000000E+03 0.  0.
   -5000001    1    1    2    0    0 -0.71810554367E+02  0.11737555890E+03  0.93728538365E+02  0.25413149441E+03  0.19200000000E+03 0.  0.
<mgrwt>
<rscale>  0 0.53639300E+03</rscale>
<asrwt>0</asrwt>
<pdfrwt beam="1">  1        2 0.33723708E-01 0.53639300E+03</pdfrwt>
<pdfrwt beam="2">  1       -2 0.43528611E-01 0.53639300E+03</pdfrwt>
<totfact> 0.78395355E+02</totfact>
</mgrwt>
</event>
<event>
 4    1  0.5900026E-005  0.7577299E+03  0.7818608E-02  0.9623301E-01
         -2   -1    0    0    0  501 -0.00000000000E+00  0.00000000000E+00  0.13650905724E+04  0.13650905724E+04  0.25500000000E-02 0. -1.
          2   -1    0    0  501    0  0.00000000000E+00 -0.00000000000E+00 -0.10514954195E+03  0.10514954198E+03  0.25500000000E-02 0.  1.
    5000001    1    1    2    0    0 -0.21079440829E+03 -0.20011601777E+03  0.34090844970E+03  0.48740463088E+03  0.19200000000E+03 0.  0.
   -5000001    1    1    2    0    0  0.21079440829E+03  0.20011601777E+03  0.91903258080E+03  0.98283548354E+03  0.19200000000E+03 0.  0.
<mgrwt>
<rscale>  0 0.75772989E+03</rscale>
<asrwt>0</asrwt>
<pdfrwt beam="1">  1        2 0.15021363E-01 0.75772989E+03</pdfrwt>
<pdfrwt beam="2">  1       -2 0.19501293E+00 0.75772989E+03</pdfrwt>
<totfact> 0.58380070E+01</totfact>
</mgrwt>
</event>
<event>
 4    1  0.5900026E-005  0.4734908E+03  0.7818608E-02  0.1020940E+00
         -2   -1    0    0    0  501 -0.00000000000E+00  0.00000000000E+00  0.13429028799E+03  0.13429028801E+03  0.25500000000E-02 0. -1.
          2   -1    0    0  501    0  0.00000000000E+00 -0.00000000000E+00 -0.41736737781E+03  0.41736737782E+03  0.25500000000E-02 0.  1.
    5000001    1    1    2    0    0  0.96342294485E+02 -0.98999659761E+02 -0.15328311405E+03  0.28185542995E+03  0.19200000000E+03 0.  0.
   -5000001    1    1    2    0    0 -0.96342294485E+02  0.98999659761E+02 -0.12979397577E+03  0.26980223588E+03  0.19200000000E+03 0.  0.
<mgrwt>
<rscale>  0 0.47349080E+03</rscale>
<asrwt>0</asrwt>
<pdfrwt beam="1">  1        2 0.59623911E-01 0.47349080E+03</pdfrwt>
<pdfrwt beam="2">  1       -2 0.19184327E-01 0.47349080E+03</pdfrwt>
<totfact> 0.18809760E+03</totfact>
</mgrwt>
</event>
<event>
 4    1  0.5900026E-005  0.8267391E+03  0.7818608E-02  0.9522100E-01
          2   -1    0    0  501    0  0.00000000000E+00  0.00000000000E+00  0.17950491680E+04  0.17950491680E+04  0.25500000000E-02 0.  1.
         -2   -1    0    0    0  501 -0.00000000000E+00 -0.00000000000E+00 -0.95192038019E+02  0.95192038053E+02  0.25500000000E-02 0. -1.
    5000001    1    1    2    0    0  0.25574673021E+03 -0.25046539164E+03  0.67473910486E+03  0.78757613095E+03  0.19200000000E+03 0.  0.
   -5000001    1    1    2    0    0 -0.25574673021E+03  0.25046539164E+03  0.10251180251E+04  0.11026650751E+04  0.19200000000E+03 0.  0.
<mgrwt>
<rscale>  0 0.82673911E+03</rscale>
<asrwt>0</asrwt>
<pdfrwt beam="1">  1        2 0.25643559E+00 0.82673911E+03</pdfrwt>
<pdfrwt beam="2">  1       -2 0.13598863E-01 0.82673911E+03</pdfrwt>
<totfact> 0.42762327E+02</totfact>
</mgrwt>
</event>
<event>
 4    1  0.5900026E-005  0.5083234E+03  0.7818608E-02  0.1011629E+00
         -2   -1    0    0    0  501 -0.00000000000E+00  0.00000000000E+00  0.16994180787E+03  0.16994180789E+03  0.25500000000E-02 0. -1.
          2   -1    0    0  501    0  0.00000000000E+00 -0.00000000000E+00 -0.38011931840E+03  0.38011931841E+03  0.25500000000E-02 0.  1.
    5000001    1    1    2    0    0  0.16325870099E+03 -0.25289769663E+02 -0.12781788746E+03  0.28371532961E+03  0.19200000000E+03 0.  0.
   -5000001    1    1    2    0    0 -0.16325870099E+03  0.25289769663E+02 -0.82359623065E+02  0.26634579668E+03  0.19200000000E+03 0.  0.
<mgrwt>
<rscale>  0 0.50832338E+03</rscale>
<asrwt>0</asrwt>
<pdfrwt beam="1">  1        2 0.54302760E-01 0.50832338E+03</pdfrwt>
<pdfrwt beam="2">  1       -2 0.24277401E-01 0.50832338E+03</pdfrwt>
<totfact> 0.13811478E+03</totfact>
</mgrwt>
</event>
<event>
 4    1  0.5900026E-005  0.4129027E+03  0.7818608E-02  0.1039401E+00
          2   -1    0    0  501    0  0.00000000000E+00  0.00000000000E+00  0.22567576694E+04  0.22567576694E+04  0.25500000000E-02 0.  1.
         -2   -1    0    0    0  501 -0.00000000000E+00 -0.00000000000E+00 -0.18886455636E+02  0.18886455808E+02  0.25500000000E-02 0. -1.
    5000001    1    1    2    0    0 -0.44069171929E+02  0.34756107796E+02  0.14003956054E+04  0.14146101691E+04  0.19200000000E+03 0.  0.
   -5000001    1    1    2    0    0  0.44069171929E+02 -0.34756107796E+02  0.83747560839E+03  0.86103395612E+03  0.19200000000E+03 0.  0.
<mgrwt>
<rscale>  0 0.41290267E+03</rscale>
<asrwt>0</asrwt>
<pdfrwt beam="1">  1        2 0.32239412E+00 0.41290267E+03</pdfrwt>
<pdfrwt beam="2">  1       -2 0.26980637E-02 0.41290267E+03</pdfrwt>
<totfact> 0.32647045E+03</totfact>
</mgrwt>
</event>
<event>
 4    1  0.5900026E-005  0.6865654E+03  0.7818608E-02  0.9740487E-01
          2   -1    0    0  501    0  0.00000000000E+00  0.00000000000E+00  0.16832168115E+03  0.16832168117E+03  0.25500000000E-02 0.  1.
         -2   -1    0    0    0  501 -0.00000000000E+00 -0.00000000000E+00 -0.70010597647E+03  0.70010597647E+03  0.25500000000E-02 0. -1.
    5000001    1    1    2    0    0  0.16747617730E+03 -0.22318307147E+03 -0.19523870760E+03  0.39094898171E+03  0.19200000000E+03 0.  0.
   -5000001    1    1    2    0    0 -0.16747617730E+03  0.22318307147E+03 -0.33654558772E+03  0.47747867593E+03  0.19200000000E+03 0.  0.
<mgrwt>
<rscale>  0 0.68656541E+03</rscale>
<asrwt>0</asrwt>
<pdfrwt beam="1">  1        2 0.24045955E-01 0.68656541E+03</pdfrwt>
<pdfrwt beam="2">  1       -2 0.10001514E+00 0.68656541E+03</pdfrwt>
<totfact> 0.19122775E+02</totfact>
</mgrwt>
</event>
<event>
 4    1  0.5900026E-005  0.1029367E+04  0.7818608E-02  0.9276910E-01
          2   -1    0    0  501    0  0.00000000000E+00  0.00000000000E+00  0.95286905014E+03  0.95286905015E+03  0.25500000000E-02 0.  1.
         -2   -1    0    0    0  501 -0.00000000000E+00 -0.00000000000E+00 -0.27800135247E+03  0.27800135248E+03  0.25500000000E-02 0. -1.
    5000001    1    1    2    0    0 -0.33011525885E+03  0.29402339393E+03  0.55336301323E+03  0.73382590900E+03  0.19200000000E+03 0.  0.
   -5000001    1    1    2    0    0  0.33011525885E+03 -0.29402339393E+03  0.12150468444E+03  0.49704449363E+03  0.19200000000E+03 0.  0.
<mgrwt>
<rscale>  0 0.10293666E+04</rscale>
<asrwt>0</asrwt>
<pdfrwt beam="1">  1        2 0.13612415E+00 0.10293666E+04</pdfrwt>
<pdfrwt beam="2">  1       -2 0.39714478E-01 0.10293666E+04</pdfrwt>
<totfact> 0.17947229E+02</totfact>
</mgrwt>
</event>
<event>
 4    1  0.5900026E-005  0.7439950E+03  0.7818608E-02  0.9644819E-01
         -2   -1    0    0    0  501 -0.00000000000E+00  0.00000000000E+00  0.11149424858E+03  0.11149424860E+03  0.25500000000E-02 0. -1.
          2   -1    0    0  501    0  0.00000000000E+00 -0.00000000000E+00 -0.12411594698E+04  0.12411594698E+04  0.25500000000E-02 0.  1.
    5000001    1    1    2    0    0 -0.53789806373E+02  0.29379480242E+03 -0.76654625981E+03  0.84478748667E+03  0.19200000000E+03 0.  0.
   -5000001    1    1    2    0    0  0.53789806373E+02 -0.29379480242E+03 -0.36311896138E+03  0.50786623171E+03  0.19200000000E+03 0.  0.
<mgrwt>
<rscale>  0 0.74399501E+03</rscale>
<asrwt>0</asrwt>
<pdfrwt beam="1">  1        2 0.17730849E+00 0.74399501E+03</pdfrwt>
<pdfrwt beam="2">  1       -2 0.15927751E-01 0.74399501E+03</pdfrwt>
<totfact> 0.64451057E+02</totfact>
</mgrwt>
</event>
<event>
 4    1  0.5900026E-005  0.1057377E+04  0.7818608E-02  0.9247760E-01
         -2   -1    0    0    0  501 -0.00000000000E+00  0.00000000000E+00  0.15997190016E+03  0.15997190018E+03  0.25500000000E-02 0. -1.
          2   -1    0    0  501    0  0.00000000000E+00 -0.00000000000E+00 -0.17472546610E+04  0.17472546610E+04  0.25500000000E-02 0.  1.
    5000001    1    1    2    0    0  0.25249306421E+03 -0.42196931705E+03 -0.84581875038E+03  0.99703771769E+03  0.19200000000E+03 0.  0.
   -5000001    1    1    2    0    0 -0.25249306421E+03  0.42196931705E+03 -0.74146401050E+03  0.91018884352E+03  0.19200000000E+03 0.  0.
<mgrwt>
<rscale>  0 0.10573772E+04</rscale>
<asrwt>0</asrwt>
<pdfrwt beam="1">  1        2 0.24960780E+00 0.10573772E+04</pdfrwt>
<pdfrwt beam="2">  1       -2 0.22853130E-01 0.10573772E+04</pdfrwt>
<totfact> 0.18179795E+02</totfact>
</mgrwt>
</event>
<event>
 4    1  0.5900026E-005  0.5098318E+03  0.7818608E-02  0.1011244E+00
         -2   -1    0    0    0  501 -0.00000000000E+00  0.00000000000E+00  0.79496373657E+02  0.79496373698E+02  0.25500000000E-02 0. -1.
          2   -1    0    0  501    0  0.00000000000E+00 -0.00000000000E+00 -0.81742232665E+03  0.81742232666E+03  0.25500000000E-02 0.  1.
    5000001    1    1    2    0    0  0.11639864158E+03  0.10659589455E+03 -0.46858627364E+03  0.53042287313E+03  0.19200000000E+03 0.  0.
   -5000001    1    1    2    0    0 -0.11639864158E+03 -0.10659589455E+03 -0.26933967936E+03  0.36649582723E+03  0.19200000000E+03 0.  0.
<mgrwt>
<rscale>  0 0.50983178E+03</rscale>
<asrwt>0</asrwt>
<pdfrwt beam="1">  1        2 0.11677461E+00 0.50983178E+03</pdfrwt>
<pdfrwt beam="2">  1       -2 0.11356625E-01 0.50983178E+03</pdfrwt>
<totfact> 0.20588201E+03</totfact>
</mgrwt>
</event>
<event>
 4    1  0.5900026E-005  0.4438701E+03  0.7818608E-02  0.1029566E+00
         -2   -1    0    0    0  501 -0.00000000000E+00  0.00000000000E+00  0.29828425251E+02  0.29828425360E+02  0.25500000000E-02 0. -1.
          2   -1    0    0  501    0  0.00000000000E+00 -0.00000000000E+00 -0.16512830301E+04  0.16512830301E+04  0.25500000000E-02 0.  1.
    5000001    1    1    2    0    0  0.15899385583E+02  0.31964337260E+02 -0.41140109475E+03  0.45540023066E+03  0.19200000000E+03 0.  0.
   -5000001    1    1    2    0    0 -0.15899385583E+02 -0.31964337260E+02 -0.12100535101E+04  0.12257112248E+04  0.19200000000E+03 0.  0.
<mgrwt>
<rscale>  0 0.44387013E+03</rscale>
<asrwt>0</asrwt>
<pdfrwt beam="1">  1        2 0.23589752E+00 0.44387013E+03</pdfrwt>
<pdfrwt beam="2">  1       -2 0.42612047E-02 0.44387013E+03</pdfrwt>
<totfact> 0.32697354E+03</totfact>
</mgrwt>
</event>
<event>
 4    1  0.5900026E-005  0.4932880E+03  0.7818608E-02  0.1015546E+00
         -2   -1    0    0    0  501 -0.00000000000E+00  0.00000000000E+00  0.10658889993E+03  0.10658889996E+03  0.25500000000E-02 0. -1.
          2   -1    0    0  501    0  0.00000000000E+00 -0.00000000000E+00 -0.57072785477E+03  0.57072785478E+03  0.25500000000E-02 0.  1.
    5000001    1    1    2    0    0 -0.98145572457E+02  0.10217528053E+03 -0.31778345445E+03  0.39739484806E+03  0.19200000000E+03 0.  0.
   -5000001    1    1    2    0    0  0.98145572457E+02 -0.10217528053E+03 -0.14635550039E+03  0.27992190668E+03  0.19200000000E+03 0.  0.
<mgrwt>
<rscale>  0 0.49328797E+03</rscale>
<asrwt>0</asrwt>
<pdfrwt beam="1">  1        2 0.81532549E-01 0.49328797E+03</pdfrwt>
<pdfrwt beam="2">  1       -2 0.15226986E-01 0.49328797E+03</pdfrwt>
<totfact> 0.19579441E+03</totfact>
</mgrwt>
</event>
<event>
 4    1  0.5900026E-005  0.1082733E+04  0.7818608E-02  0.9222187E-01
          2   -1    0    0  501    0  0.00000000000E+00  0.00000000000E+00  0.82759475100E+03  0.82759475100E+03  0.25500000000E-02 0.  1.
         -2   -1    0    0    0  501 -0.00000000000E+00 -0.00000000000E+00 -0.35413200646E+03  0.35413200647E+03  0.25500000000E-02 0. -1.
    5000001    1    1    2    0    0  0.41146482023E+03 -0.15943453631E+03  0.50737750240E+03  0.69929864836E+03  0.19200000000E+03 0.  0.
   -5000001    1    1    2    0    0 -0.41146482023E+03  0.15943453631E+03 -0.33914757865E+02  0.48242810911E+03  0.19200000000E+03 0.  0.
<mgrwt>
<rscale>  0 0.10827332E+04</rscale>
<asrwt>0</asrwt>
<pdfrwt beam="1">  1        2 0.11822782E+00 0.10827332E+04</pdfrwt>
<pdfrwt beam="2">  1       -2 0.50590286E-01 0.10827332E+04</pdfrwt>
<totfact> 0.13352062E+02</totfact>
</mgrwt>
</event>
<event>
 4    1  0.5900026E-005  0.4617718E+03  0.7818608E-02  0.1024269E+00
          2   -1    0    0  501    0  0.00000000000E+00  0.00000000000E+00  0.32416822156E+03  0.32416822157E+03  0.25500000000E-02 0.  1.
         -2   -1    0    0    0  501 -0.00000000000E+00 -0.00000000000E+00 -0.16444641874E+03  0.16444641876E+03  0.25500000000E-02 0. -1.
    5000001    1    1    2    0    0  0.99691634058E+01 -0.10388123850E+03  0.10063746616E+01  0.21853079582E+03  0.19200000000E+03 0.  0.
   -5000001    1    1    2    0    0 -0.99691634058E+01  0.10388123850E+03  0.15871542816E+03  0.27008384451E+03  0.19200000000E+03 0.  0.
<mgrwt>
<rscale>  0 0.46177182E+03</rscale>
<asrwt>0</asrwt>
<pdfrwt beam="1">  1        2 0.46309745E-01 0.46177182E+03</pdfrwt>
<pdfrwt beam="2">  1       -2 0.23492346E-01 0.46177182E+03</pdfrwt>
<totfact> 0.17431335E+03</totfact>
</mgrwt>
</event>
<event>
 4    1  0.5900026E-005  0.5141849E+03  0.7818608E-02  0.1010141E+00
         -2   -1    0    0    0  501 -0.00000000000E+00  0.00000000000E+00  0.38629997736E+03  0.38629997737E+03  0.25500000000E-02 0. -1.
          2   -1    0    0  501    0  0.00000000000E+00 -0.00000000000E+00 -0.17110157215E+03  0.17110157217E+03  0.25500000000E-02 0.  1.
    5000001    1    1    2    0    0  0.33359708560E+02  0.16768879168E+03  0.10720468336E+03  0.27854846104E+03  0.19200000000E+03 0.  0.
   -5000001    1    1    2    0    0 -0.33359708560E+02 -0.16768879168E+03  0.10799372184E+03  0.27885308850E+03  0.19200000000E+03 0.  0.
<mgrwt>
<rscale>  0 0.51418492E+03</rscale>
<asrwt>0</asrwt>
<pdfrwt beam="1">  1        2 0.24443082E-01 0.51418492E+03</pdfrwt>
<pdfrwt beam="2">  1       -2 0.55185711E-01 0.51418492E+03</pdfrwt>
<totfact> 0.69835956E+02</totfact>
</mgrwt>
</event>
<event>
 4    1  0.5900026E-005  0.1042809E+04  0.7818608E-02  0.9262800E-01
         -2   -1    0    0    0  501 -0.00000000000E+00  0.00000000000E+00  0.15320792336E+03  0.15320792338E+03  0.25500000000E-02 0. -1.
          2   -1    0    0  501    0  0.00000000000E+00 -0.00000000000E+00 -0.17744670126E+04  0.17744670126E+04  0.25500000000E-02 0.  1.
    5000001    1    1    2    0    0 -0.47878152706E+03 -0.29961610022E+02 -0.93961692192E+03  0.10723215043E+04  0.19200000000E+03 0.  0.
   -5000001    1    1    2    0    0  0.47878152706E+03  0.29961610022E+02 -0.68164216728E+03  0.85535343160E+03  0.19200000000E+03 0.  0.
<mgrwt>
<rscale>  0 0.10428085E+04</rscale>
<asrwt>0</asrwt>
<pdfrwt beam="1">  1        2 0.25349528E+00 0.10428085E+04</pdfrwt>
<pdfrwt beam="2">  1       -2 0.21886847E-01 0.10428085E+04</pdfrwt>
<totfact> 0.19029324E+02</totfact>
</mgrwt>
</event>
<event>
 4    1  0.5900026E-005  0.5498364E+03  0.7818608E-02  0.1001532E+00
          2   -1    0    0  501    0  0.00000000000E+00  0.00000000000E+00  0.54450171101E+03  0.54450171101E+03  0.25500000000E-02 0.  1.
         -2   -1    0    0    0  501 -0.00000000000E+00 -0.00000000000E+00 -0.13880583019E+03  0.13880583021E+03  0.25500000000E-02 0. -1.
    5000001    1    1    2    0    0 -0.30864143424E+02 -0.10441204084E+03 -0.83197836433E+00  0.22072417586E+03  0.19200000000E+03 0.  0.
   -5000001    1    1    2    0    0  0.30864143424E+02  0.10441204084E+03  0.40652785918E+03  0.46258336537E+03  0.19200000000E+03 0.  0.
<mgrwt>
<rscale>  0 0.54983638E+03</rscale>
<asrwt>0</asrwt>
<pdfrwt beam="1">  1        2 0.77785958E-01 0.54983638E+03</pdfrwt>
<pdfrwt beam="2">  1       -2 0.19829405E-01 0.54983638E+03</pdfrwt>
<totfact> 0.13172936E+03</totfact>
</mgrwt>
</event>
<event>
 4    1  0.5900026E-005  0.4867398E+03  0.7818608E-02  0.1017299E+00
         -2   -1    0    0    0  501 -0.00000000000E+00  0.00000000000E+00  0.13297766336E+03  0.13297766338E+03  0.25500000000E-02 0. -1.
          2   -1    0    0  501    0  0.00000000000E+00 -0.00000000000E+00 -0.44540492505E+03  0.44540492506E+03  0.25500000000E-02 0.  1.
    5000001    1    1    2    0    0  0.14823511827E+03  0.50606477611E+01 -0.17893573899E+03  0.30146518726E+03  0.19200000000E+03 0.  0.
   -5000001    1    1    2    0    0 -0.14823511827E+03 -0.50606477611E+01 -0.13349152270E+03  0.27691740118E+03  0.19200000000E+03 0.  0.
<mgrwt>
<rscale>  0 0.48673979E+03</rscale>
<asrwt>0</asrwt>
<pdfrwt beam="1">  1        2 0.63629274E-01 0.48673979E+03</pdfrwt>
<pdfrwt beam="2">  1       -2 0.18996809E-01 0.48673979E+03</pdfrwt>
<totfact> 0.17802480E+03</totfact>
</mgrwt>
</event>
<event>
 4    1  0.5900026E-005  0.1093907E+04  0.7818608E-02  0.9211151E-01
          2   -1    0    0  501    0  0.00000000000E+00  0.00000000000E+00  0.19863041698E+04  0.19863041698E+04  0.25500000000E-02 0.  1.
         -2   -1    0    0    0  501 -0.00000000000E+00 -0.00000000000E+00 -0.15061043305E+03  0.15061043307E+03  0.25500000000E-02 0. -1.
    5000001    1    1    2    0    0 -0.23015033365E+03  0.95264252763E+02  0.43683350402E+02  0.31751643900E+03  0.19200000000E+03 0.  0.
   -5000001    1    1    2    0    0  0.23015033365E+03 -0.95264252763E+02  0.17920103864E+04  0.18193981639E+04  0.19200000000E+03 0.  0.
<mgrwt>
<rscale>  0 0.10939070E+04</rscale>
<asrwt>0</asrwt>
<pdfrwt beam="1">  1        2 0.28375772E+00 0.10939070E+04</pdfrwt>
<pdfrwt beam="2">  1       -2 0.21515777E-01 0.10939070E+04</pdfrwt>
<totfact> 0.15224931E+02</totfact>
</mgrwt>
</event>
<event>
 4    1  0.5900026E-005  0.4556573E+03  0.7818608E-02  0.1026048E+00
          2   -1    0    0  501    0  0.00000000000E+00  0.00000000000E+00  0.89548360305E+03  0.89548360305E+03  0.25500000000E-02 0.  1.
         -2   -1    0    0    0  501 -0.00000000000E+00 -0.00000000000E+00 -0.57964091709E+02  0.57964091765E+02  0.25500000000E-02 0. -1.
    5000001    1    1    2    0    0 -0.10454499817E+03  0.55842619470E+02  0.48472520771E+03  0.53466866541E+03  0.19200000000E+03 0.  0.
   -5000001    1    1    2    0    0  0.10454499817E+03 -0.55842619470E+02  0.35279430363E+03  0.41877902940E+03  0.19200000000E+03 0.  0.
<mgrwt>
<rscale>  0 0.45565730E+03</rscale>
<asrwt>0</asrwt>
<pdfrwt beam="1">  1        2 0.12792623E+00 0.45565730E+03</pdfrwt>
<pdfrwt beam="2">  1       -2 0.82805847E-02 0.45565730E+03</pdfrwt>
<totfact> 0.30387429E+03</totfact>
</mgrwt>
</event>
<event>
 4    1  0.5900026E-005  0.5357249E+03  0.7818608E-02  0.1004853E+00
         -2   -1    0    0    0  501 -0.00000000000E+00  0.00000000000E+00  0.41531962646E+02  0.41531962725E+02  0.25500000000E-02 0. -1.
          2   -1    0    0  501    0  0.00000000000E+00 -0.00000000000E+00 -0.17275924031E+04  0.17275924031E+04  0.25500000000E-02 0.  1.
    5000001    1    1    2    0    0 -0.16279358216E+03 -0.70613541648E+02 -0.65052340292E+03  0.70109394549E+03  0.19200000000E+03 0.  0.
   -5000001    1    1    2    0    0  0.16279358216E+03  0.70613541648E+02 -0.10355370375E+04  0.10680304203E+04  0.19200000000E+03 0.  0.
<mgrwt>
<rscale>  0 0.53572494E+03</rscale>
<asrwt>0</asrwt>
<pdfrwt beam="1">  1        2 0.24679887E+00 0.53572494E+03</pdfrwt>
<pdfrwt beam="2">  1       -2 0.59331386E-02 0.53572494E+03</pdfrwt>
<totfact> 0.17902339E+03</totfact>
</mgrwt>
</event>
<event>
 4    1  0.5900026E-005  0.7451811E+03  0.7818608E-02  0.9642941E-01
          2   -1    0    0  501    0  0.00000000000E+00  0.00000000000E+00  0.30738166655E+03  0.30738166656E+03  0.25500000000E-02 0.  1.
         -2   -1    0    0    0  501 -0.00000000000E+00 -0.00000000000E+00 -0.45163305355E+03  0.45163305356E+03  0.25500000000E-02 0. -1.
    5000001    1    1    2    0    0 -0.12096913652E+03 -0.29136627352E+03 -0.12235529490E+03  0.38905353812E+03  0.19200000000E+03 0.  0.
   -5000001    1    1    2    0    0  0.12096913652E+03  0.29136627352E+03 -0.21896092105E+02  0.36996118200E+03  0.19200000000E+03 0.  0.
<mgrwt>
<rscale>  0 0.74518111E+03</rscale>
<asrwt>0</asrwt>
<pdfrwt beam="1">  1        2 0.43911667E-01 0.74518111E+03</pdfrwt>
<pdfrwt beam="2">  1       -2 0.64519007E-01 0.74518111E+03</pdfrwt>
<totfact> 0.25965736E+02</totfact>
</mgrwt>
</event>
<event>
 4    1  0.5900026E-005  0.5073824E+03  0.7818608E-02  0.1011870E+00
         -2   -1    0    0    0  501 -0.00000000000E+00  0.00000000000E+00  0.29411667700E+03  0.29411667701E+03  0.25500000000E-02 0. -1.
          2   -1    0    0  501    0  0.00000000000E+00 -0.00000000000E+00 -0.21882210322E+03  0.21882210324E+03  0.25500000000E-02 0.  1.
    5000001    1    1    2    0    0 -0.66700576969E+02  0.11184774728E+03  0.14141807071E+03  0.27170196220E+03  0.19200000000E+03 0.  0.
   -5000001    1    1    2    0    0  0.66700576969E+02 -0.11184774728E+03 -0.66123496930E+02  0.24123681805E+03  0.19200000000E+03 0.  0.
<mgrwt>
<rscale>  0 0.50738242E+03</rscale>
<asrwt>0</asrwt>
<pdfrwt beam="1">  1        2 0.31260300E-01 0.50738242E+03</pdfrwt>
<pdfrwt beam="2">  1       -2 0.42016669E-01 0.50738242E+03</pdfrwt>
<totfact> 0.91435083E+02</totfact>
</mgrwt>
</event>
<event>
 4    1  0.5900026E-005  0.5983752E+03  0.7818608E-02  0.9908783E-01
          2   -1    0    0  501    0  0.00000000000E+00  0.00000000000E+00  0.13704808567E+04  0.13704808567E+04  0.25500000000E-02 0.  1.
         -2   -1    0    0    0  501 -0.00000000000E+00 -0.00000000000E+00 -0.65315200327E+02  0.65315200377E+02  0.25500000000E-02 0. -1.
    5000001    1    1    2    0    0  0.65642389321E+00 -0.22722544163E+03  0.57604697875E+03  0.64832550000E+03  0.19200000000E+03 0.  0.
   -5000001    1    1    2    0    0 -0.65642389321E+00  0.22722544163E+03  0.72911867765E+03  0.78747055711E+03  0.19200000000E+03 0.  0.
<mgrwt>
<rscale>  0 0.59837524E+03</rscale>
<asrwt>0</asrwt>
<pdfrwt beam="1">  1        2 0.19578298E+00 0.59837524E+03</pdfrwt>
<pdfrwt beam="2">  1       -2 0.93307427E-02 0.59837524E+03</pdfrwt>
<totfact> 0.13339291E+03</totfact>
</mgrwt>
</event>
<event>
 4    1  0.5900026E-005  0.4148521E+03  0.7818608E-02  0.1038755E+00
          2   -1    0    0  501    0  0.00000000000E+00  0.00000000000E+00  0.50579727730E+03  0.50579727730E+03  0.25500000000E-02 0.  1.
         -2   -1    0    0    0  501 -0.00000000000E+00 -0.00000000000E+00 -0.85064827267E+02  0.85064827305E+02  0.25500000000E-02 0. -1.
    5000001    1    1    2    0    0 -0.16567791423E+02  0.76459117868E+02  0.20123869583E+03  0.28893165475E+03  0.19200000000E+03 0.  0.
   -5000001    1    1    2    0    0  0.16567791423E+02 -0.76459117868E+02  0.21949375420E+03  0.30193044985E+03  0.19200000000E+03 0.  0.
<mgrwt>
<rscale>  0 0.41485206E+03</rscale>
<asrwt>0</asrwt>
<pdfrwt beam="1">  1        2 0.72256753E-01 0.41485206E+03</pdfrwt>
<pdfrwt beam="2">  1       -2 0.12152118E-01 0.41485206E+03</pdfrwt>
<totfact> 0.32590433E+03</totfact>
</mgrwt>
</event>
<event>
 4    1  0.5900026E-005  0.4384412E+03  0.7818608E-02  0.1031226E+00
         -2   -1    0    0    0  501 -0.00000000000E+00  0.00000000000E+00  0.16579692447E+02  0.16579692643E+02  0.25500000000E-02 0. -1.
          2   -1    0    0  501    0  0.00000000000E+00 -0.00000000000E+00 -0.28985859430E+04  0.28985859430E+04  0.25500000000E-02 0.  1.
    5000001    1    1    2    0    0 -0.79570297383E+02 -0.42522934317E+02 -0.18084450228E+04  0.18208451424E+04  0.19200000000E+03 0.  0.
   -5000001    1    1    2    0    0  0.79570297383E+02  0.42522934317E+02 -0.10735612278E+04  0.10943204933E+04  0.19200000000E+03 0.  0.
<mgrwt>
<rscale>  0 0.43844116E+03</rscale>
<asrwt>0</asrwt>
<pdfrwt beam="1">  1        2 0.41408338E+00 0.43844116E+03</pdfrwt>
<pdfrwt beam="2">  1       -2 0.23685294E-02 0.43844116E+03</pdfrwt>
<totfact> 0.18593983E+03</totfact>
</mgrwt>
</event>
<event>
 4    1  0.5900026E-005  0.6990537E+03  0.7818608E-02  0.9718852E-01
         -2   -1    0    0    0  501 -0.00000000000E+00  0.00000000000E+00  0.43709262778E+02  0.43709262852E+02  0.25500000000E-02 0. -1.
          2   -1    0    0  501    0  0.00000000000E+00 -0.00000000000E+00 -0.27950369100E+04  0.27950369100E+04  0.25500000000E-02 0.  1.
    5000001    1    1    2    0    0 -0.28689962222E+03  0.18590175683E+02 -0.15846301334E+04  0.16219043275E+04  0.19200000000E+03 0.  0.
   -5000001    1    1    2    0    0  0.28689962222E+03 -0.18590175683E+02 -0.11666975138E+04  0.12168418453E+04  0.19200000000E+03 0.  0.
<mgrwt>
<rscale>  0 0.69905365E+03</rscale>
<asrwt>0</asrwt>
<pdfrwt beam="1">  1        2 0.39929087E+00 0.69905365E+03</pdfrwt>
<pdfrwt beam="2">  1       -2 0.62441822E-02 0.69905365E+03</pdfrwt>
<totfact> 0.46701413E+02</totfact>
</mgrwt>
</event>
<event>
 4    1  0.5900026E-005  0.8830150E+03  0.7818608E-02  0.9447066E-01
         -2   -1    0    0    0  501 -0.00000000000E+00  0.00000000000E+00  0.82777571762E+02  0.82777571802E+02  0.25500000000E-02 0. -1.
          2   -1    0    0  501    0  0.00000000000E+00 -0.00000000000E+00 -0.23548511495E+04  0.23548511495E+04  0.25500000000E-02 0.  1.
    5000001    1    1    2    0    0  0.97354704479E+02  0.36556502933E+03 -0.79851060933E+03  0.90421176854E+03  0.19200000000E+03 0.  0.
   -5000001    1    1    2    0    0 -0.97354704479E+02 -0.36556502933E+03 -0.14735629684E+04  0.15334169527E+04  0.19200000000E+03 0.  0.
<mgrwt>
<rscale>  0 0.88301497E+03</rscale>
<asrwt>0</asrwt>
<pdfrwt beam="1">  1        2 0.33640727E+00 0.88301497E+03</pdfrwt>
<pdfrwt beam="2">  1       -2 0.11825369E-01 0.88301497E+03</pdfrwt>
<totfact> 0.27880702E+02</totfact>
</mgrwt>
</event>
<event>
 4    1  0.5900026E-005  0.1056528E+04  0.7818608E-02  0.9248630E-01
         -2   -1    0    0    0  501 -0.00000000000E+00  0.00000000000E+00  0.91906497626E+02  0.91906497661E+02  0.25500000000E-02 0. -1.
          2   -1    0    0  501    0  0.00000000000E+00 -0.00000000000E+00 -0.30363761460E+04  0.30363761460E+04  0.25500000000E-02 0.  1.
    5000001    1    1    2    0    0 -0.34122901431E+03 -0.31877372890E+03 -0.10121513838E+04  0.11310916648E+04  0.19200000000E+03 0.  0.
   -5000001    1    1    2    0    0  0.34122901431E+03  0.31877372890E+03 -0.19323182645E+04  0.19971909788E+04  0.19200000000E+03 0.  0.
<mgrwt>
<rscale>  0 0.10565277E+04</rscale>
<asrwt>0</asrwt>
<pdfrwt beam="1">  1        2 0.43376796E+00 0.10565277E+04</pdfrwt>
<pdfrwt beam="2">  1       -2 0.13129502E-01 0.10565277E+04</pdfrwt>
<totfact> 0.10017771E+02</totfact>
</mgrwt>
</event>
<event>
 4    1  0.5900026E-005  0.7951875E+03  0.7818608E-02  0.9567009E-01
         -2   -1    0    0    0  501 -0.00000000000E+00  0.00000000000E+00  0.10350692362E+03  0.10350692365E+03  0.25500000000E-02 0. -1.
          2   -1    0    0  501    0  0.00000000000E+00 -0.00000000000E+00 -0.15272484162E+04  0.15272484162E+04  0.25500000000E-02 0.  1.
    5000001    1    1    2    0    0 -0.16070797073E+03 -0.30151122883E+03 -0.84914617163E+03  0.93522686754E+03  0.19200000000E+03 0.  0.
   -5000001    1    1    2    0    0  0.16070797073E+03  0.30151122883E+03 -0.57459532099E+03  0.69552847236E+03  0.19200000000E+03 0.  0.
<mgrwt>
<rscale>  0 0.79518749E+03</rscale>
<asrwt>0</asrwt>
<pdfrwt beam="1">  1        2 0.21817833E+00 0.79518749E+03</pdfrwt>
<pdfrwt beam="2">  1       -2 0.14786704E-01 0.79518749E+03</pdfrwt>
<totfact> 0.51152069E+02</totfact>
</mgrwt>
</event>
<event>
 4    1  0.5900026E-005  0.1463033E+04  0.7818608E-02  0.8909414E-01
          2   -1    0    0  501    0  0.00000000000E+00  0.00000000000E+00  0.20729318824E+04  0.20729318824E+04  0.25500000000E-02 0.  1.
         -2   -1    0    0    0  501 -0.00000000000E+00 -0.00000000000E+00 -0.25814485391E+03  0.25814485392E+03  0.25500000000E-02 0. -1.
    5000001    1    1    2    0    0  0.66237659019E+02  0.53910061060E+03  0.18909919626E+03  0.60633274846E+03  0.19200000000E+03 0.  0.
   -5000001    1    1    2    0    0 -0.66237659019E+02 -0.53910061060E+03  0.16256878323E+04  0.17247439879E+04  0.19200000000E+03 0.  0.
<mgrwt>
<rscale>  0 0.14630334E+04</rscale>
<asrwt>0</asrwt>
<pdfrwt beam="1">  1        2 0.29613311E+00 0.14630334E+04</pdfrwt>
<pdfrwt beam="2">  1       -2 0.36877838E-01 0.14630334E+04</pdfrwt>
<totfact> 0.49451640E+01</totfact>
</mgrwt>
</event>
<event>
 4    1  0.5900026E-005  0.4091476E+03  0.7818608E-02  0.1040657E+00
         -2   -1    0    0    0  501 -0.00000000000E+00  0.00000000000E+00  0.41693146316E+02  0.41693146394E+02  0.25500000000E-02 0. -1.
          2   -1    0    0  501    0  0.00000000000E+00 -0.00000000000E+00 -0.10037726794E+04  0.10037726794E+04  0.25500000000E-02 0.  1.
    5000001    1    1    2    0    0  0.58901701916E+02  0.28244417516E+02 -0.54956963703E+03  0.58579684495E+03  0.19200000000E+03 0.  0.
   -5000001    1    1    2    0    0 -0.58901701916E+02 -0.28244417516E+02 -0.41250989606E+03  0.45966898085E+03  0.19200000000E+03 0.  0.
<mgrwt>
<rscale>  0 0.40914761E+03</rscale>
<asrwt>0</asrwt>
<pdfrwt beam="1">  1        2 0.14339608E+00 0.40914761E+03</pdfrwt>
<pdfrwt beam="2">  1       -2 0.59561644E-02 0.40914761E+03</pdfrwt>
<totfact> 0.43620312E+03</totfact>
</mgrwt>
</event>
<event>
 4    1  0.5900026E-005  0.5514624E+03  0.7818608E-02  0.1001156E+00
          2   -1    0    0  501    0  0.00000000000E+00  0.00000000000E+00  0.24482934318E+03  0.24482934319E+03  0.25500000000E-02 0.  1.
         -2   -1    0    0    0  501 -0.00000000000E+00 -0.00000000000E+00 -0.31053337648E+03  0.31053337649E+03  0.25500000000E-02 0. -1.
    5000001    1    1    2    0    0 -0.15833335122E+03 -0.64172390583E+02 -0.13343906136E+03  0.28958164465E+03  0.19200000000E+03 0.  0.
   -5000001    1    1    2    0    0  0.15833335122E+03  0.64172390583E+02  0.67735028054E+02  0.26578107504E+03  0.19200000000E+03 0.  0.
<mgrwt>
<rscale>  0 0.55146236E+03</rscale>
<asrwt>0</asrwt>
<pdfrwt beam="1">  1        2 0.34975621E-01 0.55146236E+03</pdfrwt>
<pdfrwt beam="2">  1       -2 0.44361911E-01 0.55146236E+03</pdfrwt>
<totfact> 0.72513377E+02</totfact>
</mgrwt>
</event>
<event>
 4    1  0.5900026E-005  0.5375244E+03  0.7818608E-02  0.1004423E+00
         -2   -1    0    0    0  501 -0.00000000000E+00  0.00000000000E+00  0.25549867667E+02  0.25549867794E+02  0.25500000000E-02 0. -1.
          2   -1    0    0  501    0  0.00000000000E+00 -0.00000000000E+00 -0.28271425312E+04  0.28271425312E+04  0.25500000000E-02 0.  1.
    5000001    1    1    2    0    0 -0.18185060377E+03 -0.44994357019E+02 -0.13127907807E+04  0.13399170751E+04  0.19200000000E+03 0.  0.
   -5000001    1    1    2    0    0  0.18185060377E+03  0.44994357019E+02 -0.14888018829E+04  0.15127753240E+04  0.19200000000E+03 0.  0.
<mgrwt>
<rscale>  0 0.53752439E+03</rscale>
<asrwt>0</asrwt>
<pdfrwt beam="1">  1        2 0.40387730E+00 0.53752439E+03</pdfrwt>
<pdfrwt beam="2">  1       -2 0.36499829E-02 0.53752439E+03</pdfrwt>
<totfact> 0.10464604E+03</totfact>
</mgrwt>
</event>
<event>
 4    1  0.5900026E-005  0.1169366E+04  0.7818608E-02  0.9140101E-01
         -2   -1    0    0    0  501 -0.00000000000E+00  0.00000000000E+00  0.94966552474E+02  0.94966552508E+02  0.25500000000E-02 0. -1.
          2   -1    0    0  501    0  0.00000000000E+00 -0.00000000000E+00 -0.35997357415E+04  0.35997357415E+04  0.25500000000E-02 0.  1.
    5000001    1    1    2    0    0  0.50617710072E+03  0.10048168559E+02 -0.10553111587E+04  0.11861120793E+04  0.19200000000E+03 0.  0.
   -5000001    1    1    2    0    0 -0.50617710072E+03 -0.10048168559E+02 -0.24494580303E+04  0.25085902147E+04  0.19200000000E+03 0.  0.
<mgrwt>
<rscale>  0 0.11693665E+04</rscale>
<asrwt>0</asrwt>
<pdfrwt beam="1">  1        2 0.51424788E+00 0.11693665E+04</pdfrwt>
<pdfrwt beam="2">  1       -2 0.13566653E-01 0.11693665E+04</pdfrwt>
<totfact> 0.43966975E+01</totfact>
</mgrwt>
</event>
<event>
 4    1  0.5900026E-005  0.4260357E+03  0.7818608E-02  0.1035120E+00
         -2   -1    0    0    0  501 -0.00000000000E+00  0.00000000000E+00  0.14210021457E+03  0.14210021459E+03  0.25500000000E-02 0. -1.
          2   -1    0    0  501    0  0.00000000000E+00 -0.00000000000E+00 -0.31932812759E+03  0.31932812760E+03  0.25500000000E-02 0.  1.
    5000001    1    1    2    0    0 -0.60446548758E+01  0.82410880116E+02 -0.44161640089E+02  0.21364068309E+03  0.19200000000E+03 0.  0.
   -5000001    1    1    2    0    0  0.60446548758E+01 -0.82410880116E+02 -0.13306627293E+03  0.24778765911E+03  0.19200000000E+03 0.  0.
<mgrwt>
<rscale>  0 0.42603566E+03</rscale>
<asrwt>0</asrwt>
<pdfrwt beam="1">  1        2 0.45618304E-01 0.42603566E+03</pdfrwt>
<pdfrwt beam="2">  1       -2 0.20300031E-01 0.42603566E+03</pdfrwt>
<totfact> 0.22863878E+03</totfact>
</mgrwt>
</event>
<event>
 4    1  0.5900026E-005  0.6605840E+03  0.7818608E-02  0.9787119E-01
         -2   -1    0    0    0  501 -0.00000000000E+00  0.00000000000E+00  0.11790819416E+03  0.11790819418E+03  0.25500000000E-02 0. -1.
          2   -1    0    0  501    0  0.00000000000E+00 -0.00000000000E+00 -0.92523526237E+03  0.92523526237E+03  0.25500000000E-02 0.  1.
    5000001    1    1    2    0    0  0.14959736404E+03  0.10201931470E+03 -0.71727556219E+03  0.76428760556E+03  0.19200000000E+03 0.  0.
   -5000001    1    1    2    0    0 -0.14959736404E+03 -0.10201931470E+03 -0.90051506027E+02  0.27885585100E+03  0.19200000000E+03 0.  0.
<mgrwt>
<rscale>  0 0.66058404E+03</rscale>
<asrwt>0</asrwt>
<pdfrwt beam="1">  1        2 0.13217646E+00 0.66058404E+03</pdfrwt>
<pdfrwt beam="2">  1       -2 0.16844028E-01 0.66058404E+03</pdfrwt>
<totfact> 0.90376408E+02</totfact>
</mgrwt>
</event>
<event>
 4    1  0.5900026E-005  0.4604639E+03  0.7818608E-02  0.1024647E+00
         -2   -1    0    0    0  501 -0.00000000000E+00  0.00000000000E+00  0.19993289616E+03  0.19993289618E+03  0.25500000000E-02 0. -1.
          2   -1    0    0  501    0  0.00000000000E+00 -0.00000000000E+00 -0.26512265873E+03  0.26512265874E+03  0.25500000000E-02 0.  1.
    5000001    1    1    2    0    0  0.79153000022E+02 -0.94101209936E+02 -0.64890394929E+02  0.23705484276E+03  0.19200000000E+03 0.  0.
   -5000001    1    1    2    0    0 -0.79153000022E+02  0.94101209936E+02 -0.29936763799E+00  0.22800071216E+03  0.19200000000E+03 0.  0.
<mgrwt>
<rscale>  0 0.46046386E+03</rscale>
<asrwt>0</asrwt>
<pdfrwt beam="1">  1        2 0.37874666E-01 0.46046386E+03</pdfrwt>
<pdfrwt beam="2">  1       -2 0.28561842E-01 0.46046386E+03</pdfrwt>
<totfact> 0.15299685E+03</totfact>
</mgrwt>
</event>
<event>
 4    1  0.5900026E-005  0.5691816E+03  0.7818608E-02  0.9971491E-01
         -2   -1    0    0    0  501 -0.00000000000E+00  0.00000000000E+00  0.28835049154E+03  0.28835049155E+03  0.25500000000E-02 0. -1.
          2   -1    0    0  501    0  0.00000000000E+00 -0.00000000000E+00 -0.28088009415E+03  0.28088009416E+03  0.25500000000E-02 0.  1.
    5000001    1    1    2    0    0  0.45812091873E+01 -0.13296817525E+03 -0.15884075997E+03  0.28248169876E+03  0.19200000000E+03 0.  0.
   -5000001    1    1    2    0    0 -0.45812091873E+01  0.13296817525E+03  0.16631115735E+03  0.28674888695E+03  0.19200000000E+03 0.  0.
<mgrwt>
<rscale>  0 0.56918156E+03</rscale>
<asrwt>0</asrwt>
<pdfrwt beam="1">  1        2 0.40125728E-01 0.56918156E+03</pdfrwt>
<pdfrwt beam="2">  1       -2 0.41192927E-01 0.56918156E+03</pdfrwt>
<totfact> 0.72025291E+02</totfact>
</mgrwt>
</event>
<event>
 4    1  0.5900026E-005  0.4446215E+03  0.7818608E-02  0.1029338E+00
         -2   -1    0    0    0  501 -0.00000000000E+00  0.00000000000E+00  0.35611030533E+03  0.35611030534E+03  0.25500000000E-02 0. -1.
          2   -1    0    0  501    0  0.00000000000E+00 -0.00000000000E+00 -0.13878300789E+03  0.13878300791E+03  0.25500000000E-02 0.  1.
    5000001    1    1    2    0    0 -0.21956502565E+02  0.97215947387E+02  0.51635617241E+02  0.22240338441E+03  0.19200000000E+03 0.  0.
   -5000001    1    1    2    0    0  0.21956502565E+02 -0.97215947387E+02  0.16569168020E+03  0.27248992884E+03  0.19200000000E+03 0.  0.
<mgrwt>
<rscale>  0 0.44462145E+03</rscale>
<asrwt>0</asrwt>
<pdfrwt beam="1">  1        2 0.19826144E-01 0.44462145E+03</pdfrwt>
<pdfrwt beam="2">  1       -2 0.50872901E-01 0.44462145E+03</pdfrwt>
<totfact> 0.10491969E+03</totfact>
</mgrwt>
</event>
<event>
 4    1  0.5900026E-005  0.1527936E+04  0.7818608E-02  0.8866086E-01
         -2   -1    0    0    0  501 -0.00000000000E+00  0.00000000000E+00  0.66476629500E+03  0.66476629500E+03  0.25500000000E-02 0. -1.
          2   -1    0    0  501    0  0.00000000000E+00 -0.00000000000E+00 -0.87797323775E+03  0.87797323775E+03  0.25500000000E-02 0.  1.
    5000001    1    1    2    0    0  0.49349622442E+03 -0.55037947778E+03 -0.88347270556E+02  0.76884675541E+03  0.19200000000E+03 0.  0.
   -5000001    1    1    2    0    0 -0.49349622442E+03  0.55037947778E+03 -0.12485967219E+03  0.77389277734E+03  0.19200000000E+03 0.  0.
<mgrwt>
<rscale>  0 0.15279359E+04</rscale>
<asrwt>0</asrwt>
<pdfrwt beam="1">  1        2 0.12542475E+00 0.15279359E+04</pdfrwt>
<pdfrwt beam="2">  1       -2 0.94966615E-01 0.15279359E+04</pdfrwt>
<totfact> 0.30309624E+01</totfact>
</mgrwt>
</event>
<event>
 4    1  0.5900026E-005  0.5921047E+03  0.7818608E-02  0.9921923E-01
          2   -1    0    0  501    0  0.00000000000E+00  0.00000000000E+00  0.89524860993E+03  0.89524860993E+03  0.25500000000E-02 0.  1.
         -2   -1    0    0    0  501 -0.00000000000E+00 -0.00000000000E+00 -0.97902409975E+02  0.97902410008E+02  0.25500000000E-02 0. -1.
    5000001    1    1    2    0    0  0.36502588398E+02 -0.20653497843E+03  0.26041993549E+03  0.38557966631E+03  0.19200000000E+03 0.  0.
   -5000001    1    1    2    0    0 -0.36502588398E+02  0.20653497843E+03  0.53692626446E+03  0.60757135362E+03  0.19200000000E+03 0.  0.
<mgrwt>
<rscale>  0 0.59210471E+03</rscale>
<asrwt>0</asrwt>
<pdfrwt beam="1">  1        2 0.12789266E+00 0.59210471E+03</pdfrwt>
<pdfrwt beam="2">  1       -2 0.13986058E-01 0.59210471E+03</pdfrwt>
<totfact> 0.12953369E+03</totfact>
</mgrwt>
</event>
<event>
 4    1  0.5900026E-005  0.5018057E+03  0.7818608E-02  0.1013309E+00
         -2   -1    0    0    0  501 -0.00000000000E+00  0.00000000000E+00  0.58386012575E+02  0.58386012631E+02  0.25500000000E-02 0. -1.
          2   -1    0    0  501    0  0.00000000000E+00 -0.00000000000E+00 -0.10782076578E+04  0.10782076578E+04  0.25500000000E-02 0.  1.
    5000001    1    1    2    0    0 -0.48487146008E+02 -0.11994530778E+03 -0.72893089691E+03  0.76481509704E+03  0.19200000000E+03 0.  0.
   -5000001    1    1    2    0    0  0.48487146008E+02  0.11994530778E+03 -0.29089074834E+03  0.37177857342E+03  0.19200000000E+03 0.  0.
<mgrwt>
<rscale>  0 0.50180572E+03</rscale>
<asrwt>0</asrwt>
<pdfrwt beam="1">  1        2 0.15402965E+00 0.50180572E+03</pdfrwt>
<pdfrwt beam="2">  1       -2 0.83408596E-02 0.50180572E+03</pdfrwt>
<totfact> 0.23248246E+03</totfact>
</mgrwt>
</event>
<event>
 4    1  0.5900026E-005  0.5918877E+03  0.7818608E-02  0.9922381E-01
         -2   -1    0    0    0  501 -0.00000000000E+00  0.00000000000E+00  0.22102815953E+02  0.22102816100E+02  0.25500000000E-02 0.  1.
          2   -1    0    0  501    0  0.00000000000E+00 -0.00000000000E+00 -0.39625156421E+04  0.39625156421E+04  0.25500000000E-02 0. -1.
    5000001    1    1    2    0    0 -0.15761348558E+03 -0.16027979745E+03 -0.18781150116E+04  0.19012394960E+04  0.19200000000E+03 0.  0.
   -5000001    1    1    2    0    0  0.15761348558E+03  0.16027979745E+03 -0.20622978146E+04  0.20833789622E+04  0.19200000000E+03 0.  0.
<mgrwt>
<rscale>  0 0.59188767E+03</rscale>
<asrwt>0</asrwt>
<pdfrwt beam="1">  1        2 0.56607321E+00 0.59188767E+03</pdfrwt>
<pdfrwt beam="2">  1       -2 0.31575477E-02 0.59188767E+03</pdfrwt>
<totfact> 0.28080913E+02</totfact>
</mgrwt>
</event>
<event>
 4    1  0.5900026E-005  0.8194098E+03  0.7818608E-02  0.9532340E-01
         -2   -1    0    0    0  501 -0.00000000000E+00  0.00000000000E+00  0.42314285747E+03  0.42314285748E+03  0.25500000000E-02 0. -1.
          2   -1    0    0  501    0  0.00000000000E+00 -0.00000000000E+00 -0.39669366745E+03  0.39669366746E+03  0.25500000000E-02 0.  1.
    5000001    1    1    2    0    0 -0.25330312182E+03  0.22727112317E+03 -0.11004451056E+03  0.40594141111E+03  0.19200000000E+03 0.  0.
   -5000001    1    1    2    0    0  0.25330312182E+03 -0.22727112317E+03  0.13649370058E+03  0.41389511383E+03  0.19200000000E+03 0.  0.
<mgrwt>
<rscale>  0 0.81940977E+03</rscale>
<asrwt>0</asrwt>
<pdfrwt beam="1">  1        2 0.56670524E-01 0.81940977E+03</pdfrwt>
<pdfrwt beam="2">  1       -2 0.60448979E-01 0.81940977E+03</pdfrwt>
<totfact> 0.22397591E+02</totfact>
</mgrwt>
</event>
<event>
 4    1  0.5900026E-005  0.8152347E+03  0.7818608E-02  0.9538224E-01
         -2   -1    0    0    0  501 -0.00000000000E+00  0.00000000000E+00  0.98910279024E+02  0.98910279057E+02  0.25500000000E-02 0. -1.
          2   -1    0    0  501    0  0.00000000000E+00 -0.00000000000E+00 -0.16798243963E+04  0.16798243963E+04  0.25500000000E-02 0.  1.
    5000001    1    1    2    0    0  0.13184346919E+03 -0.33192462921E+03 -0.69967351085E+03  0.80868020974E+03  0.19200000000E+03 0.  0.
   -5000001    1    1    2    0    0 -0.13184346919E+03  0.33192462921E+03 -0.88124060643E+03  0.97005446562E+03  0.19200000000E+03 0.  0.
<mgrwt>
<rscale>  0 0.81523469E+03</rscale>
<asrwt>0</asrwt>
<pdfrwt beam="1">  1        2 0.23997490E+00 0.81523469E+03</pdfrwt>
<pdfrwt beam="2">  1       -2 0.14130041E-01 0.81523469E+03</pdfrwt>
<totfact> 0.45968691E+02</totfact>
</mgrwt>
</event>
<event>
 4    1  0.5900026E-005  0.7711346E+03  0.7818608E-02  0.9602765E-01
         -2   -1    0    0    0  501 -0.00000000000E+00  0.00000000000E+00  0.23403084956E+03  0.23403084958E+03  0.25500000000E-02 0. -1.
          2   -1    0    0  501    0  0.00000000000E+00 -0.00000000000E+00 -0.63522458231E+03  0.63522458232E+03  0.25500000000E-02 0.  1.
    5000001    1    1    2    0    0  0.17510057199E+03 -0.18616474376E+03  0.42429392568E+02  0.32246205278E+03  0.19200000000E+03 0.  0.
   -5000001    1    1    2    0    0 -0.17510057199E+03  0.18616474376E+03 -0.44362312531E+03  0.54679337911E+03  0.19200000000E+03 0.  0.
<mgrwt>
<rscale>  0 0.77113462E+03</rscale>
<asrwt>0</asrwt>
<pdfrwt beam="1">  1        2 0.90746368E-01 0.77113462E+03</pdfrwt>
<pdfrwt beam="2">  1       -2 0.33432979E-01 0.77113462E+03</pdfrwt>
<totfact> 0.42541172E+02</totfact>
</mgrwt>
</event>
<event>
 4    1  0.5900026E-005  0.4917112E+03  0.7818608E-02  0.1015965E+00
         -2   -1    0    0    0  501 -0.00000000000E+00  0.00000000000E+00  0.11694527486E+03  0.11694527489E+03  0.25500000000E-02 0. -1.
          2   -1    0    0  501    0  0.00000000000E+00 -0.00000000000E+00 -0.51686549550E+03  0.51686549551E+03  0.25500000000E-02 0.  1.
    5000001    1    1    2    0    0  0.55224054286E+02 -0.14104526679E+03 -0.23250586680E+03  0.33744101937E+03  0.19200000000E+03 0.  0.
   -5000001    1    1    2    0    0 -0.55224054286E+02  0.14104526679E+03 -0.16741435384E+03  0.29636975104E+03  0.19200000000E+03 0.  0.
<mgrwt>
<rscale>  0 0.49171121E+03</rscale>
<asrwt>0</asrwt>
<pdfrwt beam="1">  1        2 0.73837926E-01 0.49171121E+03</pdfrwt>
<pdfrwt beam="2">  1       -2 0.16706468E-01 0.49171121E+03</pdfrwt>
<totfact> 0.18758149E+03</totfact>
</mgrwt>
</event>
<event>
 4    1  0.5900026E-005  0.4478456E+03  0.7818608E-02  0.1028366E+00
          2   -1    0    0  501    0  0.00000000000E+00  0.00000000000E+00  0.53289331673E+03  0.53289331674E+03  0.25500000000E-02 0.  1.
         -2   -1    0    0    0  501 -0.00000000000E+00 -0.00000000000E+00 -0.94092801820E+02  0.94092801854E+02  0.25500000000E-02 0. -1.
    5000001    1    1    2    0    0 -0.73309759078E+02  0.43846450808E+02  0.11113185584E+03  0.23772067939E+03  0.19200000000E+03 0.  0.
   -5000001    1    1    2    0    0  0.73309759078E+02 -0.43846450808E+02  0.32766865907E+03  0.38926543920E+03  0.19200000000E+03 0.  0.
<mgrwt>
<rscale>  0 0.44784562E+03</rscale>
<asrwt>0</asrwt>
<pdfrwt beam="1">  1        2 0.76127615E-01 0.44784562E+03</pdfrwt>
<pdfrwt beam="2">  1       -2 0.13441829E-01 0.44784562E+03</pdfrwt>
<totfact> 0.26053391E+03</totfact>
</mgrwt>
</event>
<event>
 4    1  0.5900026E-005  0.4870963E+03  0.7818608E-02  0.1017203E+00
         -2   -1    0    0    0  501 -0.00000000000E+00  0.00000000000E+00  0.21764509672E+02  0.21764509822E+02  0.25500000000E-02 0. -1.
          2   -1    0    0  501    0  0.00000000000E+00 -0.00000000000E+00 -0.27253407689E+04  0.27253407689E+04  0.25500000000E-02 0.  1.
    5000001    1    1    2    0    0  0.46546367019E+02  0.13720710105E+03 -0.15672352109E+04  0.15855858726E+04  0.19200000000E+03 0.  0.
   -5000001    1    1    2    0    0 -0.46546367019E+02 -0.13720710105E+03 -0.11363410483E+04  0.11615194062E+04  0.19200000000E+03 0.  0.
<mgrwt>
<rscale>  0 0.48709632E+03</rscale>
<asrwt>0</asrwt>
<pdfrwt beam="1">  1        2 0.38933418E+00 0.48709632E+03</pdfrwt>
<pdfrwt beam="2">  1       -2 0.31092174E-02 0.48709632E+03</pdfrwt>
<totfact> 0.15165356E+03</totfact>
</mgrwt>
</event>
<event>
 4    1  0.5900026E-005  0.5122282E+03  0.7818608E-02  0.1010636E+00
          2   -1    0    0  501    0  0.00000000000E+00  0.00000000000E+00  0.44421487477E+03  0.44421487477E+03  0.25500000000E-02 0.  1.
         -2   -1    0    0    0  501 -0.00000000000E+00 -0.00000000000E+00 -0.14766373008E+03  0.14766373010E+03  0.25500000000E-02 0. -1.
    5000001    1    1    2    0    0 -0.15186996098E+03 -0.59098330629E+02  0.20214368775E+03  0.32292904519E+03  0.19200000000E+03 0.  0.
   -5000001    1    1    2    0    0  0.15186996098E+03  0.59098330629E+02  0.94407456937E+02  0.26894955969E+03  0.19200000000E+03 0.  0.
<mgrwt>
<rscale>  0 0.51222817E+03</rscale>
<asrwt>0</asrwt>
<pdfrwt beam="1">  1        2 0.63459268E-01 0.51222817E+03</pdfrwt>
<pdfrwt beam="2">  1       -2 0.21094819E-01 0.51222817E+03</pdfrwt>
<totfact> 0.14890761E+03</totfact>
</mgrwt>
</event>
<event>
 4    1  0.5900026E-005  0.4121995E+03  0.7818608E-02  0.1039635E+00
          2   -1    0    0  501    0  0.00000000000E+00  0.00000000000E+00  0.61699976227E+03  0.61699976227E+03  0.25500000000E-02 0.  1.
         -2   -1    0    0    0  501 -0.00000000000E+00 -0.00000000000E+00 -0.68844612071E+02  0.68844612118E+02  0.25500000000E-02 0. -1.
    5000001    1    1    2    0    0  0.72292815077E+02  0.19167100859E+02  0.28142131697E+03  0.34879160900E+03  0.19200000000E+03 0.  0.
   -5000001    1    1    2    0    0 -0.72292815077E+02 -0.19167100859E+02  0.26673383323E+03  0.33705276539E+03  0.19200000000E+03 0.  0.
<mgrwt>
<rscale>  0 0.41219951E+03</rscale>
<asrwt>0</asrwt>
<pdfrwt beam="1">  1        2 0.88142822E-01 0.41219951E+03</pdfrwt>
<pdfrwt beam="2">  1       -2 0.98349447E-02 0.41219951E+03</pdfrwt>
<totfact> 0.36553201E+03</totfact>
</mgrwt>
</event>
<event>
 4    1  0.5900026E-005  0.4368925E+03  0.7818608E-02  0.1031705E+00
         -2   -1    0    0    0  501 -0.00000000000E+00  0.00000000000E+00  0.16426222894E+04  0.16426222894E+04  0.25500000000E-02 0. -1.
          2   -1    0    0  501    0  0.00000000000E+00 -0.00000000000E+00 -0.29050360296E+02  0.29050360408E+02  0.25500000000E-02 0.  1.
    5000001    1    1    2    0    0 -0.33601053918E+02 -0.80856054773E+02  0.59074390880E+03  0.62730303538E+03  0.19200000000E+03 0.  0.
   -5000001    1    1    2    0    0  0.33601053918E+02  0.80856054773E+02  0.10228280204E+04  0.10443696145E+04  0.19200000000E+03 0.  0.
<mgrwt>
<rscale>  0 0.43689252E+03</rscale>
<asrwt>0</asrwt>
<pdfrwt beam="1">  1        2 0.41500516E-02 0.43689252E+03</pdfrwt>
<pdfrwt beam="2">  1       -2 0.23466032E+00 0.43689252E+03</pdfrwt>
<totfact> 0.17729578E+02</totfact>
</mgrwt>
</event>
<event>
 4    1  0.5900026E-005  0.5122158E+03  0.7818608E-02  0.1010639E+00
         -2   -1    0    0    0  501 -0.00000000000E+00  0.00000000000E+00  0.17347083051E+04  0.17347083051E+04  0.25500000000E-02 0. -1.
          2   -1    0    0  501    0  0.00000000000E+00 -0.00000000000E+00 -0.37811119093E+02  0.37811119179E+02  0.25500000000E-02 0.  1.
    5000001    1    1    2    0    0 -0.55789797810E+02  0.15945477753E+03  0.80088288482E+03  0.84072333310E+03  0.19200000000E+03 0.  0.
   -5000001    1    1    2    0    0  0.55789797810E+02 -0.15945477753E+03  0.89601430121E+03  0.93179609121E+03  0.19200000000E+03 0.  0.
<mgrwt>
<rscale>  0 0.51221582E+03</rscale>
<asrwt>0</asrwt>
<pdfrwt beam="1">  1        2 0.54015873E-02 0.51221582E+03</pdfrwt>
<pdfrwt beam="2">  1       -2 0.24781552E+00 0.51221582E+03</pdfrwt>
<totfact> 0.10311289E+02</totfact>
</mgrwt>
</event>
<event>
 4    1  0.5900026E-005  0.1529841E+04  0.7818608E-02  0.8864848E-01
          2   -1    0    0  501    0  0.00000000000E+00  0.00000000000E+00  0.22822393191E+04  0.22822393191E+04  0.25500000000E-02 0.  1.
         -2   -1    0    0    0  501 -0.00000000000E+00 -0.00000000000E+00 -0.25637261710E+03  0.25637261711E+03  0.25500000000E-02 0. -1.
    5000001    1    1    2    0    0 -0.73222634265E+03  0.20370886741E+02  0.11921886036E+04  0.14123554993E+04  0.19200000000E+03 0.  0.
   -5000001    1    1    2    0    0  0.73222634265E+03 -0.20370886741E+02  0.83367809846E+03  0.11262564369E+04  0.19200000000E+03 0.  0.
<mgrwt>
<rscale>  0 0.15298414E+04</rscale>
<asrwt>0</asrwt>
<pdfrwt beam="1">  1        2 0.32603419E+00 0.15298414E+04</pdfrwt>
<pdfrwt beam="2">  1       -2 0.36624659E-01 0.15298414E+04</pdfrwt>
<totfact> 0.38881235E+01</totfact>
</mgrwt>
</event>
<event>
 4    1  0.5900026E-005  0.4804326E+03  0.7818608E-02  0.1019016E+00
         -2   -1    0    0    0  501 -0.00000000000E+00  0.00000000000E+00  0.60708485633E+02  0.60708485687E+02  0.25500000000E-02 0.  1.
          2   -1    0    0  501    0  0.00000000000E+00 -0.00000000000E+00 -0.95050754495E+03  0.95050754495E+03  0.25500000000E-02 0. -1.
    5000001    1    1    2    0    0 -0.27021958346E+02 -0.14043389074E+03 -0.48635986329E+03  0.54209019593E+03  0.19200000000E+03 0.  0.
   -5000001    1    1    2    0    0  0.27021958346E+02  0.14043389074E+03 -0.40343919602E+03  0.46912583470E+03  0.19200000000E+03 0.  0.
<mgrwt>
<rscale>  0 0.48043261E+03</rscale>
<asrwt>0</asrwt>
<pdfrwt beam="1">  1        2 0.13578678E+00 0.48043261E+03</pdfrwt>
<pdfrwt beam="2">  1       -2 0.86726414E-02 0.48043261E+03</pdfrwt>
<totfact> 0.26070147E+03</totfact>
</mgrwt>
</event>
<event>
 4    1  0.5900026E-005  0.4813985E+03  0.7818608E-02  0.1018752E+00
          2   -1    0    0  501    0  0.00000000000E+00  0.00000000000E+00  0.24042588182E+03  0.24042588184E+03  0.25500000000E-02 0.  1.
         -2   -1    0    0    0  501 -0.00000000000E+00 -0.00000000000E+00 -0.24097294216E+03  0.24097294217E+03  0.25500000000E-02 0. -1.
    5000001    1    1    2    0    0 -0.11459324706E+03 -0.74730140538E+02  0.48264382709E+02  0.24064425365E+03  0.19200000000E+03 0.  0.
   -5000001    1    1    2    0    0  0.11459324706E+03  0.74730140538E+02 -0.48811443045E+02  0.24075457036E+03  0.19200000000E+03 0.  0.
<mgrwt>
<rscale>  0 0.48139851E+03</rscale>
<asrwt>0</asrwt>
<pdfrwt beam="1">  1        2 0.34346555E-01 0.48139851E+03</pdfrwt>
<pdfrwt beam="2">  1       -2 0.34424706E-01 0.48139851E+03</pdfrwt>
<totfact> 0.12064546E+03</totfact>
</mgrwt>
</event>
<event>
 4    1  0.5900026E-005  0.6081034E+03  0.7818608E-02  0.9888735E-01
         -2   -1    0    0    0  501 -0.00000000000E+00  0.00000000000E+00  0.15807694322E+03  0.15807694324E+03  0.25500000000E-02 0. -1.
          2   -1    0    0  501    0  0.00000000000E+00 -0.00000000000E+00 -0.58482557542E+03  0.58482557543E+03  0.25500000000E-02 0.  1.
    5000001    1    1    2    0    0 -0.20271096956E+03 -0.69605275132E+02 -0.33336463419E+03  0.44037780465E+03  0.19200000000E+03 0.  0.
   -5000001    1    1    2    0    0  0.20271096956E+03  0.69605275132E+02 -0.93383998011E+02  0.30252471402E+03  0.19200000000E+03 0.  0.
<mgrwt>
<rscale>  0 0.60810341E+03</rscale>
<asrwt>0</asrwt>
<pdfrwt beam="1">  1        2 0.83546510E-01 0.60810341E+03</pdfrwt>
<pdfrwt beam="2">  1       -2 0.22582421E-01 0.60810341E+03</pdfrwt>
<totfact> 0.96483649E+02</totfact>
</mgrwt>
</event>
<event>
 4    1  0.5900026E-005  0.1502903E+04  0.7818608E-02  0.8882525E-01
         -2   -1    0    0    0  501 -0.00000000000E+00  0.00000000000E+00  0.42588348316E+03  0.42588348316E+03  0.25500000000E-02 0. -1.
          2   -1    0    0  501    0  0.00000000000E+00 -0.00000000000E+00 -0.13259004494E+04  0.13259004494E+04  0.25500000000E-02 0.  1.
    5000001    1    1    2    0    0 -0.72574595007E+03 -0.13273388777E+02 -0.41442930996E+03  0.85761239487E+03  0.19200000000E+03 0.  0.
   -5000001    1    1    2    0    0  0.72574595007E+03  0.13273388777E+02 -0.48558765631E+03  0.89417153771E+03  0.19200000000E+03 0.  0.
<mgrwt>
<rscale>  0 0.15029027E+04</rscale>
<asrwt>0</asrwt>
<pdfrwt beam="1">  1        2 0.18941435E+00 0.15029027E+04</pdfrwt>
<pdfrwt beam="2">  1       -2 0.60840498E-01 0.15029027E+04</pdfrwt>
<totfact> 0.44192644E+01</totfact>
</mgrwt>
</event>
<event>
 4    1  0.5900026E-005  0.7575717E+03  0.7818608E-02  0.9623546E-01
         -2   -1    0    0    0  501 -0.00000000000E+00  0.00000000000E+00  0.65942235733E+03  0.65942235733E+03  0.25500000000E-02 0. -1.
          2   -1    0    0  501    0  0.00000000000E+00 -0.00000000000E+00 -0.21758240642E+03  0.21758240644E+03  0.25500000000E-02 0.  1.
    5000001    1    1    2    0    0 -0.15305508218E+02 -0.22910751840E+03  0.48966045741E+03  0.57389535380E+03  0.19200000000E+03 0.  0.
   -5000001    1    1    2    0    0  0.15305508218E+02  0.22910751840E+03 -0.47820506502E+02  0.30310940997E+03  0.19200000000E+03 0.  0.
<mgrwt>
<rscale>  0 0.75757166E+03</rscale>
<asrwt>0</asrwt>
<pdfrwt beam="1">  1        2 0.31083200E-01 0.75757166E+03</pdfrwt>
<pdfrwt beam="2">  1       -2 0.94203196E-01 0.75757166E+03</pdfrwt>
<totfact> 0.16388876E+02</totfact>
</mgrwt>
</event>
<event>
 4    1  0.5900026E-005  0.1451487E+04  0.7818608E-02  0.8917370E-01
         -2   -1    0    0    0  501 -0.00000000000E+00  0.00000000000E+00  0.88946921559E+03  0.88946921559E+03  0.25500000000E-02 0. -1.
          2   -1    0    0  501    0  0.00000000000E+00 -0.00000000000E+00 -0.59215518589E+03  0.59215518590E+03  0.25500000000E-02 0.  1.
    5000001    1    1    2    0    0  0.21611875952E+03 -0.31691605503E+03 -0.44890070439E+03  0.62090172053E+03  0.19200000000E+03 0.  0.
   -5000001    1    1    2    0    0 -0.21611875952E+03  0.31691605503E+03  0.74621473408E+03  0.86072268096E+03  0.19200000000E+03 0.  0.
<mgrwt>
<rscale>  0 0.14514872E+04</rscale>
<asrwt>0</asrwt>
<pdfrwt beam="1">  1        2 0.84593599E-01 0.14514872E+04</pdfrwt>
<pdfrwt beam="2">  1       -2 0.12706703E+00 0.14514872E+04</pdfrwt>
<totfact> 0.24627961E+01</totfact>
</mgrwt>
</event>
<event>
 4    1  0.5900026E-005  0.5459937E+03  0.7818608E-02  0.1002426E+00
         -2   -1    0    0    0  501 -0.00000000000E+00  0.00000000000E+00  0.15347029607E+03  0.15347029609E+03  0.25500000000E-02 0.  1.
          2   -1    0    0  501    0  0.00000000000E+00 -0.00000000000E+00 -0.48561371954E+03  0.48561371954E+03  0.25500000000E-02 0. -1.
    5000001    1    1    2    0    0 -0.18022235632E+03 -0.68920508408E+02 -0.14171110848E+03  0.30688136545E+03  0.19200000000E+03 0.  0.
   -5000001    1    1    2    0    0  0.18022235632E+03  0.68920508408E+02 -0.19043231499E+03  0.33220265018E+03  0.19200000000E+03 0.  0.
<mgrwt>
<rscale>  0 0.54599370E+03</rscale>
<asrwt>0</asrwt>
<pdfrwt beam="1">  1        2 0.69373388E-01 0.54599370E+03</pdfrwt>
<pdfrwt beam="2">  1       -2 0.21924328E-01 0.54599370E+03</pdfrwt>
<totfact> 0.12592537E+03</totfact>
</mgrwt>
</event>
<event>
 4    1  0.5900026E-005  0.4430658E+03  0.7818608E-02  0.1029810E+00
         -2   -1    0    0    0  501 -0.00000000000E+00  0.00000000000E+00  0.28224539161E+04  0.28224539161E+04  0.25500000000E-02 0. -1.
          2   -1    0    0  501    0  0.00000000000E+00 -0.00000000000E+00 -0.17388001369E+02  0.17388001556E+02  0.25500000000E-02 0.  1.
    5000001    1    1    2    0    0 -0.64089866385E+01 -0.10457804252E+03  0.11772683726E+04  0.11974149086E+04  0.19200000000E+03 0.  0.
   -5000001    1    1    2    0    0  0.64089866385E+01  0.10457804252E+03  0.16277975421E+04  0.16424270091E+04  0.19200000000E+03 0.  0.
<mgrwt>
<rscale>  0 0.44306583E+03</rscale>
<asrwt>0</asrwt>
<pdfrwt beam="1">  1        2 0.24840028E-02 0.44306583E+03</pdfrwt>
<pdfrwt beam="2">  1       -2 0.40320728E+00 0.44306583E+03</pdfrwt>
<totfact> 0.33999202E+01</totfact>
</mgrwt>
</event>
<event>
 4    1  0.5900026E-005  0.1200806E+04  0.7818608E-02  0.9112151E-01
         -2   -1    0    0    0  501 -0.00000000000E+00  0.00000000000E+00  0.64530438339E+03  0.64530438340E+03  0.25500000000E-02 0. -1.
          2   -1    0    0  501    0  0.00000000000E+00 -0.00000000000E+00 -0.55862596426E+03  0.55862596427E+03  0.25500000000E-02 0.  1.
    5000001    1    1    2    0    0 -0.31734891939E+03  0.46916930914E+03  0.96293352817E+02  0.60577767132E+03  0.19200000000E+03 0.  0.
   -5000001    1    1    2    0    0  0.31734891939E+03 -0.46916930914E+03 -0.96149336899E+01  0.59815267635E+03  0.19200000000E+03 0.  0.
<mgrwt>
<rscale>  0 0.12008060E+04</rscale>
<asrwt>0</asrwt>
<pdfrwt beam="1">  1        2 0.79803709E-01 0.12008060E+04</pdfrwt>
<pdfrwt beam="2">  1       -2 0.92186341E-01 0.12008060E+04</pdfrwt>
<totfact> 0.58310511E+01</totfact>
</mgrwt>
</event>
<event>
 4    1  0.5900026E-005  0.6951789E+03  0.7818608E-02  0.9725513E-01
          2   -1    0    0  501    0  0.00000000000E+00  0.00000000000E+00  0.26499072767E+04  0.26499072767E+04  0.25500000000E-02 0.  1.
         -2   -1    0    0    0  501 -0.00000000000E+00 -0.00000000000E+00 -0.45593451545E+02  0.45593451616E+02  0.25500000000E-02 0. -1.
    5000001    1    1    2    0    0  0.28765511506E+03  0.71584843967E+01  0.14340866735E+04  0.14752170336E+04  0.19200000000E+03 0.  0.
   -5000001    1    1    2    0    0 -0.28765511506E+03 -0.71584843967E+01  0.11702271516E+04  0.12202836947E+04  0.19200000000E+03 0.  0.
<mgrwt>
<rscale>  0 0.69517888E+03</rscale>
<asrwt>0</asrwt>
<pdfrwt beam="1">  1        2 0.37855815E+00 0.69517888E+03</pdfrwt>
<pdfrwt beam="2">  1       -2 0.65133508E-02 0.69517888E+03</pdfrwt>
<totfact> 0.52129432E+02</totfact>
</mgrwt>
</event>
<event>
 4    1  0.5900026E-005  0.5166205E+03  0.7818608E-02  0.1009530E+00
         -2   -1    0    0    0  501 -0.00000000000E+00  0.00000000000E+00  0.39647060292E+02  0.39647060374E+02  0.25500000000E-02 0. -1.
          2   -1    0    0  501    0  0.00000000000E+00 -0.00000000000E+00 -0.16829543381E+04  0.16829543382E+04  0.25500000000E-02 0.  1.
    5000001    1    1    2    0    0 -0.50560888355E+02  0.14894846362E+03 -0.10601981266E+04  0.10888645995E+04  0.19200000000E+03 0.  0.
   -5000001    1    1    2    0    0  0.50560888355E+02 -0.14894846362E+03 -0.58310915121E+03  0.63373679905E+03  0.19200000000E+03 0.  0.
<mgrwt>
<rscale>  0 0.51662053E+03</rscale>
<asrwt>0</asrwt>
<pdfrwt beam="1">  1        2 0.24042200E+00 0.51662053E+03</pdfrwt>
<pdfrwt beam="2">  1       -2 0.56638668E-02 0.51662053E+03</pdfrwt>
<totfact> 0.20286417E+03</totfact>
</mgrwt>
</event>
<event>
 4    1  0.5900026E-005  0.5427980E+03  0.7818608E-02  0.1003175E+00
         -2   -1    0    0    0  501 -0.00000000000E+00  0.00000000000E+00  0.51075038242E+02  0.51075038306E+02  0.25500000000E-02 0. -1.
          2   -1    0    0  501    0  0.00000000000E+00 -0.00000000000E+00 -0.14421410297E+04  0.14421410297E+04  0.25500000000E-02 0.  1.
    5000001    1    1    2    0    0 -0.13548628696E+03 -0.13527427683E+03 -0.66324646623E+03  0.71653020794E+03  0.19200000000E+03 0.  0.
   -5000001    1    1    2    0    0  0.13548628696E+03  0.13527427683E+03 -0.72781952525E+03  0.77668586008E+03  0.19200000000E+03 0.  0.
<mgrwt>
<rscale>  0 0.54279797E+03</rscale>
<asrwt>0</asrwt>
<pdfrwt beam="1">  1        2 0.20602012E+00 0.54279797E+03</pdfrwt>
<pdfrwt beam="2">  1       -2 0.72964349E-02 0.54279797E+03</pdfrwt>
<totfact> 0.18127076E+03</totfact>
</mgrwt>
</event>
<event>
 4    1  0.5900026E-005  0.6498008E+03  0.7818608E-02  0.9807153E-01
         -2   -1    0    0    0  501 -0.00000000000E+00  0.00000000000E+00  0.12305463798E+03  0.12305463800E+03  0.25500000000E-02 0. -1.
          2   -1    0    0  501    0  0.00000000000E+00 -0.00000000000E+00 -0.85783251770E+03  0.85783251770E+03  0.25500000000E-02 0.  1.
    5000001    1    1    2    0    0 -0.17120929849E+03  0.19011109454E+03 -0.45333110885E+03  0.55482244584E+03  0.19200000000E+03 0.  0.
   -5000001    1    1    2    0    0  0.17120929849E+03 -0.19011109454E+03 -0.28144677086E+03  0.42606470986E+03  0.19200000000E+03 0.  0.
<mgrwt>
<rscale>  0 0.64980080E+03</rscale>
<asrwt>0</asrwt>
<pdfrwt beam="1">  1        2 0.12254750E+00 0.64980080E+03</pdfrwt>
<pdfrwt beam="2">  1       -2 0.17579235E-01 0.64980080E+03</pdfrwt>
<totfact> 0.92962415E+02</totfact>
</mgrwt>
</event>
<event>
 4    1  0.5900026E-005  0.5918228E+03  0.7818608E-02  0.9922518E-01
          2   -1    0    0  501    0  0.00000000000E+00  0.00000000000E+00  0.57279532853E+03  0.57279532854E+03  0.25500000000E-02 0.  1.
         -2   -1    0    0    0  501 -0.00000000000E+00 -0.00000000000E+00 -0.15287059693E+03  0.15287059695E+03  0.25500000000E-02 0. -1.
    5000001    1    1    2    0    0 -0.20467186361E+03  0.24056976721E+02  0.98724758750E+02  0.29846254015E+03  0.19200000000E+03 0.  0.
   -5000001    1    1    2    0    0  0.20467186361E+03 -0.24056976721E+02  0.32119997285E+03  0.42720338534E+03  0.19200000000E+03 0.  0.
<mgrwt>
<rscale>  0 0.59182282E+03</rscale>
<asrwt>0</asrwt>
<pdfrwt beam="1">  1        2 0.81827904E-01 0.59182282E+03</pdfrwt>
<pdfrwt beam="2">  1       -2 0.21838657E-01 0.59182282E+03</pdfrwt>
<totfact> 0.10489944E+03</totfact>
</mgrwt>
</event>
<event>
 4    1  0.5900026E-005  0.4758789E+03  0.7818608E-02  0.1020274E+00
         -2   -1    0    0    0  501 -0.00000000000E+00  0.00000000000E+00  0.20847476817E+03  0.20847476819E+03  0.25500000000E-02 0. -1.
          2   -1    0    0  501    0  0.00000000000E+00 -0.00000000000E+00 -0.27156853667E+03  0.27156853669E+03  0.25500000000E-02 0.  1.
    5000001    1    1    2    0    0 -0.10392518744E+03  0.90657887589E+02 -0.42566652775E+01  0.23643480363E+03  0.19200000000E+03 0.  0.
   -5000001    1    1    2    0    0  0.10392518744E+03 -0.90657887589E+02 -0.58837103221E+02  0.24360850125E+03  0.19200000000E+03 0.  0.
<mgrwt>
<rscale>  0 0.47587892E+03</rscale>
<asrwt>0</asrwt>
<pdfrwt beam="1">  1        2 0.38795505E-01 0.47587892E+03</pdfrwt>
<pdfrwt beam="2">  1       -2 0.29782110E-01 0.47587892E+03</pdfrwt>
<totfact> 0.13805596E+03</totfact>
</mgrwt>
</event>
<event>
 4    1  0.5900026E-005  0.6681573E+03  0.7818608E-02  0.9773292E-01
         -2   -1    0    0    0  501 -0.00000000000E+00  0.00000000000E+00  0.25683475367E+03  0.25683475368E+03  0.25500000000E-02 0. -1.
          2   -1    0    0  501    0  0.00000000000E+00 -0.00000000000E+00 -0.43455392121E+03  0.43455392122E+03  0.25500000000E-02 0.  1.
    5000001    1    1    2    0    0  0.21997273724E+03 -0.12685092016E+03  0.15981432917E+02  0.31874530157E+03  0.19200000000E+03 0.  0.
   -5000001    1    1    2    0    0 -0.21997273724E+03  0.12685092016E+03 -0.19370060046E+03  0.37264337334E+03  0.19200000000E+03 0.  0.
<mgrwt>
<rscale>  0 0.66815731E+03</rscale>
<asrwt>0</asrwt>
<pdfrwt beam="1">  1        2 0.62079131E-01 0.66815731E+03</pdfrwt>
<pdfrwt beam="2">  1       -2 0.36690680E-01 0.66815731E+03</pdfrwt>
<totfact> 0.55443076E+02</totfact>
</mgrwt>
</event>
<event>
 4    1  0.5900026E-005  0.5550037E+03  0.7818608E-02  0.1000342E+00
          2   -1    0    0  501    0  0.00000000000E+00  0.00000000000E+00  0.29453418224E+04  0.29453418224E+04  0.25500000000E-02 0.  1.
         -2   -1    0    0    0  501 -0.00000000000E+00 -0.00000000000E+00 -0.26145443229E+02  0.26145443353E+02  0.25500000000E-02 0. -1.
    5000001    1    1    2    0    0 -0.12079348220E+03 -0.12705201858E+03  0.19789630094E+04  0.19959689059E+04  0.19200000000E+03 0.  0.
   -5000001    1    1    2    0    0  0.12079348220E+03  0.12705201858E+03  0.94023336975E+03  0.97551835983E+03  0.19200000000E+03 0.  0.
<mgrwt>
<rscale>  0 0.55500367E+03</rscale>
<asrwt>0</asrwt>
<pdfrwt beam="1">  1        2 0.42076302E+00 0.55500367E+03</pdfrwt>
<pdfrwt beam="2">  1       -2 0.37350642E-02 0.55500367E+03</pdfrwt>
<totfact> 0.87227627E+02</totfact>
</mgrwt>
</event>
<event>
 4    1  0.5900026E-005  0.7434847E+03  0.7818608E-02  0.9645628E-01
          2   -1    0    0  501    0  0.00000000000E+00  0.00000000000E+00  0.10588581093E+03  0.10588581096E+03  0.25500000000E-02 0. -1.
         -2   -1    0    0    0  501 -0.00000000000E+00 -0.00000000000E+00 -0.13051076405E+04  0.13051076405E+04  0.25500000000E-02 0.  1.
    5000001    1    1    2    0    0 -0.48665837757E+02  0.17226874574E+02 -0.34950698420E+01  0.19885005528E+03  0.19200000000E+03 0.  0.
   -5000001    1    1    2    0    0  0.48665837757E+02 -0.17226874574E+02 -0.11957267597E+04  0.12121433962E+04  0.19200000000E+03 0.  0.
<mgrwt>
<rscale>  0 0.74348472E+03</rscale>
<asrwt>0</asrwt>
<pdfrwt beam="1">  1        2 0.15126545E-01 0.74348472E+03</pdfrwt>
<pdfrwt beam="2">  1       -2 0.18644394E+00 0.74348472E+03</pdfrwt>
<totfact> 0.66049176E+01</totfact>
</mgrwt>
</event>
<event>
 4    1  0.5900026E-005  0.7332468E+03  0.7818608E-02  0.9662006E-01
         -2   -1    0    0    0  501 -0.00000000000E+00  0.00000000000E+00  0.41257801220E+03  0.41257801221E+03  0.25500000000E-02 0. -1.
          2   -1    0    0  501    0  0.00000000000E+00 -0.00000000000E+00 -0.32578740429E+03  0.32578740430E+03  0.25500000000E-02 0.  1.
    5000001    1    1    2    0    0 -0.30056004114E+03  0.83435706164E+02  0.59344565443E+02  0.37105745221E+03  0.19200000000E+03 0.  0.
   -5000001    1    1    2    0    0  0.30056004114E+03 -0.83435706164E+02  0.27446042472E+02  0.36730796430E+03  0.19200000000E+03 0.  0.
<mgrwt>
<rscale>  0 0.73324681E+03</rscale>
<asrwt>0</asrwt>
<pdfrwt beam="1">  1        2 0.46541058E-01 0.73324681E+03</pdfrwt>
<pdfrwt beam="2">  1       -2 0.58939716E-01 0.73324681E+03</pdfrwt>
<totfact> 0.29503430E+02</totfact>
</mgrwt>
</event>
<event>
 4    1  0.5900026E-005  0.4984924E+03  0.7818608E-02  0.1014173E+00
         -2   -1    0    0    0  501 -0.00000000000E+00  0.00000000000E+00  0.52690276408E+02  0.52690276469E+02  0.25500000000E-02 0. -1.
          2   -1    0    0  501    0  0.00000000000E+00 -0.00000000000E+00 -0.11790348267E+04  0.11790348267E+04  0.25500000000E-02 0.  1.
    5000001    1    1    2    0    0  0.59630640105E+02  0.14689106062E+03 -0.59100409466E+03  0.64131321274E+03  0.19200000000E+03 0.  0.
   -5000001    1    1    2    0    0 -0.59630640105E+02 -0.14689106062E+03 -0.53534045564E+03  0.59041189044E+03  0.19200000000E+03 0.  0.
<mgrwt>
<rscale>  0 0.49849241E+03</rscale>
<asrwt>0</asrwt>
<pdfrwt beam="1">  1        2 0.16843353E+00 0.49849241E+03</pdfrwt>
<pdfrwt beam="2">  1       -2 0.75271831E-02 0.49849241E+03</pdfrwt>
<totfact> 0.23960632E+03</totfact>
</mgrwt>
</event>
<event>
 4    1  0.5900026E-005  0.1357620E+04  0.7818608E-02  0.8985080E-01
         -2   -1    0    0    0  501 -0.00000000000E+00  0.00000000000E+00  0.41663311767E+03  0.41663311767E+03  0.25500000000E-02 0. -1.
          2   -1    0    0  501    0  0.00000000000E+00 -0.00000000000E+00 -0.11059678654E+04  0.11059678654E+04  0.25500000000E-02 0.  1.
    5000001    1    1    2    0    0 -0.98552109755E+02  0.15377213962E+03  0.35622622431E+03  0.44398143221E+03  0.19200000000E+03 0.  0.
   -5000001    1    1    2    0    0  0.98552109755E+02 -0.15377213962E+03 -0.10455609720E+04  0.10786195508E+04  0.19200000000E+03 0.  0.
<mgrwt>
<rscale>  0 0.13576197E+04</rscale>
<asrwt>0</asrwt>
<pdfrwt beam="1">  1        2 0.15799541E+00 0.13576197E+04</pdfrwt>
<pdfrwt beam="2">  1       -2 0.59519017E-01 0.13576197E+04</pdfrwt>
<totfact> 0.62393062E+01</totfact>
</mgrwt>
</event>
<event>
 4    1  0.5900026E-005  0.4480967E+03  0.7818608E-02  0.1028291E+00
          2   -1    0    0  501    0  0.00000000000E+00  0.00000000000E+00  0.18987778905E+04  0.18987778905E+04  0.25500000000E-02 0.  1.
         -2   -1    0    0    0  501 -0.00000000000E+00 -0.00000000000E+00 -0.26436826129E+02  0.26436826252E+02  0.25500000000E-02 0. -1.
    5000001    1    1    2    0    0  0.35705595798E+02  0.38610133879E+02  0.49449388676E+03  0.53306081834E+03  0.19200000000E+03 0.  0.
   -5000001    1    1    2    0    0 -0.35705595798E+02 -0.38610133879E+02  0.13778471776E+04  0.13921538984E+04  0.19200000000E+03 0.  0.
<mgrwt>
<rscale>  0 0.44809669E+03</rscale>
<asrwt>0</asrwt>
<pdfrwt beam="1">  1        2 0.27125408E+00 0.44809669E+03</pdfrwt>
<pdfrwt beam="2">  1       -2 0.37766881E-02 0.44809669E+03</pdfrwt>
<totfact> 0.29547959E+03</totfact>
</mgrwt>
</event>
<event>
 4    1  0.5900026E-005  0.6344434E+03  0.7818608E-02  0.9836416E-01
          2   -1    0    0  501    0  0.00000000000E+00  0.00000000000E+00  0.44188438578E+03  0.44188438579E+03  0.25500000000E-02 0.  1.
         -2   -1    0    0    0  501 -0.00000000000E+00 -0.00000000000E+00 -0.22772836746E+03  0.22772836748E+03  0.25500000000E-02 0. -1.
    5000001    1    1    2    0    0 -0.24001036027E+03  0.13055003259E+02  0.18876475962E+03  0.36093149021E+03  0.19200000000E+03 0.  0.
   -5000001    1    1    2    0    0  0.24001036027E+03 -0.13055003259E+02  0.25391258697E+02  0.30868126306E+03  0.19200000000E+03 0.  0.
<mgrwt>
<rscale>  0 0.63444341E+03</rscale>
<asrwt>0</asrwt>
<pdfrwt beam="1">  1        2 0.63126342E-01 0.63444341E+03</pdfrwt>
<pdfrwt beam="2">  1       -2 0.32532623E-01 0.63444341E+03</pdfrwt>
<totfact> 0.68378723E+02</totfact>
</mgrwt>
</event>
<event>
 4    1  0.5900026E-005  0.4319653E+03  0.7818608E-02  0.1033241E+00
          2   -1    0    0  501    0  0.00000000000E+00  0.00000000000E+00  0.19355839277E+04  0.19355839277E+04  0.25500000000E-02 0.  1.
         -2   -1    0    0    0  501 -0.00000000000E+00 -0.00000000000E+00 -0.24100487094E+02  0.24100487229E+02  0.25500000000E-02 0. -1.
    5000001    1    1    2    0    0  0.91667155709E+02  0.27453356450E+02  0.84205658093E+03  0.86895330122E+03  0.19200000000E+03 0.  0.
   -5000001    1    1    2    0    0 -0.91667155709E+02 -0.27453356450E+02  0.10694268597E+04  0.10907311137E+04  0.19200000000E+03 0.  0.
<mgrwt>
<rscale>  0 0.43196535E+03</rscale>
<asrwt>0</asrwt>
<pdfrwt beam="1">  1        2 0.27651208E+00 0.43196535E+03</pdfrwt>
<pdfrwt beam="2">  1       -2 0.34429256E-02 0.43196535E+03</pdfrwt>
<totfact> 0.32615557E+03</totfact>
</mgrwt>
</event>
<event>
 4    1  0.5900026E-005  0.5402407E+03  0.7818608E-02  0.1003778E+00
         -2   -1    0    0    0  501 -0.00000000000E+00  0.00000000000E+00  0.72629669449E+03  0.72629669450E+03  0.25500000000E-02 0. -1.
          2   -1    0    0  501    0  0.00000000000E+00 -0.00000000000E+00 -0.10046168719E+03  0.10046168722E+03  0.25500000000E-02 0.  1.
    5000001    1    1    2    0    0 -0.56345880296E+02  0.16881956485E+03  0.41473006137E+03  0.49044870018E+03  0.19200000000E+03 0.  0.
   -5000001    1    1    2    0    0  0.56345880296E+02 -0.16881956485E+03  0.21110494594E+03  0.33630968154E+03  0.19200000000E+03 0.  0.
<mgrwt>
<rscale>  0 0.54024066E+03</rscale>
<asrwt>0</asrwt>
<pdfrwt beam="1">  1        2 0.14351669E-01 0.54024066E+03</pdfrwt>
<pdfrwt beam="2">  1       -2 0.10375667E+00 0.54024066E+03</pdfrwt>
<totfact> 0.32387195E+02</totfact>
</mgrwt>
</event>
<event>
 4    1  0.5900026E-005  0.4291850E+03  0.7818608E-02  0.1034118E+00
         -2   -1    0    0    0  501 -0.00000000000E+00  0.00000000000E+00  0.28813609520E+03  0.28813609521E+03  0.25500000000E-02 0. -1.
          2   -1    0    0  501    0  0.00000000000E+00 -0.00000000000E+00 -0.15982011998E+03  0.15982012000E+03  0.25500000000E-02 0.  1.
    5000001    1    1    2    0    0 -0.80363345482E+02 -0.29559566954E+02  0.10909822241E+03  0.23685112925E+03  0.19200000000E+03 0.  0.
   -5000001    1    1    2    0    0  0.80363345482E+02  0.29559566954E+02  0.19217752815E+02  0.21110508596E+03  0.19200000000E+03 0.  0.
<mgrwt>
<rscale>  0 0.42918502E+03</rscale>
<asrwt>0</asrwt>
<pdfrwt beam="1">  1        2 0.22831446E-01 0.42918502E+03</pdfrwt>
<pdfrwt beam="2">  1       -2 0.41162299E-01 0.42918502E+03</pdfrwt>
<totfact> 0.13556904E+03</totfact>
</mgrwt>
</event>
<event>
 4    1  0.5900026E-005  0.5336270E+03  0.7818608E-02  0.1005356E+00
          2   -1    0    0  501    0  0.00000000000E+00  0.00000000000E+00  0.21549613347E+03  0.21549613349E+03  0.25500000000E-02 0.  1.
         -2   -1    0    0    0  501 -0.00000000000E+00 -0.00000000000E+00 -0.33035136667E+03  0.33035136668E+03  0.25500000000E-02 0. -1.
    5000001    1    1    2    0    0  0.91985151579E+02 -0.15730545082E+03 -0.91647727921E+02  0.28012422066E+03  0.19200000000E+03 0.  0.
   -5000001    1    1    2    0    0 -0.91985151579E+02  0.15730545082E+03 -0.23207505278E+02  0.26572327950E+03  0.19200000000E+03 0.  0.
<mgrwt>
<rscale>  0 0.53362699E+03</rscale>
<asrwt>0</asrwt>
<pdfrwt beam="1">  1        2 0.30785162E-01 0.53362699E+03</pdfrwt>
<pdfrwt beam="2">  1       -2 0.47193052E-01 0.53362699E+03</pdfrwt>
<totfact> 0.73929409E+02</totfact>
</mgrwt>
</event>
<event>
 4    1  0.5900026E-005  0.4198845E+03  0.7818608E-02  0.1037104E+00
         -2   -1    0    0    0  501 -0.00000000000E+00  0.00000000000E+00  0.11927517314E+03  0.11927517316E+03  0.25500000000E-02 0. -1.
          2   -1    0    0  501    0  0.00000000000E+00 -0.00000000000E+00 -0.36953001528E+03  0.36953001529E+03  0.25500000000E-02 0.  1.
    5000001    1    1    2    0    0  0.22120380491E+02 -0.28193081923E+02 -0.21475572990E+03  0.29028982866E+03  0.19200000000E+03 0.  0.
   -5000001    1    1    2    0    0 -0.22120380491E+02  0.28193081923E+02 -0.35499112246E+02  0.19851535979E+03  0.19200000000E+03 0.  0.
<mgrwt>
<rscale>  0 0.41988454E+03</rscale>
<asrwt>0</asrwt>
<pdfrwt beam="1">  1        2 0.52790002E-01 0.41988454E+03</pdfrwt>
<pdfrwt beam="2">  1       -2 0.17039311E-01 0.41988454E+03</pdfrwt>
<totfact> 0.26300500E+03</totfact>
</mgrwt>
</event>
<event>
 4    1  0.5900026E-005  0.5955764E+03  0.7818608E-02  0.9914626E-01
         -2   -1    0    0    0  501 -0.00000000000E+00  0.00000000000E+00  0.56463863248E+03  0.56463863248E+03  0.25500000000E-02 0. -1.
          2   -1    0    0  501    0  0.00000000000E+00 -0.00000000000E+00 -0.15705234339E+03  0.15705234341E+03  0.25500000000E-02 0.  1.
    5000001    1    1    2    0    0 -0.35753210735E+02 -0.10496962448E+03 -0.37089351397E+02  0.22480332322E+03  0.19200000000E+03 0.  0.
   -5000001    1    1    2    0    0  0.35753210735E+02  0.10496962448E+03  0.44467564048E+03  0.49688765267E+03  0.19200000000E+03 0.  0.
<mgrwt>
<rscale>  0 0.59557643E+03</rscale>
<asrwt>0</asrwt>
<pdfrwt beam="1">  1        2 0.22436049E-01 0.59557643E+03</pdfrwt>
<pdfrwt beam="2">  1       -2 0.80662663E-01 0.59557643E+03</pdfrwt>
<totfact> 0.34048661E+02</totfact>
</mgrwt>
</event>
<event>
 4    1  0.5900026E-005  0.5128703E+03  0.7818608E-02  0.1010473E+00
          2   -1    0    0  501    0  0.00000000000E+00  0.00000000000E+00  0.85894141739E+03  0.85894141740E+03  0.25500000000E-02 0.  1.
         -2   -1    0    0    0  501 -0.00000000000E+00 -0.00000000000E+00 -0.76558177412E+02  0.76558177454E+02  0.25500000000E-02 0. -1.
    5000001    1    1    2    0    0 -0.14226347491E+00 -0.12813251424E+03  0.18744443480E+03  0.29735059708E+03  0.19200000000E+03 0.  0.
   -5000001    1    1    2    0    0  0.14226347491E+00  0.12813251424E+03  0.59493880518E+03  0.63814899777E+03  0.19200000000E+03 0.  0.
<mgrwt>
<rscale>  0 0.51287031E+03</rscale>
<asrwt>0</asrwt>
<pdfrwt beam="1">  1        2 0.12270592E+00 0.51287031E+03</pdfrwt>
<pdfrwt beam="2">  1       -2 0.10936882E-01 0.51287031E+03</pdfrwt>
<totfact> 0.20533490E+03</totfact>
</mgrwt>
</event>
<event>
 4    1  0.5900026E-005  0.5583400E+03  0.7818608E-02  0.9995818E-01
          2   -1    0    0  501    0  0.00000000000E+00  0.00000000000E+00  0.45971171382E+03  0.45971171383E+03  0.25500000000E-02 0.  1.
         -2   -1    0    0    0  501 -0.00000000000E+00 -0.00000000000E+00 -0.16953209468E+03  0.16953209470E+03  0.25500000000E-02 0. -1.
    5000001    1    1    2    0    0  0.70260114341E+02 -0.14396420692E+03  0.28498973565E+03  0.37913760822E+03  0.19200000000E+03 0.  0.
   -5000001    1    1    2    0    0 -0.70260114341E+02  0.14396420692E+03  0.51898834906E+01  0.25010620030E+03  0.19200000000E+03 0.  0.
<mgrwt>
<rscale>  0 0.55834000E+03</rscale>
<asrwt>0</asrwt>
<pdfrwt beam="1">  1        2 0.65673102E-01 0.55834000E+03</pdfrwt>
<pdfrwt beam="2">  1       -2 0.24218871E-01 0.55834000E+03</pdfrwt>
<totfact> 0.11228191E+03</totfact>
</mgrwt>
</event>
<event>
 4    1  0.5900026E-005  0.4761366E+03  0.7818608E-02  0.1020202E+00
          2   -1    0    0  501    0  0.00000000000E+00  0.00000000000E+00  0.17657918128E+04  0.17657918128E+04  0.25500000000E-02 0.  1.
         -2   -1    0    0    0  501 -0.00000000000E+00 -0.00000000000E+00 -0.32096945557E+02  0.32096945658E+02  0.25500000000E-02 0. -1.
    5000001    1    1    2    0    0  0.93600644111E+02 -0.84043692845E+02  0.11053067458E+04  0.11288894654E+04  0.19200000000E+03 0.  0.
   -5000001    1    1    2    0    0 -0.93600644111E+02  0.84043692845E+02  0.62838812150E+03  0.66899929307E+03  0.19200000000E+03 0.  0.
<mgrwt>
<rscale>  0 0.47613663E+03</rscale>
<asrwt>0</asrwt>
<pdfrwt beam="1">  1        2 0.25225603E+00 0.47613663E+03</pdfrwt>
<pdfrwt beam="2">  1       -2 0.45852769E-02 0.47613663E+03</pdfrwt>
<totfact> 0.25573853E+03</totfact>
</mgrwt>
</event>
<event>
 4    1  0.5900026E-005  0.8617944E+03  0.7818608E-02  0.9474642E-01
          2   -1    0    0  501    0  0.00000000000E+00  0.00000000000E+00  0.40396872052E+04  0.40396872052E+04  0.25500000000E-02 0.  1.
         -2   -1    0    0    0  501 -0.00000000000E+00 -0.00000000000E+00 -0.45962073641E+02  0.45962073711E+02  0.25500000000E-02 0. -1.
    5000001    1    1    2    0    0 -0.30772179887E+03  0.23183650018E+03  0.19059748124E+04  0.19539817946E+04  0.19200000000E+03 0.  0.
   -5000001    1    1    2    0    0  0.30772179887E+03 -0.23183650018E+03  0.20877503192E+04  0.21316674843E+04  0.19200000000E+03 0.  0.
<mgrwt>
<rscale>  0 0.86179441E+03</rscale>
<asrwt>0</asrwt>
<pdfrwt beam="1">  1        2 0.57709778E+00 0.86179441E+03</pdfrwt>
<pdfrwt beam="2">  1       -2 0.65660150E-02 0.86179441E+03</pdfrwt>
<totfact> 0.77173318E+01</totfact>
</mgrwt>
</event>
<event>
 4    1  0.5900026E-005  0.6637372E+03  0.7818608E-02  0.9781338E-01
          2   -1    0    0  501    0  0.00000000000E+00  0.00000000000E+00  0.65307615307E+03  0.65307615307E+03  0.25500000000E-02 0.  1.
         -2   -1    0    0    0  501 -0.00000000000E+00 -0.00000000000E+00 -0.16864304770E+03  0.16864304772E+03  0.25500000000E-02 0. -1.
    5000001    1    1    2    0    0 -0.15388241298E+02  0.21597403068E+03  0.41095908330E+02  0.29229172684E+03  0.19200000000E+03 0.  0.
   -5000001    1    1    2    0    0  0.15388241298E+02 -0.21597403068E+03  0.44333719704E+03  0.52942747395E+03  0.19200000000E+03 0.  0.
<mgrwt>
<rscale>  0 0.66373716E+03</rscale>
<asrwt>0</asrwt>
<pdfrwt beam="1">  1        2 0.93296593E-01 0.66373716E+03</pdfrwt>
<pdfrwt beam="2">  1       -2 0.24091864E-01 0.66373716E+03</pdfrwt>
<totfact> 0.75350639E+02</totfact>
</mgrwt>
</event>
<event>
 4    1  0.5900026E-005  0.5867964E+03  0.7818608E-02  0.9933184E-01
         -2   -1    0    0    0  501 -0.00000000000E+00  0.00000000000E+00  0.14040901904E+03  0.14040901906E+03  0.25500000000E-02 0. -1.
          2   -1    0    0  501    0  0.00000000000E+00 -0.00000000000E+00 -0.61308378562E+03  0.61308378563E+03  0.25500000000E-02 0.  1.
    5000001    1    1    2    0    0  0.17967085135E+03  0.31328957312E+02 -0.39853527238E+03  0.47849501745E+03  0.19200000000E+03 0.  0.
   -5000001    1    1    2    0    0 -0.17967085135E+03 -0.31328957312E+02 -0.74139494204E+02  0.27499778725E+03  0.19200000000E+03 0.  0.
<mgrwt>
<rscale>  0 0.58679636E+03</rscale>
<asrwt>0</asrwt>
<pdfrwt beam="1">  1        2 0.87583397E-01 0.58679636E+03</pdfrwt>
<pdfrwt beam="2">  1       -2 0.20058431E-01 0.58679636E+03</pdfrwt>
<totfact> 0.11242189E+03</totfact>
</mgrwt>
</event>
<event>
 4    1  0.5900026E-005  0.4008478E+03  0.7818608E-02  0.1043486E+00
         -2   -1    0    0    0  501 -0.00000000000E+00  0.00000000000E+00  0.63925083578E+03  0.63925083579E+03  0.25500000000E-02 0. -1.
          2   -1    0    0  501    0  0.00000000000E+00 -0.00000000000E+00 -0.62838785576E+02  0.62838785628E+02  0.25500000000E-02 0.  1.
    5000001    1    1    2    0    0 -0.37732162792E+02  0.43056256481E+02  0.27890668820E+03  0.34341010185E+03  0.19200000000E+03 0.  0.
   -5000001    1    1    2    0    0  0.37732162792E+02 -0.43056256481E+02  0.29750536201E+03  0.35867951957E+03  0.19200000000E+03 0.  0.
<mgrwt>
<rscale>  0 0.40084783E+03</rscale>
<asrwt>0</asrwt>
<pdfrwt beam="1">  1        2 0.89769694E-02 0.40084783E+03</pdfrwt>
<pdfrwt beam="2">  1       -2 0.91321548E-01 0.40084783E+03</pdfrwt>
<totfact> 0.78219324E+02</totfact>
</mgrwt>
</event>
<event>
 4    1  0.5900026E-005  0.1211351E+04  0.7818608E-02  0.9102979E-01
         -2   -1    0    0    0  501 -0.00000000000E+00  0.00000000000E+00  0.14427601939E+03  0.14427601941E+03  0.25500000000E-02 0. -1.
          2   -1    0    0  501    0  0.00000000000E+00 -0.00000000000E+00 -0.25426452235E+04  0.25426452235E+04  0.25500000000E-02 0.  1.
    5000001    1    1    2    0    0  0.16010835401E+01  0.57113118205E+03 -0.10627145090E+04  0.12216462328E+04  0.19200000000E+03 0.  0.
   -5000001    1    1    2    0    0 -0.16010835401E+01 -0.57113118205E+03 -0.13356546951E+04  0.14652750101E+04  0.19200000000E+03 0.  0.
<mgrwt>
<rscale>  0 0.12113509E+04</rscale>
<asrwt>0</asrwt>
<pdfrwt beam="1">  1        2 0.36323500E+00 0.12113509E+04</pdfrwt>
<pdfrwt beam="2">  1       -2 0.20610861E-01 0.12113509E+04</pdfrwt>
<totfact> 0.84070484E+01</totfact>
</mgrwt>
</event>
<event>
 4    1  0.5900026E-005  0.6037187E+03  0.7818608E-02  0.9897721E-01
         -2   -1    0    0    0  501 -0.00000000000E+00  0.00000000000E+00  0.48939624638E+03  0.48939624639E+03  0.25500000000E-02 0. -1.
          2   -1    0    0  501    0  0.00000000000E+00 -0.00000000000E+00 -0.18618667905E+03  0.18618667907E+03  0.25500000000E-02 0.  1.
    5000001    1    1    2    0    0  0.15622637674E+03  0.16603509098E+03  0.98162999028E+02  0.31380616087E+03  0.19200000000E+03 0.  0.
   -5000001    1    1    2    0    0 -0.15622637674E+03 -0.16603509098E+03  0.20504656830E+03  0.36177676459E+03  0.19200000000E+03 0.  0.
<mgrwt>
<rscale>  0 0.60371868E+03</rscale>
<asrwt>0</asrwt>
<pdfrwt beam="1">  1        2 0.26598097E-01 0.60371868E+03</pdfrwt>
<pdfrwt beam="2">  1       -2 0.69913749E-01 0.60371868E+03</pdfrwt>
<totfact> 0.38407025E+02</totfact>
</mgrwt>
</event>
<event>
 4    1  0.5900026E-005  0.5278735E+03  0.7818608E-02  0.1006749E+00
         -2   -1    0    0    0  501 -0.00000000000E+00  0.00000000000E+00  0.26042324800E+03  0.26042324801E+03  0.25500000000E-02 0. -1.
          2   -1    0    0  501    0  0.00000000000E+00 -0.00000000000E+00 -0.26749760658E+03  0.26749760659E+03  0.25500000000E-02 0.  1.
    5000001    1    1    2    0    0  0.14910994663E+03 -0.39231459629E+02 -0.98549457351E+02  0.26523363126E+03  0.19200000000E+03 0.  0.
   -5000001    1    1    2    0    0 -0.14910994663E+03  0.39231459629E+02  0.91475098767E+02  0.26268722334E+03  0.19200000000E+03 0.  0.
<mgrwt>
<rscale>  0 0.52787345E+03</rscale>
<asrwt>0</asrwt>
<pdfrwt beam="1">  1        2 0.38213944E-01 0.52787345E+03</pdfrwt>
<pdfrwt beam="2">  1       -2 0.37203321E-01 0.52787345E+03</pdfrwt>
<totfact> 0.92555248E+02</totfact>
</mgrwt>
</event>
<event>
 4    1  0.5900026E-005  0.4456885E+03  0.7818608E-02  0.1029016E+00
         -2   -1    0    0    0  501 -0.00000000000E+00  0.00000000000E+00  0.34644067881E+03  0.34644067882E+03  0.25500000000E-02 0.  1.
          2   -1    0    0  501    0  0.00000000000E+00 -0.00000000000E+00 -0.14334217473E+03  0.14334217475E+03  0.25500000000E-02 0. -1.
    5000001    1    1    2    0    0 -0.10790946089E+03  0.55241844559E+01  0.64762122848E+02  0.22963688928E+03  0.19200000000E+03 0.  0.
   -5000001    1    1    2    0    0  0.10790946089E+03 -0.55241844559E+01  0.13833638123E+03  0.26014596429E+03  0.19200000000E+03 0.  0.
<mgrwt>
<rscale>  0 0.44568850E+03</rscale>
<asrwt>0</asrwt>
<pdfrwt beam="1">  1        2 0.20477454E-01 0.44568850E+03</pdfrwt>
<pdfrwt beam="2">  1       -2 0.49491525E-01 0.44568850E+03</pdfrwt>
<totfact> 0.10682532E+03</totfact>
</mgrwt>
</event>
<event>
 4    1  0.5900026E-005  0.7180395E+03  0.7818608E-02  0.9686870E-01
          2   -1    0    0  501    0  0.00000000000E+00  0.00000000000E+00  0.61467878902E+03  0.61467878902E+03  0.25500000000E-02 0.  1.
         -2   -1    0    0    0  501 -0.00000000000E+00 -0.00000000000E+00 -0.20969515932E+03  0.20969515934E+03  0.25500000000E-02 0. -1.
    5000001    1    1    2    0    0  0.26423696332E+03 -0.12004181085E+03  0.10109552494E+03  0.36237482570E+03  0.19200000000E+03 0.  0.
   -5000001    1    1    2    0    0 -0.26423696332E+03  0.12004181085E+03  0.30388810475E+03  0.46199912267E+03  0.19200000000E+03 0.  0.
<mgrwt>
<rscale>  0 0.71803946E+03</rscale>
<asrwt>0</asrwt>
<pdfrwt beam="1">  1        2 0.87811253E-01 0.71803946E+03</pdfrwt>
<pdfrwt beam="2">  1       -2 0.29956452E-01 0.71803946E+03</pdfrwt>
<totfact> 0.54422176E+02</totfact>
</mgrwt>
</event>
<event>
 4    1  0.5900026E-005  0.4683354E+03  0.7818608E-02  0.1022391E+00
         -2   -1    0    0    0  501 -0.00000000000E+00  0.00000000000E+00  0.50823333964E+02  0.50823334028E+02  0.25500000000E-02 0. -1.
          2   -1    0    0  501    0  0.00000000000E+00 -0.00000000000E+00 -0.10789240137E+04  0.10789240137E+04  0.25500000000E-02 0.  1.
    5000001    1    1    2    0    0 -0.11148791560E+03  0.73776985086E+02 -0.49018032945E+03  0.54315131799E+03  0.19200000000E+03 0.  0.
   -5000001    1    1    2    0    0  0.11148791560E+03 -0.73776985086E+02 -0.53792035025E+03  0.58659602970E+03  0.19200000000E+03 0.  0.
<mgrwt>
<rscale>  0 0.46833542E+03</rscale>
<asrwt>0</asrwt>
<pdfrwt beam="1">  1        2 0.15413199E+00 0.46833542E+03</pdfrwt>
<pdfrwt beam="2">  1       -2 0.72604769E-02 0.46833542E+03</pdfrwt>
<totfact> 0.28930328E+03</totfact>
</mgrwt>
</event>
<event>
 4    1  0.5900026E-005  0.5796824E+03  0.7818608E-02  0.9948479E-01
          2   -1    0    0  501    0  0.00000000000E+00  0.00000000000E+00  0.13800817178E+03  0.13800817180E+03  0.25500000000E-02 0.  1.
         -2   -1    0    0    0  501 -0.00000000000E+00 -0.00000000000E+00 -0.60871694251E+03  0.60871694252E+03  0.25500000000E-02 0. -1.
    5000001    1    1    2    0    0  0.12709614439E+03 -0.23069911738E+02 -0.46016831792E+03  0.51507720932E+03  0.19200000000E+03 0.  0.
   -5000001    1    1    2    0    0 -0.12709614439E+03  0.23069911738E+02 -0.10540452817E+02  0.23164790500E+03  0.19200000000E+03 0.  0.
<mgrwt>
<rscale>  0 0.57968237E+03</rscale>
<asrwt>0</asrwt>
<pdfrwt beam="1">  1        2 0.19715453E-01 0.57968237E+03</pdfrwt>
<pdfrwt beam="2">  1       -2 0.86959562E-01 0.57968237E+03</pdfrwt>
<totfact> 0.33405590E+02</totfact>
</mgrwt>
</event>
<event>
 4    1  0.5900026E-005  0.4255454E+03  0.7818608E-02  0.1035276E+00
          2   -1    0    0  501    0  0.00000000000E+00  0.00000000000E+00  0.59672887017E+03  0.59672887017E+03  0.25500000000E-02 0.  1.
         -2   -1    0    0    0  501 -0.00000000000E+00 -0.00000000000E+00 -0.75867318776E+02  0.75867318819E+02  0.25500000000E-02 0. -1.
    5000001    1    1    2    0    0 -0.73056507681E+02  0.46772471957E+02  0.21345617288E+03  0.29992074818E+03  0.19200000000E+03 0.  0.
   -5000001    1    1    2    0    0  0.73056507681E+02 -0.46772471957E+02  0.30740537851E+03  0.37267544082E+03  0.19200000000E+03 0.  0.
<mgrwt>
<rscale>  0 0.42554539E+03</rscale>
<asrwt>0</asrwt>
<pdfrwt beam="1">  1        2 0.85246985E-01 0.42554539E+03</pdfrwt>
<pdfrwt beam="2">  1       -2 0.10838188E-01 0.42554539E+03</pdfrwt>
<totfact> 0.32511561E+03</totfact>
</mgrwt>
</event>
<event>
 4    1  0.5900026E-005  0.6284359E+03  0.7818608E-02  0.9848106E-01
         -2   -1    0    0    0  501 -0.00000000000E+00  0.00000000000E+00  0.34937807093E+02  0.34937807186E+02  0.25500000000E-02 0.  1.
          2   -1    0    0  501    0  0.00000000000E+00 -0.00000000000E+00 -0.28259617186E+04  0.28259617186E+04  0.25500000000E-02 0. -1.
    5000001    1    1    2    0    0  0.22181882775E+03 -0.11248453863E+03 -0.13793898967E+04  0.14147214746E+04  0.19200000000E+03 0.  0.
   -5000001    1    1    2    0    0 -0.22181882775E+03  0.11248453863E+03 -0.14116340148E+04  0.14461780511E+04  0.19200000000E+03 0.  0.
<mgrwt>
<rscale>  0 0.62843585E+03</rscale>
<asrwt>0</asrwt>
<pdfrwt beam="1">  1        2 0.40370867E+00 0.62843585E+03</pdfrwt>
<pdfrwt beam="2">  1       -2 0.49911171E-02 0.62843585E+03</pdfrwt>
<totfact> 0.64221414E+02</totfact>
</mgrwt>
</event>
<event>
 4    1  0.5900026E-005  0.4422097E+03  0.7818608E-02  0.1030071E+00
          2   -1    0    0  501    0  0.00000000000E+00  0.00000000000E+00  0.46824370864E+02  0.46824370933E+02  0.25500000000E-02 0.  1.
         -2   -1    0    0    0  501 -0.00000000000E+00 -0.00000000000E+00 -0.10440580985E+04  0.10440580985E+04  0.25500000000E-02 0. -1.
    5000001    1    1    2    0    0  0.57999514897E+02 -0.93012024073E+02 -0.50567376022E+03  0.55189231932E+03  0.19200000000E+03 0.  0.
   -5000001    1    1    2    0    0 -0.57999514897E+02  0.93012024073E+02 -0.49155996737E+03  0.53899015007E+03  0.19200000000E+03 0.  0.
<mgrwt>
<rscale>  0 0.44220974E+03</rscale>
<asrwt>0</asrwt>
<pdfrwt beam="1">  1        2 0.66891965E-02 0.44220974E+03</pdfrwt>
<pdfrwt beam="2">  1       -2 0.14915114E+00 0.44220974E+03</pdfrwt>
<totfact> 0.34599863E+02</totfact>
</mgrwt>
</event>
<event>
 4    1  0.5900026E-005  0.4698482E+03  0.7818608E-02  0.1021963E+00
          2   -1    0    0  501    0  0.00000000000E+00  0.00000000000E+00  0.31281958623E+04  0.31281958623E+04  0.25500000000E-02 0.  1.
         -2   -1    0    0    0  501 -0.00000000000E+00 -0.00000000000E+00 -0.17642543055E+02  0.17642543239E+02  0.25500000000E-02 0. -1.
    5000001    1    1    2    0    0  0.35962114578E+02  0.12432547339E+03  0.12895400953E+04  0.13101632549E+04  0.19200000000E+03 0.  0.
   -5000001    1    1    2    0    0 -0.35962114578E+02 -0.12432547339E+03  0.18210132239E+04  0.18356751506E+04  0.19200000000E+03 0.  0.
<mgrwt>
<rscale>  0 0.46984819E+03</rscale>
<asrwt>0</asrwt>
<pdfrwt beam="1">  1        2 0.44688512E+00 0.46984819E+03</pdfrwt>
<pdfrwt beam="2">  1       -2 0.25203633E-02 0.46984819E+03</pdfrwt>
<totfact> 0.12692715E+03</totfact>
</mgrwt>
</event>
<event>
 4    1  0.5900026E-005  0.4685514E+03  0.7818608E-02  0.1022330E+00
         -2   -1    0    0    0  501 -0.00000000000E+00  0.00000000000E+00  0.52536859699E+03  0.52536859699E+03  0.25500000000E-02 0. -1.
          2   -1    0    0  501    0  0.00000000000E+00 -0.00000000000E+00 -0.10446969028E+03  0.10446969031E+03  0.25500000000E-02 0.  1.
    5000001    1    1    2    0    0 -0.78394887190E+02 -0.35887801745E+02  0.72135321799E+02  0.22248864533E+03  0.19200000000E+03 0.  0.
   -5000001    1    1    2    0    0  0.78394887190E+02  0.35887801745E+02  0.34876358491E+03  0.40734964197E+03  0.19200000000E+03 0.  0.
<mgrwt>
<rscale>  0 0.46855136E+03</rscale>
<asrwt>0</asrwt>
<pdfrwt beam="1">  1        2 0.14924241E-01 0.46855136E+03</pdfrwt>
<pdfrwt beam="2">  1       -2 0.75052657E-01 0.46855136E+03</pdfrwt>
<totfact> 0.64738833E+02</totfact>
</mgrwt>
</event>
<event>
 4    1  0.5900026E-005  0.9924696E+03  0.7818608E-02  0.9316843E-01
          2   -1    0    0  501    0  0.00000000000E+00  0.00000000000E+00  0.14904791646E+04  0.14904791646E+04  0.25500000000E-02 0.  1.
         -2   -1    0    0    0  501 -0.00000000000E+00 -0.00000000000E+00 -0.16521464176E+03  0.16521464178E+03  0.25500000000E-02 0. -1.
    5000001    1    1    2    0    0 -0.23477472525E+03 -0.13007121666E+03  0.44369837985E+02  0.33297203417E+03  0.19200000000E+03 0.  0.
   -5000001    1    1    2    0    0  0.23477472525E+03  0.13007121666E+03  0.12808946848E+04  0.13227217722E+04  0.19200000000E+03 0.  0.
<mgrwt>
<rscale>  0 0.99246961E+03</rscale>
<asrwt>0</asrwt>
<pdfrwt beam="1">  1        2 0.21292560E+00 0.99246961E+03</pdfrwt>
<pdfrwt beam="2">  1       -2 0.23602091E-01 0.99246961E+03</pdfrwt>
<totfact> 0.23457396E+02</totfact>
</mgrwt>
</event>
<event>
 4    1  0.5900026E-005  0.4174176E+03  0.7818608E-02  0.1037910E+00
          2   -1    0    0  501    0  0.00000000000E+00  0.00000000000E+00  0.10787475148E+04  0.10787475148E+04  0.25500000000E-02 0.  1.
         -2   -1    0    0    0  501 -0.00000000000E+00 -0.00000000000E+00 -0.40379576528E+02  0.40379576609E+02  0.25500000000E-02 0. -1.
    5000001    1    1    2    0    0 -0.44966550148E+02 -0.60779551659E+02  0.60308156344E+03  0.63740686904E+03  0.19200000000E+03 0.  0.
   -5000001    1    1    2    0    0  0.44966550148E+02  0.60779551659E+02  0.43528637483E+03  0.48172022238E+03  0.19200000000E+03 0.  0.
<mgrwt>
<rscale>  0 0.41741762E+03</rscale>
<asrwt>0</asrwt>
<pdfrwt beam="1">  1        2 0.15410677E+00 0.41741762E+03</pdfrwt>
<pdfrwt beam="2">  1       -2 0.57685117E-02 0.41741762E+03</pdfrwt>
<totfact> 0.41417071E+03</totfact>
</mgrwt>
</event>
<event>
 4    1  0.5900026E-005  0.5572805E+03  0.7818608E-02  0.9998227E-01
          2   -1    0    0  501    0  0.00000000000E+00  0.00000000000E+00  0.39102434590E+03  0.39102434591E+03  0.25500000000E-02 0.  1.
         -2   -1    0    0    0  501 -0.00000000000E+00 -0.00000000000E+00 -0.19855640622E+03  0.19855640624E+03  0.25500000000E-02 0. -1.
    5000001    1    1    2    0    0  0.15755751743E+03 -0.90043865771E+02  0.18993439456E+03  0.32537876897E+03  0.19200000000E+03 0.  0.
   -5000001    1    1    2    0    0 -0.15755751743E+03  0.90043865771E+02  0.25335451222E+01  0.26420198318E+03  0.19200000000E+03 0.  0.
<mgrwt>
<rscale>  0 0.55728050E+03</rscale>
<asrwt>0</asrwt>
<pdfrwt beam="1">  1        2 0.55860620E-01 0.55728050E+03</pdfrwt>
<pdfrwt beam="2">  1       -2 0.28365201E-01 0.55728050E+03</pdfrwt>
<totfact> 0.10108520E+03</totfact>
</mgrwt>
</event>
<event>
 4    1  0.5900026E-005  0.4722187E+03  0.7818608E-02  0.1021296E+00
         -2   -1    0    0    0  501 -0.00000000000E+00  0.00000000000E+00  0.53758121678E+02  0.53758121739E+02  0.25500000000E-02 0. -1.
          2   -1    0    0  501    0  0.00000000000E+00 -0.00000000000E+00 -0.10370085042E+04  0.10370085042E+04  0.25500000000E-02 0.  1.
    5000001    1    1    2    0    0  0.92565339277E+02  0.94178750689E+02 -0.57945061711E+03  0.62455183675E+03  0.19200000000E+03 0.  0.
   -5000001    1    1    2    0    0 -0.92565339277E+02 -0.94178750689E+02 -0.40379976542E+03  0.46621478920E+03  0.19200000000E+03 0.  0.
<mgrwt>
<rscale>  0 0.47221872E+03</rscale>
<asrwt>0</asrwt>
<pdfrwt beam="1">  1        2 0.14814406E+00 0.47221872E+03</pdfrwt>
<pdfrwt beam="2">  1       -2 0.76797323E-02 0.47221872E+03</pdfrwt>
<totfact> 0.28022409E+03</totfact>
</mgrwt>
</event>
<event>
 4    1  0.5900026E-005  0.1474568E+04  0.7818608E-02  0.8901543E-01
         -2   -1    0    0    0  501 -0.00000000000E+00  0.00000000000E+00  0.42641157008E+03  0.42641157009E+03  0.25500000000E-02 0. -1.
          2   -1    0    0  501    0  0.00000000000E+00 -0.00000000000E+00 -0.12747959968E+04  0.12747959968E+04  0.25500000000E-02 0.  1.
    5000001    1    1    2    0    0 -0.59280215083E+03 -0.39406288185E+03 -0.42982264816E+03  0.85341165550E+03  0.19200000000E+03 0.  0.
   -5000001    1    1    2    0    0  0.59280215083E+03  0.39406288185E+03 -0.41856177853E+03  0.84779591136E+03  0.19200000000E+03 0.  0.
<mgrwt>
<rscale>  0 0.14745681E+04</rscale>
<asrwt>0</asrwt>
<pdfrwt beam="1">  1        2 0.18211371E+00 0.14745681E+04</pdfrwt>
<pdfrwt beam="2">  1       -2 0.60915939E-01 0.14745681E+04</pdfrwt>
<totfact> 0.47146584E+01</totfact>
</mgrwt>
</event>
<event>
 4    1  0.5900026E-005  0.9950205E+03  0.7818608E-02  0.9314023E-01
          2   -1    0    0  501    0  0.00000000000E+00  0.00000000000E+00  0.43268825680E+04  0.43268825680E+04  0.25500000000E-02 0.  1.
         -2   -1    0    0    0  501 -0.00000000000E+00 -0.00000000000E+00 -0.57204335095E+02  0.57204335152E+02  0.25500000000E-02 0. -1.
    5000001    1    1    2    0    0  0.20257269191E+03 -0.24351093794E+03  0.35982713693E+04  0.36172854628E+04  0.19200000000E+03 0.  0.
   -5000001    1    1    2    0    0 -0.20257269191E+03  0.24351093794E+03  0.67140686364E+03  0.76680144036E+03  0.19200000000E+03 0.  0.
<mgrwt>
<rscale>  0 0.99502048E+03</rscale>
<asrwt>0</asrwt>
<pdfrwt beam="1">  1        2 0.61812605E+00 0.99502048E+03</pdfrwt>
<pdfrwt beam="2">  1       -2 0.81720482E-02 0.99502048E+03</pdfrwt>
<totfact> 0.33441917E+01</totfact>
</mgrwt>
</event>
<event>
 4    1  0.5900026E-005  0.7539390E+03  0.7818608E-02  0.9629191E-01
          2   -1    0    0  501    0  0.00000000000E+00  0.00000000000E+00  0.16285061975E+04  0.16285061975E+04  0.25500000000E-02 0.  1.
         -2   -1    0    0    0  501 -0.00000000000E+00 -0.00000000000E+00 -0.87261566294E+02  0.87261566332E+02  0.25500000000E-02 0. -1.
    5000001    1    1    2    0    0  0.29917838697E+02  0.24690426216E+03  0.12446384774E+04  0.12836844359E+04  0.19200000000E+03 0.  0.
   -5000001    1    1    2    0    0 -0.29917838697E+02 -0.24690426216E+03  0.29660615384E+03  0.43208332789E+03  0.19200000000E+03 0.  0.
<mgrwt>
<rscale>  0 0.75393899E+03</rscale>
<asrwt>0</asrwt>
<pdfrwt beam="1">  1        2 0.23264371E+00 0.75393899E+03</pdfrwt>
<pdfrwt beam="2">  1       -2 0.12465940E-01 0.75393899E+03</pdfrwt>
<totfact> 0.60435670E+02</totfact>
</mgrwt>
</event>
<event>
 4    1  0.5900026E-005  0.6675323E+03  0.7818608E-02  0.9774426E-01
          2   -1    0    0  501    0  0.00000000000E+00  0.00000000000E+00  0.10172952869E+04  0.10172952869E+04  0.25500000000E-02 0.  1.
         -2   -1    0    0    0  501 -0.00000000000E+00 -0.00000000000E+00 -0.10950590544E+03  0.10950590547E+03  0.25500000000E-02 0. -1.
    5000001    1    1    2    0    0  0.18009638916E+03  0.17367732527E+03  0.63832335123E+03  0.71198260051E+03  0.19200000000E+03 0.  0.
   -5000001    1    1    2    0    0 -0.18009638916E+03 -0.17367732527E+03  0.26946603025E+03  0.41481859187E+03  0.19200000000E+03 0.  0.
<mgrwt>
<rscale>  0 0.66753230E+03</rscale>
<asrwt>0</asrwt>
<pdfrwt beam="1">  1        2 0.14532790E+00 0.66753230E+03</pdfrwt>
<pdfrwt beam="2">  1       -2 0.15643701E-01 0.66753230E+03</pdfrwt>
<totfact> 0.89824805E+02</totfact>
</mgrwt>
</event>
<event>
 4    1  0.5900026E-005  0.8987644E+03  0.7818608E-02  0.9427127E-01
          2   -1    0    0  501    0  0.00000000000E+00  0.00000000000E+00  0.21399028106E+04  0.21399028106E+04  0.25500000000E-02 0.  1.
         -2   -1    0    0    0  501 -0.00000000000E+00 -0.00000000000E+00 -0.94370818381E+02  0.94370818415E+02  0.25500000000E-02 0. -1.
    5000001    1    1    2    0    0  0.29577687418E+03  0.25072118416E+03  0.72100014753E+03  0.84086282129E+03  0.19200000000E+03 0.  0.
   -5000001    1    1    2    0    0 -0.29577687418E+03 -0.25072118416E+03  0.13245318447E+04  0.13934108077E+04  0.19200000000E+03 0.  0.
<mgrwt>
<rscale>  0 0.89876444E+03</rscale>
<asrwt>0</asrwt>
<pdfrwt beam="1">  1        2 0.30570040E+00 0.89876444E+03</pdfrwt>
<pdfrwt beam="2">  1       -2 0.13481546E-01 0.89876444E+03</pdfrwt>
<totfact> 0.28831123E+02</totfact>
</mgrwt>
</event>
<event>
 4    1  0.5900026E-005  0.5047522E+03  0.7818608E-02  0.1012546E+00
         -2   -1    0    0    0  501 -0.00000000000E+00  0.00000000000E+00  0.37763108831E+02  0.37763108917E+02  0.25500000000E-02 0. -1.
          2   -1    0    0  501    0  0.00000000000E+00 -0.00000000000E+00 -0.16866643654E+04  0.16866643654E+04  0.25500000000E-02 0.  1.
    5000001    1    1    2    0    0  0.15272742435E+03 -0.47010096159E+01 -0.10260440718E+04  0.10549778211E+04  0.19200000000E+03 0.  0.
   -5000001    1    1    2    0    0 -0.15272742435E+03  0.47010096159E+01 -0.62285718477E+03  0.66944965326E+03  0.19200000000E+03 0.  0.
<mgrwt>
<rscale>  0 0.50475218E+03</rscale>
<asrwt>0</asrwt>
<pdfrwt beam="1">  1        2 0.24095201E+00 0.50475218E+03</pdfrwt>
<pdfrwt beam="2">  1       -2 0.53947309E-02 0.50475218E+03</pdfrwt>
<totfact> 0.21793245E+03</totfact>
</mgrwt>
</event>
<event>
 4    1  0.5900026E-005  0.5875441E+03  0.7818608E-02  0.9931590E-01
          2   -1    0    0  501    0  0.00000000000E+00  0.00000000000E+00  0.13055621186E+03  0.13055621189E+03  0.25500000000E-02 0.  1.
         -2   -1    0    0    0  501 -0.00000000000E+00 -0.00000000000E+00 -0.66103339053E+03  0.66103339053E+03  0.25500000000E-02 0. -1.
    5000001    1    1    2    0    0 -0.21937216353E+03  0.13423017189E+02 -0.31060214976E+03  0.42619481339E+03  0.19200000000E+03 0.  0.
   -5000001    1    1    2    0    0  0.21937216353E+03 -0.13423017189E+02 -0.21987502890E+03  0.36539478904E+03  0.19200000000E+03 0.  0.
<mgrwt>
<rscale>  0 0.58754409E+03</rscale>
<asrwt>0</asrwt>
<pdfrwt beam="1">  1        2 0.18650888E-01 0.58754409E+03</pdfrwt>
<pdfrwt beam="2">  1       -2 0.94433340E-01 0.58754409E+03</pdfrwt>
<totfact> 0.29495082E+02</totfact>
</mgrwt>
</event>
<event>
 4    1  0.5900026E-005  0.6564755E+03  0.7818608E-02  0.9794704E-01
          2   -1    0    0  501    0  0.00000000000E+00  0.00000000000E+00  0.13784151940E+04  0.13784151940E+04  0.25500000000E-02 0.  1.
         -2   -1    0    0    0  501 -0.00000000000E+00 -0.00000000000E+00 -0.78162250324E+02  0.78162250365E+02  0.25500000000E-02 0. -1.
    5000001    1    1    2    0    0  0.81133688771E+02  0.44456736557E+02  0.12040096167E+04  0.12227273752E+04  0.19200000000E+03 0.  0.
   -5000001    1    1    2    0    0 -0.81133688771E+02 -0.44456736557E+02  0.96243326981E+02  0.23385006921E+03  0.19200000000E+03 0.  0.
<mgrwt>
<rscale>  0 0.65647554E+03</rscale>
<asrwt>0</asrwt>
<pdfrwt beam="1">  1        2 0.19691644E+00 0.65647554E+03</pdfrwt>
<pdfrwt beam="2">  1       -2 0.11166037E-01 0.65647554E+03</pdfrwt>
<totfact> 0.98461803E+02</totfact>
</mgrwt>
</event>
<event>
 4    1  0.5900026E-005  0.6472065E+03  0.7818608E-02  0.9812035E-01
         -2   -1    0    0    0  501 -0.00000000000E+00  0.00000000000E+00  0.15351278266E+03  0.15351278268E+03  0.25500000000E-02 0. -1.
          2   -1    0    0  501    0  0.00000000000E+00 -0.00000000000E+00 -0.68215202186E+03  0.68215202187E+03  0.25500000000E-02 0.  1.
    5000001    1    1    2    0    0  0.67965681900E+02 -0.23509938325E+03 -0.37954679495E+03  0.49072479403E+03  0.19200000000E+03 0.  0.
   -5000001    1    1    2    0    0 -0.67965681900E+02  0.23509938325E+03 -0.14909244426E+03  0.34494001051E+03  0.19200000000E+03 0.  0.
<mgrwt>
<rscale>  0 0.64720647E+03</rscale>
<asrwt>0</asrwt>
<pdfrwt beam="1">  1        2 0.97450287E-01 0.64720647E+03</pdfrwt>
<pdfrwt beam="2">  1       -2 0.21930398E-01 0.64720647E+03</pdfrwt>
<totfact> 0.84505607E+02</totfact>
</mgrwt>
</event>
<event>
 4    1  0.5900026E-005  0.6643424E+03  0.7818608E-02  0.9780233E-01
          2   -1    0    0  501    0  0.00000000000E+00  0.00000000000E+00  0.68639499088E+03  0.68639499089E+03  0.25500000000E-02 0.  1.
         -2   -1    0    0    0  501 -0.00000000000E+00 -0.00000000000E+00 -0.16074955643E+03  0.16074955645E+03  0.25500000000E-02 0. -1.
    5000001    1    1    2    0    0 -0.18712894009E+03 -0.14296708292E+03  0.43398385773E+03  0.52977619406E+03  0.19200000000E+03 0.  0.
   -5000001    1    1    2    0    0  0.18712894009E+03  0.14296708292E+03  0.91661576722E+02  0.31736835328E+03  0.19200000000E+03 0.  0.
<mgrwt>
<rscale>  0 0.66434235E+03</rscale>
<asrwt>0</asrwt>
<pdfrwt beam="1">  1        2 0.98056429E-01 0.66434235E+03</pdfrwt>
<pdfrwt beam="2">  1       -2 0.22964222E-01 0.66434235E+03</pdfrwt>
<totfact> 0.77268355E+02</totfact>
</mgrwt>
</event>
<event>
 4    1  0.5900026E-005  0.4951571E+03  0.7818608E-02  0.1015051E+00
          2   -1    0    0  501    0  0.00000000000E+00  0.00000000000E+00  0.12206904429E+04  0.12206904429E+04  0.25500000000E-02 0.  1.
         -2   -1    0    0    0  501 -0.00000000000E+00 -0.00000000000E+00 -0.50213493574E+02  0.50213493638E+02  0.25500000000E-02 0. -1.
    5000001    1    1    2    0    0  0.41393856688E+02  0.15052365996E+03  0.60517079337E+03  0.65380923267E+03  0.19200000000E+03 0.  0.
   -5000001    1    1    2    0    0 -0.41393856688E+02 -0.15052365996E+03  0.56530615597E+03  0.61709470388E+03  0.19200000000E+03 0.  0.
<mgrwt>
<rscale>  0 0.49515707E+03</rscale>
<asrwt>0</asrwt>
<pdfrwt beam="1">  1        2 0.17438434E+00 0.49515707E+03</pdfrwt>
<pdfrwt beam="2">  1       -2 0.71733564E-02 0.49515707E+03</pdfrwt>
<totfact> 0.24509144E+03</totfact>
</mgrwt>
</event>
<event>
 4    1  0.5900026E-005  0.6844743E+03  0.7818608E-02  0.9744158E-01
          2   -1    0    0  501    0  0.00000000000E+00  0.00000000000E+00  0.20505486774E+04  0.20505486774E+04  0.25500000000E-02 0.  1.
         -2   -1    0    0    0  501 -0.00000000000E+00 -0.00000000000E+00 -0.57119471182E+02  0.57119471239E+02  0.25500000000E-02 0. -1.
    5000001    1    1    2    0    0  0.19704802842E+03  0.15554918268E+02  0.37175273024E+03  0.46274612200E+03  0.19200000000E+03 0.  0.
   -5000001    1    1    2    0    0 -0.19704802842E+03 -0.15554918268E+02  0.16216764760E+04  0.16449220266E+04  0.19200000000E+03 0.  0.
<mgrwt>
<rscale>  0 0.68447427E+03</rscale>
<asrwt>0</asrwt>
<pdfrwt beam="1">  1        2 0.29293558E+00 0.68447427E+03</pdfrwt>
<pdfrwt beam="2">  1       -2 0.81599228E-02 0.68447427E+03</pdfrwt>
<totfact> 0.73827656E+02</totfact>
</mgrwt>
</event>
<event>
 4    1  0.5900026E-005  0.5247514E+03  0.7818608E-02  0.1007513E+00
          2   -1    0    0  501    0  0.00000000000E+00  0.00000000000E+00  0.73272858156E+03  0.73272858157E+03  0.25500000000E-02 0.  1.
         -2   -1    0    0    0  501 -0.00000000000E+00 -0.00000000000E+00 -0.93951564084E+02  0.93951564119E+02  0.25500000000E-02 0. -1.
    5000001    1    1    2    0    0  0.15713061627E+03 -0.84347711051E+02  0.34007513008E+03  0.42932465690E+03  0.19200000000E+03 0.  0.
   -5000001    1    1    2    0    0 -0.15713061627E+03  0.84347711051E+02  0.29870188740E+03  0.39735548878E+03  0.19200000000E+03 0.  0.
<mgrwt>
<rscale>  0 0.52475136E+03</rscale>
<asrwt>0</asrwt>
<pdfrwt beam="1">  1        2 0.10467551E+00 0.52475136E+03</pdfrwt>
<pdfrwt beam="2">  1       -2 0.13421652E-01 0.52475136E+03</pdfrwt>
<totfact> 0.17944291E+03</totfact>
</mgrwt>
</event>
<event>
 4    1  0.5900026E-005  0.7433498E+03  0.7818608E-02  0.9645842E-01
          2   -1    0    0  501    0  0.00000000000E+00  0.00000000000E+00  0.15623705092E+04  0.15623705092E+04  0.25500000000E-02 0.  1.
         -2   -1    0    0    0  501 -0.00000000000E+00 -0.00000000000E+00 -0.88418364310E+02  0.88418364347E+02  0.25500000000E-02 0. -1.
    5000001    1    1    2    0    0 -0.25844403402E+03  0.11058705852E+03  0.40568001730E+03  0.52958766287E+03  0.19200000000E+03 0.  0.
   -5000001    1    1    2    0    0  0.25844403402E+03 -0.11058705852E+03  0.10682721276E+04  0.11212012107E+04  0.19200000000E+03 0.  0.
<mgrwt>
<rscale>  0 0.74334984E+03</rscale>
<asrwt>0</asrwt>
<pdfrwt beam="1">  1        2 0.22319578E+00 0.74334984E+03</pdfrwt>
<pdfrwt beam="2">  1       -2 0.12631195E-01 0.74334984E+03</pdfrwt>
<totfact> 0.64018342E+02</totfact>
</mgrwt>
</event>
<event>
 4    1  0.5900026E-005  0.4766561E+03  0.7818608E-02  0.1020058E+00
         -2   -1    0    0    0  501 -0.00000000000E+00  0.00000000000E+00  0.18432354933E+03  0.18432354935E+03  0.25500000000E-02 0.  1.
          2   -1    0    0  501    0  0.00000000000E+00 -0.00000000000E+00 -0.30815515505E+03  0.30815515506E+03  0.25500000000E-02 0. -1.
    5000001    1    1    2    0    0 -0.11419480315E+03 -0.80568774728E+02 -0.41136726456E+02  0.24101454477E+03  0.19200000000E+03 0.  0.
   -5000001    1    1    2    0    0  0.11419480315E+03  0.80568774728E+02 -0.82694879265E+02  0.25146415964E+03  0.19200000000E+03 0.  0.
<mgrwt>
<rscale>  0 0.47665607E+03</rscale>
<asrwt>0</asrwt>
<pdfrwt beam="1">  1        2 0.44022165E-01 0.47665607E+03</pdfrwt>
<pdfrwt beam="2">  1       -2 0.26331936E-01 0.47665607E+03</pdfrwt>
<totfact> 0.15033980E+03</totfact>
</mgrwt>
</event>
<event>
 4    1  0.5900026E-005  0.8778690E+03  0.7818608E-02  0.9453677E-01
         -2   -1    0    0    0  501 -0.00000000000E+00  0.00000000000E+00  0.19226941719E+03  0.19226941721E+03  0.25500000000E-02 0. -1.
          2   -1    0    0  501    0  0.00000000000E+00 -0.00000000000E+00 -0.10020497140E+04  0.10020497140E+04  0.25500000000E-02 0.  1.
    5000001    1    1    2    0    0 -0.33337957837E+03  0.18097045595E+03 -0.55334577746E+03  0.69781645054E+03  0.19200000000E+03 0.  0.
   -5000001    1    1    2    0    0  0.33337957837E+03 -0.18097045595E+03 -0.25643451934E+03  0.49650268067E+03  0.19200000000E+03 0.  0.
<mgrwt>
<rscale>  0 0.87786904E+03</rscale>
<asrwt>0</asrwt>
<pdfrwt beam="1">  1        2 0.14314996E+00 0.87786904E+03</pdfrwt>
<pdfrwt beam="2">  1       -2 0.27467060E-01 0.87786904E+03</pdfrwt>
<totfact> 0.33817915E+02</totfact>
</mgrwt>
</event>
<event>
 4    1  0.5900026E-005  0.8879052E+03  0.7818608E-02  0.9440828E-01
          2   -1    0    0  501    0  0.00000000000E+00  0.00000000000E+00  0.26337705213E+04  0.26337705213E+04  0.25500000000E-02 0.  1.
         -2   -1    0    0    0  501 -0.00000000000E+00 -0.00000000000E+00 -0.74833372082E+02  0.74833372126E+02  0.25500000000E-02 0. -1.
    5000001    1    1    2    0    0  0.39580528246E+03 -0.96718979639E+01  0.10996523290E+04  0.11844216360E+04  0.19200000000E+03 0.  0.
   -5000001    1    1    2    0    0 -0.39580528246E+03  0.96718979639E+01  0.14592848203E+04  0.15241822575E+04  0.19200000000E+03 0.  0.
<mgrwt>
<rscale>  0 0.88790524E+03</rscale>
<asrwt>0</asrwt>
<pdfrwt beam="1">  1        2 0.37625291E+00 0.88790524E+03</pdfrwt>
<pdfrwt beam="2">  1       -2 0.10690482E-01 0.88790524E+03</pdfrwt>
<totfact> 0.23578810E+02</totfact>
</mgrwt>
</event>
<event>
 4    1  0.5900026E-005  0.4660802E+03  0.7818608E-02  0.1023032E+00
         -2   -1    0    0    0  501 -0.00000000000E+00  0.00000000000E+00  0.38636198079E+02  0.38636198163E+02  0.25500000000E-02 0. -1.
          2   -1    0    0  501    0  0.00000000000E+00 -0.00000000000E+00 -0.14056169967E+04  0.14056169967E+04  0.25500000000E-02 0.  1.
    5000001    1    1    2    0    0 -0.47081295517E+02  0.12283843241E+03 -0.64711927899E+03  0.68770145420E+03  0.19200000000E+03 0.  0.
   -5000001    1    1    2    0    0  0.47081295517E+02 -0.12283843241E+03 -0.71986151963E+03  0.75655174067E+03  0.19200000000E+03 0.  0.
<mgrwt>
<rscale>  0 0.46608024E+03</rscale>
<asrwt>0</asrwt>
<pdfrwt beam="1">  1        2 0.20080240E+00 0.46608024E+03</pdfrwt>
<pdfrwt beam="2">  1       -2 0.55194578E-02 0.46608024E+03</pdfrwt>
<totfact> 0.29361049E+03</totfact>
</mgrwt>
</event>
<event>
 4    1  0.5900026E-005  0.4776814E+03  0.7818608E-02  0.1019774E+00
          2   -1    0    0  501    0  0.00000000000E+00  0.00000000000E+00  0.79638256165E+02  0.79638256206E+02  0.25500000000E-02 0.  1.
         -2   -1    0    0    0  501 -0.00000000000E+00 -0.00000000000E+00 -0.71629999144E+03  0.71629999144E+03  0.25500000000E-02 0. -1.
    5000001    1    1    2    0    0 -0.17150697184E+02 -0.10808160304E+03 -0.16739826850E+03  0.27723989545E+03  0.19200000000E+03 0.  0.
   -5000001    1    1    2    0    0  0.17150697184E+02  0.10808160304E+03 -0.46926346677E+03  0.51869835220E+03  0.19200000000E+03 0.  0.
<mgrwt>
<rscale>  0 0.47768141E+03</rscale>
<asrwt>0</asrwt>
<pdfrwt beam="1">  1        2 0.11376894E-01 0.47768141E+03</pdfrwt>
<pdfrwt beam="2">  1       -2 0.10232857E+00 0.47768141E+03</pdfrwt>
<totfact> 0.44577077E+02</totfact>
</mgrwt>
</event>
<event>
 4    1  0.5900026E-005  0.4779441E+03  0.7818608E-02  0.1019702E+00
          2   -1    0    0  501    0  0.00000000000E+00  0.00000000000E+00  0.36497427675E+04  0.36497427675E+04  0.25500000000E-02 0.  1.
         -2   -1    0    0    0  501 -0.00000000000E+00 -0.00000000000E+00 -0.15647033779E+02  0.15647033987E+02  0.25500000000E-02 0. -1.
    5000001    1    1    2    0    0  0.75200180387E+02  0.10031281185E+03  0.23329847021E+04  0.23442268123E+04  0.19200000000E+03 0.  0.
   -5000001    1    1    2    0    0 -0.75200180387E+02 -0.10031281185E+03  0.13011110317E+04  0.13211629892E+04  0.19200000000E+03 0.  0.
<mgrwt>
<rscale>  0 0.47794413E+03</rscale>
<asrwt>0</asrwt>
<pdfrwt beam="1">  1        2 0.52139121E+00 0.47794413E+03</pdfrwt>
<pdfrwt beam="2">  1       -2 0.22352932E-02 0.47794413E+03</pdfrwt>
<totfact> 0.75860554E+02</totfact>
</mgrwt>
</event>
<event>
 4    1  0.5900026E-005  0.6763324E+03  0.7818608E-02  0.9758585E-01
         -2   -1    0    0    0  501 -0.00000000000E+00  0.00000000000E+00  0.40632628615E+03  0.40632628615E+03  0.25500000000E-02 0. -1.
          2   -1    0    0  501    0  0.00000000000E+00 -0.00000000000E+00 -0.28143977755E+03  0.28143977756E+03  0.25500000000E-02 0.  1.
    5000001    1    1    2    0    0 -0.16624360442E+03  0.21214439396E+03  0.13326397763E+03  0.35674285926E+03  0.19200000000E+03 0.  0.
   -5000001    1    1    2    0    0  0.16624360442E+03 -0.21214439396E+03 -0.83774690336E+01  0.33102320445E+03  0.19200000000E+03 0.  0.
<mgrwt>
<rscale>  0 0.67633240E+03</rscale>
<asrwt>0</asrwt>
<pdfrwt beam="1">  1        2 0.40205682E-01 0.67633240E+03</pdfrwt>
<pdfrwt beam="2">  1       -2 0.58046613E-01 0.67633240E+03</pdfrwt>
<totfact> 0.35883007E+02</totfact>
</mgrwt>
</event>
<event>
 4    1  0.5900026E-005  0.9163875E+03  0.7818608E-02  0.9405325E-01
         -2   -1    0    0    0  501 -0.00000000000E+00  0.00000000000E+00  0.28105267942E+03  0.28105267943E+03  0.25500000000E-02 0. -1.
          2   -1    0    0  501    0  0.00000000000E+00 -0.00000000000E+00 -0.74698273507E+03  0.74698273507E+03  0.25500000000E-02 0.  1.
    5000001    1    1    2    0    0  0.10090373173E+03 -0.29385182770E+03  0.77414545904E+02  0.37334631596E+03  0.19200000000E+03 0.  0.
   -5000001    1    1    2    0    0 -0.10090373173E+03  0.29385182770E+03 -0.54334460155E+03  0.65468909854E+03  0.19200000000E+03 0.  0.
<mgrwt>
<rscale>  0 0.91638747E+03</rscale>
<asrwt>0</asrwt>
<pdfrwt beam="1">  1        2 0.10671182E+00 0.91638747E+03</pdfrwt>
<pdfrwt beam="2">  1       -2 0.40150383E-01 0.91638747E+03</pdfrwt>
<totfact> 0.24378290E+02</totfact>
</mgrwt>
</event>
<event>
 4    1  0.5900026E-005  0.8326820E+03  0.7818608E-02  0.9513880E-01
         -2   -1    0    0    0  501 -0.00000000000E+00  0.00000000000E+00  0.11478937680E+04  0.11478937680E+04  0.25500000000E-02 0. -1.
          2   -1    0    0  501    0  0.00000000000E+00 -0.00000000000E+00 -0.15100685902E+03  0.15100685904E+03  0.25500000000E-02 0.  1.
    5000001    1    1    2    0    0  0.28409747879E+03 -0.23589739994E+03  0.48157981346E+03  0.63650771990E+03  0.19200000000E+03 0.  0.
   -5000001    1    1    2    0    0 -0.28409747879E+03  0.23589739994E+03  0.51530709548E+03  0.66239290712E+03  0.19200000000E+03 0.  0.
<mgrwt>
<rscale>  0 0.83268201E+03</rscale>
<asrwt>0</asrwt>
<pdfrwt beam="1">  1        2 0.21572409E-01 0.83268201E+03</pdfrwt>
<pdfrwt beam="2">  1       -2 0.16398482E+00 0.83268201E+03</pdfrwt>
<totfact> 0.61733235E+01</totfact>
</mgrwt>
</event>
<event>
 4    1  0.5900026E-005  0.1011766E+04  0.7818608E-02  0.9295733E-01
          2   -1    0    0  501    0  0.00000000000E+00  0.00000000000E+00  0.17849835956E+04  0.17849835957E+04  0.25500000000E-02 0.  1.
         -2   -1    0    0    0  501 -0.00000000000E+00 -0.00000000000E+00 -0.14337261031E+03  0.14337261033E+03  0.25500000000E-02 0. -1.
    5000001    1    1    2    0    0 -0.28311708524E+03 -0.28245507881E+03  0.12842155533E+04  0.13586794113E+04  0.19200000000E+03 0.  0.
   -5000001    1    1    2    0    0  0.28311708524E+03  0.28245507881E+03  0.35739543208E+03  0.56967679466E+03  0.19200000000E+03 0.  0.
<mgrwt>
<rscale>  0 0.10117663E+04</rscale>
<asrwt>0</asrwt>
<pdfrwt beam="1">  1        2 0.25499765E+00 0.10117663E+04</pdfrwt>
<pdfrwt beam="2">  1       -2 0.20481802E-01 0.10117663E+04</pdfrwt>
<totfact> 0.21177356E+02</totfact>
</mgrwt>
</event>
<event>
 4    1  0.5900026E-005  0.4662702E+03  0.7818608E-02  0.1022978E+00
         -2   -1    0    0    0  501 -0.00000000000E+00  0.00000000000E+00  0.63446166250E+03  0.63446166251E+03  0.25500000000E-02 0. -1.
          2   -1    0    0  501    0  0.00000000000E+00 -0.00000000000E+00 -0.85666289586E+02  0.85666289624E+02  0.25500000000E-02 0.  1.
    5000001    1    1    2    0    0  0.73416700473E+02 -0.82115122175E+02  0.38741751183E+03  0.44619416588E+03  0.19200000000E+03 0.  0.
   -5000001    1    1    2    0    0 -0.73416700473E+02  0.82115122175E+02  0.16137786109E+03  0.27393378625E+03  0.19200000000E+03 0.  0.
<mgrwt>
<rscale>  0 0.46627021E+03</rscale>
<asrwt>0</asrwt>
<pdfrwt beam="1">  1        2 0.12238042E-01 0.46627021E+03</pdfrwt>
<pdfrwt beam="2">  1       -2 0.90637378E-01 0.46627021E+03</pdfrwt>
<totfact> 0.54002575E+02</totfact>
</mgrwt>
</event>
<event>
 4    1  0.5900026E-005  0.6526672E+03  0.7818608E-02  0.9801787E-01
          2   -1    0    0  501    0  0.00000000000E+00  0.00000000000E+00  0.10791251335E+04  0.10791251335E+04  0.25500000000E-02 0.  1.
         -2   -1    0    0    0  501 -0.00000000000E+00 -0.00000000000E+00 -0.98685128377E+02  0.98685128410E+02  0.25500000000E-02 0. -1.
    5000001    1    1    2    0    0  0.23449835748E+03  0.25673535365E+02  0.70359944552E+03  0.76652774889E+03  0.19200000000E+03 0.  0.
   -5000001    1    1    2    0    0 -0.23449835748E+03 -0.25673535365E+02  0.27684055961E+03  0.41128251303E+03  0.19200000000E+03 0.  0.
<mgrwt>
<rscale>  0 0.65266715E+03</rscale>
<asrwt>0</asrwt>
<pdfrwt beam="1">  1        2 0.15416074E+00 0.65266715E+03</pdfrwt>
<pdfrwt beam="2">  1       -2 0.14097875E-01 0.65266715E+03</pdfrwt>
<totfact> 0.98353640E+02</totfact>
</mgrwt>
</event>
<event>
 4    1  0.5900026E-005  0.5059265E+03  0.7818608E-02  0.1012243E+00
         -2   -1    0    0    0  501 -0.00000000000E+00  0.00000000000E+00  0.34335661412E+02  0.34335661507E+02  0.25500000000E-02 0. -1.
          2   -1    0    0  501    0  0.00000000000E+00 -0.00000000000E+00 -0.18636717156E+04  0.18636717156E+04  0.25500000000E-02 0.  1.
    5000001    1    1    2    0    0 -0.30902662828E+02  0.13447420164E+03 -0.57727650945E+03  0.62381924773E+03  0.19200000000E+03 0.  0.
   -5000001    1    1    2    0    0  0.30902662828E+02 -0.13447420164E+03 -0.12520595448E+04  0.12741881294E+04  0.19200000000E+03 0.  0.
<mgrwt>
<rscale>  0 0.50592648E+03</rscale>
<asrwt>0</asrwt>
<pdfrwt beam="1">  1        2 0.26623875E+00 0.50592648E+03</pdfrwt>
<pdfrwt beam="2">  1       -2 0.49050957E-02 0.50592648E+03</pdfrwt>
<totfact> 0.20570170E+03</totfact>
</mgrwt>
</event>
<event>
 4    1  0.5900026E-005  0.4839571E+03  0.7818608E-02  0.1018053E+00
         -2   -1    0    0    0  501 -0.00000000000E+00  0.00000000000E+00  0.17477174290E+03  0.17477174292E+03  0.25500000000E-02 0. -1.
          2   -1    0    0  501    0  0.00000000000E+00 -0.00000000000E+00 -0.33502909182E+03  0.33502909183E+03  0.25500000000E-02 0.  1.
    5000001    1    1    2    0    0  0.38264138307E+02  0.12970345627E+03 -0.14157443790E+03  0.27421606866E+03  0.19200000000E+03 0.  0.
   -5000001    1    1    2    0    0 -0.38264138307E+02 -0.12970345627E+03 -0.18682911022E+02  0.23558476609E+03  0.19200000000E+03 0.  0.
<mgrwt>
<rscale>  0 0.48395710E+03</rscale>
<asrwt>0</asrwt>
<pdfrwt beam="1">  1        2 0.47861299E-01 0.48395710E+03</pdfrwt>
<pdfrwt beam="2">  1       -2 0.24967392E-01 0.48395710E+03</pdfrwt>
<totfact> 0.15092397E+03</totfact>
</mgrwt>
</event>
<event>
 4    1  0.5900026E-005  0.1171415E+04  0.7818608E-02  0.9138251E-01
         -2   -1    0    0    0  501 -0.00000000000E+00  0.00000000000E+00  0.16933227502E+03  0.16933227503E+03  0.25500000000E-02 0. -1.
          2   -1    0    0  501    0  0.00000000000E+00 -0.00000000000E+00 -0.20259193077E+04  0.20259193077E+04  0.25500000000E-02 0.  1.
    5000001    1    1    2    0    0 -0.30340155411E+03  0.32507583223E+03 -0.31111099697E+03  0.57565688754E+03  0.19200000000E+03 0.  0.
   -5000001    1    1    2    0    0  0.30340155411E+03 -0.32507583223E+03 -0.15454760357E+04  0.16195946952E+04  0.19200000000E+03 0.  0.
<mgrwt>
<rscale>  0 0.11714154E+04</rscale>
<asrwt>0</asrwt>
<pdfrwt beam="1">  1        2 0.28941703E+00 0.11714154E+04</pdfrwt>
<pdfrwt beam="2">  1       -2 0.24190326E-01 0.11714154E+04</pdfrwt>
<totfact> 0.11719461E+02</totfact>
</mgrwt>
</event>
<event>
 4    1  0.5900026E-005  0.1466213E+04  0.7818608E-02  0.8907237E-01
         -2   -1    0    0    0  501 -0.00000000000E+00  0.00000000000E+00  0.32132013101E+03  0.32132013102E+03  0.25500000000E-02 0. -1.
          2   -1    0    0  501    0  0.00000000000E+00 -0.00000000000E+00 -0.16726154592E+04  0.16726154592E+04  0.25500000000E-02 0.  1.
    5000001    1    1    2    0    0 -0.22136455711E+03 -0.62491973460E+03 -0.10116725502E+04  0.12246927331E+04  0.19200000000E+03 0.  0.
   -5000001    1    1    2    0    0  0.22136455711E+03  0.62491973460E+03 -0.33962277803E+03  0.76924285710E+03  0.19200000000E+03 0.  0.
<mgrwt>
<rscale>  0 0.14662128E+04</rscale>
<asrwt>0</asrwt>
<pdfrwt beam="1">  1        2 0.23894506E+00 0.14662128E+04</pdfrwt>
<pdfrwt beam="2">  1       -2 0.45902877E-01 0.14662128E+04</pdfrwt>
<totfact> 0.51725097E+01</totfact>
</mgrwt>
</event>
<event>
 4    1  0.5900026E-005  0.1253498E+04  0.7818608E-02  0.9067277E-01
          2   -1    0    0  501    0  0.00000000000E+00  0.00000000000E+00  0.79924284335E+03  0.79924284335E+03  0.25500000000E-02 0. -1.
         -2   -1    0    0    0  501 -0.00000000000E+00 -0.00000000000E+00 -0.49148276204E+03  0.49148276204E+03  0.25500000000E-02 0.  1.
    5000001    1    1    2    0    0 -0.48261735048E+02  0.49568909363E+03 -0.18437767184E+03  0.56470877316E+03  0.19200000000E+03 0.  0.
   -5000001    1    1    2    0    0  0.48261735048E+02 -0.49568909363E+03  0.49213775316E+03  0.72601683224E+03  0.19200000000E+03 0.  0.
<mgrwt>
<rscale>  0 0.12534976E+04</rscale>
<asrwt>0</asrwt>
<pdfrwt beam="1">  1        2 0.11417755E+00 0.12534976E+04</pdfrwt>
<pdfrwt beam="2">  1       -2 0.70211823E-01 0.12534976E+04</pdfrwt>
<totfact> 0.69192349E+01</totfact>
</mgrwt>
</event>
<event>
 4    1  0.5900026E-005  0.6194084E+03  0.7818608E-02  0.9865938E-01
         -2   -1    0    0    0  501 -0.00000000000E+00  0.00000000000E+00  0.51039698895E+03  0.51039698896E+03  0.25500000000E-02 0. -1.
          2   -1    0    0  501    0  0.00000000000E+00 -0.00000000000E+00 -0.18792568503E+03  0.18792568504E+03  0.25500000000E-02 0.  1.
    5000001    1    1    2    0    0 -0.16509368151E+03  0.11945463545E+03  0.11977725286E+02  0.28023704164E+03  0.19200000000E+03 0.  0.
   -5000001    1    1    2    0    0  0.16509368151E+03 -0.11945463545E+03  0.31049357864E+03  0.41808563235E+03  0.19200000000E+03 0.  0.
<mgrwt>
<rscale>  0 0.61940844E+03</rscale>
<asrwt>0</asrwt>
<pdfrwt beam="1">  1        2 0.26846526E-01 0.61940844E+03</pdfrwt>
<pdfrwt beam="2">  1       -2 0.72913856E-01 0.61940844E+03</pdfrwt>
<totfact> 0.34659984E+02</totfact>
</mgrwt>
</event>
<event>
 4    1  0.5900026E-005  0.6370364E+03  0.7818608E-02  0.9831413E-01
          2   -1    0    0  501    0  0.00000000000E+00  0.00000000000E+00  0.64126191898E+03  0.64126191898E+03  0.25500000000E-02 0.  1.
         -2   -1    0    0    0  501 -0.00000000000E+00 -0.00000000000E+00 -0.15820965998E+03  0.15820966000E+03  0.25500000000E-02 0. -1.
    5000001    1    1    2    0    0 -0.21617879804E+03  0.12423252254E+03  0.17975280432E+03  0.36241145545E+03  0.19200000000E+03 0.  0.
   -5000001    1    1    2    0    0  0.21617879804E+03 -0.12423252254E+03  0.30329945468E+03  0.43706012354E+03  0.19200000000E+03 0.  0.
<mgrwt>
<rscale>  0 0.63703636E+03</rscale>
<asrwt>0</asrwt>
<pdfrwt beam="1">  1        2 0.91608846E-01 0.63703636E+03</pdfrwt>
<pdfrwt beam="2">  1       -2 0.22601380E-01 0.63703636E+03</pdfrwt>
<totfact> 0.86345233E+02</totfact>
</mgrwt>
</event>
<event>
 4    1  0.5900026E-005  0.4089829E+03  0.7818608E-02  0.1040713E+00
         -2   -1    0    0    0  501 -0.00000000000E+00  0.00000000000E+00  0.23734581136E+02  0.23734581273E+02  0.25500000000E-02 0. -1.
          2   -1    0    0  501    0  0.00000000000E+00 -0.00000000000E+00 -0.17618491503E+04  0.17618491503E+04  0.25500000000E-02 0.  1.
    5000001    1    1    2    0    0 -0.24836107620E+02 -0.51845182687E+02 -0.10462938081E+04  0.10653166140E+04  0.19200000000E+03 0.  0.
   -5000001    1    1    2    0    0  0.24836107620E+02  0.51845182687E+02 -0.69182076107E+03  0.72026711758E+03  0.19200000000E+03 0.  0.
<mgrwt>
<rscale>  0 0.40898289E+03</rscale>
<asrwt>0</asrwt>
<pdfrwt beam="1">  1        2 0.25169265E+00 0.40898289E+03</pdfrwt>
<pdfrwt beam="2">  1       -2 0.33906556E-02 0.40898289E+03</pdfrwt>
<totfact> 0.40743127E+03</totfact>
</mgrwt>
</event>
<event>
 4    1  0.5900026E-005  0.7227055E+03  0.7818608E-02  0.9679172E-01
         -2   -1    0    0    0  501 -0.00000000000E+00  0.00000000000E+00  0.11427854125E+03  0.11427854127E+03  0.25500000000E-02 0. -1.
          2   -1    0    0  501    0  0.00000000000E+00 -0.00000000000E+00 -0.11426099529E+04  0.11426099530E+04  0.25500000000E-02 0.  1.
    5000001    1    1    2    0    0 -0.18624654220E+02 -0.17788322221E+03 -0.94623867164E+03  0.98194752518E+03  0.19200000000E+03 0.  0.
   -5000001    1    1    2    0    0  0.18624654220E+02  0.17788322221E+03 -0.82092740059E+02  0.27494096905E+03  0.19200000000E+03 0.  0.
<mgrwt>
<rscale>  0 0.72270547E+03</rscale>
<asrwt>0</asrwt>
<pdfrwt beam="1">  1        2 0.16322999E+00 0.72270547E+03</pdfrwt>
<pdfrwt beam="2">  1       -2 0.16325507E-01 0.72270547E+03</pdfrwt>
<totfact> 0.70330176E+02</totfact>
</mgrwt>
</event>
<event>
 4    1  0.5900026E-005  0.6325124E+03  0.7818608E-02  0.9840158E-01
          2   -1    0    0  501    0  0.00000000000E+00  0.00000000000E+00  0.32104904898E+04  0.32104904898E+04  0.25500000000E-02 0.  1.
         -2   -1    0    0    0  501 -0.00000000000E+00 -0.00000000000E+00 -0.31153491188E+02  0.31153491293E+02  0.25500000000E-02 0. -1.
    5000001    1    1    2    0    0  0.24058135214E+03 -0.68945834910E+02  0.14726794480E+04  0.15060815621E+04  0.19200000000E+03 0.  0.
   -5000001    1    1    2    0    0 -0.24058135214E+03  0.68945834910E+02  0.17066575505E+04  0.17355624189E+04  0.19200000000E+03 0.  0.
<mgrwt>
<rscale>  0 0.63251241E+03</rscale>
<asrwt>0</asrwt>
<pdfrwt beam="1">  1        2 0.45864133E+00 0.63251241E+03</pdfrwt>
<pdfrwt beam="2">  1       -2 0.44505004E-02 0.63251241E+03</pdfrwt>
<totfact> 0.47247506E+02</totfact>
</mgrwt>
</event>
<event>
 4    1  0.5900026E-005  0.4933045E+03  0.7818608E-02  0.1015541E+00
          2   -1    0    0  501    0  0.00000000000E+00  0.00000000000E+00  0.57967465770E+03  0.57967465771E+03  0.25500000000E-02 0.  1.
         -2   -1    0    0    0  501 -0.00000000000E+00 -0.00000000000E+00 -0.10495082716E+03  0.10495082719E+03  0.25500000000E-02 0. -1.
    5000001    1    1    2    0    0  0.10934357810E+03 -0.10680284527E+03  0.27165209646E+03  0.36608978044E+03  0.19200000000E+03 0.  0.
   -5000001    1    1    2    0    0 -0.10934357810E+03  0.10680284527E+03  0.20307173409E+03  0.31853570446E+03  0.19200000000E+03 0.  0.
<mgrwt>
<rscale>  0 0.49330451E+03</rscale>
<asrwt>0</asrwt>
<pdfrwt beam="1">  1        2 0.82810664E-01 0.49330451E+03</pdfrwt>
<pdfrwt beam="2">  1       -2 0.14992976E-01 0.49330451E+03</pdfrwt>
<totfact> 0.19735870E+03</totfact>
</mgrwt>
</event>
<event>
 4    1  0.5900026E-005  0.6103453E+03  0.7818608E-02  0.9884172E-01
          2   -1    0    0  501    0  0.00000000000E+00  0.00000000000E+00  0.41659817081E+03  0.41659817082E+03  0.25500000000E-02 0.  1.
         -2   -1    0    0    0  501 -0.00000000000E+00 -0.00000000000E+00 -0.22354958132E+03  0.22354958134E+03  0.25500000000E-02 0. -1.
    5000001    1    1    2    0    0  0.14393774169E+03 -0.98907445062E+02 -0.71830182058E+02  0.26930341852E+03  0.19200000000E+03 0.  0.
   -5000001    1    1    2    0    0 -0.14393774169E+03  0.98907445062E+02  0.26487877155E+03  0.37084433364E+03  0.19200000000E+03 0.  0.
<mgrwt>
<rscale>  0 0.61034530E+03</rscale>
<asrwt>0</asrwt>
<pdfrwt beam="1">  1        2 0.59514024E-01 0.61034530E+03</pdfrwt>
<pdfrwt beam="2">  1       -2 0.31935655E-01 0.61034530E+03</pdfrwt>
<totfact> 0.75642120E+02</totfact>
</mgrwt>
</event>
<event>
 4    1  0.5900026E-005  0.6498994E+03  0.7818608E-02  0.9806968E-01
          2   -1    0    0  501    0  0.00000000000E+00  0.00000000000E+00  0.25605918116E+04  0.25605918116E+04  0.25500000000E-02 0.  1.
         -2   -1    0    0    0  501 -0.00000000000E+00 -0.00000000000E+00 -0.41237456565E+02  0.41237456644E+02  0.25500000000E-02 0. -1.
    5000001    1    1    2    0    0 -0.24621231906E+03  0.88548461317E+02  0.13250886428E+04  0.13642526332E+04  0.19200000000E+03 0.  0.
   -5000001    1    1    2    0    0  0.24621231906E+03 -0.88548461317E+02  0.11942657122E+04  0.12375766350E+04  0.19200000000E+03 0.  0.
<mgrwt>
<rscale>  0 0.64989936E+03</rscale>
<asrwt>0</asrwt>
<pdfrwt beam="1">  1        2 0.36579881E+00 0.64989936E+03</pdfrwt>
<pdfrwt beam="2">  1       -2 0.58910656E-02 0.64989936E+03</pdfrwt>
<totfact> 0.68188167E+02</totfact>
</mgrwt>
</event>
<event>
 4    1  0.5900026E-005  0.1250899E+04  0.7818608E-02  0.9069436E-01
         -2   -1    0    0    0  501 -0.00000000000E+00  0.00000000000E+00  0.24043157995E+03  0.24043157996E+03  0.25500000000E-02 0. -1.
          2   -1    0    0  501    0  0.00000000000E+00 -0.00000000000E+00 -0.16270198765E+04  0.16270198765E+04  0.25500000000E-02 0.  1.
    5000001    1    1    2    0    0  0.42955711196E+01 -0.59028734681E+03 -0.57896043133E+03  0.84883260115E+03  0.19200000000E+03 0.  0.
   -5000001    1    1    2    0    0 -0.42955711196E+01  0.59028734681E+03 -0.80762786527E+03  0.10186188554E+04  0.19200000000E+03 0.  0.
<mgrwt>
<rscale>  0 0.12508988E+04</rscale>
<asrwt>0</asrwt>
<pdfrwt beam="1">  1        2 0.23243140E+00 0.12508988E+04</pdfrwt>
<pdfrwt beam="2">  1       -2 0.34347370E-01 0.12508988E+04</pdfrwt>
<totfact> 0.97770430E+01</totfact>
</mgrwt>
</event>
<event>
 4    1  0.5900026E-005  0.5467513E+03  0.7818608E-02  0.1002249E+00
          2   -1    0    0  501    0  0.00000000000E+00  0.00000000000E+00  0.19426512288E+04  0.19426512288E+04  0.25500000000E-02 0.  1.
         -2   -1    0    0    0  501 -0.00000000000E+00 -0.00000000000E+00 -0.38470229401E+02  0.38470229485E+02  0.25500000000E-02 0. -1.
    5000001    1    1    2    0    0 -0.17079024991E+03  0.75508401952E+02  0.11505350775E+04  0.11812983505E+04  0.19200000000E+03 0.  0.
   -5000001    1    1    2    0    0  0.17079024991E+03 -0.75508401952E+02  0.75364592193E+03  0.79982310787E+03  0.19200000000E+03 0.  0.
<mgrwt>
<rscale>  0 0.54675127E+03</rscale>
<asrwt>0</asrwt>
<pdfrwt beam="1">  1        2 0.27752153E+00 0.54675127E+03</pdfrwt>
<pdfrwt beam="2">  1       -2 0.54957484E-02 0.54675127E+03</pdfrwt>
<totfact> 0.15719910E+03</totfact>
</mgrwt>
</event>
<event>
 4    1  0.5900026E-005  0.1092700E+04  0.7818608E-02  0.9212336E-01
         -2   -1    0    0    0  501 -0.00000000000E+00  0.00000000000E+00  0.49984634936E+03  0.49984634937E+03  0.25500000000E-02 0. -1.
          2   -1    0    0  501    0  0.00000000000E+00 -0.00000000000E+00 -0.59718008696E+03  0.59718008697E+03  0.25500000000E-02 0.  1.
    5000001    1    1    2    0    0 -0.42533614615E+03 -0.24331292613E+03  0.98618703187E+02  0.53544529680E+03  0.19200000000E+03 0.  0.
   -5000001    1    1    2    0    0  0.42533614615E+03  0.24331292613E+03 -0.19595244079E+03  0.56158113955E+03  0.19200000000E+03 0.  0.
<mgrwt>
<rscale>  0 0.10926999E+04</rscale>
<asrwt>0</asrwt>
<pdfrwt beam="1">  1        2 0.85311440E-01 0.10926999E+04</pdfrwt>
<pdfrwt beam="2">  1       -2 0.71406622E-01 0.10926999E+04</pdfrwt>
<totfact> 0.96558328E+01</totfact>
</mgrwt>
</event>
<event>
 4    1  0.5900026E-005  0.7361766E+03  0.7818608E-02  0.9657290E-01
          2   -1    0    0  501    0  0.00000000000E+00  0.00000000000E+00  0.12853485579E+04  0.12853485579E+04  0.25500000000E-02 0.  1.
         -2   -1    0    0    0  501 -0.00000000000E+00 -0.00000000000E+00 -0.10541030905E+03  0.10541030908E+03  0.25500000000E-02 0. -1.
    5000001    1    1    2    0    0  0.25149586894E+03 -0.16965737925E+03  0.43659511632E+03  0.56525489297E+03  0.19200000000E+03 0.  0.
   -5000001    1    1    2    0    0 -0.25149586894E+03  0.16965737925E+03  0.74334313252E+03  0.82550397400E+03  0.19200000000E+03 0.  0.
<mgrwt>
<rscale>  0 0.73617658E+03</rscale>
<asrwt>0</asrwt>
<pdfrwt beam="1">  1        2 0.18362122E+00 0.73617658E+03</pdfrwt>
<pdfrwt beam="2">  1       -2 0.15058616E-01 0.73617658E+03</pdfrwt>
<totfact> 0.67025925E+02</totfact>
</mgrwt>
</event>
<event>
 4    1  0.5900026E-005  0.5500481E+03  0.7818608E-02  0.1001483E+00
         -2   -1    0    0    0  501 -0.00000000000E+00  0.00000000000E+00  0.45764792534E+03  0.45764792534E+03  0.25500000000E-02 0. -1.
          2   -1    0    0  501    0  0.00000000000E+00 -0.00000000000E+00 -0.16527602439E+03  0.16527602441E+03  0.25500000000E-02 0.  1.
    5000001    1    1    2    0    0 -0.25253963104E+02  0.18752026987E+03  0.20793122385E+03  0.34044237121E+03  0.19200000000E+03 0.  0.
   -5000001    1    1    2    0    0  0.25253963104E+02 -0.18752026987E+03  0.84440677101E+02  0.28248157854E+03  0.19200000000E+03 0.  0.
<mgrwt>
<rscale>  0 0.55004811E+03</rscale>
<asrwt>0</asrwt>
<pdfrwt beam="1">  1        2 0.23610860E-01 0.55004811E+03</pdfrwt>
<pdfrwt beam="2">  1       -2 0.65378276E-01 0.55004811E+03</pdfrwt>
<totfact> 0.50893654E+02</totfact>
</mgrwt>
</event>
<event>
 4    1  0.5900026E-005  0.9302190E+03  0.7818608E-02  0.9388575E-01
         -2   -1    0    0    0  501 -0.00000000000E+00  0.00000000000E+00  0.31951236008E+03  0.31951236009E+03  0.25500000000E-02 0. -1.
          2   -1    0    0  501    0  0.00000000000E+00 -0.00000000000E+00 -0.67705309322E+03  0.67705309322E+03  0.25500000000E-02 0.  1.
    5000001    1    1    2    0    0  0.38086177766E+03  0.14656136941E+03 -0.56964590575E+02  0.45458210839E+03  0.19200000000E+03 0.  0.
   -5000001    1    1    2    0    0 -0.38086177766E+03 -0.14656136941E+03 -0.30057614257E+03  0.54198334492E+03  0.19200000000E+03 0.  0.
<mgrwt>
<rscale>  0 0.93021897E+03</rscale>
<asrwt>0</asrwt>
<pdfrwt beam="1">  1        2 0.96721870E-01 0.93021897E+03</pdfrwt>
<pdfrwt beam="2">  1       -2 0.45644623E-01 0.93021897E+03</pdfrwt>
<totfact> 0.21364714E+02</totfact>
</mgrwt>
</event>
<event>
 4    1  0.5900026E-005  0.6592018E+03  0.7818608E-02  0.9789664E-01
          2   -1    0    0  501    0  0.00000000000E+00  0.00000000000E+00  0.23665226664E+04  0.23665226664E+04  0.25500000000E-02 0.  1.
         -2   -1    0    0    0  501 -0.00000000000E+00 -0.00000000000E+00 -0.45905645942E+02  0.45905646013E+02  0.25500000000E-02 0. -1.
    5000001    1    1    2    0    0 -0.23544885162E+03 -0.74883235097E+02  0.15393768399E+04  0.15708560456E+04  0.19200000000E+03 0.  0.
   -5000001    1    1    2    0    0  0.23544885162E+03  0.74883235097E+02  0.78124018049E+03  0.84157226679E+03  0.19200000000E+03 0.  0.
<mgrwt>
<rscale>  0 0.65920180E+03</rscale>
<asrwt>0</asrwt>
<pdfrwt beam="1">  1        2 0.33807480E+00 0.65920180E+03</pdfrwt>
<pdfrwt beam="2">  1       -2 0.65579468E-02 0.65920180E+03</pdfrwt>
<totfact> 0.72406313E+02</totfact>
</mgrwt>
</event>
<event>
 4    1  0.5900026E-005  0.4227629E+03  0.7818608E-02  0.1036171E+00
         -2   -1    0    0    0  501 -0.00000000000E+00  0.00000000000E+00  0.92254098483E+02  0.92254098518E+02  0.25500000000E-02 0. -1.
          2   -1    0    0  501    0  0.00000000000E+00 -0.00000000000E+00 -0.48433757518E+03  0.48433757519E+03  0.25500000000E-02 0.  1.
    5000001    1    1    2    0    0  0.53419146922E+02  0.70424809376E+02 -0.19303277261E+03  0.28624973421E+03  0.19200000000E+03 0.  0.
   -5000001    1    1    2    0    0 -0.53419146922E+02 -0.70424809376E+02 -0.19905070410E+03  0.29034193950E+03  0.19200000000E+03 0.  0.
<mgrwt>
<rscale>  0 0.42276294E+03</rscale>
<asrwt>0</asrwt>
<pdfrwt beam="1">  1        2 0.69191080E-01 0.42276294E+03</pdfrwt>
<pdfrwt beam="2">  1       -2 0.13179157E-01 0.42276294E+03</pdfrwt>
<totfact> 0.29959311E+03</totfact>
</mgrwt>
</event>
<event>
 4    1  0.5900026E-005  0.4011805E+03  0.7818608E-02  0.1043372E+00
          2   -1    0    0  501    0  0.00000000000E+00  0.00000000000E+00  0.12278803280E+03  0.12278803283E+03  0.25500000000E-02 0.  1.
         -2   -1    0    0    0  501 -0.00000000000E+00 -0.00000000000E+00 -0.32769034437E+03  0.32769034438E+03  0.25500000000E-02 0. -1.
    5000001    1    1    2    0    0 -0.27268030869E+02  0.51269596429E+02 -0.10310178380E+03  0.22553512997E+03  0.19200000000E+03 0.  0.
   -5000001    1    1    2    0    0  0.27268030869E+02 -0.51269596429E+02 -0.10180052777E+03  0.22494324724E+03  0.19200000000E+03 0.  0.
<mgrwt>
<rscale>  0 0.40118052E+03</rscale>
<asrwt>0</asrwt>
<pdfrwt beam="1">  1        2 0.17541148E-01 0.40118052E+03</pdfrwt>
<pdfrwt beam="2">  1       -2 0.46812906E-01 0.40118052E+03</pdfrwt>
<totfact> 0.14291120E+03</totfact>
</mgrwt>
</event>
<event>
 4    1  0.5900026E-005  0.9776907E+03  0.7818608E-02  0.9333357E-01
         -2   -1    0    0    0  501 -0.00000000000E+00  0.00000000000E+00  0.21842456973E+03  0.21842456974E+03  0.25500000000E-02 0. -1.
          2   -1    0    0  501    0  0.00000000000E+00 -0.00000000000E+00 -0.10940609696E+04  0.10940609696E+04  0.25500000000E-02 0.  1.
    5000001    1    1    2    0    0  0.71448048062E+02 -0.29607334052E+03  0.60823035491E+01  0.36009060104E+03  0.19200000000E+03 0.  0.
   -5000001    1    1    2    0    0 -0.71448048062E+02  0.29607334052E+03 -0.88171870339E+03  0.95239493828E+03  0.19200000000E+03 0.  0.
<mgrwt>
<rscale>  0 0.97769074E+03</rscale>
<asrwt>0</asrwt>
<pdfrwt beam="1">  1        2 0.15629442E+00 0.97769074E+03</pdfrwt>
<pdfrwt beam="2">  1       -2 0.31203511E-01 0.97769074E+03</pdfrwt>
<totfact> 0.23383752E+02</totfact>
</mgrwt>
</event>
<event>
 4    1  0.5900026E-005  0.5690510E+03  0.7818608E-02  0.9971781E-01
          2   -1    0    0  501    0  0.00000000000E+00  0.00000000000E+00  0.32400398874E+03  0.32400398875E+03  0.25500000000E-02 0.  1.
         -2   -1    0    0    0  501 -0.00000000000E+00 -0.00000000000E+00 -0.24985731215E+03  0.24985731216E+03  0.25500000000E-02 0. -1.
    5000001    1    1    2    0    0 -0.20829537208E+03 -0.19448163393E+02  0.18877180199E+02  0.28457958645E+03  0.19200000000E+03 0.  0.
   -5000001    1    1    2    0    0  0.20829537208E+03  0.19448163393E+02  0.55269496398E+02  0.28928171446E+03  0.19200000000E+03 0.  0.
<mgrwt>
<rscale>  0 0.56905102E+03</rscale>
<asrwt>0</asrwt>
<pdfrwt beam="1">  1        2 0.46286284E-01 0.56905102E+03</pdfrwt>
<pdfrwt beam="2">  1       -2 0.35693902E-01 0.56905102E+03</pdfrwt>
<totfact> 0.81071703E+02</totfact>
</mgrwt>
</event>
<event>
 4    1  0.5900026E-005  0.5766121E+03  0.7818608E-02  0.9955153E-01
          2   -1    0    0  501    0  0.00000000000E+00  0.00000000000E+00  0.58489239740E+03  0.58489239740E+03  0.25500000000E-02 0.  1.
         -2   -1    0    0    0  501 -0.00000000000E+00 -0.00000000000E+00 -0.14211227934E+03  0.14211227936E+03  0.25500000000E-02 0. -1.
    5000001    1    1    2    0    0  0.12048121673E+03  0.17003993681E+03  0.28842837370E+03  0.40433183210E+03  0.19200000000E+03 0.  0.
   -5000001    1    1    2    0    0 -0.12048121673E+03 -0.17003993681E+03  0.15435174436E+03  0.32267284466E+03  0.19200000000E+03 0.  0.
<mgrwt>
<rscale>  0 0.57661215E+03</rscale>
<asrwt>0</asrwt>
<pdfrwt beam="1">  1        2 0.83556060E-01 0.57661215E+03</pdfrwt>
<pdfrwt beam="2">  1       -2 0.20301753E-01 0.57661215E+03</pdfrwt>
<totfact> 0.11635489E+03</totfact>
</mgrwt>
</event>
<event>
 4    1  0.5900026E-005  0.1133086E+04  0.7818608E-02  0.9173531E-01
          2   -1    0    0  501    0  0.00000000000E+00  0.00000000000E+00  0.19350552802E+04  0.19350552802E+04  0.25500000000E-02 0. -1.
         -2   -1    0    0    0  501 -0.00000000000E+00 -0.00000000000E+00 -0.16587175912E+03  0.16587175914E+03  0.25500000000E-02 0.  1.
    5000001    1    1    2    0    0  0.43511620944E+03 -0.20548703544E+02  0.14541510509E+04  0.15300874628E+04  0.19200000000E+03 0.  0.
   -5000001    1    1    2    0    0 -0.43511620944E+03  0.20548703544E+02  0.31503247023E+03  0.57083957661E+03  0.19200000000E+03 0.  0.
<mgrwt>
<rscale>  0 0.11330861E+04</rscale>
<asrwt>0</asrwt>
<pdfrwt beam="1">  1        2 0.27643644E+00 0.11330861E+04</pdfrwt>
<pdfrwt beam="2">  1       -2 0.23695968E-01 0.11330861E+04</pdfrwt>
<totfact> 0.13575402E+02</totfact>
</mgrwt>
</event>
<event>
 4    1  0.5900026E-005  0.6846258E+03  0.7818608E-02  0.9743891E-01
          2   -1    0    0  501    0  0.00000000000E+00  0.00000000000E+00  0.10378740982E+04  0.10378740982E+04  0.25500000000E-02 0.  1.
         -2   -1    0    0    0  501 -0.00000000000E+00 -0.00000000000E+00 -0.11290204858E+03  0.11290204860E+03  0.25500000000E-02 0. -1.
    5000001    1    1    2    0    0  0.22184348231E+03 -0.15902620569E+03  0.59061132913E+03  0.67837276393E+03  0.19200000000E+03 0.  0.
   -5000001    1    1    2    0    0 -0.22184348231E+03  0.15902620569E+03  0.33436072047E+03  0.47240338286E+03  0.19200000000E+03 0.  0.
<mgrwt>
<rscale>  0 0.68462577E+03</rscale>
<asrwt>0</asrwt>
<pdfrwt beam="1">  1        2 0.14826772E+00 0.68462577E+03</pdfrwt>
<pdfrwt beam="2">  1       -2 0.16128864E-01 0.68462577E+03</pdfrwt>
<totfact> 0.82837841E+02</totfact>
</mgrwt>
</event>
<event>
 4    1  0.5900026E-005  0.5117080E+03  0.7818608E-02  0.1010767E+00
         -2   -1    0    0    0  501 -0.00000000000E+00  0.00000000000E+00  0.60234051396E+03  0.60234051396E+03  0.25500000000E-02 0. -1.
          2   -1    0    0  501    0  0.00000000000E+00 -0.00000000000E+00 -0.10867819562E+03  0.10867819565E+03  0.25500000000E-02 0.  1.
    5000001    1    1    2    0    0  0.10353377209E+03 -0.13270229153E+03  0.22407810759E+03  0.33971184619E+03  0.19200000000E+03 0.  0.
   -5000001    1    1    2    0    0 -0.10353377209E+03  0.13270229153E+03  0.26958421075E+03  0.37130686342E+03  0.19200000000E+03 0.  0.
<mgrwt>
<rscale>  0 0.51170804E+03</rscale>
<asrwt>0</asrwt>
<pdfrwt beam="1">  1        2 0.15525456E-01 0.51170804E+03</pdfrwt>
<pdfrwt beam="2">  1       -2 0.86048645E-01 0.51170804E+03</pdfrwt>
<totfact> 0.45484494E+02</totfact>
</mgrwt>
</event>
<event>
 4    1  0.5900026E-005  0.6742739E+03  0.7818608E-02  0.9762268E-01
         -2   -1    0    0    0  501 -0.00000000000E+00  0.00000000000E+00  0.17281902694E+03  0.17281902695E+03  0.25500000000E-02 0. -1.
          2   -1    0    0  501    0  0.00000000000E+00 -0.00000000000E+00 -0.65768983416E+03  0.65768983416E+03  0.25500000000E-02 0.  1.
    5000001    1    1    2    0    0 -0.11761388321E+03 -0.18401293388E+03 -0.32308926097E+02  0.29257760007E+03  0.19200000000E+03 0.  0.
   -5000001    1    1    2    0    0  0.11761388321E+03  0.18401293388E+03 -0.45256188113E+03  0.53793126104E+03  0.19200000000E+03 0.  0.
<mgrwt>
<rscale>  0 0.67427388E+03</rscale>
<asrwt>0</asrwt>
<pdfrwt beam="1">  1        2 0.93955689E-01 0.67427388E+03</pdfrwt>
<pdfrwt beam="2">  1       -2 0.24688433E-01 0.67427388E+03</pdfrwt>
<totfact> 0.71490920E+02</totfact>
</mgrwt>
</event>
<event>
 4    1  0.5900026E-005  0.1329354E+04  0.7818608E-02  0.9006606E-01
          2   -1    0    0  501    0  0.00000000000E+00  0.00000000000E+00  0.22153131006E+04  0.22153131006E+04  0.25500000000E-02 0.  1.
         -2   -1    0    0    0  501 -0.00000000000E+00 -0.00000000000E+00 -0.19942799650E+03  0.19942799651E+03  0.25500000000E-02 0. -1.
    5000001    1    1    2    0    0 -0.40596893673E+03 -0.46672128134E+03  0.12791513081E+04  0.14337822712E+04  0.19200000000E+03 0.  0.
   -5000001    1    1    2    0    0  0.40596893673E+03  0.46672128134E+03  0.73673379597E+03  0.98095882593E+03  0.19200000000E+03 0.  0.
<mgrwt>
<rscale>  0 0.13293539E+04</rscale>
<asrwt>0</asrwt>
<pdfrwt beam="1">  1        2 0.31647329E+00 0.13293539E+04</pdfrwt>
<pdfrwt beam="2">  1       -2 0.28489714E-01 0.13293539E+04</pdfrwt>
<totfact> 0.68690454E+01</totfact>
</mgrwt>
</event>
<event>
 4    1  0.5900026E-005  0.6562399E+03  0.7818608E-02  0.9795140E-01
         -2   -1    0    0    0  501 -0.00000000000E+00  0.00000000000E+00  0.70753087536E+02  0.70753087582E+02  0.25500000000E-02 0.  1.
          2   -1    0    0  501    0  0.00000000000E+00 -0.00000000000E+00 -0.15216677546E+04  0.15216677546E+04  0.25500000000E-02 0. -1.
    5000001    1    1    2    0    0 -0.23037636240E+03  0.10666175912E+03 -0.91880431330E+03  0.97237614396E+03  0.19200000000E+03 0.  0.
   -5000001    1    1    2    0    0  0.23037636240E+03 -0.10666175912E+03 -0.53211035377E+03  0.62004469823E+03  0.19200000000E+03 0.  0.
<mgrwt>
<rscale>  0 0.65623987E+03</rscale>
<asrwt>0</asrwt>
<pdfrwt beam="1">  1        2 0.21738109E+00 0.65623987E+03</pdfrwt>
<pdfrwt beam="2">  1       -2 0.10107585E-01 0.65623987E+03</pdfrwt>
<totfact> 0.97332225E+02</totfact>
</mgrwt>
</event>
<event>
 4    1  0.5900026E-005  0.7235867E+03  0.7818608E-02  0.9677725E-01
         -2   -1    0    0    0  501 -0.00000000000E+00  0.00000000000E+00  0.16101652162E+03  0.16101652164E+03  0.25500000000E-02 0. -1.
          2   -1    0    0  501    0  0.00000000000E+00 -0.00000000000E+00 -0.81292537292E+03  0.81292537293E+03  0.25500000000E-02 0.  1.
    5000001    1    1    2    0    0  0.10411240151E+03 -0.24444495579E+03 -0.11989149578E+03  0.34904254657E+03  0.19200000000E+03 0.  0.
   -5000001    1    1    2    0    0 -0.10411240151E+03  0.24444495579E+03 -0.53201735552E+03  0.62489934800E+03  0.19200000000E+03 0.  0.
<mgrwt>
<rscale>  0 0.72358667E+03</rscale>
<asrwt>0</asrwt>
<pdfrwt beam="1">  1        2 0.11613219E+00 0.72358667E+03</pdfrwt>
<pdfrwt beam="2">  1       -2 0.23002361E-01 0.72358667E+03</pdfrwt>
<totfact> 0.62202747E+02</totfact>
</mgrwt>
</event>
<event>
 4    1  0.5900026E-005  0.4682131E+03  0.7818608E-02  0.1022426E+00
          2   -1    0    0  501    0  0.00000000000E+00  0.00000000000E+00  0.13659843542E+04  0.13659843542E+04  0.25500000000E-02 0.  1.
         -2   -1    0    0    0  501 -0.00000000000E+00 -0.00000000000E+00 -0.40121888624E+02  0.40121888705E+02  0.25500000000E-02 0. -1.
    5000001    1    1    2    0    0  0.28327837220E+02 -0.91584747055E+02  0.38198752197E+03  0.43814232755E+03  0.19200000000E+03 0.  0.
   -5000001    1    1    2    0    0 -0.28327837220E+02  0.91584747055E+02  0.94387494361E+03  0.96796391536E+03  0.19200000000E+03 0.  0.
<mgrwt>
<rscale>  0 0.46821308E+03</rscale>
<asrwt>0</asrwt>
<pdfrwt beam="1">  1        2 0.19514062E+00 0.46821308E+03</pdfrwt>
<pdfrwt beam="2">  1       -2 0.57316984E-02 0.46821308E+03</pdfrwt>
<totfact> 0.29057405E+03</totfact>
</mgrwt>
</event>
<event>
 4    1  0.5900026E-005  0.5563989E+03  0.7818608E-02  0.1000024E+00
          2   -1    0    0  501    0  0.00000000000E+00  0.00000000000E+00  0.12963460349E+03  0.12963460351E+03  0.25500000000E-02 0.  1.
         -2   -1    0    0    0  501 -0.00000000000E+00 -0.00000000000E+00 -0.59702377608E+03  0.59702377608E+03  0.25500000000E-02 0. -1.
    5000001    1    1    2    0    0 -0.17421137825E+03  0.67045977024E+02 -0.13521322453E+03  0.29998563871E+03  0.19200000000E+03 0.  0.
   -5000001    1    1    2    0    0  0.17421137825E+03 -0.67045977024E+02 -0.33217594806E+03  0.42667274089E+03  0.19200000000E+03 0.  0.
<mgrwt>
<rscale>  0 0.55639892E+03</rscale>
<asrwt>0</asrwt>
<pdfrwt beam="1">  1        2 0.18519229E-01 0.55639892E+03</pdfrwt>
<pdfrwt beam="2">  1       -2 0.85289109E-01 0.55639892E+03</pdfrwt>
<totfact> 0.37592582E+02</totfact>
</mgrwt>
</event>
<event>
 4    1  0.5900026E-005  0.9063711E+03  0.7818608E-02  0.9417652E-01
         -2   -1    0    0    0  501 -0.00000000000E+00  0.00000000000E+00  0.80586886842E+02  0.80586886883E+02  0.25500000000E-02 0. -1.
          2   -1    0    0  501    0  0.00000000000E+00 -0.00000000000E+00 -0.25485178589E+04  0.25485178589E+04  0.25500000000E-02 0.  1.
    5000001    1    1    2    0    0 -0.17438897075E+03 -0.37023663575E+03 -0.13268982415E+04  0.14017880092E+04  0.19200000000E+03 0.  0.
   -5000001    1    1    2    0    0  0.17438897075E+03  0.37023663575E+03 -0.11410327306E+04  0.12273167365E+04  0.19200000000E+03 0.  0.
<mgrwt>
<rscale>  0 0.90637105E+03</rscale>
<asrwt>0</asrwt>
<pdfrwt beam="1">  1        2 0.36407393E+00 0.90637105E+03</pdfrwt>
<pdfrwt beam="2">  1       -2 0.11512414E-01 0.90637105E+03</pdfrwt>
<totfact> 0.23096522E+02</totfact>
</mgrwt>
</event>
<event>
 4    1  0.5900026E-005  0.8758683E+03  0.7818608E-02  0.9456260E-01
         -2   -1    0    0    0  501 -0.00000000000E+00  0.00000000000E+00  0.13376354083E+03  0.13376354085E+03  0.25500000000E-02 0. -1.
          2   -1    0    0  501    0  0.00000000000E+00 -0.00000000000E+00 -0.14337713006E+04  0.14337713006E+04  0.25500000000E-02 0.  1.
    5000001    1    1    2    0    0  0.21849886675E+03  0.27129023574E+03 -0.32203485821E+03  0.51177201631E+03  0.19200000000E+03 0.  0.
   -5000001    1    1    2    0    0 -0.21849886675E+03 -0.27129023574E+03 -0.97797290153E+03  0.10557628251E+04  0.19200000000E+03 0.  0.
<mgrwt>
<rscale>  0 0.87586831E+03</rscale>
<asrwt>0</asrwt>
<pdfrwt beam="1">  1        2 0.20482446E+00 0.87586831E+03</pdfrwt>
<pdfrwt beam="2">  1       -2 0.19109078E-01 0.87586831E+03</pdfrwt>
<totfact> 0.36766602E+02</totfact>
</mgrwt>
</event>
<event>
 4    1  0.5900026E-005  0.6736939E+03  0.7818608E-02  0.9763308E-01
          2   -1    0    0  501    0  0.00000000000E+00  0.00000000000E+00  0.41490217838E+03  0.41490217839E+03  0.25500000000E-02 0.  1.
         -2   -1    0    0    0  501 -0.00000000000E+00 -0.00000000000E+00 -0.27347622173E+03  0.27347622175E+03  0.25500000000E-02 0. -1.
    5000001    1    1    2    0    0  0.16055502696E+02  0.27120858923E+03  0.16741183449E+02  0.33310080345E+03  0.19200000000E+03 0.  0.
   -5000001    1    1    2    0    0 -0.16055502696E+02 -0.27120858923E+03  0.12468477320E+03  0.35527759668E+03  0.19200000000E+03 0.  0.
<mgrwt>
<rscale>  0 0.67369394E+03</rscale>
<asrwt>0</asrwt>
<pdfrwt beam="1">  1        2 0.59271739E-01 0.67369394E+03</pdfrwt>
<pdfrwt beam="2">  1       -2 0.39068032E-01 0.67369394E+03</pdfrwt>
<totfact> 0.51737045E+02</totfact>
</mgrwt>
</event>
<event>
 4    1  0.5900026E-005  0.5722851E+03  0.7818608E-02  0.9964635E-01
          2   -1    0    0  501    0  0.00000000000E+00  0.00000000000E+00  0.18519558999E+03  0.18519559001E+03  0.25500000000E-02 0.  1.
         -2   -1    0    0    0  501 -0.00000000000E+00 -0.00000000000E+00 -0.44211398969E+03  0.44211398969E+03  0.25500000000E-02 0. -1.
    5000001    1    1    2    0    0 -0.20508597217E+03  0.48279816697E+02 -0.15580507819E+03  0.32485445829E+03  0.19200000000E+03 0.  0.
   -5000001    1    1    2    0    0  0.20508597217E+03 -0.48279816697E+02 -0.10111332150E+03  0.30245512141E+03  0.19200000000E+03 0.  0.
<mgrwt>
<rscale>  0 0.57228511E+03</rscale>
<asrwt>0</asrwt>
<pdfrwt beam="1">  1        2 0.26456513E-01 0.57228511E+03</pdfrwt>
<pdfrwt beam="2">  1       -2 0.63159141E-01 0.57228511E+03</pdfrwt>
<totfact> 0.48091311E+02</totfact>
</mgrwt>
</event>
<event>
 4    1  0.5900026E-005  0.1334078E+04  0.7818608E-02  0.9002969E-01
          2   -1    0    0  501    0  0.00000000000E+00  0.00000000000E+00  0.10708341114E+04  0.10708341114E+04  0.25500000000E-02 0.  1.
         -2   -1    0    0    0  501 -0.00000000000E+00 -0.00000000000E+00 -0.41550896690E+03  0.41550896691E+03  0.25500000000E-02 0. -1.
    5000001    1    1    2    0    0  0.62250420442E+03  0.31364305285E+02  0.17175544329E+03  0.67443245508E+03  0.19200000000E+03 0.  0.
   -5000001    1    1    2    0    0 -0.62250420442E+03 -0.31364305285E+02  0.48356970120E+03  0.81191062321E+03  0.19200000000E+03 0.  0.
<mgrwt>
<rscale>  0 0.13340782E+04</rscale>
<asrwt>0</asrwt>
<pdfrwt beam="1">  1        2 0.15297630E+00 0.13340782E+04</pdfrwt>
<pdfrwt beam="2">  1       -2 0.59358425E-01 0.13340782E+04</pdfrwt>
<totfact> 0.65949025E+01</totfact>
</mgrwt>
</event>
<event>
 4    1  0.5900026E-005  0.4981707E+03  0.7818608E-02  0.1014257E+00
         -2   -1    0    0    0  501 -0.00000000000E+00  0.00000000000E+00  0.10680001877E+03  0.10680001880E+03  0.25500000000E-02 0. -1.
          2   -1    0    0  501    0  0.00000000000E+00 -0.00000000000E+00 -0.58093165528E+03  0.58093165528E+03  0.25500000000E-02 0.  1.
    5000001    1    1    2    0    0  0.88227383948E+02  0.36145304719E+02 -0.61958298828E+02  0.22314431457E+03  0.19200000000E+03 0.  0.
   -5000001    1    1    2    0    0 -0.88227383948E+02 -0.36145304719E+02 -0.41217333768E+03  0.46458735952E+03  0.19200000000E+03 0.  0.
<mgrwt>
<rscale>  0 0.49817070E+03</rscale>
<asrwt>0</asrwt>
<pdfrwt beam="1">  1        2 0.82990235E-01 0.49817070E+03</pdfrwt>
<pdfrwt beam="2">  1       -2 0.15257146E-01 0.49817070E+03</pdfrwt>
<totfact> 0.19118473E+03</totfact>
</mgrwt>
</event>
<event>
 4    1  0.5900026E-005  0.1082370E+04  0.7818608E-02  0.9222548E-01
          2   -1    0    0  501    0  0.00000000000E+00  0.00000000000E+00  0.49545290716E+03  0.49545290717E+03  0.25500000000E-02 0. -1.
         -2   -1    0    0    0  501 -0.00000000000E+00 -0.00000000000E+00 -0.59113808315E+03  0.59113808315E+03  0.25500000000E-02 0.  1.
    5000001    1    1    2    0    0  0.25725364642E+03 -0.41316698486E+03  0.91010554850E+02  0.53106809081E+03  0.19200000000E+03 0.  0.
   -5000001    1    1    2    0    0 -0.25725364642E+03  0.41316698486E+03 -0.18669573083E+03  0.55552289952E+03  0.19200000000E+03 0.  0.
<mgrwt>
<rscale>  0 0.10823698E+04</rscale>
<asrwt>0</asrwt>
<pdfrwt beam="1">  1        2 0.70778987E-01 0.10823698E+04</pdfrwt>
<pdfrwt beam="2">  1       -2 0.84448298E-01 0.10823698E+04</pdfrwt>
<totfact> 0.82562025E+01</totfact>
</mgrwt>
</event>
<event>
 4    1  0.5900026E-005  0.5402305E+03  0.7818608E-02  0.1003781E+00
         -2   -1    0    0    0  501 -0.00000000000E+00  0.00000000000E+00  0.61420705479E+02  0.61420705532E+02  0.25500000000E-02 0. -1.
          2   -1    0    0  501    0  0.00000000000E+00 -0.00000000000E+00 -0.11879096857E+04  0.11879096857E+04  0.25500000000E-02 0.  1.
    5000001    1    1    2    0    0  0.17819635780E+03  0.48235327521E+02 -0.45936676549E+03  0.53100133144E+03  0.19200000000E+03 0.  0.
   -5000001    1    1    2    0    0 -0.17819635780E+03 -0.48235327521E+02 -0.66712221472E+03  0.71832905978E+03  0.19200000000E+03 0.  0.
<mgrwt>
<rscale>  0 0.54023051E+03</rscale>
<asrwt>0</asrwt>
<pdfrwt beam="1">  1        2 0.16970137E+00 0.54023051E+03</pdfrwt>
<pdfrwt beam="2">  1       -2 0.87743872E-02 0.54023051E+03</pdfrwt>
<totfact> 0.18552330E+03</totfact>
</mgrwt>
</event>
<event>
 4    1  0.5900026E-005  0.4498904E+03  0.7818608E-02  0.1027755E+00
          2   -1    0    0  501    0  0.00000000000E+00  0.00000000000E+00  0.19599252778E+04  0.19599252778E+04  0.25500000000E-02 0.  1.
         -2   -1    0    0    0  501 -0.00000000000E+00 -0.00000000000E+00 -0.25817486081E+02  0.25817486206E+02  0.25500000000E-02 0. -1.
    5000001    1    1    2    0    0  0.11498694098E+03  0.10623368256E+02  0.87861277229E+03  0.90672997976E+03  0.19200000000E+03 0.  0.
   -5000001    1    1    2    0    0 -0.11498694098E+03 -0.10623368256E+02  0.10554950194E+04  0.10790127842E+04  0.19200000000E+03 0.  0.
<mgrwt>
<rscale>  0 0.44989040E+03</rscale>
<asrwt>0</asrwt>
<pdfrwt beam="1">  1        2 0.27998938E+00 0.44989040E+03</pdfrwt>
<pdfrwt beam="2">  1       -2 0.36882116E-02 0.44989040E+03</pdfrwt>
<totfact> 0.28559960E+03</totfact>
</mgrwt>
</event>
<event>
 4    1  0.5900026E-005  0.1202583E+04  0.7818608E-02  0.9110599E-01
         -2   -1    0    0    0  501 -0.00000000000E+00  0.00000000000E+00  0.12073381028E+04  0.12073381028E+04  0.25500000000E-02 0. -1.
          2   -1    0    0  501    0  0.00000000000E+00 -0.00000000000E+00 -0.29946153591E+03  0.29946153592E+03  0.25500000000E-02 0.  1.
    5000001    1    1    2    0    0 -0.45385702684E+03  0.25918632949E+03  0.16952917472E+03  0.58203770950E+03  0.19200000000E+03 0.  0.
   -5000001    1    1    2    0    0  0.45385702684E+03 -0.25918632949E+03  0.73834739217E+03  0.92476192922E+03  0.19200000000E+03 0.  0.
<mgrwt>
<rscale>  0 0.12025828E+04</rscale>
<asrwt>0</asrwt>
<pdfrwt beam="1">  1        2 0.42780219E-01 0.12025828E+04</pdfrwt>
<pdfrwt beam="2">  1       -2 0.17247687E+00 0.12025828E+04</pdfrwt>
<totfact> 0.24133065E+01</totfact>
</mgrwt>
</event>
<event>
 4    1  0.5900026E-005  0.4247001E+03  0.7818608E-02  0.1035547E+00
         -2   -1    0    0    0  501 -0.00000000000E+00  0.00000000000E+00  0.51855230076E+02  0.51855230138E+02  0.25500000000E-02 0. -1.
          2   -1    0    0  501    0  0.00000000000E+00 -0.00000000000E+00 -0.86958531875E+03  0.86958531876E+03  0.25500000000E-02 0.  1.
    5000001    1    1    2    0    0 -0.59520849213E+02 -0.66208734093E+02 -0.44658278861E+03  0.49419279137E+03  0.19200000000E+03 0.  0.
   -5000001    1    1    2    0    0  0.59520849213E+02  0.66208734093E+02 -0.37114730006E+03  0.42724775752E+03  0.19200000000E+03 0.  0.
<mgrwt>
<rscale>  0 0.42470011E+03</rscale>
<asrwt>0</asrwt>
<pdfrwt beam="1">  1        2 0.12422647E+00 0.42470011E+03</pdfrwt>
<pdfrwt beam="2">  1       -2 0.74078905E-02 0.42470011E+03</pdfrwt>
<totfact> 0.37632334E+03</totfact>
</mgrwt>
</event>
<event>
 4    1  0.5900026E-005  0.5685182E+03  0.7818608E-02  0.9972963E-01
          2   -1    0    0  501    0  0.00000000000E+00  0.00000000000E+00  0.50933238963E+03  0.50933238964E+03  0.25500000000E-02 0.  1.
         -2   -1    0    0    0  501 -0.00000000000E+00 -0.00000000000E+00 -0.15864536384E+03  0.15864536386E+03  0.25500000000E-02 0. -1.
    5000001    1    1    2    0    0 -0.12937957897E+03 -0.27842202997E+02 -0.15652728397E+02  0.23371622029E+03  0.19200000000E+03 0.  0.
   -5000001    1    1    2    0    0  0.12937957897E+03  0.27842202997E+02  0.36633975419E+03  0.43426153320E+03  0.19200000000E+03 0.  0.
<mgrwt>
<rscale>  0 0.56851815E+03</rscale>
<asrwt>0</asrwt>
<pdfrwt beam="1">  1        2 0.72761771E-01 0.56851815E+03</pdfrwt>
<pdfrwt beam="2">  1       -2 0.22663623E-01 0.56851815E+03</pdfrwt>
<totfact> 0.11250257E+03</totfact>
</mgrwt>
</event>
<event>
 4    1  0.5900026E-005  0.5788774E+03  0.7818608E-02  0.9950224E-01
          2   -1    0    0  501    0  0.00000000000E+00  0.00000000000E+00  0.13406709534E+04  0.13406709535E+04  0.25500000000E-02 0.  1.
         -2   -1    0    0    0  501 -0.00000000000E+00 -0.00000000000E+00 -0.62487201106E+02  0.62487201158E+02  0.25500000000E-02 0. -1.
    5000001    1    1    2    0    0 -0.14065518038E+03 -0.16424534558E+03  0.60936910187E+03  0.67450360683E+03  0.19200000000E+03 0.  0.
   -5000001    1    1    2    0    0  0.14065518038E+03  0.16424534558E+03  0.66881465047E+03  0.72865454778E+03  0.19200000000E+03 0.  0.
<mgrwt>
<rscale>  0 0.57887745E+03</rscale>
<asrwt>0</asrwt>
<pdfrwt beam="1">  1        2 0.19152441E+00 0.57887745E+03</pdfrwt>
<pdfrwt beam="2">  1       -2 0.89267435E-02 0.57887745E+03</pdfrwt>
<totfact> 0.14869168E+03</totfact>
</mgrwt>
</event>
<event>
 4    1  0.5900026E-005  0.5626820E+03  0.7818608E-02  0.9986004E-01
         -2   -1    0    0    0  501 -0.00000000000E+00  0.00000000000E+00  0.76370085847E+02  0.76370085890E+02  0.25500000000E-02 0. -1.
          2   -1    0    0  501    0  0.00000000000E+00 -0.00000000000E+00 -0.10364365576E+04  0.10364365576E+04  0.25500000000E-02 0.  1.
    5000001    1    1    2    0    0  0.16995971936E+03  0.10967366256E+03 -0.55334449737E+03  0.61965212114E+03  0.19200000000E+03 0.  0.
   -5000001    1    1    2    0    0 -0.16995971936E+03 -0.10967366256E+03 -0.40672197436E+03  0.49315452233E+03  0.19200000000E+03 0.  0.
<mgrwt>
<rscale>  0 0.56268197E+03</rscale>
<asrwt>0</asrwt>
<pdfrwt beam="1">  1        2 0.14806236E+00 0.56268197E+03</pdfrwt>
<pdfrwt beam="2">  1       -2 0.10910013E-01 0.56268197E+03</pdfrwt>
<totfact> 0.15956059E+03</totfact>
</mgrwt>
</event>
<event>
 4    1  0.5900026E-005  0.5467189E+03  0.7818608E-02  0.1002256E+00
         -2   -1    0    0    0  501 -0.00000000000E+00  0.00000000000E+00  0.74694495408E+02  0.74694495451E+02  0.25500000000E-02 0.  1.
          2   -1    0    0  501    0  0.00000000000E+00 -0.00000000000E+00 -0.10004136325E+04  0.10004136325E+04  0.25500000000E-02 0. -1.
    5000001    1    1    2    0    0  0.14146717967E+02 -0.18657682933E+03 -0.35787220229E+03  0.44715495753E+03  0.19200000000E+03 0.  0.
   -5000001    1    1    2    0    0 -0.14146717967E+02  0.18657682933E+03 -0.56784693475E+03  0.62795317037E+03  0.19200000000E+03 0.  0.
<mgrwt>
<rscale>  0 0.54671891E+03</rscale>
<asrwt>0</asrwt>
<pdfrwt beam="1">  1        2 0.14291622E+00 0.54671891E+03</pdfrwt>
<pdfrwt beam="2">  1       -2 0.10670643E-01 0.54671891E+03</pdfrwt>
<totfact> 0.17393849E+03</totfact>
</mgrwt>
</event>
<event>
 4    1  0.5900026E-005  0.5819881E+03  0.7818608E-02  0.9943496E-01
          2   -1    0    0  501    0  0.00000000000E+00  0.00000000000E+00  0.26803649553E+04  0.26803649553E+04  0.25500000000E-02 0.  1.
         -2   -1    0    0    0  501 -0.00000000000E+00 -0.00000000000E+00 -0.31591798191E+02  0.31591798294E+02  0.25500000000E-02 0. -1.
    5000001    1    1    2    0    0  0.16814934252E+03  0.64730924013E+02  0.74707233157E+03  0.79211448826E+03  0.19200000000E+03 0.  0.
   -5000001    1    1    2    0    0 -0.16814934252E+03 -0.64730924013E+02  0.19017008256E+04  0.19198422654E+04  0.19200000000E+03 0.  0.
<mgrwt>
<rscale>  0 0.58198814E+03</rscale>
<asrwt>0</asrwt>
<pdfrwt beam="1">  1        2 0.38290941E+00 0.58198814E+03</pdfrwt>
<pdfrwt beam="2">  1       -2 0.45131125E-02 0.58198814E+03</pdfrwt>
<totfact> 0.89897717E+02</totfact>
</mgrwt>
</event>
<event>
 4    1  0.5900026E-005  0.5982264E+03  0.7818608E-02  0.9909093E-01
         -2   -1    0    0    0  501 -0.00000000000E+00  0.00000000000E+00  0.14008474620E+03  0.14008474622E+03  0.25500000000E-02 0. -1.
          2   -1    0    0  501    0  0.00000000000E+00 -0.00000000000E+00 -0.63867553472E+03  0.63867553473E+03  0.25500000000E-02 0.  1.
    5000001    1    1    2    0    0  0.18317713014E+03  0.10198900912E+03 -0.12822910791E+03  0.31186908007E+03  0.19200000000E+03 0.  0.
   -5000001    1    1    2    0    0 -0.18317713014E+03 -0.10198900912E+03 -0.37036168062E+03  0.46689120088E+03  0.19200000000E+03 0.  0.
<mgrwt>
<rscale>  0 0.59822638E+03</rscale>
<asrwt>0</asrwt>
<pdfrwt beam="1">  1        2 0.91239361E-01 0.59822638E+03</pdfrwt>
<pdfrwt beam="2">  1       -2 0.20012107E-01 0.59822638E+03</pdfrwt>
<totfact> 0.10751068E+03</totfact>
</mgrwt>
</event>
<event>
 4    1  0.5900026E-005  0.1379019E+04  0.7818608E-02  0.8969147E-01
         -2   -1    0    0    0  501 -0.00000000000E+00  0.00000000000E+00  0.47755935740E+03  0.47755935741E+03  0.25500000000E-02 0. -1.
          2   -1    0    0  501    0  0.00000000000E+00 -0.00000000000E+00 -0.99552683709E+03  0.99552683709E+03  0.25500000000E-02 0.  1.
    5000001    1    1    2    0    0 -0.36074631653E+03 -0.54703513562E+03 -0.15667024523E+03  0.70056756293E+03  0.19200000000E+03 0.  0.
   -5000001    1    1    2    0    0  0.36074631653E+03  0.54703513562E+03 -0.36129723446E+03  0.77251863157E+03  0.19200000000E+03 0.  0.
<mgrwt>
<rscale>  0 0.13790187E+04</rscale>
<asrwt>0</asrwt>
<pdfrwt beam="1">  1        2 0.14221812E+00 0.13790187E+04</pdfrwt>
<pdfrwt beam="2">  1       -2 0.68222766E-01 0.13790187E+04</pdfrwt>
<totfact> 0.54250858E+01</totfact>
</mgrwt>
</event>
<event>
 4    1  0.5900026E-005  0.6608308E+03  0.7818608E-02  0.9786665E-01
         -2   -1    0    0    0  501 -0.00000000000E+00  0.00000000000E+00  0.10641633021E+03  0.10641633024E+03  0.25500000000E-02 0. -1.
          2   -1    0    0  501    0  0.00000000000E+00 -0.00000000000E+00 -0.10259172297E+04  0.10259172297E+04  0.25500000000E-02 0.  1.
    5000001    1    1    2    0    0  0.74852970271E+02  0.65070589597E+02 -0.88803356324E+03  0.91395008520E+03  0.19200000000E+03 0.  0.
   -5000001    1    1    2    0    0 -0.74852970271E+02 -0.65070589597E+02 -0.31467336231E+02  0.21838347474E+03  0.19200000000E+03 0.  0.
<mgrwt>
<rscale>  0 0.66083083E+03</rscale>
<asrwt>0</asrwt>
<pdfrwt beam="1">  1        2 0.14655960E+00 0.66083083E+03</pdfrwt>
<pdfrwt beam="2">  1       -2 0.15202333E-01 0.66083083E+03</pdfrwt>
<totfact> 0.93173730E+02</totfact>
</mgrwt>
</event>
<event>
 4    1  0.5900026E-005  0.1580059E+04  0.7818608E-02  0.8832893E-01
         -2   -1    0    0    0  501 -0.00000000000E+00  0.00000000000E+00  0.79578193344E+03  0.79578193345E+03  0.25500000000E-02 0. -1.
          2   -1    0    0  501    0  0.00000000000E+00 -0.00000000000E+00 -0.78431827036E+03  0.78431827036E+03  0.25500000000E-02 0.  1.
    5000001    1    1    2    0    0 -0.51196665011E+03  0.57023442050E+03  0.34592219469E+01  0.79003361407E+03  0.19200000000E+03 0.  0.
   -5000001    1    1    2    0    0  0.51196665011E+03 -0.57023442050E+03  0.80044411398E+01  0.79006658974E+03  0.19200000000E+03 0.  0.
<mgrwt>
<rscale>  0 0.15800586E+04</rscale>
<asrwt>0</asrwt>
<pdfrwt beam="1">  1        2 0.11204547E+00 0.15800586E+04</pdfrwt>
<pdfrwt beam="2">  1       -2 0.11368313E+00 0.15800586E+04</pdfrwt>
<totfact> 0.22764647E+01</totfact>
</mgrwt>
</event>
<event>
 4    1  0.5900026E-005  0.6874052E+03  0.7818608E-02  0.9739017E-01
         -2   -1    0    0    0  501 -0.00000000000E+00  0.00000000000E+00  0.78697686026E+03  0.78697686027E+03  0.25500000000E-02 0. -1.
          2   -1    0    0  501    0  0.00000000000E+00 -0.00000000000E+00 -0.15010795348E+03  0.15010795350E+03  0.25500000000E-02 0.  1.
    5000001    1    1    2    0    0  0.12023647701E+03 -0.17717223992E+03  0.61871187839E+02  0.29417487467E+03  0.19200000000E+03 0.  0.
   -5000001    1    1    2    0    0 -0.12023647701E+03  0.17717223992E+03  0.57499771894E+03  0.64290993910E+03  0.19200000000E+03 0.  0.
<mgrwt>
<rscale>  0 0.68740523E+03</rscale>
<asrwt>0</asrwt>
<pdfrwt beam="1">  1        2 0.21443994E-01 0.68740523E+03</pdfrwt>
<pdfrwt beam="2">  1       -2 0.11242526E+00 0.68740523E+03</pdfrwt>
<totfact> 0.16493909E+02</totfact>
</mgrwt>
</event>
<event>
 4    1  0.5900026E-005  0.5133780E+03  0.7818608E-02  0.1010345E+00
          2   -1    0    0  501    0  0.00000000000E+00  0.00000000000E+00  0.17511225735E+04  0.17511225735E+04  0.25500000000E-02 0.  1.
         -2   -1    0    0    0  501 -0.00000000000E+00 -0.00000000000E+00 -0.37626857304E+02  0.37626857390E+02  0.25500000000E-02 0. -1.
    5000001    1    1    2    0    0 -0.11299528081E+03 -0.86970624947E+02  0.53187943388E+03  0.58317369219E+03  0.19200000000E+03 0.  0.
   -5000001    1    1    2    0    0  0.11299528081E+03  0.86970624947E+02  0.11816162823E+04  0.12055757386E+04  0.19200000000E+03 0.  0.
<mgrwt>
<rscale>  0 0.51337799E+03</rscale>
<asrwt>0</asrwt>
<pdfrwt beam="1">  1        2 0.25016039E+00 0.51337799E+03</pdfrwt>
<pdfrwt beam="2">  1       -2 0.53752649E-02 0.51337799E+03</pdfrwt>
<totfact> 0.20328295E+03</totfact>
</mgrwt>
</event>
<event>
 4    1  0.5900026E-005  0.5884754E+03  0.7818608E-02  0.9929609E-01
          2   -1    0    0  501    0  0.00000000000E+00  0.00000000000E+00  0.17337722182E+04  0.17337722182E+04  0.25500000000E-02 0.  1.
         -2   -1    0    0    0  501 -0.00000000000E+00 -0.00000000000E+00 -0.49934947647E+02  0.49934947713E+02  0.25500000000E-02 0. -1.
    5000001    1    1    2    0    0  0.16181432018E+03  0.29954102159E+02  0.38594024581E+03  0.46140545704E+03  0.19200000000E+03 0.  0.
   -5000001    1    1    2    0    0 -0.16181432018E+03 -0.29954102159E+02  0.12978970248E+04  0.13223017089E+04  0.19200000000E+03 0.  0.
<mgrwt>
<rscale>  0 0.58847540E+03</rscale>
<asrwt>0</asrwt>
<pdfrwt beam="1">  1        2 0.24768173E+00 0.58847540E+03</pdfrwt>
<pdfrwt beam="2">  1       -2 0.71335643E-02 0.58847540E+03</pdfrwt>
<totfact> 0.13278458E+03</totfact>
</mgrwt>
</event>
<event>
 4    1  0.5900026E-005  0.6842923E+03  0.7818608E-02  0.9744478E-01
         -2   -1    0    0    0  501 -0.00000000000E+00  0.00000000000E+00  0.14506617344E+03  0.14506617346E+03  0.25500000000E-02 0.  1.
          2   -1    0    0  501    0  0.00000000000E+00 -0.00000000000E+00 -0.80696961487E+03  0.80696961487E+03  0.25500000000E-02 0. -1.
    5000001    1    1    2    0    0 -0.93797964008E+02  0.26704751917E+03 -0.34397022072E+03  0.48506901395E+03  0.19200000000E+03 0.  0.
   -5000001    1    1    2    0    0  0.93797964008E+02 -0.26704751917E+03 -0.31793322070E+03  0.46696677438E+03  0.19200000000E+03 0.  0.
<mgrwt>
<rscale>  0 0.68429232E+03</rscale>
<asrwt>0</asrwt>
<pdfrwt beam="1">  1        2 0.11528137E+00 0.68429232E+03</pdfrwt>
<pdfrwt beam="2">  1       -2 0.20723740E-01 0.68429232E+03</pdfrwt>
<totfact> 0.75592388E+02</totfact>
</mgrwt>
</event>
<event>
 4    1  0.5900026E-005  0.5429949E+03  0.7818608E-02  0.1003128E+00
         -2   -1    0    0    0  501 -0.00000000000E+00  0.00000000000E+00  0.62602349536E+02  0.62602349588E+02  0.25500000000E-02 0. -1.
          2   -1    0    0  501    0  0.00000000000E+00 -0.00000000000E+00 -0.11774457044E+04  0.11774457044E+04  0.25500000000E-02 0.  1.
    5000001    1    1    2    0    0  0.14384707038E+03  0.12256026098E+03 -0.48052201068E+03  0.55088873648E+03  0.19200000000E+03 0.  0.
   -5000001    1    1    2    0    0 -0.14384707038E+03 -0.12256026098E+03 -0.63432134421E+03  0.68915931754E+03  0.19200000000E+03 0.  0.
<mgrwt>
<rscale>  0 0.54299491E+03</rscale>
<asrwt>0</asrwt>
<pdfrwt beam="1">  1        2 0.16820652E+00 0.54299491E+03</pdfrwt>
<pdfrwt beam="2">  1       -2 0.89431935E-02 0.54299491E+03</pdfrwt>
<totfact> 0.18238912E+03</totfact>
</mgrwt>
</event>
<event>
 4    1  0.5900026E-005  0.7032901E+03  0.7818608E-02  0.9711622E-01
          2   -1    0    0  501    0  0.00000000000E+00  0.00000000000E+00  0.13241049660E+04  0.13241049660E+04  0.25500000000E-02 0.  1.
         -2   -1    0    0    0  501 -0.00000000000E+00 -0.00000000000E+00 -0.93387043090E+02  0.93387043125E+02  0.25500000000E-02 0. -1.
    5000001    1    1    2    0    0  0.27625265585E+03  0.77410293568E+02  0.48041928295E+03  0.59158648636E+03  0.19200000000E+03 0.  0.
   -5000001    1    1    2    0    0 -0.27625265585E+03 -0.77410293568E+02  0.75029863996E+03  0.82590552276E+03  0.19200000000E+03 0.  0.
<mgrwt>
<rscale>  0 0.70329012E+03</rscale>
<asrwt>0</asrwt>
<pdfrwt beam="1">  1        2 0.18915785E+00 0.70329012E+03</pdfrwt>
<pdfrwt beam="2">  1       -2 0.13341006E-01 0.70329012E+03</pdfrwt>
<totfact> 0.78340388E+02</totfact>
</mgrwt>
</event>
<event>
 4    1  0.5900026E-005  0.7717014E+03  0.7818608E-02  0.9601906E-01
          2   -1    0    0  501    0  0.00000000000E+00  0.00000000000E+00  0.39006178527E+04  0.39006178527E+04  0.25500000000E-02 0.  1.
         -2   -1    0    0    0  501 -0.00000000000E+00 -0.00000000000E+00 -0.38168509922E+02  0.38168510007E+02  0.25500000000E-02 0. -1.
    5000001    1    1    2    0    0 -0.15473371350E+03 -0.22844623753E+03  0.96433020420E+03  0.10212379489E+04  0.19200000000E+03 0.  0.
   -5000001    1    1    2    0    0  0.15473371350E+03  0.22844623753E+03  0.28981191385E+04  0.29175484138E+04  0.19200000000E+03 0.  0.
<mgrwt>
<rscale>  0 0.77170142E+03</rscale>
<asrwt>0</asrwt>
<pdfrwt beam="1">  1        2 0.55723071E+00 0.77170142E+03</pdfrwt>
<pdfrwt beam="2">  1       -2 0.54526483E-02 0.77170142E+03</pdfrwt>
<totfact> 0.12955675E+02</totfact>
</mgrwt>
</event>
<event>
 4    1  0.5900026E-005  0.8277274E+03  0.7818608E-02  0.9520728E-01
         -2   -1    0    0    0  501 -0.00000000000E+00  0.00000000000E+00  0.12423244727E+03  0.12423244730E+03  0.25500000000E-02 0. -1.
          2   -1    0    0  501    0  0.00000000000E+00 -0.00000000000E+00 -0.13787313789E+04  0.13787313789E+04  0.25500000000E-02 0.  1.
    5000001    1    1    2    0    0 -0.19969788245E+03 -0.10272081174E+03 -0.10102535520E+03  0.31225139201E+03  0.19200000000E+03 0.  0.
   -5000001    1    1    2    0    0  0.19969788245E+03  0.10272081174E+03 -0.11534735765E+04  0.11907124342E+04  0.19200000000E+03 0.  0.
<mgrwt>
<rscale>  0 0.82772743E+03</rscale>
<asrwt>0</asrwt>
<pdfrwt beam="1">  1        2 0.19696162E+00 0.82772743E+03</pdfrwt>
<pdfrwt beam="2">  1       -2 0.17747493E-01 0.82772743E+03</pdfrwt>
<totfact> 0.44846175E+02</totfact>
</mgrwt>
</event>
<event>
 4    1  0.5900026E-005  0.7677862E+03  0.7818608E-02  0.9607852E-01
          2   -1    0    0  501    0  0.00000000000E+00  0.00000000000E+00  0.11949329391E+04  0.11949329391E+04  0.25500000000E-02 0.  1.
         -2   -1    0    0    0  501 -0.00000000000E+00 -0.00000000000E+00 -0.12333238166E+03  0.12333238168E+03  0.25500000000E-02 0. -1.
    5000001    1    1    2    0    0 -0.29391146586E+03  0.15248018883E+03  0.48498937313E+03  0.61782914288E+03  0.19200000000E+03 0.  0.
   -5000001    1    1    2    0    0  0.29391146586E+03 -0.15248018883E+03  0.58661118429E+03  0.70043617788E+03  0.19200000000E+03 0.  0.
<mgrwt>
<rscale>  0 0.76778623E+03</rscale>
<asrwt>0</asrwt>
<pdfrwt beam="1">  1        2 0.17070470E+00 0.76778623E+03</pdfrwt>
<pdfrwt beam="2">  1       -2 0.17618912E-01 0.76778623E+03</pdfrwt>
<totfact> 0.57512013E+02</totfact>
</mgrwt>
</event>
<event>
 4    1  0.5900026E-005  0.9033724E+03  0.7818608E-02  0.9421376E-01
         -2   -1    0    0    0  501 -0.00000000000E+00  0.00000000000E+00  0.22712625414E+03  0.22712625415E+03  0.25500000000E-02 0. -1.
          2   -1    0    0  501    0  0.00000000000E+00 -0.00000000000E+00 -0.89826874767E+03  0.89826874768E+03  0.25500000000E-02 0.  1.
    5000001    1    1    2    0    0 -0.16832999364E+03 -0.32649920302E+03 -0.55918520809E+03  0.69605230643E+03  0.19200000000E+03 0.  0.
   -5000001    1    1    2    0    0  0.16832999364E+03  0.32649920302E+03 -0.11195728544E+03  0.42934269540E+03  0.19200000000E+03 0.  0.
<mgrwt>
<rscale>  0 0.90337238E+03</rscale>
<asrwt>0</asrwt>
<pdfrwt beam="1">  1        2 0.12832411E+00 0.90337238E+03</pdfrwt>
<pdfrwt beam="2">  1       -2 0.32446608E-01 0.90337238E+03</pdfrwt>
<totfact> 0.28845799E+02</totfact>
</mgrwt>
</event>
<event>
 4    1  0.5900026E-005  0.5257977E+03  0.7818608E-02  0.1007256E+00
          2   -1    0    0  501    0  0.00000000000E+00  0.00000000000E+00  0.11990398426E+04  0.11990398426E+04  0.25500000000E-02 0. -1.
         -2   -1    0    0    0  501 -0.00000000000E+00 -0.00000000000E+00 -0.57642623302E+02  0.57642623359E+02  0.25500000000E-02 0.  1.
    5000001    1    1    2    0    0  0.16778183317E+03 -0.53407494259E+02  0.48624162019E+03  0.55163213938E+03  0.19200000000E+03 0.  0.
   -5000001    1    1    2    0    0 -0.16778183317E+03  0.53407494259E+02  0.65515559911E+03  0.70505032660E+03  0.19200000000E+03 0.  0.
<mgrwt>
<rscale>  0 0.52579769E+03</rscale>
<asrwt>0</asrwt>
<pdfrwt beam="1">  1        2 0.17129138E+00 0.52579769E+03</pdfrwt>
<pdfrwt beam="2">  1       -2 0.82346616E-02 0.52579769E+03</pdfrwt>
<totfact> 0.20243432E+03</totfact>
</mgrwt>
</event>
<event>
 4    1  0.5900026E-005  0.5298222E+03  0.7818608E-02  0.1006275E+00
         -2   -1    0    0    0  501 -0.00000000000E+00  0.00000000000E+00  0.53034126368E+03  0.53034126368E+03  0.25500000000E-02 0. -1.
          2   -1    0    0  501    0  0.00000000000E+00 -0.00000000000E+00 -0.13232589114E+03  0.13232589117E+03  0.25500000000E-02 0.  1.
    5000001    1    1    2    0    0  0.12125800269E+03 -0.86712385674E+01  0.36928775205E+03  0.43360827645E+03  0.19200000000E+03 0.  0.
   -5000001    1    1    2    0    0 -0.12125800269E+03  0.86712385674E+01  0.28727620488E+02  0.22905887840E+03  0.19200000000E+03 0.  0.
<mgrwt>
<rscale>  0 0.52982216E+03</rscale>
<asrwt>0</asrwt>
<pdfrwt beam="1">  1        2 0.18903699E-01 0.52982216E+03</pdfrwt>
<pdfrwt beam="2">  1       -2 0.75763037E-01 0.52982216E+03</pdfrwt>
<totfact> 0.47842306E+02</totfact>
</mgrwt>
</event>
<event>
 4    1  0.5900026E-005  0.5196650E+03  0.7818608E-02  0.1008770E+00
         -2   -1    0    0    0  501 -0.00000000000E+00  0.00000000000E+00  0.57656964403E+02  0.57656964459E+02  0.25500000000E-02 0. -1.
          2   -1    0    0  501    0  0.00000000000E+00 -0.00000000000E+00 -0.11709416309E+04  0.11709416309E+04  0.25500000000E-02 0.  1.
    5000001    1    1    2    0    0 -0.15097050778E+03 -0.68184901244E+02 -0.42274219960E+03  0.49296677606E+03  0.19200000000E+03 0.  0.
   -5000001    1    1    2    0    0  0.15097050778E+03  0.68184901244E+02 -0.69054246688E+03  0.73563181928E+03  0.19200000000E+03 0.  0.
<mgrwt>
<rscale>  0 0.51966505E+03</rscale>
<asrwt>0</asrwt>
<pdfrwt beam="1">  1        2 0.16727736E+00 0.51966505E+03</pdfrwt>
<pdfrwt beam="2">  1       -2 0.82367099E-02 0.51966505E+03</pdfrwt>
<totfact> 0.20984302E+03</totfact>
</mgrwt>
</event>
<event>
 4    1  0.5900026E-005  0.5114603E+03  0.7818608E-02  0.1010830E+00
         -2   -1    0    0    0  501 -0.00000000000E+00  0.00000000000E+00  0.63185117855E+02  0.63185117906E+02  0.25500000000E-02 0. -1.
          2   -1    0    0  501    0  0.00000000000E+00 -0.00000000000E+00 -0.10350207821E+04  0.10350207821E+04  0.25500000000E-02 0.  1.
    5000001    1    1    2    0    0  0.76431533510E+02  0.12992112227E+03 -0.32221421101E+03  0.40423665730E+03  0.19200000000E+03 0.  0.
   -5000001    1    1    2    0    0 -0.76431533510E+02 -0.12992112227E+03 -0.64962145325E+03  0.69396924273E+03  0.19200000000E+03 0.  0.
<mgrwt>
<rscale>  0 0.51146030E+03</rscale>
<asrwt>0</asrwt>
<pdfrwt beam="1">  1        2 0.14786010E+00 0.51146030E+03</pdfrwt>
<pdfrwt beam="2">  1       -2 0.90264461E-02 0.51146030E+03</pdfrwt>
<totfact> 0.21728413E+03</totfact>
</mgrwt>
</event>
<event>
 4    1  0.5900026E-005  0.2173950E+04  0.7818608E-02  0.8529350E-01
          2   -1    0    0  501    0  0.00000000000E+00  0.00000000000E+00  0.18834906046E+04  0.18834906046E+04  0.25500000000E-02 0.  1.
         -2   -1    0    0    0  501 -0.00000000000E+00 -0.00000000000E+00 -0.62730044727E+03  0.62730044728E+03  0.25500000000E-02 0. -1.
    5000001    1    1    2    0    0 -0.85612536434E+02  0.62803679719E+03  0.16235544311E+04  0.17534402516E+04  0.19200000000E+03 0.  0.
   -5000001    1    1    2    0    0  0.85612536434E+02 -0.62803679719E+03 -0.36736427382E+03  0.75735080029E+03  0.19200000000E+03 0.  0.
<mgrwt>
<rscale>  0 0.21739499E+04</rscale>
<asrwt>0</asrwt>
<pdfrwt beam="1">  1        2 0.26907009E+00 0.21739499E+04</pdfrwt>
<pdfrwt beam="2">  1       -2 0.89614349E-01 0.21739499E+04</pdfrwt>
<totfact> 0.90502386E+00</totfact>
</mgrwt>
</event>
<event>
 4    1  0.5900026E-005  0.5165081E+03  0.7818608E-02  0.1009558E+00
         -2   -1    0    0    0  501 -0.00000000000E+00  0.00000000000E+00  0.57004060229E+03  0.57004060230E+03  0.25500000000E-02 0. -1.
          2   -1    0    0  501    0  0.00000000000E+00 -0.00000000000E+00 -0.11700070315E+03  0.11700070318E+03  0.25500000000E-02 0.  1.
    5000001    1    1    2    0    0 -0.16286193529E+03  0.55929029364E+02  0.24432057820E+03  0.35525851323E+03  0.19200000000E+03 0.  0.
   -5000001    1    1    2    0    0  0.16286193529E+03 -0.55929029364E+02  0.20871932095E+03  0.33178279224E+03  0.19200000000E+03 0.  0.
<mgrwt>
<rscale>  0 0.51650809E+03</rscale>
<asrwt>0</asrwt>
<pdfrwt beam="1">  1        2 0.16714386E-01 0.51650809E+03</pdfrwt>
<pdfrwt beam="2">  1       -2 0.81434371E-01 0.51650809E+03</pdfrwt>
<totfact> 0.47144072E+02</totfact>
</mgrwt>
</event>
<event>
 4    1  0.5900026E-005  0.5370291E+03  0.7818608E-02  0.1004542E+00
          2   -1    0    0  501    0  0.00000000000E+00  0.00000000000E+00  0.30152773397E+04  0.30152773397E+04  0.25500000000E-02 0.  1.
         -2   -1    0    0    0  501 -0.00000000000E+00 -0.00000000000E+00 -0.23911587071E+02  0.23911587207E+02  0.25500000000E-02 0. -1.
    5000001    1    1    2    0    0  0.15952762909E+03 -0.92219735457E+02  0.12930114998E+04  0.13201122235E+04  0.19200000000E+03 0.  0.
   -5000001    1    1    2    0    0 -0.15952762909E+03  0.92219735457E+02  0.16983542528E+04  0.17190767033E+04  0.19200000000E+03 0.  0.
<mgrwt>
<rscale>  0 0.53702911E+03</rscale>
<asrwt>0</asrwt>
<pdfrwt beam="1">  1        2 0.43075363E+00 0.53702911E+03</pdfrwt>
<pdfrwt beam="2">  1       -2 0.34159432E-02 0.53702911E+03</pdfrwt>
<totfact> 0.91780550E+02</totfact>
</mgrwt>
</event>
<event>
 4    1  0.5900026E-005  0.7410614E+03  0.7818608E-02  0.9649479E-01
         -2   -1    0    0    0  501 -0.00000000000E+00  0.00000000000E+00  0.49200791152E+03  0.49200791152E+03  0.25500000000E-02 0. -1.
          2   -1    0    0  501    0  0.00000000000E+00 -0.00000000000E+00 -0.27904632521E+03  0.27904632522E+03  0.25500000000E-02 0.  1.
    5000001    1    1    2    0    0  0.30027480614E+03 -0.92010704597E+02  0.62360933724E+02  0.37334141884E+03  0.19200000000E+03 0.  0.
   -5000001    1    1    2    0    0 -0.30027480614E+03  0.92010704597E+02  0.15060065259E+03  0.39771281790E+03  0.19200000000E+03 0.  0.
<mgrwt>
<rscale>  0 0.74106140E+03</rscale>
<asrwt>0</asrwt>
<pdfrwt beam="1">  1        2 0.39863761E-01 0.74106140E+03</pdfrwt>
<pdfrwt beam="2">  1       -2 0.70286844E-01 0.74106140E+03</pdfrwt>
<totfact> 0.24025993E+02</totfact>
</mgrwt>
</event>
<event>
 4    1  0.5900026E-005  0.4727553E+03  0.7818608E-02  0.1021145E+00
         -2   -1    0    0    0  501 -0.00000000000E+00  0.00000000000E+00  0.23610828659E+03  0.23610828661E+03  0.25500000000E-02 0.  1.
          2   -1    0    0  501    0  0.00000000000E+00 -0.00000000000E+00 -0.23664734233E+03  0.23664734235E+03  0.25500000000E-02 0. -1.
    5000001    1    1    2    0    0  0.69754438262E+02  0.11659678340E+03 -0.23719638544E+02  0.23640455327E+03  0.19200000000E+03 0.  0.
   -5000001    1    1    2    0    0 -0.69754438262E+02 -0.11659678340E+03  0.23180582806E+02  0.23635107568E+03  0.19200000000E+03 0.  0.
<mgrwt>
<rscale>  0 0.47275532E+03</rscale>
<asrwt>0</asrwt>
<pdfrwt beam="1">  1        2 0.33806763E-01 0.47275532E+03</pdfrwt>
<pdfrwt beam="2">  1       -2 0.33729755E-01 0.47275532E+03</pdfrwt>
<totfact> 0.12756242E+03</totfact>
</mgrwt>
</event>
<event>
 4    1  0.5900026E-005  0.9477116E+03  0.7818608E-02  0.9367829E-01
         -2   -1    0    0    0  501 -0.00000000000E+00  0.00000000000E+00  0.11941166921E+04  0.11941166921E+04  0.25500000000E-02 0.  1.
          2   -1    0    0  501    0  0.00000000000E+00 -0.00000000000E+00 -0.18803798871E+03  0.18803798873E+03  0.25500000000E-02 0. -1.
    5000001    1    1    2    0    0 -0.38379132591E+03  0.91903541386E+02  0.24242274425E+03  0.50137294471E+03  0.19200000000E+03 0.  0.
   -5000001    1    1    2    0    0  0.38379132591E+03 -0.91903541386E+02  0.76365595918E+03  0.88078173616E+03  0.19200000000E+03 0.  0.
<mgrwt>
<rscale>  0 0.94771156E+03</rscale>
<asrwt>0</asrwt>
<pdfrwt beam="1">  1        2 0.26862569E-01 0.94771156E+03</pdfrwt>
<pdfrwt beam="2">  1       -2 0.17058810E+00 0.94771156E+03</pdfrwt>
<totfact> 0.42688684E+01</totfact>
</mgrwt>
</event>
<event>
 4    1  0.5900026E-005  0.5304131E+03  0.7818608E-02  0.1006132E+00
         -2   -1    0    0    0  501 -0.00000000000E+00  0.00000000000E+00  0.68993314626E+02  0.68993314673E+02  0.25500000000E-02 0. -1.
          2   -1    0    0  501    0  0.00000000000E+00 -0.00000000000E+00 -0.10194395192E+04  0.10194395192E+04  0.25500000000E-02 0.  1.
    5000001    1    1    2    0    0 -0.12796635396E+03 -0.11000349705E+03 -0.62024282803E+03  0.67085119276E+03  0.19200000000E+03 0.  0.
   -5000001    1    1    2    0    0  0.12796635396E+03  0.11000349705E+03 -0.33020337651E+03  0.41758164108E+03  0.19200000000E+03 0.  0.
<mgrwt>
<rscale>  0 0.53041309E+03</rscale>
<asrwt>0</asrwt>
<pdfrwt beam="1">  1        2 0.14563421E+00 0.53041309E+03</pdfrwt>
<pdfrwt beam="2">  1       -2 0.98561884E-02 0.53041309E+03</pdfrwt>
<totfact> 0.19268683E+03</totfact>
</mgrwt>
</event>
<event>
 4    1  0.5900026E-005  0.8848421E+03  0.7818608E-02  0.9444730E-01
          2   -1    0    0  501    0  0.00000000000E+00  0.00000000000E+00  0.61540036035E+03  0.61540036036E+03  0.25500000000E-02 0. -1.
         -2   -1    0    0    0  501 -0.00000000000E+00 -0.00000000000E+00 -0.31806348188E+03  0.31806348189E+03  0.25500000000E-02 0.  1.
    5000001    1    1    2    0    0  0.32403882296E+02  0.35527665070E+03 -0.38866095426E+02  0.40699641706E+03  0.19200000000E+03 0.  0.
   -5000001    1    1    2    0    0 -0.32403882296E+02 -0.35527665070E+03  0.33620297390E+03  0.52646742519E+03  0.19200000000E+03 0.  0.
<mgrwt>
<rscale>  0 0.88484209E+03</rscale>
<asrwt>0</asrwt>
<pdfrwt beam="1">  1        2 0.87914337E-01 0.88484209E+03</pdfrwt>
<pdfrwt beam="2">  1       -2 0.45437640E-01 0.88484209E+03</pdfrwt>
<totfact> 0.24249245E+02</totfact>
</mgrwt>
</event>
<event>
 4    1  0.5900026E-005  0.6368814E+03  0.7818608E-02  0.9831712E-01
         -2   -1    0    0    0  501 -0.00000000000E+00  0.00000000000E+00  0.11367028731E+03  0.11367028734E+03  0.25500000000E-02 0. -1.
          2   -1    0    0  501    0  0.00000000000E+00 -0.00000000000E+00 -0.89209298853E+03  0.89209298853E+03  0.25500000000E-02 0.  1.
    5000001    1    1    2    0    0  0.16913225905E+03  0.14634518264E+03 -0.57948915501E+03  0.65014945536E+03  0.19200000000E+03 0.  0.
   -5000001    1    1    2    0    0 -0.16913225905E+03 -0.14634518264E+03 -0.19893354621E+03  0.35561382051E+03  0.19200000000E+03 0.  0.
<mgrwt>
<rscale>  0 0.63688136E+03</rscale>
<asrwt>0</asrwt>
<pdfrwt beam="1">  1        2 0.12744185E+00 0.63688136E+03</pdfrwt>
<pdfrwt beam="2">  1       -2 0.16238613E-01 0.63688136E+03</pdfrwt>
<totfact> 0.10109732E+03</totfact>
</mgrwt>
</event>
<event>
 4    1  0.5900026E-005  0.5753874E+03  0.7818608E-02  0.9957827E-01
         -2   -1    0    0    0  501 -0.00000000000E+00  0.00000000000E+00  0.32699838840E+02  0.32699838939E+02  0.25500000000E-02 0. -1.
          2   -1    0    0  501    0  0.00000000000E+00 -0.00000000000E+00 -0.25311337546E+04  0.25311337546E+04  0.25500000000E-02 0.  1.
    5000001    1    1    2    0    0 -0.14499149947E+03  0.15067829100E+03 -0.14571277438E+04  0.14845240800E+04  0.19200000000E+03 0.  0.
   -5000001    1    1    2    0    0  0.14499149947E+03 -0.15067829100E+03 -0.10413061720E+04  0.10793095136E+04  0.19200000000E+03 0.  0.
<mgrwt>
<rscale>  0 0.57538740E+03</rscale>
<asrwt>0</asrwt>
<pdfrwt beam="1">  1        2 0.36159041E+00 0.57538740E+03</pdfrwt>
<pdfrwt beam="2">  1       -2 0.46714071E-02 0.57538740E+03</pdfrwt>
<totfact> 0.10188294E+03</totfact>
</mgrwt>
</event>
<event>
 4    1  0.5900026E-005  0.1286280E+04  0.7818608E-02  0.9040516E-01
          2   -1    0    0  501    0  0.00000000000E+00  0.00000000000E+00  0.97490135887E+03  0.97490135887E+03  0.25500000000E-02 0.  1.
         -2   -1    0    0    0  501 -0.00000000000E+00 -0.00000000000E+00 -0.42427801388E+03  0.42427801389E+03  0.25500000000E-02 0. -1.
    5000001    1    1    2    0    0  0.58770516681E+03 -0.16980737117E+03  0.33006135593E+03  0.72113549703E+03  0.19200000000E+03 0.  0.
   -5000001    1    1    2    0    0 -0.58770516681E+03  0.16980737117E+03  0.22056198905E+03  0.67804387573E+03  0.19200000000E+03 0.  0.
<mgrwt>
<rscale>  0 0.12862802E+04</rscale>
<asrwt>0</asrwt>
<pdfrwt beam="1">  1        2 0.13927162E+00 0.12862802E+04</pdfrwt>
<pdfrwt beam="2">  1       -2 0.60611146E-01 0.12862802E+04</pdfrwt>
<totfact> 0.72478246E+01</totfact>
</mgrwt>
</event>
<event>
 4    1  0.5900026E-005  0.1776797E+04  0.7818608E-02  0.8718737E-01
          2   -1    0    0  501    0  0.00000000000E+00  0.00000000000E+00  0.84320612366E+03  0.84320612366E+03  0.25500000000E-02 0.  1.
         -2   -1    0    0    0  501 -0.00000000000E+00 -0.00000000000E+00 -0.93601334278E+03  0.93601334279E+03  0.25500000000E-02 0. -1.
    5000001    1    1    2    0    0 -0.37720582827E+03  0.78077939030E+03 -0.24294351773E+02  0.88845647542E+03  0.19200000000E+03 0.  0.
   -5000001    1    1    2    0    0  0.37720582827E+03 -0.78077939030E+03 -0.68512867351E+02  0.89076299103E+03  0.19200000000E+03 0.  0.
<mgrwt>
<rscale>  0 0.17767973E+04</rscale>
<asrwt>0</asrwt>
<pdfrwt beam="1">  1        2 0.12045802E+00 0.17767973E+04</pdfrwt>
<pdfrwt beam="2">  1       -2 0.13371619E+00 0.17767973E+04</pdfrwt>
<totfact> 0.13606509E+01</totfact>
</mgrwt>
</event>
<event>
 4    1  0.5900026E-005  0.5636614E+03  0.7818608E-02  0.9983804E-01
         -2   -1    0    0    0  501 -0.00000000000E+00  0.00000000000E+00  0.49727226276E+02  0.49727226341E+02  0.25500000000E-02 0. -1.
          2   -1    0    0  501    0  0.00000000000E+00 -0.00000000000E+00 -0.15972850818E+04  0.15972850818E+04  0.25500000000E-02 0.  1.
    5000001    1    1    2    0    0 -0.11740546700E+03  0.16932024054E+03 -0.80458744301E+03  0.85245430434E+03  0.19200000000E+03 0.  0.
   -5000001    1    1    2    0    0  0.11740546700E+03 -0.16932024054E+03 -0.74297041250E+03  0.79455800379E+03  0.19200000000E+03 0.  0.
<mgrwt>
<rscale>  0 0.56366145E+03</rscale>
<asrwt>0</asrwt>
<pdfrwt beam="1">  1        2 0.22818355E+00 0.56366145E+03</pdfrwt>
<pdfrwt beam="2">  1       -2 0.71038905E-02 0.56366145E+03</pdfrwt>
<totfact> 0.15703268E+03</totfact>
</mgrwt>
</event>
<event>
 4    1  0.5900026E-005  0.7098402E+03  0.7818608E-02  0.9700551E-01
         -2   -1    0    0    0  501 -0.00000000000E+00  0.00000000000E+00  0.22891889057E+03  0.22891889058E+03  0.25500000000E-02 0. -1.
          2   -1    0    0  501    0  0.00000000000E+00 -0.00000000000E+00 -0.55027472806E+03  0.55027472807E+03  0.25500000000E-02 0.  1.
    5000001    1    1    2    0    0  0.11803542484E+03 -0.23896903415E+03 -0.30821881670E+03  0.45044577894E+03  0.19200000000E+03 0.  0.
   -5000001    1    1    2    0    0 -0.11803542484E+03  0.23896903415E+03 -0.13137020800E+02  0.32874783971E+03  0.19200000000E+03 0.  0.
<mgrwt>
<rscale>  0 0.70984021E+03</rscale>
<asrwt>0</asrwt>
<pdfrwt beam="1">  1        2 0.78610675E-01 0.70984021E+03</pdfrwt>
<pdfrwt beam="2">  1       -2 0.32702699E-01 0.70984021E+03</pdfrwt>
<totfact> 0.52637488E+02</totfact>
</mgrwt>
</event>
<event>
 4    1  0.5900026E-005  0.7720243E+03  0.7818608E-02  0.9601418E-01
          2   -1    0    0  501    0  0.00000000000E+00  0.00000000000E+00  0.48766702154E+03  0.48766702154E+03  0.25500000000E-02 0.  1.
         -2   -1    0    0    0  501 -0.00000000000E+00 -0.00000000000E+00 -0.30554736062E+03  0.30554736063E+03  0.25500000000E-02 0. -1.
    5000001    1    1    2    0    0 -0.13099364389E+03  0.21029265187E+03 -0.14042168127E+03  0.34345972506E+03  0.19200000000E+03 0.  0.
   -5000001    1    1    2    0    0  0.13099364389E+03 -0.21029265187E+03  0.32254134219E+03  0.44975465711E+03  0.19200000000E+03 0.  0.
<mgrwt>
<rscale>  0 0.77202428E+03</rscale>
<asrwt>0</asrwt>
<pdfrwt beam="1">  1        2 0.69666717E-01 0.77202428E+03</pdfrwt>
<pdfrwt beam="2">  1       -2 0.43649623E-01 0.77202428E+03</pdfrwt>
<totfact> 0.34599417E+02</totfact>
</mgrwt>
</event>
<event>
 4    1  0.5900026E-005  0.5591718E+03  0.7818608E-02  0.9993930E-01
         -2   -1    0    0    0  501 -0.00000000000E+00  0.00000000000E+00  0.79428438701E+02  0.79428438742E+02  0.25500000000E-02 0. -1.
          2   -1    0    0  501    0  0.00000000000E+00 -0.00000000000E+00 -0.98413475084E+03  0.98413475085E+03  0.25500000000E-02 0.  1.
    5000001    1    1    2    0    0 -0.17801919141E+03  0.58327209696E+02 -0.60225688439E+03  0.65929526822E+03  0.19200000000E+03 0.  0.
   -5000001    1    1    2    0    0  0.17801919141E+03 -0.58327209696E+02 -0.30244942775E+03  0.40426792137E+03  0.19200000000E+03 0.  0.
<mgrwt>
<rscale>  0 0.55917184E+03</rscale>
<asrwt>0</asrwt>
<pdfrwt beam="1">  1        2 0.14059067E+00 0.55917184E+03</pdfrwt>
<pdfrwt beam="2">  1       -2 0.11346920E-01 0.55917184E+03</pdfrwt>
<totfact> 0.16096689E+03</totfact>
</mgrwt>
</event>
<event>
 4    1  0.5900026E-005  0.4810285E+03  0.7818608E-02  0.1018853E+00
          2   -1    0    0  501    0  0.00000000000E+00  0.00000000000E+00  0.22738886274E+04  0.22738886274E+04  0.25500000000E-02 0.  1.
         -2   -1    0    0    0  501 -0.00000000000E+00 -0.00000000000E+00 -0.25439721547E+02  0.25439721675E+02  0.25500000000E-02 0. -1.
    5000001    1    1    2    0    0 -0.65111557460E+02 -0.27122114852E+02  0.17290057499E+04  0.17410628958E+04  0.19200000000E+03 0.  0.
   -5000001    1    1    2    0    0  0.65111557460E+02  0.27122114852E+02  0.51944315596E+03  0.55826545326E+03  0.19200000000E+03 0.  0.
<mgrwt>
<rscale>  0 0.48102846E+03</rscale>
<asrwt>0</asrwt>
<pdfrwt beam="1">  1        2 0.32484127E+00 0.48102846E+03</pdfrwt>
<pdfrwt beam="2">  1       -2 0.36342455E-02 0.48102846E+03</pdfrwt>
<totfact> 0.20343333E+03</totfact>
</mgrwt>
</event>
<event>
 4    1  0.5900026E-005  0.5545008E+03  0.7818608E-02  0.1000458E+00
         -2   -1    0    0    0  501 -0.00000000000E+00  0.00000000000E+00  0.44688510477E+02  0.44688510550E+02  0.25500000000E-02 0. -1.
          2   -1    0    0  501    0  0.00000000000E+00 -0.00000000000E+00 -0.17200791540E+04  0.17200791540E+04  0.25500000000E-02 0.  1.
    5000001    1    1    2    0    0  0.18135578426E+03  0.61109241701E+02 -0.10227127348E+04  0.10580310004E+04  0.19200000000E+03 0.  0.
   -5000001    1    1    2    0    0 -0.18135578426E+03 -0.61109241701E+02 -0.65267790871E+03  0.70673666413E+03  0.19200000000E+03 0.  0.
<mgrwt>
<rscale>  0 0.55450077E+03</rscale>
<asrwt>0</asrwt>
<pdfrwt beam="1">  1        2 0.24572555E+00 0.55450077E+03</pdfrwt>
<pdfrwt beam="2">  1       -2 0.63840740E-02 0.55450077E+03</pdfrwt>
<totfact> 0.16092513E+03</totfact>
</mgrwt>
</event>
<event>
 4    1  0.5900026E-005  0.7624200E+03  0.7818608E-02  0.9616064E-01
          2   -1    0    0  501    0  0.00000000000E+00  0.00000000000E+00  0.24127299927E+04  0.24127299927E+04  0.25500000000E-02 0.  1.
         -2   -1    0    0    0  501 -0.00000000000E+00 -0.00000000000E+00 -0.60230962901E+02  0.60230962955E+02  0.25500000000E-02 0. -1.
    5000001    1    1    2    0    0 -0.25809079784E+03 -0.13138803454E+02  0.18383948353E+04  0.18663716293E+04  0.19200000000E+03 0.  0.
   -5000001    1    1    2    0    0  0.25809079784E+03  0.13138803454E+02  0.51410419452E+03  0.60658932641E+03  0.19200000000E+03 0.  0.
<mgrwt>
<rscale>  0 0.76241996E+03</rscale>
<asrwt>0</asrwt>
<pdfrwt beam="1">  1        2 0.34467567E+00 0.76241996E+03</pdfrwt>
<pdfrwt beam="2">  1       -2 0.86044244E-02 0.76241996E+03</pdfrwt>
<totfact> 0.44149093E+02</totfact>
</mgrwt>
</event>
<event>
 4    1  0.5900026E-005  0.4438225E+03  0.7818608E-02  0.1029580E+00
         -2   -1    0    0    0  501 -0.00000000000E+00  0.00000000000E+00  0.28386682005E+03  0.28386682006E+03  0.25500000000E-02 0. -1.
          2   -1    0    0  501    0  0.00000000000E+00 -0.00000000000E+00 -0.17347785064E+03  0.17347785066E+03  0.25500000000E-02 0.  1.
    5000001    1    1    2    0    0  0.83008819647E+02 -0.96841523162E+01 -0.20503567758E+02  0.21040114837E+03  0.19200000000E+03 0.  0.
   -5000001    1    1    2    0    0 -0.83008819647E+02  0.96841523162E+01  0.13089253717E+03  0.24694352235E+03  0.19200000000E+03 0.  0.
<mgrwt>
<rscale>  0 0.44382251E+03</rscale>
<asrwt>0</asrwt>
<pdfrwt beam="1">  1        2 0.24782550E-01 0.44382251E+03</pdfrwt>
<pdfrwt beam="2">  1       -2 0.40552403E-01 0.44382251E+03</pdfrwt>
<totfact> 0.12713008E+03</totfact>
</mgrwt>
</event>
<event>
 4    1  0.5900026E-005  0.7817512E+03  0.7818608E-02  0.9586814E-01
         -2   -1    0    0    0  501 -0.00000000000E+00  0.00000000000E+00  0.23357293555E+03  0.23357293556E+03  0.25500000000E-02 0. -1.
          2   -1    0    0  501    0  0.00000000000E+00 -0.00000000000E+00 -0.65411572158E+03  0.65411572158E+03  0.25500000000E-02 0.  1.
    5000001    1    1    2    0    0  0.33175381716E+03 -0.41915724163E+02 -0.28299926201E+03  0.47829917983E+03  0.19200000000E+03 0.  0.
   -5000001    1    1    2    0    0 -0.33175381716E+03  0.41915724163E+02 -0.13754352402E+03  0.40938947731E+03  0.19200000000E+03 0.  0.
<mgrwt>
<rscale>  0 0.78175119E+03</rscale>
<asrwt>0</asrwt>
<pdfrwt beam="1">  1        2 0.93445102E-01 0.78175119E+03</pdfrwt>
<pdfrwt beam="2">  1       -2 0.33367563E-01 0.78175119E+03</pdfrwt>
<totfact> 0.41201394E+02</totfact>
</mgrwt>
</event>
<event>
 4    1  0.5900026E-005  0.6250263E+03  0.7818608E-02  0.9854803E-01
         -2   -1    0    0    0  501 -0.00000000000E+00  0.00000000000E+00  0.42339784055E+03  0.42339784055E+03  0.25500000000E-02 0. -1.
          2   -1    0    0  501    0  0.00000000000E+00 -0.00000000000E+00 -0.23066833057E+03  0.23066833059E+03  0.25500000000E-02 0.  1.
    5000001    1    1    2    0    0  0.81236808955E+02 -0.12139908016E+03 -0.11151882194E+03  0.26577735690E+03  0.19200000000E+03 0.  0.
   -5000001    1    1    2    0    0 -0.81236808955E+02  0.12139908016E+03  0.30424833191E+03  0.38828881424E+03  0.19200000000E+03 0.  0.
<mgrwt>
<rscale>  0 0.62502631E+03</rscale>
<asrwt>0</asrwt>
<pdfrwt beam="1">  1        2 0.32952618E-01 0.62502631E+03</pdfrwt>
<pdfrwt beam="2">  1       -2 0.60485406E-01 0.62502631E+03</pdfrwt>
<totfact> 0.41119009E+02</totfact>
</mgrwt>
</event>
<event>
 4    1  0.5900026E-005  0.5317852E+03  0.7818608E-02  0.1005800E+00
          2   -1    0    0  501    0  0.00000000000E+00  0.00000000000E+00  0.33882778005E+03  0.33882778006E+03  0.25500000000E-02 0.  1.
         -2   -1    0    0    0  501 -0.00000000000E+00 -0.00000000000E+00 -0.20865727987E+03  0.20865727989E+03  0.25500000000E-02 0. -1.
    5000001    1    1    2    0    0  0.59519748693E+01  0.16037175222E+03 -0.27459396817E+02  0.25173903827E+03  0.19200000000E+03 0.  0.
   -5000001    1    1    2    0    0 -0.59519748693E+01 -0.16037175222E+03  0.15762989700E+03  0.29574602168E+03  0.19200000000E+03 0.  0.
<mgrwt>
<rscale>  0 0.53178523E+03</rscale>
<asrwt>0</asrwt>
<pdfrwt beam="1">  1        2 0.48403968E-01 0.53178523E+03</pdfrwt>
<pdfrwt beam="2">  1       -2 0.29808183E-01 0.53178523E+03</pdfrwt>
<totfact> 0.10811567E+03</totfact>
</mgrwt>
</event>
<event>
 4    1  0.5900026E-005  0.6004980E+03  0.7818608E-02  0.9904373E-01
          2   -1    0    0  501    0  0.00000000000E+00  0.00000000000E+00  0.11011130481E+04  0.11011130481E+04  0.25500000000E-02 0.  1.
         -2   -1    0    0    0  501 -0.00000000000E+00 -0.00000000000E+00 -0.81871216602E+02  0.81871216641E+02  0.25500000000E-02 0. -1.
    5000001    1    1    2    0    0  0.48591179214E+02 -0.21570286999E+03  0.64024629261E+03  0.70403703455E+03  0.19200000000E+03 0.  0.
   -5000001    1    1    2    0    0 -0.48591179214E+02  0.21570286999E+03  0.37899553893E+03  0.47894723024E+03  0.19200000000E+03 0.  0.
<mgrwt>
<rscale>  0 0.60049801E+03</rscale>
<asrwt>0</asrwt>
<pdfrwt beam="1">  1        2 0.15730186E+00 0.60049801E+03</pdfrwt>
<pdfrwt beam="2">  1       -2 0.11695889E-01 0.60049801E+03</pdfrwt>
<totfact> 0.13034000E+03</totfact>
</mgrwt>
</event>
<event>
 4    1  0.5900026E-005  0.6012270E+03  0.7818608E-02  0.9902864E-01
         -2   -1    0    0    0  501 -0.00000000000E+00  0.00000000000E+00  0.38598078716E+02  0.38598078801E+02  0.25500000000E-02 0. -1.
          2   -1    0    0  501    0  0.00000000000E+00 -0.00000000000E+00 -0.23412689830E+04  0.23412689830E+04  0.25500000000E-02 0.  1.
    5000001    1    1    2    0    0 -0.18042629440E+03 -0.13676175114E+03 -0.13389737861E+04  0.13714854079E+04  0.19200000000E+03 0.  0.
   -5000001    1    1    2    0    0  0.18042629440E+03  0.13676175114E+03 -0.96369711820E+03  0.10083816539E+04  0.19200000000E+03 0.  0.
<mgrwt>
<rscale>  0 0.60122703E+03</rscale>
<asrwt>0</asrwt>
<pdfrwt beam="1">  1        2 0.33446691E+00 0.60122703E+03</pdfrwt>
<pdfrwt beam="2">  1       -2 0.55140127E-02 0.60122703E+03</pdfrwt>
<totfact> 0.98270730E+02</totfact>
</mgrwt>
</event>
<event>
 4    1  0.5900026E-005  0.5432911E+03  0.7818608E-02  0.1003059E+00
          2   -1    0    0  501    0  0.00000000000E+00  0.00000000000E+00  0.23307819148E+04  0.23307819148E+04  0.25500000000E-02 0.  1.
         -2   -1    0    0    0  501 -0.00000000000E+00 -0.00000000000E+00 -0.31659461489E+02  0.31659461592E+02  0.25500000000E-02 0. -1.
    5000001    1    1    2    0    0 -0.14568295013E+03  0.12380347197E+03  0.10651891565E+04  0.10991099857E+04  0.19200000000E+03 0.  0.
   -5000001    1    1    2    0    0  0.14568295013E+03 -0.12380347197E+03  0.12339332968E+04  0.12633313907E+04  0.19200000000E+03 0.  0.
<mgrwt>
<rscale>  0 0.54329108E+03</rscale>
<asrwt>0</asrwt>
<pdfrwt beam="1">  1        2 0.33296876E+00 0.54329108E+03</pdfrwt>
<pdfrwt beam="2">  1       -2 0.45227814E-02 0.54329108E+03</pdfrwt>
<totfact> 0.13575758E+03</totfact>
</mgrwt>
</event>
<event>
 4    1  0.5900026E-005  0.5309229E+03  0.7818608E-02  0.1006009E+00
          2   -1    0    0  501    0  0.00000000000E+00  0.00000000000E+00  0.24602206891E+04  0.24602206891E+04  0.25500000000E-02 0.  1.
         -2   -1    0    0    0  501 -0.00000000000E+00 -0.00000000000E+00 -0.28643685003E+02  0.28643685117E+02  0.25500000000E-02 0. -1.
    5000001    1    1    2    0    0  0.81221887330E+02 -0.16170063428E+03  0.10781794765E+04  0.11099905737E+04  0.19200000000E+03 0.  0.
   -5000001    1    1    2    0    0 -0.81221887330E+02  0.16170063428E+03  0.13533975276E+04  0.13788738005E+04  0.19200000000E+03 0.  0.
<mgrwt>
<rscale>  0 0.53092292E+03</rscale>
<asrwt>0</asrwt>
<pdfrwt beam="1">  1        2 0.35146016E+00 0.53092292E+03</pdfrwt>
<pdfrwt beam="2">  1       -2 0.40919542E-02 0.53092292E+03</pdfrwt>
<totfact> 0.13623249E+03</totfact>
</mgrwt>
</event>
<event>
 4    1  0.5900026E-005  0.6521563E+03  0.7818608E-02  0.9802741E-01
          2   -1    0    0  501    0  0.00000000000E+00  0.00000000000E+00  0.12395012045E+04  0.12395012045E+04  0.25500000000E-02 0.  1.
         -2   -1    0    0    0  501 -0.00000000000E+00 -0.00000000000E+00 -0.85782059009E+02  0.85782059047E+02  0.25500000000E-02 0. -1.
    5000001    1    1    2    0    0 -0.92344053764E+02  0.23509011307E+03  0.42386401424E+03  0.52945206402E+03  0.19200000000E+03 0.  0.
   -5000001    1    1    2    0    0  0.92344053764E+02 -0.23509011307E+03  0.72985513123E+03  0.79583119951E+03  0.19200000000E+03 0.  0.
<mgrwt>
<rscale>  0 0.65215632E+03</rscale>
<asrwt>0</asrwt>
<pdfrwt beam="1">  1        2 0.17707160E+00 0.65215632E+03</pdfrwt>
<pdfrwt beam="2">  1       -2 0.12254580E-01 0.65215632E+03</pdfrwt>
<totfact> 0.10057971E+03</totfact>
</mgrwt>
</event>
<event>
 4    1  0.5900026E-005  0.4011730E+03  0.7818608E-02  0.1043374E+00
         -2   -1    0    0    0  501 -0.00000000000E+00  0.00000000000E+00  0.22970523748E+02  0.22970523890E+02  0.25500000000E-02 0. -1.
          2   -1    0    0  501    0  0.00000000000E+00 -0.00000000000E+00 -0.17515898580E+04  0.17515898580E+04  0.25500000000E-02 0.  1.
    5000001    1    1    2    0    0 -0.15606162754E+02 -0.48416142715E+02 -0.98810733929E+03  0.10078729033E+04  0.19200000000E+03 0.  0.
   -5000001    1    1    2    0    0  0.15606162754E+02  0.48416142715E+02 -0.74051199500E+03  0.76668747866E+03  0.19200000000E+03 0.  0.
<mgrwt>
<rscale>  0 0.40117296E+03</rscale>
<asrwt>0</asrwt>
<pdfrwt beam="1">  1        2 0.25022704E+00 0.40117296E+03</pdfrwt>
<pdfrwt beam="2">  1       -2 0.32815045E-02 0.40117296E+03</pdfrwt>
<totfact> 0.43317401E+03</totfact>
</mgrwt>
</event>
<event>
 4    1  0.5900026E-005  0.4478302E+03  0.7818608E-02  0.1028371E+00
         -2   -1    0    0    0  501 -0.00000000000E+00  0.00000000000E+00  0.48144914729E+03  0.48144914730E+03  0.25500000000E-02 0. -1.
          2   -1    0    0  501    0  0.00000000000E+00 -0.00000000000E+00 -0.10413970858E+03  0.10413970861E+03  0.25500000000E-02 0.  1.
    5000001    1    1    2    0    0 -0.95027263068E+02  0.10286059192E+02  0.10453958468E+03  0.23859695829E+03  0.19200000000E+03 0.  0.
   -5000001    1    1    2    0    0  0.95027263068E+02 -0.10286059192E+02  0.27276985404E+03  0.34699189762E+03  0.19200000000E+03 0.  0.
<mgrwt>
<rscale>  0 0.44783021E+03</rscale>
<asrwt>0</asrwt>
<pdfrwt beam="1">  1        2 0.14877101E-01 0.44783021E+03</pdfrwt>
<pdfrwt beam="2">  1       -2 0.68778449E-01 0.44783021E+03</pdfrwt>
<totfact> 0.78571214E+02</totfact>
</mgrwt>
</event>
<event>
 4    1  0.5900026E-005  0.7437178E+03  0.7818608E-02  0.9645258E-01
         -2   -1    0    0    0  501 -0.00000000000E+00  0.00000000000E+00  0.11693676161E+03  0.11693676164E+03  0.25500000000E-02 0. -1.
          2   -1    0    0  501    0  0.00000000000E+00 -0.00000000000E+00 -0.11825112880E+04  0.11825112880E+04  0.25500000000E-02 0.  1.
    5000001    1    1    2    0    0  0.17246019157E+03  0.11999763594E+03 -0.11464308389E+03  0.30683706913E+03  0.19200000000E+03 0.  0.
   -5000001    1    1    2    0    0 -0.17246019157E+03 -0.11999763594E+03 -0.95093144247E+03  0.99261098049E+03  0.19200000000E+03 0.  0.
<mgrwt>
<rscale>  0 0.74371780E+03</rscale>
<asrwt>0</asrwt>
<pdfrwt beam="1">  1        2 0.16893018E+00 0.74371780E+03</pdfrwt>
<pdfrwt beam="2">  1       -2 0.16705252E-01 0.74371780E+03</pdfrwt>
<totfact> 0.64108627E+02</totfact>
</mgrwt>
</event>
<event>
 4    1  0.5900026E-005  0.7639214E+03  0.7818608E-02  0.9613759E-01
          2   -1    0    0  501    0  0.00000000000E+00  0.00000000000E+00  0.58196842746E+03  0.58196842747E+03  0.25500000000E-02 0.  1.
         -2   -1    0    0    0  501 -0.00000000000E+00 -0.00000000000E+00 -0.25069056197E+03  0.25069056199E+03  0.25500000000E-02 0. -1.
    5000001    1    1    2    0    0 -0.12655425962E+03  0.30044530747E+03  0.10851495323E+03  0.39360241168E+03  0.19200000000E+03 0.  0.
   -5000001    1    1    2    0    0  0.12655425962E+03 -0.30044530747E+03  0.22276291226E+03  0.43905657777E+03  0.19200000000E+03 0.  0.
<mgrwt>
<rscale>  0 0.76392144E+03</rscale>
<asrwt>0</asrwt>
<pdfrwt beam="1">  1        2 0.83138345E-01 0.76392144E+03</pdfrwt>
<pdfrwt beam="2">  1       -2 0.35812938E-01 0.76392144E+03</pdfrwt>
<totfact> 0.41437951E+02</totfact>
</mgrwt>
</event>
<event>
 4    1  0.5900026E-005  0.7814210E+03  0.7818608E-02  0.9587306E-01
          2   -1    0    0  501    0  0.00000000000E+00  0.00000000000E+00  0.69537143761E+03  0.69537143762E+03  0.25500000000E-02 0.  1.
         -2   -1    0    0    0  501 -0.00000000000E+00 -0.00000000000E+00 -0.21952969664E+03  0.21952969665E+03  0.25500000000E-02 0. -1.
    5000001    1    1    2    0    0  0.44330689861E+02 -0.30477019743E+03  0.68493472213E+02  0.36933106969E+03  0.19200000000E+03 0.  0.
   -5000001    1    1    2    0    0 -0.44330689861E+02  0.30477019743E+03  0.40734826876E+03  0.54557006458E+03  0.19200000000E+03 0.  0.
<mgrwt>
<rscale>  0 0.78142096E+03</rscale>
<asrwt>0</asrwt>
<pdfrwt beam="1">  1        2 0.99338778E-01 0.78142096E+03</pdfrwt>
<pdfrwt beam="2">  1       -2 0.31361385E-01 0.78142096E+03</pdfrwt>
<totfact> 0.42960811E+02</totfact>
</mgrwt>
</event>
<event>
 4    1  0.5900026E-005  0.4567461E+03  0.7818608E-02  0.1025729E+00
          2   -1    0    0  501    0  0.00000000000E+00  0.00000000000E+00  0.49471167629E+03  0.49471167630E+03  0.25500000000E-02 0.  1.
         -2   -1    0    0    0  501 -0.00000000000E+00 -0.00000000000E+00 -0.10542352157E+03  0.10542352160E+03  0.25500000000E-02 0. -1.
    5000001    1    1    2    0    0 -0.99248449421E+02 -0.86322095479E+01  0.98399017856E+02  0.23763656383E+03  0.19200000000E+03 0.  0.
   -5000001    1    1    2    0    0  0.99248449421E+02  0.86322095479E+01  0.29088913687E+03  0.36249863407E+03  0.19200000000E+03 0.  0.
<mgrwt>
<rscale>  0 0.45674609E+03</rscale>
<asrwt>0</asrwt>
<pdfrwt beam="1">  1        2 0.70673097E-01 0.45674609E+03</pdfrwt>
<pdfrwt beam="2">  1       -2 0.15060503E-01 0.45674609E+03</pdfrwt>
<totfact> 0.23461209E+03</totfact>
</mgrwt>
</event>
<event>
 4    1  0.5900026E-005  0.4274780E+03  0.7818608E-02  0.1034660E+00
          2   -1    0    0  501    0  0.00000000000E+00  0.00000000000E+00  0.28108412018E+04  0.28108412018E+04  0.25500000000E-02 0.  1.
         -2   -1    0    0    0  501 -0.00000000000E+00 -0.00000000000E+00 -0.16252915532E+02  0.16252915732E+02  0.25500000000E-02 0. -1.
    5000001    1    1    2    0    0  0.71466721209E+02  0.33325147864E+02  0.10599246907E+04  0.10800566687E+04  0.19200000000E+03 0.  0.
   -5000001    1    1    2    0    0 -0.71466721209E+02 -0.33325147864E+02  0.17346635956E+04  0.17470374488E+04  0.19200000000E+03 0.  0.
<mgrwt>
<rscale>  0 0.42747802E+03</rscale>
<asrwt>0</asrwt>
<pdfrwt beam="1">  1        2 0.40154887E+00 0.42747802E+03</pdfrwt>
<pdfrwt beam="2">  1       -2 0.23218443E-02 0.42747802E+03</pdfrwt>
<totfact> 0.21328883E+03</totfact>
</mgrwt>
</event>
<event>
 4    1  0.5900026E-005  0.6748600E+03  0.7818608E-02  0.9761218E-01
          2   -1    0    0  501    0  0.00000000000E+00  0.00000000000E+00  0.89377797662E+03  0.89377797662E+03  0.25500000000E-02 0.  1.
         -2   -1    0    0    0  501 -0.00000000000E+00 -0.00000000000E+00 -0.12739072007E+03  0.12739072009E+03  0.25500000000E-02 0. -1.
    5000001    1    1    2    0    0  0.24960249553E+02 -0.25129864998E+03  0.55718024340E+03  0.64116132851E+03  0.19200000000E+03 0.  0.
   -5000001    1    1    2    0    0 -0.24960249553E+02  0.25129864998E+03  0.20920701315E+03  0.38000736820E+03  0.19200000000E+03 0.  0.
<mgrwt>
<rscale>  0 0.67486004E+03</rscale>
<asrwt>0</asrwt>
<pdfrwt beam="1">  1        2 0.12768256E+00 0.67486004E+03</pdfrwt>
<pdfrwt beam="2">  1       -2 0.18198675E-01 0.67486004E+03</pdfrwt>
<totfact> 0.82888450E+02</totfact>
</mgrwt>
</event>
<event>
 4    1  0.5900026E-005  0.4715399E+03  0.7818608E-02  0.1021486E+00
          2   -1    0    0  501    0  0.00000000000E+00  0.00000000000E+00  0.16291754825E+04  0.16291754825E+04  0.25500000000E-02 0.  1.
         -2   -1    0    0    0  501 -0.00000000000E+00 -0.00000000000E+00 -0.34120004121E+02  0.34120004217E+02  0.25500000000E-02 0. -1.
    5000001    1    1    2    0    0  0.93425255236E+02 -0.48330248156E+02  0.48881977226E+03  0.53560513530E+03  0.19200000000E+03 0.  0.
   -5000001    1    1    2    0    0 -0.93425255236E+02  0.48330248156E+02  0.11062357062E+04  0.11276903515E+04  0.19200000000E+03 0.  0.
<mgrwt>
<rscale>  0 0.47153992E+03</rscale>
<asrwt>0</asrwt>
<pdfrwt beam="1">  1        2 0.23273935E+00 0.47153992E+03</pdfrwt>
<pdfrwt beam="2">  1       -2 0.48742863E-02 0.47153992E+03</pdfrwt>
<totfact> 0.27284061E+03</totfact>
</mgrwt>
</event>
<event>
 4    1  0.5900026E-005  0.5294137E+03  0.7818608E-02  0.1006374E+00
         -2   -1    0    0    0  501 -0.00000000000E+00  0.00000000000E+00  0.29873814384E+02  0.29873814493E+02  0.25500000000E-02 0. -1.
          2   -1    0    0  501    0  0.00000000000E+00 -0.00000000000E+00 -0.23455229022E+04  0.23455229022E+04  0.25500000000E-02 0.  1.
    5000001    1    1    2    0    0 -0.11719702357E+03 -0.74845057854E+02 -0.62942762290E+03  0.67259204388E+03  0.19200000000E+03 0.  0.
   -5000001    1    1    2    0    0  0.11719702357E+03  0.74845057854E+02 -0.16862214649E+04  0.17028046728E+04  0.19200000000E+03 0.  0.
<mgrwt>
<rscale>  0 0.52941370E+03</rscale>
<asrwt>0</asrwt>
<pdfrwt beam="1">  1        2 0.33507458E+00 0.52941370E+03</pdfrwt>
<pdfrwt beam="2">  1       -2 0.42676892E-02 0.52941370E+03</pdfrwt>
<totfact> 0.14604247E+03</totfact>
</mgrwt>
</event>
<event>
 4    1  0.5900026E-005  0.5063131E+03  0.7818608E-02  0.1012144E+00
          2   -1    0    0  501    0  0.00000000000E+00  0.00000000000E+00  0.56378150215E+02  0.56378150272E+02  0.25500000000E-02 0.  1.
         -2   -1    0    0    0  501 -0.00000000000E+00 -0.00000000000E+00 -0.11367567063E+04  0.11367567063E+04  0.25500000000E-02 0. -1.
    5000001    1    1    2    0    0 -0.72096163394E+02 -0.12349117110E+03 -0.73417382442E+03  0.77221961292E+03  0.19200000000E+03 0.  0.
   -5000001    1    1    2    0    0  0.72096163394E+02  0.12349117110E+03 -0.34620473167E+03  0.42091524366E+03  0.19200000000E+03 0.  0.
<mgrwt>
<rscale>  0 0.50631311E+03</rscale>
<asrwt>0</asrwt>
<pdfrwt beam="1">  1        2 0.80540222E-02 0.50631311E+03</pdfrwt>
<pdfrwt beam="2">  1       -2 0.16239380E+00 0.50631311E+03</pdfrwt>
<totfact> 0.21652429E+02</totfact>
</mgrwt>
</event>
<event>
 4    1  0.5900026E-005  0.6064610E+03  0.7818608E-02  0.9892091E-01
         -2   -1    0    0    0  501 -0.00000000000E+00  0.00000000000E+00  0.70513403246E+03  0.70513403247E+03  0.25500000000E-02 0. -1.
          2   -1    0    0  501    0  0.00000000000E+00 -0.00000000000E+00 -0.13039896538E+03  0.13039896540E+03  0.25500000000E-02 0.  1.
    5000001    1    1    2    0    0  0.22523022788E+03  0.59771025237E+02  0.32593179261E+03  0.44429355661E+03  0.19200000000E+03 0.  0.
   -5000001    1    1    2    0    0 -0.22523022788E+03 -0.59771025237E+02  0.24880327447E+03  0.39123944126E+03  0.19200000000E+03 0.  0.
<mgrwt>
<rscale>  0 0.60646104E+03</rscale>
<asrwt>0</asrwt>
<pdfrwt beam="1">  1        2 0.18628424E-01 0.60646104E+03</pdfrwt>
<pdfrwt beam="2">  1       -2 0.10073343E+00 0.60646104E+03</pdfrwt>
<totfact> 0.25379127E+02</totfact>
</mgrwt>
</event>
<event>
 4    1  0.5900026E-005  0.5082553E+03  0.7818608E-02  0.1011646E+00
          2   -1    0    0  501    0  0.00000000000E+00  0.00000000000E+00  0.68761700195E+02  0.68761700242E+02  0.25500000000E-02 0.  1.
         -2   -1    0    0    0  501 -0.00000000000E+00 -0.00000000000E+00 -0.93919818875E+03  0.93919818876E+03  0.25500000000E-02 0. -1.
    5000001    1    1    2    0    0 -0.45480638249E+02 -0.16000872556E+03 -0.42182870598E+03  0.49241723965E+03  0.19200000000E+03 0.  0.
   -5000001    1    1    2    0    0  0.45480638249E+02  0.16000872556E+03 -0.44860778257E+03  0.51554264935E+03  0.19200000000E+03 0.  0.
<mgrwt>
<rscale>  0 0.50825531E+03</rscale>
<asrwt>0</asrwt>
<pdfrwt beam="1">  1        2 0.98231006E-02 0.50825531E+03</pdfrwt>
<pdfrwt beam="2">  1       -2 0.13417116E+00 0.50825531E+03</pdfrwt>
<totfact> 0.27645860E+02</totfact>
</mgrwt>
</event>
<event>
 4    1  0.5900026E-005  0.5733817E+03  0.7818608E-02  0.9962223E-01
         -2   -1    0    0    0  501 -0.00000000000E+00  0.00000000000E+00  0.36374561419E+03  0.36374561420E+03  0.25500000000E-02 0. -1.
          2   -1    0    0  501    0  0.00000000000E+00 -0.00000000000E+00 -0.22595914860E+03  0.22595914861E+03  0.25500000000E-02 0.  1.
    5000001    1    1    2    0    0  0.12826922274E+03 -0.12804524922E+03  0.18378314606E+03  0.32169678911E+03  0.19200000000E+03 0.  0.
   -5000001    1    1    2    0    0 -0.12826922274E+03  0.12804524922E+03 -0.45996680468E+02  0.26800797369E+03  0.19200000000E+03 0.  0.
<mgrwt>
<rscale>  0 0.57338172E+03</rscale>
<asrwt>0</asrwt>
<pdfrwt beam="1">  1        2 0.32279878E-01 0.57338172E+03</pdfrwt>
<pdfrwt beam="2">  1       -2 0.51963659E-01 0.57338172E+03</pdfrwt>
<totfact> 0.57701947E+02</totfact>
</mgrwt>
</event>
<event>
 4    1  0.5900026E-005  0.6044819E+03  0.7818608E-02  0.9896151E-01
          2   -1    0    0  501    0  0.00000000000E+00  0.00000000000E+00  0.74393661386E+03  0.74393661386E+03  0.25500000000E-02 0. -1.
         -2   -1    0    0    0  501 -0.00000000000E+00 -0.00000000000E+00 -0.12279216402E+03  0.12279216405E+03  0.25500000000E-02 0.  1.
    5000001    1    1    2    0    0 -0.11276818672E+03  0.17536686747E+03  0.46105949353E+03  0.54121165796E+03  0.19200000000E+03 0.  0.
   -5000001    1    1    2    0    0  0.11276818672E+03 -0.17536686747E+03  0.16008495631E+03  0.32551711994E+03  0.19200000000E+03 0.  0.
<mgrwt>
<rscale>  0 0.60448188E+03</rscale>
<asrwt>0</asrwt>
<pdfrwt beam="1">  1        2 0.10627666E+00 0.60448188E+03</pdfrwt>
<pdfrwt beam="2">  1       -2 0.17541737E-01 0.60448188E+03</pdfrwt>
<totfact> 0.11206402E+03</totfact>
</mgrwt>
</event>
<event>
 4    1  0.5900026E-005  0.1053302E+04  0.7818608E-02  0.9251941E-01
          2   -1    0    0  501    0  0.00000000000E+00  0.00000000000E+00  0.48633231248E+03  0.48633231248E+03  0.25500000000E-02 0.  1.
         -2   -1    0    0    0  501 -0.00000000000E+00 -0.00000000000E+00 -0.57031251437E+03  0.57031251437E+03  0.25500000000E-02 0. -1.
    5000001    1    1    2    0    0 -0.32387944181E+03 -0.21207360606E+02  0.32680374024E+03  0.49901135218E+03  0.19200000000E+03 0.  0.
   -5000001    1    1    2    0    0  0.32387944181E+03  0.21207360606E+02 -0.41078394213E+03  0.55763347468E+03  0.19200000000E+03 0.  0.
<mgrwt>
<rscale>  0 0.10533022E+04</rscale>
<asrwt>0</asrwt>
<pdfrwt beam="1">  1        2 0.69476045E-01 0.10533022E+04</pdfrwt>
<pdfrwt beam="2">  1       -2 0.81473217E-01 0.10533022E+04</pdfrwt>
<totfact> 0.91634966E+01</totfact>
</mgrwt>
</event>
<event>
 4    1  0.5900026E-005  0.5753948E+03  0.7818608E-02  0.9957811E-01
          2   -1    0    0  501    0  0.00000000000E+00  0.00000000000E+00  0.14497558068E+04  0.14497558069E+04  0.25500000000E-02 0.  1.
         -2   -1    0    0    0  501 -0.00000000000E+00 -0.00000000000E+00 -0.57092225100E+02  0.57092225157E+02  0.25500000000E-02 0. -1.
    5000001    1    1    2    0    0  0.12221394547E+03 -0.10589148195E+02  0.23630486059E+03  0.32825655464E+03  0.19200000000E+03 0.  0.
   -5000001    1    1    2    0    0 -0.12221394547E+03  0.10589148195E+02  0.11563587212E+04  0.11785914774E+04  0.19200000000E+03 0.  0.
<mgrwt>
<rscale>  0 0.57539477E+03</rscale>
<asrwt>0</asrwt>
<pdfrwt beam="1">  1        2 0.20710799E+00 0.57539477E+03</pdfrwt>
<pdfrwt beam="2">  1       -2 0.81560315E-02 0.57539477E+03</pdfrwt>
<totfact> 0.15036213E+03</totfact>
</mgrwt>
</event>
<event>
 4    1  0.5900026E-005  0.5928069E+03  0.7818608E-02  0.9920443E-01
         -2   -1    0    0    0  501 -0.00000000000E+00  0.00000000000E+00  0.18901359306E+03  0.18901359308E+03  0.25500000000E-02 0. -1.
          2   -1    0    0  501    0  0.00000000000E+00 -0.00000000000E+00 -0.46480793033E+03  0.46480793034E+03  0.25500000000E-02 0.  1.
    5000001    1    1    2    0    0 -0.19866912247E+03  0.10030933480E+03 -0.95759748829E+02  0.30913639768E+03  0.19200000000E+03 0.  0.
   -5000001    1    1    2    0    0  0.19866912247E+03 -0.10030933480E+03 -0.18003458844E+03  0.34468512574E+03  0.19200000000E+03 0.  0.
<mgrwt>
<rscale>  0 0.59280694E+03</rscale>
<asrwt>0</asrwt>
<pdfrwt beam="1">  1        2 0.66401132E-01 0.59280694E+03</pdfrwt>
<pdfrwt beam="2">  1       -2 0.27001942E-01 0.59280694E+03</pdfrwt>
<totfact> 0.91154250E+02</totfact>
</mgrwt>
</event>
<event>
 4    1  0.5900026E-005  0.8904508E+03  0.7818608E-02  0.9437598E-01
          2   -1    0    0  501    0  0.00000000000E+00  0.00000000000E+00  0.88686323942E+03  0.88686323943E+03  0.25500000000E-02 0.  1.
         -2   -1    0    0    0  501 -0.00000000000E+00 -0.00000000000E+00 -0.22351320163E+03  0.22351320164E+03  0.25500000000E-02 0. -1.
    5000001    1    1    2    0    0 -0.52172595412E+02 -0.39819808446E+03  0.32066564853E+03  0.54861111211E+03  0.19200000000E+03 0.  0.
   -5000001    1    1    2    0    0  0.52172595412E+02  0.39819808446E+03  0.34268438926E+03  0.56176532896E+03  0.19200000000E+03 0.  0.
<mgrwt>
<rscale>  0 0.89045077E+03</rscale>
<asrwt>0</asrwt>
<pdfrwt beam="1">  1        2 0.12669475E+00 0.89045077E+03</pdfrwt>
<pdfrwt beam="2">  1       -2 0.31930457E-01 0.89045077E+03</pdfrwt>
<totfact> 0.30263243E+02</totfact>
</mgrwt>
</event>
<event>
 4    1  0.5900026E-005  0.5205269E+03  0.7818608E-02  0.1008556E+00
          2   -1    0    0  501    0  0.00000000000E+00  0.00000000000E+00  0.25444271367E+04  0.25444271367E+04  0.25500000000E-02 0.  1.
         -2   -1    0    0    0  501 -0.00000000000E+00 -0.00000000000E+00 -0.26621735037E+02  0.26621735159E+02  0.25500000000E-02 0. -1.
    5000001    1    1    2    0    0  0.13350830372E+03  0.66375830387E+02  0.79970937686E+03  0.83584047848E+03  0.19200000000E+03 0.  0.
   -5000001    1    1    2    0    0 -0.13350830372E+03 -0.66375830387E+02  0.17180960248E+04  0.17352083933E+04  0.19200000000E+03 0.  0.
<mgrwt>
<rscale>  0 0.52052691E+03</rscale>
<asrwt>0</asrwt>
<pdfrwt beam="1">  1        2 0.36348960E+00 0.52052691E+03</pdfrwt>
<pdfrwt beam="2">  1       -2 0.38031049E-02 0.52052691E+03</pdfrwt>
<totfact> 0.13810734E+03</totfact>
</mgrwt>
</event>
<event>
 4    1  0.5900026E-005  0.7214425E+03  0.7818608E-02  0.9681249E-01
         -2   -1    0    0    0  501 -0.00000000000E+00  0.00000000000E+00  0.93974743045E+02  0.93974743080E+02  0.25500000000E-02 0. -1.
          2   -1    0    0  501    0  0.00000000000E+00 -0.00000000000E+00 -0.13846252555E+04  0.13846252555E+04  0.25500000000E-02 0.  1.
    5000001    1    1    2    0    0 -0.19655005250E+03 -0.41812985563E+02 -0.11166025025E+04  0.11506717158E+04  0.19200000000E+03 0.  0.
   -5000001    1    1    2    0    0  0.19655005250E+03  0.41812985563E+02 -0.17404800998E+03  0.32792828283E+03  0.19200000000E+03 0.  0.
<mgrwt>
<rscale>  0 0.72144245E+03</rscale>
<asrwt>0</asrwt>
<pdfrwt beam="1">  1        2 0.19780359E+00 0.72144245E+03</pdfrwt>
<pdfrwt beam="2">  1       -2 0.13424964E-01 0.72144245E+03</pdfrwt>
<totfact> 0.71851703E+02</totfact>
</mgrwt>
</event>
<event>
 4    1  0.5900026E-005  0.5371603E+03  0.7818608E-02  0.1004510E+00
         -2   -1    0    0    0  501 -0.00000000000E+00  0.00000000000E+00  0.93722127981E+02  0.93722128016E+02  0.25500000000E-02 0. -1.
          2   -1    0    0  501    0  0.00000000000E+00 -0.00000000000E+00 -0.76967194366E+03  0.76967194366E+03  0.25500000000E-02 0.  1.
    5000001    1    1    2    0    0 -0.98266676758E+02 -0.13275511036E+03 -0.48165832218E+03  0.54418654744E+03  0.19200000000E+03 0.  0.
   -5000001    1    1    2    0    0  0.98266676758E+02  0.13275511036E+03 -0.19429149350E+03  0.31920752424E+03  0.19200000000E+03 0.  0.
<mgrwt>
<rscale>  0 0.53716028E+03</rscale>
<asrwt>0</asrwt>
<pdfrwt beam="1">  1        2 0.10995313E+00 0.53716028E+03</pdfrwt>
<pdfrwt beam="2">  1       -2 0.13388876E-01 0.53716028E+03</pdfrwt>
<totfact> 0.16946292E+03</totfact>
</mgrwt>
</event>
<event>
 4    1  0.5900026E-005  0.5146051E+03  0.7818608E-02  0.1010036E+00
          2   -1    0    0  501    0  0.00000000000E+00  0.00000000000E+00  0.17546176094E+03  0.17546176096E+03  0.25500000000E-02 0.  1.
         -2   -1    0    0    0  501 -0.00000000000E+00 -0.00000000000E+00 -0.37731636023E+03  0.37731636024E+03  0.25500000000E-02 0. -1.
    5000001    1    1    2    0    0 -0.16839279430E+03 -0.12826718649E+02 -0.70168701745E+02  0.26515713188E+03  0.19200000000E+03 0.  0.
   -5000001    1    1    2    0    0  0.16839279430E+03  0.12826718649E+02 -0.13168589754E+03  0.28762098932E+03  0.19200000000E+03 0.  0.
<mgrwt>
<rscale>  0 0.51460506E+03</rscale>
<asrwt>0</asrwt>
<pdfrwt beam="1">  1        2 0.25065966E-01 0.51460506E+03</pdfrwt>
<pdfrwt beam="2">  1       -2 0.53902337E-01 0.51460506E+03</pdfrwt>
<totfact> 0.71225388E+02</totfact>
</mgrwt>
</event>
<event>
 4    1  0.5900026E-005  0.6694321E+03  0.7818608E-02  0.9770984E-01
         -2   -1    0    0    0  501 -0.00000000000E+00  0.00000000000E+00  0.41594306899E+03  0.41594306900E+03  0.25500000000E-02 0. -1.
          2   -1    0    0  501    0  0.00000000000E+00 -0.00000000000E+00 -0.26935134079E+03  0.26935134080E+03  0.25500000000E-02 0.  1.
    5000001    1    1    2    0    0  0.25992038923E+03 -0.86555587264E+02  0.62065740602E+02  0.34024496261E+03  0.19200000000E+03 0.  0.
   -5000001    1    1    2    0    0 -0.25992038923E+03  0.86555587264E+02  0.84525987600E+02  0.34504944719E+03  0.19200000000E+03 0.  0.
<mgrwt>
<rscale>  0 0.66943207E+03</rscale>
<asrwt>0</asrwt>
<pdfrwt beam="1">  1        2 0.38478763E-01 0.66943207E+03</pdfrwt>
<pdfrwt beam="2">  1       -2 0.59420438E-01 0.66943207E+03</pdfrwt>
<totfact> 0.35877570E+02</totfact>
</mgrwt>
</event>
<event>
 4    1  0.5900026E-005  0.4683979E+03  0.7818608E-02  0.1022373E+00
          2   -1    0    0  501    0  0.00000000000E+00  0.00000000000E+00  0.95524713698E+03  0.95524713699E+03  0.25500000000E-02 0.  1.
         -2   -1    0    0    0  501 -0.00000000000E+00 -0.00000000000E+00 -0.57418792342E+02  0.57418792399E+02  0.25500000000E-02 0. -1.
    5000001    1    1    2    0    0  0.11333706226E+03  0.69887767679E+02  0.41435312235E+03  0.47569118108E+03  0.19200000000E+03 0.  0.
   -5000001    1    1    2    0    0 -0.11333706226E+03 -0.69887767679E+02  0.48347522229E+03  0.53697474831E+03  0.19200000000E+03 0.  0.
<mgrwt>
<rscale>  0 0.46839785E+03</rscale>
<asrwt>0</asrwt>
<pdfrwt beam="1">  1        2 0.13646387E+00 0.46839785E+03</pdfrwt>
<pdfrwt beam="2">  1       -2 0.82026850E-02 0.46839785E+03</pdfrwt>
<totfact> 0.28291955E+03</totfact>
</mgrwt>
</event>
<event>
 4    1  0.5900026E-005  0.4674307E+03  0.7818608E-02  0.1022648E+00
          2   -1    0    0  501    0  0.00000000000E+00  0.00000000000E+00  0.11701685633E+04  0.11701685633E+04  0.25500000000E-02 0. -1.
         -2   -1    0    0    0  501 -0.00000000000E+00 -0.00000000000E+00 -0.46679488684E+02  0.46679488754E+02  0.25500000000E-02 0.  1.
    5000001    1    1    2    0    0 -0.99845460686E+02 -0.56282085351E+01  0.33244870876E+03  0.39672022473E+03  0.19200000000E+03 0.  0.
   -5000001    1    1    2    0    0  0.99845460686E+02  0.56282085351E+01  0.79104036589E+03  0.82012782736E+03  0.19200000000E+03 0.  0.
<mgrwt>
<rscale>  0 0.46743072E+03</rscale>
<asrwt>0</asrwt>
<pdfrwt beam="1">  1        2 0.16716693E+00 0.46743072E+03</pdfrwt>
<pdfrwt beam="2">  1       -2 0.66684988E-02 0.46743072E+03</pdfrwt>
<totfact> 0.29327977E+03</totfact>
</mgrwt>
</event>
<event>
 4    1  0.5900026E-005  0.4426675E+03  0.7818608E-02  0.1029931E+00
         -2   -1    0    0    0  501 -0.00000000000E+00  0.00000000000E+00  0.58035536421E+03  0.58035536422E+03  0.25500000000E-02 0. -1.
          2   -1    0    0  501    0  0.00000000000E+00 -0.00000000000E+00 -0.84411439744E+02  0.84411439783E+02  0.25500000000E-02 0.  1.
    5000001    1    1    2    0    0 -0.32149252699E+02  0.62959786316E+02  0.37475139136E+03  0.42696617485E+03  0.19200000000E+03 0.  0.
   -5000001    1    1    2    0    0  0.32149252699E+02 -0.62959786316E+02  0.12119253311E+03  0.23780062915E+03  0.19200000000E+03 0.  0.
<mgrwt>
<rscale>  0 0.44266751E+03</rscale>
<asrwt>0</asrwt>
<pdfrwt beam="1">  1        2 0.12058777E-01 0.44266751E+03</pdfrwt>
<pdfrwt beam="2">  1       -2 0.82907911E-01 0.44266751E+03</pdfrwt>
<totfact> 0.67301693E+02</totfact>
</mgrwt>
</event>
<event>
 4    1  0.5900026E-005  0.5750784E+03  0.7818608E-02  0.9958503E-01
         -2   -1    0    0    0  501 -0.00000000000E+00  0.00000000000E+00  0.61068465262E+02  0.61068465315E+02  0.25500000000E-02 0. -1.
          2   -1    0    0  501    0  0.00000000000E+00 -0.00000000000E+00 -0.13538704005E+04  0.13538704005E+04  0.25500000000E-02 0.  1.
    5000001    1    1    2    0    0 -0.23374492572E+02  0.20053970363E+03 -0.82128612722E+03  0.86725857875E+03  0.19200000000E+03 0.  0.
   -5000001    1    1    2    0    0  0.23374492572E+02 -0.20053970363E+03 -0.47151580799E+03  0.54768028705E+03  0.19200000000E+03 0.  0.
<mgrwt>
<rscale>  0 0.57507839E+03</rscale>
<asrwt>0</asrwt>
<pdfrwt beam="1">  1        2 0.19341004E+00 0.57507839E+03</pdfrwt>
<pdfrwt beam="2">  1       -2 0.87240673E-02 0.57507839E+03</pdfrwt>
<totfact> 0.15179012E+03</totfact>
</mgrwt>
</event>
<event>
 4    1  0.5900026E-005  0.1057713E+04  0.7818608E-02  0.9247417E-01
          2   -1    0    0  501    0  0.00000000000E+00  0.00000000000E+00  0.11166357961E+04  0.11166357961E+04  0.25500000000E-02 0.  1.
         -2   -1    0    0    0  501 -0.00000000000E+00 -0.00000000000E+00 -0.25047487563E+03  0.25047487564E+03  0.25500000000E-02 0. -1.
    5000001    1    1    2    0    0  0.41975577322E+03 -0.21178338256E+03  0.62382224079E+03  0.80440369118E+03  0.19200000000E+03 0.  0.
   -5000001    1    1    2    0    0 -0.41975577322E+03  0.21178338256E+03  0.24233867964E+03  0.56270698053E+03  0.19200000000E+03 0.  0.
<mgrwt>
<rscale>  0 0.10577130E+04</rscale>
<asrwt>0</asrwt>
<pdfrwt beam="1">  1        2 0.15951940E+00 0.10577130E+04</pdfrwt>
<pdfrwt beam="2">  1       -2 0.35782125E-01 0.10577130E+04</pdfrwt>
<totfact> 0.17422901E+02</totfact>
</mgrwt>
</event>
<event>
 4    1  0.5900026E-005  0.5062927E+03  0.7818608E-02  0.1012149E+00
          2   -1    0    0  501    0  0.00000000000E+00  0.00000000000E+00  0.11607772623E+04  0.11607772623E+04  0.25500000000E-02 0.  1.
         -2   -1    0    0    0  501 -0.00000000000E+00 -0.00000000000E+00 -0.55207037268E+02  0.55207037327E+02  0.25500000000E-02 0. -1.
    5000001    1    1    2    0    0  0.11287850325E+03  0.11978693880E+03  0.52554821597E+03  0.58322842396E+03  0.19200000000E+03 0.  0.
   -5000001    1    1    2    0    0 -0.11287850325E+03 -0.11978693880E+03  0.58002200908E+03  0.63275587569E+03  0.19200000000E+03 0.  0.
<mgrwt>
<rscale>  0 0.50629270E+03</rscale>
<asrwt>0</asrwt>
<pdfrwt beam="1">  1        2 0.16582530E+00 0.50629270E+03</pdfrwt>
<pdfrwt beam="2">  1       -2 0.78867206E-02 0.50629270E+03</pdfrwt>
<totfact> 0.22785169E+03</totfact>
</mgrwt>
</event>
<event>
 4    1  0.5900026E-005  0.9339270E+03  0.7818608E-02  0.9384137E-01
          2   -1    0    0  501    0  0.00000000000E+00  0.00000000000E+00  0.25271633778E+04  0.25271633778E+04  0.25500000000E-02 0.  1.
         -2   -1    0    0    0  501 -0.00000000000E+00 -0.00000000000E+00 -0.86284445320E+02  0.86284445357E+02  0.25500000000E-02 0. -1.
    5000001    1    1    2    0    0 -0.55584149629E+02  0.32959488727E+03  0.19579952833E+04  0.19955780909E+04  0.19200000000E+03 0.  0.
   -5000001    1    1    2    0    0  0.55584149629E+02 -0.32959488727E+03  0.48288364915E+03  0.61786973225E+03  0.19200000000E+03 0.  0.
<mgrwt>
<rscale>  0 0.93392696E+03</rscale>
<asrwt>0</asrwt>
<pdfrwt beam="1">  1        2 0.36102329E+00 0.93392696E+03</pdfrwt>
<pdfrwt beam="2">  1       -2 0.12326351E-01 0.93392696E+03</pdfrwt>
<totfact> 0.21112798E+02</totfact>
</mgrwt>
</event>
<event>
 4    1  0.5900026E-005  0.5636579E+03  0.7818608E-02  0.9983812E-01
          2   -1    0    0  501    0  0.00000000000E+00  0.00000000000E+00  0.20179874800E+04  0.20179874800E+04  0.25500000000E-02 0.  1.
         -2   -1    0    0    0  501 -0.00000000000E+00 -0.00000000000E+00 -0.39359781670E+02  0.39359781752E+02  0.25500000000E-02 0. -1.
    5000001    1    1    2    0    0 -0.11888647971E+03  0.10741967726E+03  0.14636804637E+04  0.14848897205E+04  0.19200000000E+03 0.  0.
   -5000001    1    1    2    0    0  0.11888647971E+03 -0.10741967726E+03  0.51494723456E+03  0.57245754122E+03  0.19200000000E+03 0.  0.
<mgrwt>
<rscale>  0 0.56365786E+03</rscale>
<asrwt>0</asrwt>
<pdfrwt beam="1">  1        2 0.28828402E+00 0.56365786E+03</pdfrwt>
<pdfrwt beam="2">  1       -2 0.56228242E-02 0.56365786E+03</pdfrwt>
<totfact> 0.13896376E+03</totfact>
</mgrwt>
</event>
<event>
 4    1  0.5900026E-005  0.9136374E+03  0.7818608E-02  0.9408693E-01
          2   -1    0    0  501    0  0.00000000000E+00  0.00000000000E+00  0.39741498094E+04  0.39741498094E+04  0.25500000000E-02 0.  1.
         -2   -1    0    0    0  501 -0.00000000000E+00 -0.00000000000E+00 -0.52510182550E+02  0.52510182612E+02  0.25500000000E-02 0. -1.
    5000001    1    1    2    0    0  0.31588088259E+03  0.14005881321E+03  0.29699063457E+04  0.29960982804E+04  0.19200000000E+03 0.  0.
   -5000001    1    1    2    0    0 -0.31588088259E+03 -0.14005881321E+03  0.95173328113E+03  0.10305617117E+04  0.19200000000E+03 0.  0.
<mgrwt>
<rscale>  0 0.91363742E+03</rscale>
<asrwt>0</asrwt>
<pdfrwt beam="1">  1        2 0.56773576E+00 0.91363742E+03</pdfrwt>
<pdfrwt beam="2">  1       -2 0.75014536E-02 0.91363742E+03</pdfrwt>
<totfact> 0.68674753E+01</totfact>
</mgrwt>
</event>
<event>
 4    1  0.5900026E-005  0.4544417E+03  0.7818608E-02  0.1026406E+00
         -2   -1    0    0    0  501 -0.00000000000E+00  0.00000000000E+00  0.16272808366E+03  0.16272808368E+03  0.25500000000E-02 0. -1.
          2   -1    0    0  501    0  0.00000000000E+00 -0.00000000000E+00 -0.31727349812E+03  0.31727349813E+03  0.25500000000E-02 0.  1.
    5000001    1    1    2    0    0  0.38270943757E+02  0.11169636593E+03 -0.10760302649E+03  0.24976619989E+03  0.19200000000E+03 0.  0.
   -5000001    1    1    2    0    0 -0.38270943757E+02 -0.11169636593E+03 -0.46942387967E+02  0.23023538191E+03  0.19200000000E+03 0.  0.
<mgrwt>
<rscale>  0 0.45444167E+03</rscale>
<asrwt>0</asrwt>
<pdfrwt beam="1">  1        2 0.45324785E-01 0.45444167E+03</pdfrwt>
<pdfrwt beam="2">  1       -2 0.23246869E-01 0.45444167E+03</pdfrwt>
<totfact> 0.18178419E+03</totfact>
</mgrwt>
</event>
<event>
 4    1  0.5900026E-005  0.1033717E+04  0.7818608E-02  0.9272319E-01
         -2   -1    0    0    0  501 -0.00000000000E+00  0.00000000000E+00  0.78101806561E+02  0.78101806602E+02  0.25500000000E-02 0. -1.
          2   -1    0    0  501    0  0.00000000000E+00 -0.00000000000E+00 -0.34204404410E+04  0.34204404410E+04  0.25500000000E-02 0.  1.
    5000001    1    1    2    0    0 -0.14333059057E+03  0.39921882895E+03 -0.91167385896E+03  0.10236857705E+04  0.19200000000E+03 0.  0.
   -5000001    1    1    2    0    0  0.14333059057E+03 -0.39921882895E+03 -0.24306647755E+04  0.24748564771E+04  0.19200000000E+03 0.  0.
<mgrwt>
<rscale>  0 0.10337167E+04</rscale>
<asrwt>0</asrwt>
<pdfrwt beam="1">  1        2 0.48863425E+00 0.10337167E+04</pdfrwt>
<pdfrwt beam="2">  1       -2 0.11157403E-01 0.10337167E+04</pdfrwt>
<totfact> 0.79261031E+01</totfact>
</mgrwt>
</event>
<event>
 4    1  0.5900026E-005  0.6319214E+03  0.7818608E-02  0.9841306E-01
         -2   -1    0    0    0  501 -0.00000000000E+00  0.00000000000E+00  0.44251955626E+02  0.44251955700E+02  0.25500000000E-02 0. -1.
          2   -1    0    0  501    0  0.00000000000E+00 -0.00000000000E+00 -0.22559718819E+04  0.22559718819E+04  0.25500000000E-02 0.  1.
    5000001    1    1    2    0    0  0.80311857960E+02 -0.18396748591E+03 -0.16539637941E+04  0.16771267879E+04  0.19200000000E+03 0.  0.
   -5000001    1    1    2    0    0 -0.80311857960E+02  0.18396748591E+03 -0.55775613215E+03  0.62309704971E+03  0.19200000000E+03 0.  0.
<mgrwt>
<rscale>  0 0.63192141E+03</rscale>
<asrwt>0</asrwt>
<pdfrwt beam="1">  1        2 0.32228162E+00 0.63192141E+03</pdfrwt>
<pdfrwt beam="2">  1       -2 0.63217094E-02 0.63192141E+03</pdfrwt>
<totfact> 0.87459297E+02</totfact>
</mgrwt>
</event>
<event>
 4    1  0.5900026E-005  0.7099046E+03  0.7818608E-02  0.9700442E-01
          2   -1    0    0  501    0  0.00000000000E+00  0.00000000000E+00  0.89066555451E+03  0.89066555451E+03  0.25500000000E-02 0.  1.
         -2   -1    0    0    0  501 -0.00000000000E+00 -0.00000000000E+00 -0.14145730546E+03  0.14145730549E+03  0.25500000000E-02 0. -1.
    5000001    1    1    2    0    0 -0.16457006459E+03  0.18773138431E+03  0.61261950571E+03  0.68883455023E+03  0.19200000000E+03 0.  0.
   -5000001    1    1    2    0    0  0.16457006459E+03 -0.18773138431E+03  0.13658874333E+03  0.34328830976E+03  0.19200000000E+03 0.  0.
<mgrwt>
<rscale>  0 0.70990464E+03</rscale>
<asrwt>0</asrwt>
<pdfrwt beam="1">  1        2 0.12723794E+00 0.70990464E+03</pdfrwt>
<pdfrwt beam="2">  1       -2 0.20208186E-01 0.70990464E+03</pdfrwt>
<totfact> 0.69353430E+02</totfact>
</mgrwt>
</event>
<event>
 4    1  0.5900026E-005  0.5282846E+03  0.7818608E-02  0.1006649E+00
         -2   -1    0    0    0  501 -0.00000000000E+00  0.00000000000E+00  0.53089818370E+02  0.53089818431E+02  0.25500000000E-02 0. -1.
          2   -1    0    0  501    0  0.00000000000E+00 -0.00000000000E+00 -0.13142098883E+04  0.13142098883E+04  0.25500000000E-02 0.  1.
    5000001    1    1    2    0    0 -0.63877016134E+02  0.38111604032E+01 -0.10698843116E+04  0.10888577678E+04  0.19200000000E+03 0.  0.
   -5000001    1    1    2    0    0  0.63877016134E+02 -0.38111604032E+01 -0.19123575833E+03  0.27844193901E+03  0.19200000000E+03 0.  0.
<mgrwt>
<rscale>  0 0.52828464E+03</rscale>
<asrwt>0</asrwt>
<pdfrwt beam="1">  1        2 0.18774425E+00 0.52828464E+03</pdfrwt>
<pdfrwt beam="2">  1       -2 0.75842606E-02 0.52828464E+03</pdfrwt>
<totfact> 0.19947239E+03</totfact>
</mgrwt>
</event>
<event>
 4    1  0.5900026E-005  0.1440690E+04  0.7818608E-02  0.8924880E-01
         -2   -1    0    0    0  501 -0.00000000000E+00  0.00000000000E+00  0.19103343534E+03  0.19103343535E+03  0.25500000000E-02 0. -1.
          2   -1    0    0  501    0  0.00000000000E+00 -0.00000000000E+00 -0.27162628268E+04  0.27162628269E+04  0.25500000000E-02 0.  1.
    5000001    1    1    2    0    0  0.34910403133E+03  0.26491880592E+03 -0.17593688878E+03  0.50977778223E+03  0.19200000000E+03 0.  0.
   -5000001    1    1    2    0    0 -0.34910403133E+03 -0.26491880592E+03 -0.23492925027E+04  0.23975184800E+04  0.19200000000E+03 0.  0.
<mgrwt>
<rscale>  0 0.14406901E+04</rscale>
<asrwt>0</asrwt>
<pdfrwt beam="1">  1        2 0.38803752E+00 0.14406901E+04</pdfrwt>
<pdfrwt beam="2">  1       -2 0.27290492E-01 0.14406901E+04</pdfrwt>
<totfact> 0.40258980E+01</totfact>
</mgrwt>
</event>
<event>
 4    1  0.5900026E-005  0.4139617E+03  0.7818608E-02  0.1039050E+00
         -2   -1    0    0    0  501 -0.00000000000E+00  0.00000000000E+00  0.15369751989E+03  0.15369751991E+03  0.25500000000E-02 0.  1.
          2   -1    0    0  501    0  0.00000000000E+00 -0.00000000000E+00 -0.27873619797E+03  0.27873619798E+03  0.25500000000E-02 0. -1.
    5000001    1    1    2    0    0  0.56912545702E+02  0.46893822514E+02 -0.38267126850E+02  0.20920430551E+03  0.19200000000E+03 0.  0.
   -5000001    1    1    2    0    0 -0.56912545702E+02 -0.46893822514E+02 -0.86771551232E+02  0.22322941238E+03  0.19200000000E+03 0.  0.
<mgrwt>
<rscale>  0 0.41396165E+03</rscale>
<asrwt>0</asrwt>
<pdfrwt beam="1">  1        2 0.39819457E-01 0.41396165E+03</pdfrwt>
<pdfrwt beam="2">  1       -2 0.21956789E-01 0.41396165E+03</pdfrwt>
<totfact> 0.23129694E+03</totfact>
</mgrwt>
</event>
<event>
 4    1  0.5900026E-005  0.7275427E+03  0.7818608E-02  0.9671256E-01
          2   -1    0    0  501    0  0.00000000000E+00  0.00000000000E+00  0.44090995274E+03  0.44090995275E+03  0.25500000000E-02 0.  1.
         -2   -1    0    0    0  501 -0.00000000000E+00 -0.00000000000E+00 -0.30012841408E+03  0.30012841409E+03  0.25500000000E-02 0. -1.
    5000001    1    1    2    0    0  0.14321856353E+01  0.30662442554E+03  0.10910926057E+03  0.37787487378E+03  0.19200000000E+03 0.  0.
   -5000001    1    1    2    0    0 -0.14321856353E+01 -0.30662442554E+03  0.31672278090E+02  0.36316349306E+03  0.19200000000E+03 0.  0.
<mgrwt>
<rscale>  0 0.72754273E+03</rscale>
<asrwt>0</asrwt>
<pdfrwt beam="1">  1        2 0.62987135E-01 0.72754273E+03</pdfrwt>
<pdfrwt beam="2">  1       -2 0.42875488E-01 0.72754273E+03</pdfrwt>
<totfact> 0.40239322E+02</totfact>
</mgrwt>
</event>
<event>
 4    1  0.5900026E-005  0.5197270E+03  0.7818608E-02  0.1008754E+00
         -2   -1    0    0    0  501 -0.00000000000E+00  0.00000000000E+00  0.23286924226E+03  0.23286924228E+03  0.25500000000E-02 0. -1.
          2   -1    0    0  501    0  0.00000000000E+00 -0.00000000000E+00 -0.28998691712E+03  0.28998691713E+03  0.25500000000E-02 0.  1.
    5000001    1    1    2    0    0  0.86040234147E+02 -0.89837318970E+02 -0.15255418946E+03  0.27497353781E+03  0.19200000000E+03 0.  0.
   -5000001    1    1    2    0    0 -0.86040234147E+02  0.89837318970E+02  0.95436514606E+02  0.24788262160E+03  0.19200000000E+03 0.  0.
<mgrwt>
<rscale>  0 0.51972698E+03</rscale>
<asrwt>0</asrwt>
<pdfrwt beam="1">  1        2 0.41426702E-01 0.51972698E+03</pdfrwt>
<pdfrwt beam="2">  1       -2 0.33267035E-01 0.51972698E+03</pdfrwt>
<totfact> 0.10463514E+03</totfact>
</mgrwt>
</event>
<event>
 4    1  0.5900026E-005  0.6115868E+03  0.7818608E-02  0.9881654E-01
          2   -1    0    0  501    0  0.00000000000E+00  0.00000000000E+00  0.66458969155E+03  0.66458969156E+03  0.25500000000E-02 0.  1.
         -2   -1    0    0    0  501 -0.00000000000E+00 -0.00000000000E+00 -0.14070276875E+03  0.14070276878E+03  0.25500000000E-02 0. -1.
    5000001    1    1    2    0    0  0.29873137707E+02  0.23381341261E+03  0.21858149421E+03  0.37443689172E+03  0.19200000000E+03 0.  0.
   -5000001    1    1    2    0    0 -0.29873137707E+02 -0.23381341261E+03  0.30530542859E+03  0.43085556861E+03  0.19200000000E+03 0.  0.
<mgrwt>
<rscale>  0 0.61158682E+03</rscale>
<asrwt>0</asrwt>
<pdfrwt beam="1">  1        2 0.94941384E-01 0.61158682E+03</pdfrwt>
<pdfrwt beam="2">  1       -2 0.20100396E-01 0.61158682E+03</pdfrwt>
<totfact> 0.10169444E+03</totfact>
</mgrwt>
</event>
<event>
 4    1  0.5900026E-005  0.4285431E+03  0.7818608E-02  0.1034321E+00
          2   -1    0    0  501    0  0.00000000000E+00  0.00000000000E+00  0.24372846926E+04  0.24372846926E+04  0.25500000000E-02 0.  1.
         -2   -1    0    0    0  501 -0.00000000000E+00 -0.00000000000E+00 -0.18837481061E+02  0.18837481234E+02  0.25500000000E-02 0. -1.
    5000001    1    1    2    0    0  0.94573154408E+02  0.87518541148E+01  0.12393488018E+04  0.12577241864E+04  0.19200000000E+03 0.  0.
   -5000001    1    1    2    0    0 -0.94573154408E+02 -0.87518541148E+01  0.11790984098E+04  0.11983979875E+04  0.19200000000E+03 0.  0.
<mgrwt>
<rscale>  0 0.42854313E+03</rscale>
<asrwt>0</asrwt>
<pdfrwt beam="1">  1        2 0.34818338E+00 0.42854313E+03</pdfrwt>
<pdfrwt beam="2">  1       -2 0.26910699E-02 0.42854313E+03</pdfrwt>
<totfact> 0.26591846E+03</totfact>
</mgrwt>
</event>
<event>
 4    1  0.5900026E-005  0.6516731E+03  0.7818608E-02  0.9803645E-01
          2   -1    0    0  501    0  0.00000000000E+00  0.00000000000E+00  0.20965492081E+03  0.20965492083E+03  0.25500000000E-02 0.  1.
         -2   -1    0    0    0  501 -0.00000000000E+00 -0.00000000000E+00 -0.50640099682E+03  0.50640099683E+03  0.25500000000E-02 0. -1.
    5000001    1    1    2    0    0 -0.21404301175E+03  0.12565743167E+03 -0.24479989829E+03  0.39798893353E+03  0.19200000000E+03 0.  0.
   -5000001    1    1    2    0    0  0.21404301175E+03 -0.12565743167E+03 -0.51946177726E+02  0.31806698413E+03  0.19200000000E+03 0.  0.
<mgrwt>
<rscale>  0 0.65167311E+03</rscale>
<asrwt>0</asrwt>
<pdfrwt beam="1">  1        2 0.29950703E-01 0.65167311E+03</pdfrwt>
<pdfrwt beam="2">  1       -2 0.72342999E-01 0.65167311E+03</pdfrwt>
<totfact> 0.31134026E+02</totfact>
</mgrwt>
</event>
<event>
 4    1  0.5900026E-005  0.5871594E+03  0.7818608E-02  0.9932410E-01
         -2   -1    0    0    0  501 -0.00000000000E+00  0.00000000000E+00  0.13842417570E+03  0.13842417573E+03  0.25500000000E-02 0. -1.
          2   -1    0    0  501    0  0.00000000000E+00 -0.00000000000E+00 -0.62264434985E+03  0.62264434985E+03  0.25500000000E-02 0.  1.
    5000001    1    1    2    0    0  0.21311359258E+03 -0.18213950200E+02 -0.16459982428E+03  0.33121934346E+03  0.19200000000E+03 0.  0.
   -5000001    1    1    2    0    0 -0.21311359258E+03  0.18213950200E+02 -0.31962034987E+03  0.42984918213E+03  0.19200000000E+03 0.  0.
<mgrwt>
<rscale>  0 0.58715937E+03</rscale>
<asrwt>0</asrwt>
<pdfrwt beam="1">  1        2 0.88949191E-01 0.58715937E+03</pdfrwt>
<pdfrwt beam="2">  1       -2 0.19774883E-01 0.58715937E+03</pdfrwt>
<totfact> 0.11314988E+03</totfact>
</mgrwt>
</event>
<event>
 4    1  0.5900026E-005  0.7259096E+03  0.7818608E-02  0.9673921E-01
          2   -1    0    0  501    0  0.00000000000E+00  0.00000000000E+00  0.62722676376E+03  0.62722676376E+03  0.25500000000E-02 0.  1.
         -2   -1    0    0    0  501 -0.00000000000E+00 -0.00000000000E+00 -0.21002961059E+03  0.21002961060E+03  0.25500000000E-02 0. -1.
    5000001    1    1    2    0    0  0.27696516635E+02  0.29931393665E+03  0.28610996868E+03  0.45725140119E+03  0.19200000000E+03 0.  0.
   -5000001    1    1    2    0    0 -0.27696516635E+02 -0.29931393665E+03  0.13108718449E+03  0.38000497318E+03  0.19200000000E+03 0.  0.
<mgrwt>
<rscale>  0 0.72590962E+03</rscale>
<asrwt>0</asrwt>
<pdfrwt beam="1">  1        2 0.89603826E-01 0.72590962E+03</pdfrwt>
<pdfrwt beam="2">  1       -2 0.30004229E-01 0.72590962E+03</pdfrwt>
<totfact> 0.52957644E+02</totfact>
</mgrwt>
</event>
<event>
 4    1  0.5900026E-005  0.5595488E+03  0.7818608E-02  0.9993076E-01
          2   -1    0    0  501    0  0.00000000000E+00  0.00000000000E+00  0.10577687060E+04  0.10577687060E+04  0.25500000000E-02 0.  1.
         -2   -1    0    0    0  501 -0.00000000000E+00 -0.00000000000E+00 -0.73998900376E+02  0.73998900420E+02  0.25500000000E-02 0. -1.
    5000001    1    1    2    0    0  0.17945387821E+03 -0.93010275139E+02  0.44422963372E+03  0.52446026843E+03  0.19200000000E+03 0.  0.
   -5000001    1    1    2    0    0 -0.17945387821E+03  0.93010275139E+02  0.53954017195E+03  0.60730733804E+03  0.19200000000E+03 0.  0.
<mgrwt>
<rscale>  0 0.55954882E+03</rscale>
<asrwt>0</asrwt>
<pdfrwt beam="1">  1        2 0.15110982E+00 0.55954882E+03</pdfrwt>
<pdfrwt beam="2">  1       -2 0.10571271E-01 0.55954882E+03</pdfrwt>
<totfact> 0.16314530E+03</totfact>
</mgrwt>
</event>
<event>
 4    1  0.5900026E-005  0.7486222E+03  0.7818608E-02  0.9637514E-01
          2   -1    0    0  501    0  0.00000000000E+00  0.00000000000E+00  0.17596716683E+04  0.17596716683E+04  0.25500000000E-02 0.  1.
         -2   -1    0    0    0  501 -0.00000000000E+00 -0.00000000000E+00 -0.79622132756E+02  0.79622132797E+02  0.25500000000E-02 0. -1.
    5000001    1    1    2    0    0  0.18455394338E+03  0.13715575495E+03  0.13914505768E+04  0.14233308002E+04  0.19200000000E+03 0.  0.
   -5000001    1    1    2    0    0 -0.18455394338E+03 -0.13715575495E+03  0.28859895877E+03  0.41596300092E+03  0.19200000000E+03 0.  0.
<mgrwt>
<rscale>  0 0.74862223E+03</rscale>
<asrwt>0</asrwt>
<pdfrwt beam="1">  1        2 0.25138168E+00 0.74862223E+03</pdfrwt>
<pdfrwt beam="2">  1       -2 0.11374590E-01 0.74862223E+03</pdfrwt>
<totfact> 0.60238938E+02</totfact>
</mgrwt>
</event>
<event>
 4    1  0.5900026E-005  0.6499737E+03  0.7818608E-02  0.9806828E-01
         -2   -1    0    0    0  501 -0.00000000000E+00  0.00000000000E+00  0.15658689320E+03  0.15658689322E+03  0.25500000000E-02 0.  1.
          2   -1    0    0  501    0  0.00000000000E+00 -0.00000000000E+00 -0.67449111086E+03  0.67449111087E+03  0.25500000000E-02 0. -1.
    5000001    1    1    2    0    0 -0.10823384694E+02 -0.22526539612E+03 -0.42997771388E+03  0.52211730366E+03  0.19200000000E+03 0.  0.
   -5000001    1    1    2    0    0  0.10823384694E+02  0.22526539612E+03 -0.87926503780E+02  0.30896070043E+03  0.19200000000E+03 0.  0.
<mgrwt>
<rscale>  0 0.64997375E+03</rscale>
<asrwt>0</asrwt>
<pdfrwt beam="1">  1        2 0.96355872E-01 0.64997375E+03</pdfrwt>
<pdfrwt beam="2">  1       -2 0.22369557E-01 0.64997375E+03</pdfrwt>
<totfact> 0.82718338E+02</totfact>
</mgrwt>
</event>
<event>
 4    1  0.5900026E-005  0.4821993E+03  0.7818608E-02  0.1018532E+00
         -2   -1    0    0    0  501 -0.00000000000E+00  0.00000000000E+00  0.16659303707E+03  0.16659303709E+03  0.25500000000E-02 0. -1.
          2   -1    0    0  501    0  0.00000000000E+00 -0.00000000000E+00 -0.34892845925E+03  0.34892845926E+03  0.25500000000E-02 0.  1.
    5000001    1    1    2    0    0  0.10495024870E+03 -0.53096918300E+02  0.99389992909E+00  0.22516399639E+03  0.19200000000E+03 0.  0.
   -5000001    1    1    2    0    0 -0.10495024870E+03  0.53096918300E+02 -0.18332932211E+03  0.29035749995E+03  0.19200000000E+03 0.  0.
<mgrwt>
<rscale>  0 0.48219934E+03</rscale>
<asrwt>0</asrwt>
<pdfrwt beam="1">  1        2 0.49846922E-01 0.48219934E+03</pdfrwt>
<pdfrwt beam="2">  1       -2 0.23799006E-01 0.48219934E+03</pdfrwt>
<totfact> 0.15719603E+03</totfact>
</mgrwt>
</event>
<event>
 4    1  0.5900026E-005  0.4616709E+03  0.7818608E-02  0.1024298E+00
          2   -1    0    0  501    0  0.00000000000E+00  0.00000000000E+00  0.30782507382E+03  0.30782507383E+03  0.25500000000E-02 0.  1.
         -2   -1    0    0    0  501 -0.00000000000E+00 -0.00000000000E+00 -0.17310160469E+03  0.17310160471E+03  0.25500000000E-02 0. -1.
    5000001    1    1    2    0    0 -0.67271416694E+02  0.94085497803E+02  0.98929172744E+01  0.22436442279E+03  0.19200000000E+03 0.  0.
   -5000001    1    1    2    0    0  0.67271416694E+02 -0.94085497803E+02  0.12483055186E+03  0.25656225576E+03  0.19200000000E+03 0.  0.
<mgrwt>
<rscale>  0 0.46167094E+03</rscale>
<asrwt>0</asrwt>
<pdfrwt beam="1">  1        2 0.43975010E-01 0.46167094E+03</pdfrwt>
<pdfrwt beam="2">  1       -2 0.24728801E-01 0.46167094E+03</pdfrwt>
<totfact> 0.16840638E+03</totfact>
</mgrwt>
</event>
<event>
 4    1  0.5900026E-005  0.1428830E+04  0.7818608E-02  0.8933210E-01
         -2   -1    0    0    0  501 -0.00000000000E+00  0.00000000000E+00  0.37665242563E+03  0.37665242564E+03  0.25500000000E-02 0. -1.
          2   -1    0    0  501    0  0.00000000000E+00 -0.00000000000E+00 -0.13550657895E+04  0.13550657895E+04  0.25500000000E-02 0.  1.
    5000001    1    1    2    0    0  0.56357051459E+03  0.15992631050E+03 -0.51654393329E+02  0.61864394126E+03  0.19200000000E+03 0.  0.
   -5000001    1    1    2    0    0 -0.56357051459E+03 -0.15992631050E+03 -0.92675897054E+03  0.11130742739E+04  0.19200000000E+03 0.  0.
<mgrwt>
<rscale>  0 0.14288300E+04</rscale>
<asrwt>0</asrwt>
<pdfrwt beam="1">  1        2 0.19358083E+00 0.14288300E+04</pdfrwt>
<pdfrwt beam="2">  1       -2 0.53807490E-01 0.14288300E+04</pdfrwt>
<totfact> 0.55382503E+01</totfact>
</mgrwt>
</event>
<event>
 4    1  0.5900026E-005  0.6169404E+03  0.7818608E-02  0.9870870E-01
         -2   -1    0    0    0  501 -0.00000000000E+00  0.00000000000E+00  0.62572984492E+02  0.62572984544E+02  0.25500000000E-02 0. -1.
          2   -1    0    0  501    0  0.00000000000E+00 -0.00000000000E+00 -0.15206858071E+04  0.15206858071E+04  0.25500000000E-02 0.  1.
    5000001    1    1    2    0    0  0.13480991573E+03 -0.19841465918E+03 -0.65888025307E+03  0.72700019136E+03  0.19200000000E+03 0.  0.
   -5000001    1    1    2    0    0 -0.13480991573E+03  0.19841465918E+03 -0.79923256959E+03  0.85625860033E+03  0.19200000000E+03 0.  0.
<mgrwt>
<rscale>  0 0.61694035E+03</rscale>
<asrwt>0</asrwt>
<pdfrwt beam="1">  1        2 0.21724081E+00 0.61694035E+03</pdfrwt>
<pdfrwt beam="2">  1       -2 0.89389988E-02 0.61694035E+03</pdfrwt>
<totfact> 0.11904644E+03</totfact>
</mgrwt>
</event>
<event>
 4    1  0.5900026E-005  0.4188643E+03  0.7818608E-02  0.1037437E+00
          2   -1    0    0  501    0  0.00000000000E+00  0.00000000000E+00  0.12920045636E+04  0.12920045636E+04  0.25500000000E-02 0.  1.
         -2   -1    0    0    0  501 -0.00000000000E+00 -0.00000000000E+00 -0.33948666548E+02  0.33948666644E+02  0.25500000000E-02 0. -1.
    5000001    1    1    2    0    0  0.23567623670E+02 -0.28574435012E+02  0.39158959807E+03  0.43769663528E+03  0.19200000000E+03 0.  0.
   -5000001    1    1    2    0    0 -0.23567623670E+02  0.28574435012E+02  0.86646629896E+03  0.88825659494E+03  0.19200000000E+03 0.  0.
<mgrwt>
<rscale>  0 0.41886433E+03</rscale>
<asrwt>0</asrwt>
<pdfrwt beam="1">  1        2 0.18457210E+00 0.41886433E+03</pdfrwt>
<pdfrwt beam="2">  1       -2 0.48498091E-02 0.41886433E+03</pdfrwt>
<totfact> 0.41183819E+03</totfact>
</mgrwt>
</event>
<event>
 4    1  0.5900026E-005  0.6189951E+03  0.7818608E-02  0.9866763E-01
          2   -1    0    0  501    0  0.00000000000E+00  0.00000000000E+00  0.11274576929E+04  0.11274576929E+04  0.25500000000E-02 0.  1.
         -2   -1    0    0    0  501 -0.00000000000E+00 -0.00000000000E+00 -0.84959925471E+02  0.84959925509E+02  0.25500000000E-02 0. -1.
    5000001    1    1    2    0    0 -0.50555896510E+02 -0.19767559057E+03  0.77882318676E+03  0.82768417529E+03  0.19200000000E+03 0.  0.
   -5000001    1    1    2    0    0  0.50555896510E+02  0.19767559057E+03  0.26367458071E+03  0.38473344317E+03  0.19200000000E+03 0.  0.
<mgrwt>
<rscale>  0 0.61899506E+03</rscale>
<asrwt>0</asrwt>
<pdfrwt beam="1">  1        2 0.16106539E+00 0.61899506E+03</pdfrwt>
<pdfrwt beam="2">  1       -2 0.12137132E-01 0.61899506E+03</pdfrwt>
<totfact> 0.11834730E+03</totfact>
</mgrwt>
</event>
<event>
 4    1  0.5900026E-005  0.8736728E+03  0.7818608E-02  0.9459104E-01
          2   -1    0    0  501    0  0.00000000000E+00  0.00000000000E+00  0.66537713122E+03  0.66537713122E+03  0.25500000000E-02 0.  1.
         -2   -1    0    0    0  501 -0.00000000000E+00 -0.00000000000E+00 -0.28679379058E+03  0.28679379059E+03  0.25500000000E-02 0. -1.
    5000001    1    1    2    0    0  0.34377367830E+03  0.18803826423E+03  0.21171446272E+03  0.48500076745E+03  0.19200000000E+03 0.  0.
   -5000001    1    1    2    0    0 -0.34377367830E+03 -0.18803826423E+03  0.16686887792E+03  0.46717015436E+03  0.19200000000E+03 0.  0.
<mgrwt>
<rscale>  0 0.87367278E+03</rscale>
<asrwt>0</asrwt>
<pdfrwt beam="1">  1        2 0.95053875E-01 0.87367278E+03</pdfrwt>
<pdfrwt beam="2">  1       -2 0.40970542E-01 0.87367278E+03</pdfrwt>
<totfact> 0.27097945E+02</totfact>
</mgrwt>
</event>
<event>
 4    1  0.5900026E-005  0.1529221E+04  0.7818608E-02  0.8865251E-01
          2   -1    0    0  501    0  0.00000000000E+00  0.00000000000E+00  0.10908923804E+04  0.10908923804E+04  0.25500000000E-02 0.  1.
         -2   -1    0    0    0  501 -0.00000000000E+00 -0.00000000000E+00 -0.53591819697E+03  0.53591819698E+03  0.25500000000E-02 0. -1.
    5000001    1    1    2    0    0 -0.26094993496E+03  0.34741832110E+03 -0.35988977719E+03  0.59596896741E+03  0.19200000000E+03 0.  0.
   -5000001    1    1    2    0    0  0.26094993496E+03 -0.34741832110E+03  0.91486396062E+03  0.10308416100E+04  0.19200000000E+03 0.  0.
<mgrwt>
<rscale>  0 0.15292208E+04</rscale>
<asrwt>0</asrwt>
<pdfrwt beam="1">  1        2 0.15584177E+00 0.15292208E+04</pdfrwt>
<pdfrwt beam="2">  1       -2 0.76559743E-01 0.15292208E+04</pdfrwt>
<totfact> 0.36454590E+01</totfact>
</mgrwt>
</event>
<event>
 4    1  0.5900026E-005  0.8463482E+03  0.7818608E-02  0.9495251E-01
          2   -1    0    0  501    0  0.00000000000E+00  0.00000000000E+00  0.15141384554E+04  0.15141384554E+04  0.25500000000E-02 0.  1.
         -2   -1    0    0    0  501 -0.00000000000E+00 -0.00000000000E+00 -0.11826943789E+03  0.11826943792E+03  0.25500000000E-02 0. -1.
    5000001    1    1    2    0    0 -0.32392293662E+03 -0.19101613582E+03  0.64341244083E+03  0.76958222564E+03  0.19200000000E+03 0.  0.
   -5000001    1    1    2    0    0  0.32392293662E+03  0.19101613582E+03  0.75245657670E+03  0.86282566769E+03  0.19200000000E+03 0.  0.
<mgrwt>
<rscale>  0 0.84634816E+03</rscale>
<asrwt>0</asrwt>
<pdfrwt beam="1">  1        2 0.21630550E+00 0.84634816E+03</pdfrwt>
<pdfrwt beam="2">  1       -2 0.16895633E-01 0.84634816E+03</pdfrwt>
<totfact> 0.41303345E+02</totfact>
</mgrwt>
</event>
<event>
 4    1  0.5900026E-005  0.4611964E+03  0.7818608E-02  0.1024435E+00
          2   -1    0    0  501    0  0.00000000000E+00  0.00000000000E+00  0.13586454578E+04  0.13586454578E+04  0.25500000000E-02 0.  1.
         -2   -1    0    0    0  501 -0.00000000000E+00 -0.00000000000E+00 -0.39138638001E+02  0.39138638084E+02  0.25500000000E-02 0. -1.
    5000001    1    1    2    0    0  0.62788497860E+02 -0.76688115839E+02  0.41562858481E+03  0.46843845176E+03  0.19200000000E+03 0.  0.
   -5000001    1    1    2    0    0 -0.62788497860E+02  0.76688115839E+02  0.90387823500E+03  0.92934564414E+03  0.19200000000E+03 0.  0.
<mgrwt>
<rscale>  0 0.46119641E+03</rscale>
<asrwt>0</asrwt>
<pdfrwt beam="1">  1        2 0.19409220E+00 0.46119641E+03</pdfrwt>
<pdfrwt beam="2">  1       -2 0.55912342E-02 0.46119641E+03</pdfrwt>
<totfact> 0.30470830E+03</totfact>
</mgrwt>
</event>
<event>
 4    1  0.5900026E-005  0.6824110E+03  0.7818608E-02  0.9747794E-01
         -2   -1    0    0    0  501 -0.00000000000E+00  0.00000000000E+00  0.19711321903E+03  0.19711321905E+03  0.25500000000E-02 0. -1.
          2   -1    0    0  501    0  0.00000000000E+00 -0.00000000000E+00 -0.59063104643E+03  0.59063104644E+03  0.25500000000E-02 0.  1.
    5000001    1    1    2    0    0  0.11582049708E+03  0.21458674395E+03 -0.33119920162E+02  0.31212623622E+03  0.19200000000E+03 0.  0.
   -5000001    1    1    2    0    0 -0.11582049708E+03 -0.21458674395E+03 -0.36039790724E+03  0.47561802927E+03  0.19200000000E+03 0.  0.
<mgrwt>
<rscale>  0 0.68241098E+03</rscale>
<asrwt>0</asrwt>
<pdfrwt beam="1">  1        2 0.84375863E-01 0.68241098E+03</pdfrwt>
<pdfrwt beam="2">  1       -2 0.28159032E-01 0.68241098E+03</pdfrwt>
<totfact> 0.64002963E+02</totfact>
</mgrwt>
</event>
<event>
 4    1  0.5900026E-005  0.1244953E+04  0.7818608E-02  0.9074394E-01
          2   -1    0    0  501    0  0.00000000000E+00  0.00000000000E+00  0.11375471409E+04  0.11375471409E+04  0.25500000000E-02 0.  1.
         -2   -1    0    0    0  501 -0.00000000000E+00 -0.00000000000E+00 -0.34062514294E+03  0.34062514295E+03  0.25500000000E-02 0. -1.
    5000001    1    1    2    0    0 -0.14373274451E+03  0.57130851800E+03  0.46931030599E+03  0.77728288794E+03  0.19200000000E+03 0.  0.
   -5000001    1    1    2    0    0  0.14373274451E+03 -0.57130851800E+03  0.32761169197E+03  0.70088939591E+03  0.19200000000E+03 0.  0.
<mgrwt>
<rscale>  0 0.12449533E+04</rscale>
<asrwt>0</asrwt>
<pdfrwt beam="1">  1        2 0.16250674E+00 0.12449533E+04</pdfrwt>
<pdfrwt beam="2">  1       -2 0.48660734E-01 0.12449533E+04</pdfrwt>
<totfact> 0.91380204E+01</totfact>
</mgrwt>
</event>
<event>
 4    1  0.5900026E-005  0.6073496E+03  0.7818608E-02  0.9890274E-01
          2   -1    0    0  501    0  0.00000000000E+00  0.00000000000E+00  0.15914490269E+03  0.15914490271E+03  0.25500000000E-02 0.  1.
         -2   -1    0    0    0  501 -0.00000000000E+00 -0.00000000000E+00 -0.57946166555E+03  0.57946166556E+03  0.25500000000E-02 0. -1.
    5000001    1    1    2    0    0  0.49562072630E+02  0.21003187751E+03 -0.32414004545E+03  0.43416650917E+03  0.19200000000E+03 0.  0.
   -5000001    1    1    2    0    0 -0.49562072630E+02 -0.21003187751E+03 -0.96176717409E+02  0.30444005910E+03  0.19200000000E+03 0.  0.
<mgrwt>
<rscale>  0 0.60734955E+03</rscale>
<asrwt>0</asrwt>
<pdfrwt beam="1">  1        2 0.22734986E-01 0.60734955E+03</pdfrwt>
<pdfrwt beam="2">  1       -2 0.82780237E-01 0.60734955E+03</pdfrwt>
<totfact> 0.31624698E+02</totfact>
</mgrwt>
</event>
<event>
 4    1  0.5900026E-005  0.6193036E+03  0.7818608E-02  0.9866147E-01
          2   -1    0    0  501    0  0.00000000000E+00  0.00000000000E+00  0.12651460772E+04  0.12651460772E+04  0.25500000000E-02 0.  1.
         -2   -1    0    0    0  501 -0.00000000000E+00 -0.00000000000E+00 -0.75789064775E+02  0.75789064818E+02  0.25500000000E-02 0. -1.
    5000001    1    1    2    0    0  0.15744600253E+03 -0.69190280576E+02  0.22314297452E+03  0.34093008919E+03  0.19200000000E+03 0.  0.
   -5000001    1    1    2    0    0 -0.15744600253E+03  0.69190280576E+02  0.96621403788E+03  0.10000050528E+04  0.19200000000E+03 0.  0.
<mgrwt>
<rscale>  0 0.61930360E+03</rscale>
<asrwt>0</asrwt>
<pdfrwt beam="1">  1        2 0.18073513E+00 0.61930360E+03</pdfrwt>
<pdfrwt beam="2">  1       -2 0.10827010E-01 0.61930360E+03</pdfrwt>
<totfact> 0.11943730E+03</totfact>
</mgrwt>
</event>
<event>
 4    1  0.5900026E-005  0.5037874E+03  0.7818608E-02  0.1012795E+00
         -2   -1    0    0    0  501 -0.00000000000E+00  0.00000000000E+00  0.27305887080E+02  0.27305887199E+02  0.25500000000E-02 0. -1.
          2   -1    0    0  501    0  0.00000000000E+00 -0.00000000000E+00 -0.23236910925E+04  0.23236910925E+04  0.25500000000E-02 0.  1.
    5000001    1    1    2    0    0 -0.15776453881E+03  0.38776325361E+02 -0.10833289934E+04  0.11121416102E+04  0.19200000000E+03 0.  0.
   -5000001    1    1    2    0    0  0.15776453881E+03 -0.38776325361E+02 -0.12130562120E+04  0.12388553695E+04  0.19200000000E+03 0.  0.
<mgrwt>
<rscale>  0 0.50378744E+03</rscale>
<asrwt>0</asrwt>
<pdfrwt beam="1">  1        2 0.33195574E+00 0.50378744E+03</pdfrwt>
<pdfrwt beam="2">  1       -2 0.39008425E-02 0.50378744E+03</pdfrwt>
<totfact> 0.17216754E+03</totfact>
</mgrwt>
</event>
<event>
 4    1  0.5900026E-005  0.6838797E+03  0.7818608E-02  0.9745204E-01
         -2   -1    0    0    0  501 -0.00000000000E+00  0.00000000000E+00  0.44382939750E+03  0.44382939751E+03  0.25500000000E-02 0. -1.
          2   -1    0    0  501    0  0.00000000000E+00 -0.00000000000E+00 -0.26344097406E+03  0.26344097407E+03  0.25500000000E-02 0.  1.
    5000001    1    1    2    0    0  0.54160935655E+02 -0.27358584034E+03  0.13953588001E+03  0.36621971656E+03  0.19200000000E+03 0.  0.
   -5000001    1    1    2    0    0 -0.54160935655E+02  0.27358584034E+03  0.40852543433E+02  0.34105065503E+03  0.19200000000E+03 0.  0.
<mgrwt>
<rscale>  0 0.68387966E+03</rscale>
<asrwt>0</asrwt>
<pdfrwt beam="1">  1        2 0.37634425E-01 0.68387966E+03</pdfrwt>
<pdfrwt beam="2">  1       -2 0.63404199E-01 0.68387966E+03</pdfrwt>
<totfact> 0.32042706E+02</totfact>
</mgrwt>
</event>
<event>
 4    1  0.5900026E-005  0.7882972E+03  0.7818608E-02  0.9577113E-01
         -2   -1    0    0    0  501 -0.00000000000E+00  0.00000000000E+00  0.82248663093E+02  0.82248663132E+02  0.25500000000E-02 0. -1.
          2   -1    0    0  501    0  0.00000000000E+00 -0.00000000000E+00 -0.18888226493E+04  0.18888226493E+04  0.25500000000E-02 0.  1.
    5000001    1    1    2    0    0  0.32837301299E+02 -0.33957241705E+03 -0.78866470697E+03  0.88047926427E+03  0.19200000000E+03 0.  0.
   -5000001    1    1    2    0    0 -0.32837301299E+02  0.33957241705E+03 -0.10179092792E+04  0.10905920481E+04  0.19200000000E+03 0.  0.
<mgrwt>
<rscale>  0 0.78829725E+03</rscale>
<asrwt>0</asrwt>
<pdfrwt beam="1">  1        2 0.26983178E+00 0.78829725E+03</pdfrwt>
<pdfrwt beam="2">  1       -2 0.11749810E-01 0.78829725E+03</pdfrwt>
<totfact> 0.48970191E+02</totfact>
</mgrwt>
</event>
<event>
 4    1  0.5900026E-005  0.5396896E+03  0.7818608E-02  0.1003909E+00
          2   -1    0    0  501    0  0.00000000000E+00  0.00000000000E+00  0.15752491547E+04  0.15752491547E+04  0.25500000000E-02 0.  1.
         -2   -1    0    0    0  501 -0.00000000000E+00 -0.00000000000E+00 -0.46225212198E+02  0.46225212268E+02  0.25500000000E-02 0. -1.
    5000001    1    1    2    0    0 -0.82091725757E+02 -0.16506781519E+03  0.63130261534E+03  0.68512292852E+03  0.19200000000E+03 0.  0.
   -5000001    1    1    2    0    0  0.82091725757E+02  0.16506781519E+03  0.89772132718E+03  0.93635143847E+03  0.19200000000E+03 0.  0.
<mgrwt>
<rscale>  0 0.53968964E+03</rscale>
<asrwt>0</asrwt>
<pdfrwt beam="1">  1        2 0.22503561E+00 0.53968964E+03</pdfrwt>
<pdfrwt beam="2">  1       -2 0.66036013E-02 0.53968964E+03</pdfrwt>
<totfact> 0.18096736E+03</totfact>
</mgrwt>
</event>
<event>
 4    1  0.5900026E-005  0.5815941E+03  0.7818608E-02  0.9944346E-01
         -2   -1    0    0    0  501 -0.00000000000E+00  0.00000000000E+00  0.37819395495E+02  0.37819395581E+02  0.25500000000E-02 0. -1.
          2   -1    0    0  501    0  0.00000000000E+00 -0.00000000000E+00 -0.22359674727E+04  0.22359674727E+04  0.25500000000E-02 0.  1.
    5000001    1    1    2    0    0  0.52349977097E+02  0.20343770739E+03 -0.13327188329E+04  0.13627659038E+04  0.19200000000E+03 0.  0.
   -5000001    1    1    2    0    0 -0.52349977097E+02 -0.20343770739E+03 -0.86542924427E+03  0.91102096448E+03  0.19200000000E+03 0.  0.
<mgrwt>
<rscale>  0 0.58159415E+03</rscale>
<asrwt>0</asrwt>
<pdfrwt beam="1">  1        2 0.31942384E+00 0.58159415E+03</pdfrwt>
<pdfrwt beam="2">  1       -2 0.54027722E-02 0.58159415E+03</pdfrwt>
<totfact> 0.11481656E+03</totfact>
</mgrwt>
</event>
<event>
 4    1  0.5900026E-005  0.6265067E+03  0.7818608E-02  0.9851890E-01
          2   -1    0    0  501    0  0.00000000000E+00  0.00000000000E+00  0.35964000669E+04  0.35964000669E+04  0.25500000000E-02 0.  1.
         -2   -1    0    0    0  501 -0.00000000000E+00 -0.00000000000E+00 -0.27284964393E+02  0.27284964512E+02  0.25500000000E-02 0. -1.
    5000001    1    1    2    0    0  0.94625803842E+02 -0.19004998081E+03  0.25205211897E+04  0.25367231038E+04  0.19200000000E+03 0.  0.
   -5000001    1    1    2    0    0 -0.94625803842E+02  0.19004998081E+03  0.10485939128E+04  0.10869619275E+04  0.19200000000E+03 0.  0.
<mgrwt>
<rscale>  0 0.62650666E+03</rscale>
<asrwt>0</asrwt>
<pdfrwt beam="1">  1        2 0.51377130E+00 0.62650666E+03</pdfrwt>
<pdfrwt beam="2">  1       -2 0.38978531E-02 0.62650666E+03</pdfrwt>
<totfact> 0.34516880E+02</totfact>
</mgrwt>
</event>
<event>
 4    1  0.5900026E-005  0.5046326E+03  0.7818608E-02  0.1012577E+00
          2   -1    0    0  501    0  0.00000000000E+00  0.00000000000E+00  0.78527054455E+03  0.78527054455E+03  0.25500000000E-02 0.  1.
         -2   -1    0    0    0  501 -0.00000000000E+00 -0.00000000000E+00 -0.81072066661E+02  0.81072066701E+02  0.25500000000E-02 0. -1.
    5000001    1    1    2    0    0 -0.13989467591E+03  0.65477961853E+02  0.44521170854E+03  0.50885690450E+03  0.19200000000E+03 0.  0.
   -5000001    1    1    2    0    0  0.13989467591E+03 -0.65477961853E+02  0.25898676935E+03  0.35748570676E+03  0.19200000000E+03 0.  0.
<mgrwt>
<rscale>  0 0.50463256E+03</rscale>
<asrwt>0</asrwt>
<pdfrwt beam="1">  1        2 0.11218151E+00 0.50463256E+03</pdfrwt>
<pdfrwt beam="2">  1       -2 0.11581723E-01 0.50463256E+03</pdfrwt>
<totfact> 0.20981440E+03</totfact>
</mgrwt>
</event>
<event>
 4    1  0.5900026E-005  0.7704135E+03  0.7818608E-02  0.9603858E-01
          2   -1    0    0  501    0  0.00000000000E+00  0.00000000000E+00  0.59570255060E+03  0.59570255061E+03  0.25500000000E-02 0.  1.
         -2   -1    0    0    0  501 -0.00000000000E+00 -0.00000000000E+00 -0.24909117722E+03  0.24909117723E+03  0.25500000000E-02 0. -1.
    5000001    1    1    2    0    0  0.22623448168E+03  0.24532287741E+03  0.15965843802E+03  0.41679751884E+03  0.19200000000E+03 0.  0.
   -5000001    1    1    2    0    0 -0.22623448168E+03 -0.24532287741E+03  0.18695293537E+03  0.42799620900E+03  0.19200000000E+03 0.  0.
<mgrwt>
<rscale>  0 0.77041352E+03</rscale>
<asrwt>0</asrwt>
<pdfrwt beam="1">  1        2 0.85100365E-01 0.77041352E+03</pdfrwt>
<pdfrwt beam="2">  1       -2 0.35584454E-01 0.77041352E+03</pdfrwt>
<totfact> 0.40799901E+02</totfact>
</mgrwt>
</event>
<event>
 4    1  0.5900026E-005  0.6000456E+03  0.7818608E-02  0.9905312E-01
          2   -1    0    0  501    0  0.00000000000E+00  0.00000000000E+00  0.14481744303E+04  0.14481744303E+04  0.25500000000E-02 0.  1.
         -2   -1    0    0    0  501 -0.00000000000E+00 -0.00000000000E+00 -0.62156647291E+02  0.62156647344E+02  0.25500000000E-02 0. -1.
    5000001    1    1    2    0    0  0.26205289637E+02  0.16980706045E+03  0.10799154796E+04  0.11102263724E+04  0.19200000000E+03 0.  0.
   -5000001    1    1    2    0    0 -0.26205289637E+02 -0.16980706045E+03  0.30610230345E+03  0.40010470524E+03  0.19200000000E+03 0.  0.
<mgrwt>
<rscale>  0 0.60004556E+03</rscale>
<asrwt>0</asrwt>
<pdfrwt beam="1">  1        2 0.20688206E+00 0.60004556E+03</pdfrwt>
<pdfrwt beam="2">  1       -2 0.88795211E-02 0.60004556E+03</pdfrwt>
<totfact> 0.13139009E+03</totfact>
</mgrwt>
</event>
<event>
 4    1  0.5900026E-005  0.5831810E+03  0.7818608E-02  0.9940928E-01
         -2   -1    0    0    0  501 -0.00000000000E+00  0.00000000000E+00  0.12715202719E+03  0.12715202722E+03  0.25500000000E-02 0. -1.
          2   -1    0    0  501    0  0.00000000000E+00 -0.00000000000E+00 -0.66868791234E+03  0.66868791235E+03  0.25500000000E-02 0.  1.
    5000001    1    1    2    0    0  0.20233071344E+03 -0.51327017132E+02 -0.36321092960E+03  0.46082356675E+03  0.19200000000E+03 0.  0.
   -5000001    1    1    2    0    0 -0.20233071344E+03  0.51327017132E+02 -0.17832495555E+03  0.33501637282E+03  0.19200000000E+03 0.  0.
<mgrwt>
<rscale>  0 0.58318101E+03</rscale>
<asrwt>0</asrwt>
<pdfrwt beam="1">  1        2 0.95526843E-01 0.58318101E+03</pdfrwt>
<pdfrwt beam="2">  1       -2 0.18164576E-01 0.58318101E+03</pdfrwt>
<totfact> 0.12033270E+03</totfact>
</mgrwt>
</event>
<event>
 4    1  0.5900026E-005  0.5890046E+03  0.7818608E-02  0.9928484E-01
         -2   -1    0    0    0  501 -0.00000000000E+00  0.00000000000E+00  0.39074681754E+02  0.39074681837E+02  0.25500000000E-02 0. -1.
          2   -1    0    0  501    0  0.00000000000E+00 -0.00000000000E+00 -0.22196367089E+04  0.22196367089E+04  0.25500000000E-02 0.  1.
    5000001    1    1    2    0    0 -0.16337695427E+03 -0.14601388579E+03 -0.12554673793E+04  0.12888267628E+04  0.19200000000E+03 0.  0.
   -5000001    1    1    2    0    0  0.16337695427E+03  0.14601388579E+03 -0.92509464785E+03  0.96988462794E+03  0.19200000000E+03 0.  0.
<mgrwt>
<rscale>  0 0.58900458E+03</rscale>
<asrwt>0</asrwt>
<pdfrwt beam="1">  1        2 0.31709088E+00 0.58900458E+03</pdfrwt>
<pdfrwt beam="2">  1       -2 0.55820988E-02 0.58900458E+03</pdfrwt>
<totfact> 0.11115845E+03</totfact>
</mgrwt>
</event>
<event>
 4    1  0.5900026E-005  0.7076858E+03  0.7818608E-02  0.9704178E-01
         -2   -1    0    0    0  501 -0.00000000000E+00  0.00000000000E+00  0.85158108831E+02  0.85158108869E+02  0.25500000000E-02 0. -1.
          2   -1    0    0  501    0  0.00000000000E+00 -0.00000000000E+00 -0.14702628715E+04  0.14702628715E+04  0.25500000000E-02 0.  1.
    5000001    1    1    2    0    0 -0.19989528866E+03 -0.42236262625E+02 -0.11670070437E+04  0.12002130929E+04  0.19200000000E+03 0.  0.
   -5000001    1    1    2    0    0  0.19989528866E+03  0.42236262625E+02 -0.21809771897E+03  0.35520788748E+03  0.19200000000E+03 0.  0.
<mgrwt>
<rscale>  0 0.70768582E+03</rscale>
<asrwt>0</asrwt>
<pdfrwt beam="1">  1        2 0.21003754E+00 0.70768582E+03</pdfrwt>
<pdfrwt beam="2">  1       -2 0.12165445E-01 0.70768582E+03</pdfrwt>
<totfact> 0.76259330E+02</totfact>
</mgrwt>
</event>
<event>
 4    1  0.5900026E-005  0.4482508E+03  0.7818608E-02  0.1028245E+00
          2   -1    0    0  501    0  0.00000000000E+00  0.00000000000E+00  0.20351995207E+03  0.20351995209E+03  0.25500000000E-02 0.  1.
         -2   -1    0    0    0  501 -0.00000000000E+00 -0.00000000000E+00 -0.24681701706E+03  0.24681701708E+03  0.25500000000E-02 0. -1.
    5000001    1    1    2    0    0  0.66969333240E+02  0.25826292700E+02  0.69417132626E+02  0.21641309408E+03  0.19200000000E+03 0.  0.
   -5000001    1    1    2    0    0 -0.66969333240E+02 -0.25826292700E+02 -0.11271419761E+03  0.23392387508E+03  0.19200000000E+03 0.  0.
<mgrwt>
<rscale>  0 0.44825077E+03</rscale>
<asrwt>0</asrwt>
<pdfrwt beam="1">  1        2 0.29074279E-01 0.44825077E+03</pdfrwt>
<pdfrwt beam="2">  1       -2 0.35259574E-01 0.44825077E+03</pdfrwt>
<totfact> 0.13873635E+03</totfact>
</mgrwt>
</event>
<event>
 4    1  0.5900026E-005  0.4997787E+03  0.7818608E-02  0.1013837E+00
          2   -1    0    0  501    0  0.00000000000E+00  0.00000000000E+00  0.14349512628E+04  0.14349512628E+04  0.25500000000E-02 0.  1.
         -2   -1    0    0    0  501 -0.00000000000E+00 -0.00000000000E+00 -0.43516941578E+02  0.43516941652E+02  0.25500000000E-02 0. -1.
    5000001    1    1    2    0    0 -0.14898190645E+03 -0.52954194233E-01  0.86783213018E+03  0.90121707564E+03  0.19200000000E+03 0.  0.
   -5000001    1    1    2    0    0  0.14898190645E+03  0.52954194233E-01  0.52360219107E+03  0.57725112884E+03  0.19200000000E+03 0.  0.
<mgrwt>
<rscale>  0 0.49977871E+03</rscale>
<asrwt>0</asrwt>
<pdfrwt beam="1">  1        2 0.20499304E+00 0.49977871E+03</pdfrwt>
<pdfrwt beam="2">  1       -2 0.62167057E-02 0.49977871E+03</pdfrwt>
<totfact> 0.23540444E+03</totfact>
</mgrwt>
</event>
<event>
 4    1  0.5900026E-005  0.7570896E+03  0.7818608E-02  0.9624293E-01
         -2   -1    0    0    0  501 -0.00000000000E+00  0.00000000000E+00  0.46267931097E+02  0.46267931167E+02  0.25500000000E-02 0. -1.
          2   -1    0    0  501    0  0.00000000000E+00 -0.00000000000E+00 -0.30970950602E+04  0.30970950602E+04  0.25500000000E-02 0.  1.
    5000001    1    1    2    0    0 -0.39966368191E+01 -0.29198235638E+03 -0.21294050755E+04  0.21578924082E+04  0.19200000000E+03 0.  0.
   -5000001    1    1    2    0    0  0.39966368191E+01  0.29198235638E+03 -0.92142205358E+03  0.98547058321E+03  0.19200000000E+03 0.  0.
<mgrwt>
<rscale>  0 0.75708964E+03</rscale>
<asrwt>0</asrwt>
<pdfrwt beam="1">  1        2 0.44244202E+00 0.75708964E+03</pdfrwt>
<pdfrwt beam="2">  1       -2 0.66097064E-02 0.75708964E+03</pdfrwt>
<totfact> 0.29099931E+02</totfact>
</mgrwt>
</event>
<event>
 4    1  0.5900026E-005  0.4851717E+03  0.7818608E-02  0.1017723E+00
         -2   -1    0    0    0  501 -0.00000000000E+00  0.00000000000E+00  0.50530654407E+02  0.50530654471E+02  0.25500000000E-02 0. -1.
          2   -1    0    0  501    0  0.00000000000E+00 -0.00000000000E+00 -0.11645976788E+04  0.11645976788E+04  0.25500000000E-02 0.  1.
    5000001    1    1    2    0    0  0.16707135208E+02  0.13451412772E+03 -0.40653830455E+03  0.46958553214E+03  0.19200000000E+03 0.  0.
   -5000001    1    1    2    0    0 -0.16707135208E+02 -0.13451412772E+03 -0.70752871980E+03  0.74554280110E+03  0.19200000000E+03 0.  0.
<mgrwt>
<rscale>  0 0.48517165E+03</rscale>
<asrwt>0</asrwt>
<pdfrwt beam="1">  1        2 0.16637108E+00 0.48517165E+03</pdfrwt>
<pdfrwt beam="2">  1       -2 0.72186657E-02 0.48517165E+03</pdfrwt>
<totfact> 0.26080802E+03</totfact>
</mgrwt>
</event>
<event>
 4    1  0.5900026E-005  0.7705362E+03  0.7818608E-02  0.9603672E-01
         -2   -1    0    0    0  501 -0.00000000000E+00  0.00000000000E+00  0.17361935179E+03  0.17361935181E+03  0.25500000000E-02 0. -1.
          2   -1    0    0  501    0  0.00000000000E+00 -0.00000000000E+00 -0.85492484699E+03  0.85492484699E+03  0.25500000000E-02 0.  1.
    5000001    1    1    2    0    0  0.11757841429E+02 -0.29345975716E+03 -0.12828853276E+03  0.37360249403E+03  0.19200000000E+03 0.  0.
   -5000001    1    1    2    0    0 -0.11757841429E+02  0.29345975716E+03 -0.55301696244E+03  0.65494170477E+03  0.19200000000E+03 0.  0.
<mgrwt>
<rscale>  0 0.77053617E+03</rscale>
<asrwt>0</asrwt>
<pdfrwt beam="1">  1        2 0.12213212E+00 0.77053617E+03</pdfrwt>
<pdfrwt beam="2">  1       -2 0.24802765E-01 0.77053617E+03</pdfrwt>
<totfact> 0.50807599E+02</totfact>
</mgrwt>
</event>
<event>
 4    1  0.5900026E-005  0.6564604E+03  0.7818608E-02  0.9794732E-01
         -2   -1    0    0    0  501 -0.00000000000E+00  0.00000000000E+00  0.58665571432E+02  0.58665571488E+02  0.25500000000E-02 0. -1.
          2   -1    0    0  501    0  0.00000000000E+00 -0.00000000000E+00 -0.18364276897E+04  0.18364276897E+04  0.25500000000E-02 0.  1.
    5000001    1    1    2    0    0 -0.20085407115E+03  0.16900532270E+03 -0.76088244733E+03  0.82747281264E+03  0.19200000000E+03 0.  0.
   -5000001    1    1    2    0    0  0.20085407115E+03 -0.16900532270E+03 -0.10168796709E+04  0.10676204485E+04  0.19200000000E+03 0.  0.
<mgrwt>
<rscale>  0 0.65646045E+03</rscale>
<asrwt>0</asrwt>
<pdfrwt beam="1">  1        2 0.26234678E+00 0.65646045E+03</pdfrwt>
<pdfrwt beam="2">  1       -2 0.83807971E-02 0.65646045E+03</pdfrwt>
<totfact> 0.90863397E+02</totfact>
</mgrwt>
</event>
<event>
 4    1  0.5900026E-005  0.8731146E+03  0.7818608E-02  0.9459828E-01
          2   -1    0    0  501    0  0.00000000000E+00  0.00000000000E+00  0.29764396987E+04  0.29764396987E+04  0.25500000000E-02 0.  1.
         -2   -1    0    0    0  501 -0.00000000000E+00 -0.00000000000E+00 -0.64030288938E+02  0.64030288989E+02  0.25500000000E-02 0. -1.
    5000001    1    1    2    0    0  0.98702772059E+02  0.36775212651E+03  0.11307528582E+04  0.12084907489E+04  0.19200000000E+03 0.  0.
   -5000001    1    1    2    0    0 -0.98702772059E+02 -0.36775212651E+03  0.17816565516E+04  0.18319792388E+04  0.19200000000E+03 0.  0.
<mgrwt>
<rscale>  0 0.87311464E+03</rscale>
<asrwt>0</asrwt>
<pdfrwt beam="1">  1        2 0.42520584E+00 0.87311464E+03</pdfrwt>
<pdfrwt beam="2">  1       -2 0.91471804E-02 0.87311464E+03</pdfrwt>
<totfact> 0.19942054E+02</totfact>
</mgrwt>
</event>
<event>
 4    1  0.5900026E-005  0.8928458E+03  0.7818608E-02  0.9434569E-01
          2   -1    0    0  501    0  0.00000000000E+00  0.00000000000E+00  0.18424725176E+04  0.18424725176E+04  0.25500000000E-02 0.  1.
         -2   -1    0    0    0  501 -0.00000000000E+00 -0.00000000000E+00 -0.10816628692E+03  0.10816628695E+03  0.25500000000E-02 0. -1.
    5000001    1    1    2    0    0 -0.29344984593E+03  0.48518905978E+02  0.14613169693E+04  0.15035884347E+04  0.19200000000E+03 0.  0.
   -5000001    1    1    2    0    0  0.29344984593E+03 -0.48518905978E+02  0.27298926138E+03  0.44705036980E+03  0.19200000000E+03 0.  0.
<mgrwt>
<rscale>  0 0.89284581E+03</rscale>
<asrwt>0</asrwt>
<pdfrwt beam="1">  1        2 0.26321033E+00 0.89284581E+03</pdfrwt>
<pdfrwt beam="2">  1       -2 0.15452328E-01 0.89284581E+03</pdfrwt>
<totfact> 0.32463299E+02</totfact>
</mgrwt>
</event>
<event>
 4    1  0.5900026E-005  0.7475908E+03  0.7818608E-02  0.9639138E-01
          2   -1    0    0  501    0  0.00000000000E+00  0.00000000000E+00  0.10345408153E+04  0.10345408153E+04  0.25500000000E-02 0.  1.
         -2   -1    0    0    0  501 -0.00000000000E+00 -0.00000000000E+00 -0.13505797645E+03  0.13505797647E+03  0.25500000000E-02 0. -1.
    5000001    1    1    2    0    0  0.42701648766E+02 -0.27507040579E+03  0.20054093687E+03  0.39315114944E+03  0.19200000000E+03 0.  0.
   -5000001    1    1    2    0    0 -0.42701648766E+02  0.27507040579E+03  0.69894190202E+03  0.77644764237E+03  0.19200000000E+03 0.  0.
<mgrwt>
<rscale>  0 0.74759077E+03</rscale>
<asrwt>0</asrwt>
<pdfrwt beam="1">  1        2 0.14779155E+00 0.74759077E+03</pdfrwt>
<pdfrwt beam="2">  1       -2 0.19293996E-01 0.74759077E+03</pdfrwt>
<totfact> 0.61013657E+02</totfact>
</mgrwt>
</event>
<event>
 4    1  0.5900026E-005  0.9378733E+03  0.7818608E-02  0.9379438E-01
         -2   -1    0    0    0  501 -0.00000000000E+00  0.00000000000E+00  0.18898657036E+03  0.18898657038E+03  0.25500000000E-02 0. -1.
          2   -1    0    0  501    0  0.00000000000E+00 -0.00000000000E+00 -0.11635832272E+04  0.11635832272E+04  0.25500000000E-02 0.  1.
    5000001    1    1    2    0    0  0.26299426070E+03  0.10293606848E+03 -0.95076098927E+03  0.10102337720E+04  0.19200000000E+03 0.  0.
   -5000001    1    1    2    0    0 -0.26299426070E+03 -0.10293606848E+03 -0.23835667559E+02  0.34233602557E+03  0.19200000000E+03 0.  0.
<mgrwt>
<rscale>  0 0.93787335E+03</rscale>
<asrwt>0</asrwt>
<pdfrwt beam="1">  1        2 0.16622617E+00 0.93787335E+03</pdfrwt>
<pdfrwt beam="2">  1       -2 0.26998082E-01 0.93787335E+03</pdfrwt>
<totfact> 0.27897713E+02</totfact>
</mgrwt>
</event>
<event>
 4    1  0.5900026E-005  0.7983755E+03  0.7818608E-02  0.9562371E-01
          2   -1    0    0  501    0  0.00000000000E+00  0.00000000000E+00  0.11441386358E+04  0.11441386358E+04  0.25500000000E-02 0. -1.
         -2   -1    0    0    0  501 -0.00000000000E+00 -0.00000000000E+00 -0.13927583290E+03  0.13927583292E+03  0.25500000000E-02 0.  1.
    5000001    1    1    2    0    0  0.21801082763E+03  0.66091340628E+02  0.92953334713E+03  0.97611117691E+03  0.19200000000E+03 0.  0.
   -5000001    1    1    2    0    0 -0.21801082763E+03 -0.66091340628E+02  0.75329455809E+02  0.30730329185E+03  0.19200000000E+03 0.  0.
<mgrwt>
<rscale>  0 0.79837550E+03</rscale>
<asrwt>0</asrwt>
<pdfrwt beam="1">  1        2 0.16344836E+00 0.79837550E+03</pdfrwt>
<pdfrwt beam="2">  1       -2 0.19896549E-01 0.79837550E+03</pdfrwt>
<totfact> 0.49728008E+02</totfact>
</mgrwt>
</event>
<event>
 4    1  0.5900026E-005  0.5325633E+03  0.7818608E-02  0.1005612E+00
         -2   -1    0    0    0  501 -0.00000000000E+00  0.00000000000E+00  0.38125838532E+02  0.38125838617E+02  0.25500000000E-02 0. -1.
          2   -1    0    0  501    0  0.00000000000E+00 -0.00000000000E+00 -0.18597863982E+04  0.18597863982E+04  0.25500000000E-02 0.  1.
    5000001    1    1    2    0    0 -0.16458844080E+03  0.80260231358E+02 -0.83028236119E+03  0.87164434196E+03  0.19200000000E+03 0.  0.
   -5000001    1    1    2    0    0  0.16458844080E+03 -0.80260231358E+02 -0.99137819844E+03  0.10262678948E+04  0.19200000000E+03 0.  0.
<mgrwt>
<rscale>  0 0.53256330E+03</rscale>
<asrwt>0</asrwt>
<pdfrwt beam="1">  1        2 0.26568371E+00 0.53256330E+03</pdfrwt>
<pdfrwt beam="2">  1       -2 0.54465495E-02 0.53256330E+03</pdfrwt>
<totfact> 0.17551321E+03</totfact>
</mgrwt>
</event>
<event>
 4    1  0.5900026E-005  0.8067004E+03  0.7818608E-02  0.9550369E-01
          2   -1    0    0  501    0  0.00000000000E+00  0.00000000000E+00  0.54201704986E+03  0.54201704986E+03  0.25500000000E-02 0.  1.
         -2   -1    0    0    0  501 -0.00000000000E+00 -0.00000000000E+00 -0.30015919642E+03  0.30015919643E+03  0.25500000000E-02 0. -1.
    5000001    1    1    2    0    0  0.17452364373E+03  0.16905651350E+03  0.39072926865E+03  0.49856992324E+03  0.19200000000E+03 0.  0.
   -5000001    1    1    2    0    0 -0.17452364373E+03 -0.16905651350E+03 -0.14887141522E+03  0.34360632306E+03  0.19200000000E+03 0.  0.
<mgrwt>
<rscale>  0 0.80670045E+03</rscale>
<asrwt>0</asrwt>
<pdfrwt beam="1">  1        2 0.77431007E-01 0.80670045E+03</pdfrwt>
<pdfrwt beam="2">  1       -2 0.42879885E-01 0.80670045E+03</pdfrwt>
<totfact> 0.31694849E+02</totfact>
</mgrwt>
</event>
<event>
 4    1  0.5900026E-005  0.6701279E+03  0.7818608E-02  0.9769727E-01
         -2   -1    0    0    0  501 -0.00000000000E+00  0.00000000000E+00  0.82853451926E+02  0.82853451966E+02  0.25500000000E-02 0. -1.
          2   -1    0    0  501    0  0.00000000000E+00 -0.00000000000E+00 -0.13550171549E+04  0.13550171549E+04  0.25500000000E-02 0.  1.
    5000001    1    1    2    0    0 -0.21201772351E+03 -0.15294240908E+03 -0.81638104127E+03  0.87845597506E+03  0.19200000000E+03 0.  0.
   -5000001    1    1    2    0    0  0.21201772351E+03  0.15294240908E+03 -0.45578266174E+03  0.55941463185E+03  0.19200000000E+03 0.  0.
<mgrwt>
<rscale>  0 0.67012789E+03</rscale>
<asrwt>0</asrwt>
<pdfrwt beam="1">  1        2 0.19357387E+00 0.67012789E+03</pdfrwt>
<pdfrwt beam="2">  1       -2 0.11836208E-01 0.67012789E+03</pdfrwt>
<totfact> 0.92046002E+02</totfact>
</mgrwt>
</event>
<event>
 4    1  0.5900026E-005  0.4823737E+03  0.7818608E-02  0.1018485E+00
         -2   -1    0    0    0  501 -0.00000000000E+00  0.00000000000E+00  0.11191373226E+03  0.11191373229E+03  0.25500000000E-02 0. -1.
          2   -1    0    0  501    0  0.00000000000E+00 -0.00000000000E+00 -0.51978516919E+03  0.51978516920E+03  0.25500000000E-02 0.  1.
    5000001    1    1    2    0    0  0.71461643801E+02 -0.12600691191E+03 -0.22745650647E+03  0.33103620757E+03  0.19200000000E+03 0.  0.
   -5000001    1    1    2    0    0 -0.71461643801E+02  0.12600691191E+03 -0.18041493046E+03  0.30066269392E+03  0.19200000000E+03 0.  0.
<mgrwt>
<rscale>  0 0.48237371E+03</rscale>
<asrwt>0</asrwt>
<pdfrwt beam="1">  1        2 0.74255023E-01 0.48237371E+03</pdfrwt>
<pdfrwt beam="2">  1       -2 0.15987676E-01 0.48237371E+03</pdfrwt>
<totfact> 0.20075279E+03</totfact>
</mgrwt>
</event>
<event>
 4    1  0.5900026E-005  0.1129057E+04  0.7818608E-02  0.9177325E-01
          2   -1    0    0  501    0  0.00000000000E+00  0.00000000000E+00  0.40162354913E+03  0.40162354914E+03  0.25500000000E-02 0.  1.
         -2   -1    0    0    0  501 -0.00000000000E+00 -0.00000000000E+00 -0.79351003471E+03  0.79351003472E+03  0.25500000000E-02 0. -1.
    5000001    1    1    2    0    0  0.35096739970E+03 -0.32456645624E+03  0.48451596458E+02  0.51742927764E+03  0.19200000000E+03 0.  0.
   -5000001    1    1    2    0    0 -0.35096739970E+03  0.32456645624E+03 -0.44033808204E+03  0.67770430621E+03  0.19200000000E+03 0.  0.
<mgrwt>
<rscale>  0 0.11290568E+04</rscale>
<asrwt>0</asrwt>
<pdfrwt beam="1">  1        2 0.57374793E-01 0.11290568E+04</pdfrwt>
<pdfrwt beam="2">  1       -2 0.11335858E+00 0.11290568E+04</pdfrwt>
<totfact> 0.52143498E+01</totfact>
</mgrwt>
</event>
<event>
 4    1  0.5900026E-005  0.8076495E+03  0.7818608E-02  0.9549010E-01
         -2   -1    0    0    0  501 -0.00000000000E+00  0.00000000000E+00  0.15913372304E+03  0.15913372306E+03  0.25500000000E-02 0. -1.
          2   -1    0    0  501    0  0.00000000000E+00 -0.00000000000E+00 -0.10247635853E+04  0.10247635853E+04  0.25500000000E-02 0.  1.
    5000001    1    1    2    0    0  0.27737003264E+03  0.14961830051E+03 -0.67319138563E+03  0.76770463887E+03  0.19200000000E+03 0.  0.
   -5000001    1    1    2    0    0 -0.27737003264E+03 -0.14961830051E+03 -0.19243847664E+03  0.41619266950E+03  0.19200000000E+03 0.  0.
<mgrwt>
<rscale>  0 0.80764954E+03</rscale>
<asrwt>0</asrwt>
<pdfrwt beam="1">  1        2 0.14639479E+00 0.80764954E+03</pdfrwt>
<pdfrwt beam="2">  1       -2 0.22733390E-01 0.80764954E+03</pdfrwt>
<totfact> 0.46228103E+02</totfact>
</mgrwt>
</event>
<event>
 4    1  0.5900026E-005  0.4672838E+03  0.7818608E-02  0.1022690E+00
         -2   -1    0    0    0  501 -0.00000000000E+00  0.00000000000E+00  0.20185470640E+02  0.20185470802E+02  0.25500000000E-02 0. -1.
          2   -1    0    0  501    0  0.00000000000E+00 -0.00000000000E+00 -0.27043477304E+04  0.27043477304E+04  0.25500000000E-02 0.  1.
    5000001    1    1    2    0    0 -0.10386801379E+03  0.76615412838E+02 -0.11517107366E+04  0.11747170325E+04  0.19200000000E+03 0.  0.
   -5000001    1    1    2    0    0  0.10386801379E+03 -0.76615412838E+02 -0.15324515232E+04  0.15498161687E+04  0.19200000000E+03 0.  0.
<mgrwt>
<rscale>  0 0.46728378E+03</rscale>
<asrwt>0</asrwt>
<pdfrwt beam="1">  1        2 0.38633516E+00 0.46728378E+03</pdfrwt>
<pdfrwt beam="2">  1       -2 0.28836404E-02 0.46728378E+03</pdfrwt>
<totfact> 0.17453577E+03</totfact>
</mgrwt>
</event>
<event>
 4    1  0.5900026E-005  0.5074420E+03  0.7818608E-02  0.1011854E+00
         -2   -1    0    0    0  501 -0.00000000000E+00  0.00000000000E+00  0.22874495336E+03  0.22874495337E+03  0.25500000000E-02 0. -1.
          2   -1    0    0  501    0  0.00000000000E+00 -0.00000000000E+00 -0.28142409691E+03  0.28142409692E+03  0.25500000000E-02 0.  1.
    5000001    1    1    2    0    0 -0.39801107647E+02  0.16062856528E+03 -0.15113644412E+02  0.25392535597E+03  0.19200000000E+03 0.  0.
   -5000001    1    1    2    0    0  0.39801107647E+02 -0.16062856528E+03 -0.37565499135E+02  0.25624369432E+03  0.19200000000E+03 0.  0.
<mgrwt>
<rscale>  0 0.50744198E+03</rscale>
<asrwt>0</asrwt>
<pdfrwt beam="1">  1        2 0.40203442E-01 0.50744198E+03</pdfrwt>
<pdfrwt beam="2">  1       -2 0.32677851E-01 0.50744198E+03</pdfrwt>
<totfact> 0.11181627E+03</totfact>
</mgrwt>
</event>
<event>
 4    1  0.5900026E-005  0.4398616E+03  0.7818608E-02  0.1030789E+00
         -2   -1    0    0    0  501 -0.00000000000E+00  0.00000000000E+00  0.25660778469E+02  0.25660778596E+02  0.25500000000E-02 0. -1.
          2   -1    0    0  501    0  0.00000000000E+00 -0.00000000000E+00 -0.18849606993E+04  0.18849606993E+04  0.25500000000E-02 0.  1.
    5000001    1    1    2    0    0 -0.46702486480E+02 -0.94464040691E+02 -0.84266965300E+03  0.87066682566E+03  0.19200000000E+03 0.  0.
   -5000001    1    1    2    0    0  0.46702486480E+02  0.94464040691E+02 -0.10166302678E+04  0.10399546522E+04  0.19200000000E+03 0.  0.
<mgrwt>
<rscale>  0 0.43986161E+03</rscale>
<asrwt>0</asrwt>
<pdfrwt beam="1">  1        2 0.26928001E+00 0.43986161E+03</pdfrwt>
<pdfrwt beam="2">  1       -2 0.36658267E-02 0.43986161E+03</pdfrwt>
<totfact> 0.31417103E+03</totfact>
</mgrwt>
</event>
<event>
 4    1  0.5900026E-005  0.7476822E+03  0.7818608E-02  0.9638994E-01
          2   -1    0    0  501    0  0.00000000000E+00  0.00000000000E+00  0.27854532627E+04  0.27854532627E+04  0.25500000000E-02 0.  1.
         -2   -1    0    0    0  501 -0.00000000000E+00 -0.00000000000E+00 -0.50173941737E+02  0.50173941802E+02  0.25500000000E-02 0. -1.
    5000001    1    1    2    0    0  0.30776018182E+03  0.38887597199E+02  0.10580268127E+04  0.11191574112E+04  0.19200000000E+03 0.  0.
   -5000001    1    1    2    0    0 -0.30776018182E+03 -0.38887597199E+02  0.16772525083E+04  0.17164697933E+04  0.19200000000E+03 0.  0.
<mgrwt>
<rscale>  0 0.74768220E+03</rscale>
<asrwt>0</asrwt>
<pdfrwt beam="1">  1        2 0.39792185E+00 0.74768220E+03</pdfrwt>
<pdfrwt beam="2">  1       -2 0.71677068E-02 0.74768220E+03</pdfrwt>
<totfact> 0.37826302E+02</totfact>
</mgrwt>
</event>
<event>
 4    1  0.5900026E-005  0.5060293E+03  0.7818608E-02  0.1012217E+00
          2   -1    0    0  501    0  0.00000000000E+00  0.00000000000E+00  0.19008310114E+03  0.19008310116E+03  0.25500000000E-02 0. -1.
         -2   -1    0    0    0  501 -0.00000000000E+00 -0.00000000000E+00 -0.33678122510E+03  0.33678122511E+03  0.25500000000E-02 0.  1.
    5000001    1    1    2    0    0 -0.13652827919E+03 -0.63587331939E+02 -0.14295289199E+03  0.28281239211E+03  0.19200000000E+03 0.  0.
   -5000001    1    1    2    0    0  0.13652827919E+03  0.63587331939E+02 -0.37452319677E+01  0.24405193416E+03  0.19200000000E+03 0.  0.
<mgrwt>
<rscale>  0 0.50602933E+03</rscale>
<asrwt>0</asrwt>
<pdfrwt beam="1">  1        2 0.27154729E-01 0.50602933E+03</pdfrwt>
<pdfrwt beam="2">  1       -2 0.48111603E-01 0.50602933E+03</pdfrwt>
<totfact> 0.81906361E+02</totfact>
</mgrwt>
</event>
<event>
 4    1  0.5900026E-005  0.8391689E+03  0.7818608E-02  0.9504990E-01
         -2   -1    0    0    0  501 -0.00000000000E+00  0.00000000000E+00  0.73997075182E+02  0.73997075226E+02  0.25500000000E-02 0. -1.
          2   -1    0    0  501    0  0.00000000000E+00 -0.00000000000E+00 -0.23791633160E+04  0.23791633160E+04  0.25500000000E-02 0.  1.
    5000001    1    1    2    0    0  0.33780330658E+03  0.14760884231E+03 -0.13202014399E+04  0.13840864446E+04  0.19200000000E+03 0.  0.
   -5000001    1    1    2    0    0 -0.33780330658E+03 -0.14760884231E+03 -0.98496480093E+03  0.10690739466E+04  0.19200000000E+03 0.  0.
<mgrwt>
<rscale>  0 0.83916894E+03</rscale>
<asrwt>0</asrwt>
<pdfrwt beam="1">  1        2 0.33988043E+00 0.83916894E+03</pdfrwt>
<pdfrwt beam="2">  1       -2 0.10571012E-01 0.83916894E+03</pdfrwt>
<totfact> 0.32693373E+02</totfact>
</mgrwt>
</event>
<event>
 4    1  0.5900026E-005  0.4595052E+03  0.7818608E-02  0.1024925E+00
          2   -1    0    0  501    0  0.00000000000E+00  0.00000000000E+00  0.40033647779E+03  0.40033647780E+03  0.25500000000E-02 0.  1.
         -2   -1    0    0    0  501 -0.00000000000E+00 -0.00000000000E+00 -0.13185474724E+03  0.13185474727E+03  0.25500000000E-02 0. -1.
    5000001    1    1    2    0    0 -0.88267510595E+02  0.52570817322E+02  0.49389258510E+02  0.22328937081E+03  0.19200000000E+03 0.  0.
   -5000001    1    1    2    0    0  0.88267510595E+02 -0.52570817322E+02  0.21909247204E+03  0.30890185426E+03  0.19200000000E+03 0.  0.
<mgrwt>
<rscale>  0 0.45950523E+03</rscale>
<asrwt>0</asrwt>
<pdfrwt beam="1">  1        2 0.57190926E-01 0.45950523E+03</pdfrwt>
<pdfrwt beam="2">  1       -2 0.18836392E-01 0.45950523E+03</pdfrwt>
<totfact> 0.20320072E+03</totfact>
</mgrwt>
</event>
<event>
 4    1  0.5900026E-005  0.7344640E+03  0.7818608E-02  0.9660044E-01
         -2   -1    0    0    0  501 -0.00000000000E+00  0.00000000000E+00  0.82668635043E+02  0.82668635083E+02  0.25500000000E-02 0. -1.
          2   -1    0    0  501    0  0.00000000000E+00 -0.00000000000E+00 -0.16313243725E+04  0.16313243725E+04  0.25500000000E-02 0.  1.
    5000001    1    1    2    0    0 -0.24070432331E+03 -0.11853236048E+03 -0.11506697284E+04  0.11970352190E+04  0.19200000000E+03 0.  0.
   -5000001    1    1    2    0    0  0.24070432331E+03  0.11853236048E+03 -0.39798600906E+03  0.51695778855E+03  0.19200000000E+03 0.  0.
<mgrwt>
<rscale>  0 0.73446405E+03</rscale>
<asrwt>0</asrwt>
<pdfrwt beam="1">  1        2 0.23304632E+00 0.73446405E+03</pdfrwt>
<pdfrwt beam="2">  1       -2 0.11809806E-01 0.73446405E+03</pdfrwt>
<totfact> 0.65937655E+02</totfact>
</mgrwt>
</event>
<event>
 4    1  0.5900026E-005  0.4779341E+03  0.7818608E-02  0.1019704E+00
          2   -1    0    0  501    0  0.00000000000E+00  0.00000000000E+00  0.81375475899E+03  0.81375475900E+03  0.25500000000E-02 0.  1.
         -2   -1    0    0    0  501 -0.00000000000E+00 -0.00000000000E+00 -0.70175007895E+02  0.70175007942E+02  0.25500000000E-02 0. -1.
    5000001    1    1    2    0    0  0.12206687341E+03 -0.38465256695E+02  0.48671614026E+03  0.53864320171E+03  0.19200000000E+03 0.  0.
   -5000001    1    1    2    0    0 -0.12206687341E+03  0.38465256695E+02  0.25686361084E+03  0.34528656523E+03  0.19200000000E+03 0.  0.
<mgrwt>
<rscale>  0 0.47793408E+03</rscale>
<asrwt>0</asrwt>
<pdfrwt beam="1">  1        2 0.11625067E+00 0.47793408E+03</pdfrwt>
<pdfrwt beam="2">  1       -2 0.10025002E-01 0.47793408E+03</pdfrwt>
<totfact> 0.25346400E+03</totfact>
</mgrwt>
</event>
<event>
 4    1  0.5900026E-005  0.5251882E+03  0.7818608E-02  0.1007406E+00
          2   -1    0    0  501    0  0.00000000000E+00  0.00000000000E+00  0.31599215003E+03  0.31599215004E+03  0.25500000000E-02 0.  1.
         -2   -1    0    0    0  501 -0.00000000000E+00 -0.00000000000E+00 -0.21821951685E+03  0.21821951687E+03  0.25500000000E-02 0. -1.
    5000001    1    1    2    0    0  0.14997980545E+03 -0.97966685374E+02  0.49385493380E+02  0.26719719392E+03  0.19200000000E+03 0.  0.
   -5000001    1    1    2    0    0 -0.14997980545E+03  0.97966685374E+02  0.48387139802E+02  0.26701447298E+03  0.19200000000E+03 0.  0.
<mgrwt>
<rscale>  0 0.52518817E+03</rscale>
<asrwt>0</asrwt>
<pdfrwt beam="1">  1        2 0.45141736E-01 0.52518817E+03</pdfrwt>
<pdfrwt beam="2">  1       -2 0.31174217E-01 0.52518817E+03</pdfrwt>
<totfact> 0.10746499E+03</totfact>
</mgrwt>
</event>
<event>
 4    1  0.5900026E-005  0.6032893E+03  0.7818608E-02  0.9898605E-01
         -2   -1    0    0    0  501 -0.00000000000E+00  0.00000000000E+00  0.44506084116E+02  0.44506084189E+02  0.25500000000E-02 0. -1.
          2   -1    0    0  501    0  0.00000000000E+00 -0.00000000000E+00 -0.20444285482E+04  0.20444285482E+04  0.25500000000E-02 0.  1.
    5000001    1    1    2    0    0 -0.95004264076E+02 -0.19716083488E+03 -0.72671811708E+03  0.78286743877E+03  0.19200000000E+03 0.  0.
   -5000001    1    1    2    0    0  0.95004264076E+02  0.19716083488E+03 -0.12732043470E+04  0.13060671936E+04  0.19200000000E+03 0.  0.
<mgrwt>
<rscale>  0 0.60328935E+03</rscale>
<asrwt>0</asrwt>
<pdfrwt beam="1">  1        2 0.29206116E+00 0.60328935E+03</pdfrwt>
<pdfrwt beam="2">  1       -2 0.63580133E-02 0.60328935E+03</pdfrwt>
<totfact> 0.11096911E+03</totfact>
</mgrwt>
</event>
<event>
 4    1  0.5900026E-005  0.9320765E+03  0.7818608E-02  0.9386349E-01
         -2   -1    0    0    0  501 -0.00000000000E+00  0.00000000000E+00  0.11314989271E+04  0.11314989271E+04  0.25500000000E-02 0. -1.
          2   -1    0    0  501    0  0.00000000000E+00 -0.00000000000E+00 -0.19195038723E+03  0.19195038725E+03  0.25500000000E-02 0.  1.
    5000001    1    1    2    0    0  0.55534400000E+01 -0.42458693371E+03  0.47654706378E+03  0.66653282663E+03  0.19200000000E+03 0.  0.
   -5000001    1    1    2    0    0 -0.55534400000E+01  0.42458693371E+03  0.46300147608E+03  0.65691648772E+03  0.19200000000E+03 0.  0.
<mgrwt>
<rscale>  0 0.93207651E+03</rscale>
<asrwt>0</asrwt>
<pdfrwt beam="1">  1        2 0.27421483E-01 0.93207651E+03</pdfrwt>
<pdfrwt beam="2">  1       -2 0.16164271E+00 0.93207651E+03</pdfrwt>
<totfact> 0.48406256E+01</totfact>
</mgrwt>
</event>
<event>
 4    1  0.5900026E-005  0.9552241E+03  0.7818608E-02  0.9359065E-01
          2   -1    0    0  501    0  0.00000000000E+00  0.00000000000E+00  0.17279620904E+03  0.17279620906E+03  0.25500000000E-02 0.  1.
         -2   -1    0    0    0  501 -0.00000000000E+00 -0.00000000000E+00 -0.13201289146E+04  0.13201289146E+04  0.25500000000E-02 0. -1.
    5000001    1    1    2    0    0 -0.11203267287E+03 -0.40292037857E+03 -0.37380304335E+03  0.59286496478E+03  0.19200000000E+03 0.  0.
   -5000001    1    1    2    0    0  0.11203267287E+03  0.40292037857E+03 -0.77352966218E+03  0.90006015883E+03  0.19200000000E+03 0.  0.
<mgrwt>
<rscale>  0 0.95522410E+03</rscale>
<asrwt>0</asrwt>
<pdfrwt beam="1">  1        2 0.24685173E-01 0.95522410E+03</pdfrwt>
<pdfrwt beam="2">  1       -2 0.18858984E+00 0.95522410E+03</pdfrwt>
<totfact> 0.35335532E+01</totfact>
</mgrwt>
</event>
<event>
 4    1  0.5900026E-005  0.7248351E+03  0.7818608E-02  0.9675679E-01
          2   -1    0    0  501    0  0.00000000000E+00  0.00000000000E+00  0.79669432480E+03  0.79669432480E+03  0.25500000000E-02 0.  1.
         -2   -1    0    0    0  501 -0.00000000000E+00 -0.00000000000E+00 -0.16486431984E+03  0.16486431986E+03  0.25500000000E-02 0. -1.
    5000001    1    1    2    0    0 -0.22237229309E+03  0.21013805267E+03  0.35515672581E+03  0.50656464326E+03  0.19200000000E+03 0.  0.
   -5000001    1    1    2    0    0  0.22237229309E+03 -0.21013805267E+03  0.27667327915E+03  0.45499400140E+03  0.19200000000E+03 0.  0.
<mgrwt>
<rscale>  0 0.72483507E+03</rscale>
<asrwt>0</asrwt>
<pdfrwt beam="1">  1        2 0.11381348E+00 0.72483507E+03</pdfrwt>
<pdfrwt beam="2">  1       -2 0.23552045E-01 0.72483507E+03</pdfrwt>
<totfact> 0.61204638E+02</totfact>
</mgrwt>
</event>
<event>
 4    1  0.5900026E-005  0.5721932E+03  0.7818608E-02  0.9964837E-01
         -2   -1    0    0    0  501 -0.00000000000E+00  0.00000000000E+00  0.15172519474E+03  0.15172519477E+03  0.25500000000E-02 0. -1.
          2   -1    0    0  501    0  0.00000000000E+00 -0.00000000000E+00 -0.53947053338E+03  0.53947053339E+03  0.25500000000E-02 0.  1.
    5000001    1    1    2    0    0 -0.94445905038E+02 -0.51882156010E+02  0.26811979711E+02  0.22179871358E+03  0.19200000000E+03 0.  0.
   -5000001    1    1    2    0    0  0.94445905038E+02  0.51882156010E+02 -0.41455731835E+03  0.46939701457E+03  0.19200000000E+03 0.  0.
<mgrwt>
<rscale>  0 0.57219323E+03</rscale>
<asrwt>0</asrwt>
<pdfrwt beam="1">  1        2 0.77067218E-01 0.57219323E+03</pdfrwt>
<pdfrwt beam="2">  1       -2 0.21675028E-01 0.57219323E+03</pdfrwt>
<totfact> 0.11395424E+03</totfact>
</mgrwt>
</event>
<event>
 4    1  0.5900026E-005  0.6101132E+03  0.7818608E-02  0.9884644E-01
         -2   -1    0    0    0  501 -0.00000000000E+00  0.00000000000E+00  0.28348875068E+02  0.28348875183E+02  0.25500000000E-02 0. -1.
          2   -1    0    0  501    0  0.00000000000E+00 -0.00000000000E+00 -0.32826534286E+04  0.32826534286E+04  0.25500000000E-02 0.  1.
    5000001    1    1    2    0    0 -0.79463303936E+02 -0.19219639830E+03 -0.22445201799E+04  0.22622972197E+04  0.19200000000E+03 0.  0.
   -5000001    1    1    2    0    0  0.79463303936E+02  0.19219639830E+03 -0.10097843736E+04  0.10487050841E+04  0.19200000000E+03 0.  0.
<mgrwt>
<rscale>  0 0.61011321E+03</rscale>
<asrwt>0</asrwt>
<pdfrwt beam="1">  1        2 0.46895025E+00 0.61011321E+03</pdfrwt>
<pdfrwt beam="2">  1       -2 0.40498414E-02 0.61011321E+03</pdfrwt>
<totfact> 0.49848417E+02</totfact>
</mgrwt>
</event>
<event>
 4    1  0.5900026E-005  0.5677123E+03  0.7818608E-02  0.9974754E-01
         -2   -1    0    0    0  501 -0.00000000000E+00  0.00000000000E+00  0.19088895301E+03  0.19088895302E+03  0.25500000000E-02 0. -1.
          2   -1    0    0  501    0  0.00000000000E+00 -0.00000000000E+00 -0.42210052096E+03  0.42210052096E+03  0.25500000000E-02 0.  1.
    5000001    1    1    2    0    0  0.11152500479E+03 -0.12911461764E+03  0.14869903046E+02  0.25728102378E+03  0.19200000000E+03 0.  0.
   -5000001    1    1    2    0    0 -0.11152500479E+03  0.12911461764E+03 -0.24608147100E+03  0.35570845021E+03  0.19200000000E+03 0.  0.
<mgrwt>
<rscale>  0 0.56771234E+03</rscale>
<asrwt>0</asrwt>
<pdfrwt beam="1">  1        2 0.60300074E-01 0.56771234E+03</pdfrwt>
<pdfrwt beam="2">  1       -2 0.27269851E-01 0.56771234E+03</pdfrwt>
<totfact> 0.99758971E+02</totfact>
</mgrwt>
</event>
<event>
 4    1  0.5900026E-005  0.7124458E+03  0.7818608E-02  0.9696182E-01
          2   -1    0    0  501    0  0.00000000000E+00  0.00000000000E+00  0.42696681876E+03  0.42696681877E+03  0.25500000000E-02 0.  1.
         -2   -1    0    0    0  501 -0.00000000000E+00 -0.00000000000E+00 -0.29720054148E+03  0.29720054149E+03  0.25500000000E-02 0. -1.
    5000001    1    1    2    0    0  0.14735315161E+03  0.21225914065E+03  0.21991755678E+03  0.38986488154E+03  0.19200000000E+03 0.  0.
   -5000001    1    1    2    0    0 -0.14735315161E+03 -0.21225914065E+03 -0.90151279500E+02  0.33430247872E+03  0.19200000000E+03 0.  0.
<mgrwt>
<rscale>  0 0.71244584E+03</rscale>
<asrwt>0</asrwt>
<pdfrwt beam="1">  1        2 0.60995260E-01 0.71244584E+03</pdfrwt>
<pdfrwt beam="2">  1       -2 0.42457220E-01 0.71244584E+03</pdfrwt>
<totfact> 0.42551013E+02</totfact>
</mgrwt>
</event>
<event>
 4    1  0.5900026E-005  0.6587434E+03  0.7818608E-02  0.9790510E-01
         -2   -1    0    0    0  501 -0.00000000000E+00  0.00000000000E+00  0.93973633473E+02  0.93973633508E+02  0.25500000000E-02 0. -1.
          2   -1    0    0  501    0  0.00000000000E+00 -0.00000000000E+00 -0.11544273452E+04  0.11544273452E+04  0.25500000000E-02 0.  1.
    5000001    1    1    2    0    0  0.69467672171E+02 -0.25709956056E+03 -0.48023755005E+03  0.58173709354E+03  0.19200000000E+03 0.  0.
   -5000001    1    1    2    0    0 -0.69467672171E+02  0.25709956056E+03 -0.58021616163E+03  0.66666388513E+03  0.19200000000E+03 0.  0.
<mgrwt>
<rscale>  0 0.65874345E+03</rscale>
<asrwt>0</asrwt>
<pdfrwt beam="1">  1        2 0.16491818E+00 0.65874345E+03</pdfrwt>
<pdfrwt beam="2">  1       -2 0.13424805E-01 0.65874345E+03</pdfrwt>
<totfact> 0.96508383E+02</totfact>
</mgrwt>
</event>
<event>
 4    1  0.5900026E-005  0.4036440E+03  0.7818608E-02  0.1042525E+00
         -2   -1    0    0    0  501 -0.00000000000E+00  0.00000000000E+00  0.37374444793E+03  0.37374444794E+03  0.25500000000E-02 0. -1.
          2   -1    0    0  501    0  0.00000000000E+00 -0.00000000000E+00 -0.10898388686E+03  0.10898388689E+03  0.25500000000E-02 0.  1.
    5000001    1    1    2    0    0 -0.44215933943E+02  0.35431274739E+02  0.10171000125E+03  0.22454253138E+03  0.19200000000E+03 0.  0.
   -5000001    1    1    2    0    0  0.44215933943E+02 -0.35431274739E+02  0.16305055981E+03  0.25818580344E+03  0.19200000000E+03 0.  0.
<mgrwt>
<rscale>  0 0.40364401E+03</rscale>
<asrwt>0</asrwt>
<pdfrwt beam="1">  1        2 0.15569127E-01 0.40364401E+03</pdfrwt>
<pdfrwt beam="2">  1       -2 0.53392064E-01 0.40364401E+03</pdfrwt>
<totfact> 0.12636989E+03</totfact>
</mgrwt>
</event>
<event>
 4    1  0.5900026E-005  0.4898275E+03  0.7818608E-02  0.1016469E+00
         -2   -1    0    0    0  501 -0.00000000000E+00  0.00000000000E+00  0.30919698789E+03  0.30919698790E+03  0.25500000000E-02 0. -1.
          2   -1    0    0  501    0  0.00000000000E+00 -0.00000000000E+00 -0.19399521912E+03  0.19399521914E+03  0.25500000000E-02 0.  1.
    5000001    1    1    2    0    0  0.24219274797E+01 -0.15021161625E+03  0.81678428433E+02  0.25710846167E+03  0.19200000000E+03 0.  0.
   -5000001    1    1    2    0    0 -0.24219274797E+01  0.15021161625E+03  0.33523340332E+02  0.24608374537E+03  0.19200000000E+03 0.  0.
<mgrwt>
<rscale>  0 0.48982747E+03</rscale>
<asrwt>0</asrwt>
<pdfrwt beam="1">  1        2 0.27713603E-01 0.48982747E+03</pdfrwt>
<pdfrwt beam="2">  1       -2 0.44170998E-01 0.48982747E+03</pdfrwt>
<totfact> 0.94862647E+02</totfact>
</mgrwt>
</event>
<event>
 4    1  0.5900026E-005  0.4569775E+03  0.7818608E-02  0.1025661E+00
         -2   -1    0    0    0  501 -0.00000000000E+00  0.00000000000E+00  0.12521118330E+02  0.12521118589E+02  0.25500000000E-02 0. -1.
          2   -1    0    0  501    0  0.00000000000E+00 -0.00000000000E+00 -0.41695244874E+04  0.41695244874E+04  0.25500000000E-02 0.  1.
    5000001    1    1    2    0    0 -0.88164003866E+02 -0.73522457345E+02 -0.25042858068E+04  0.25142573149E+04  0.19200000000E+03 0.  0.
   -5000001    1    1    2    0    0  0.88164003866E+02  0.73522457345E+02 -0.16527175623E+04  0.16677882911E+04  0.19200000000E+03 0.  0.
<mgrwt>
<rscale>  0 0.45697751E+03</rscale>
<asrwt>0</asrwt>
<pdfrwt beam="1">  1        2 0.59564547E+00 0.45697751E+03</pdfrwt>
<pdfrwt beam="2">  1       -2 0.17887339E-02 0.45697751E+03</pdfrwt>
<totfact> 0.48858722E+02</totfact>
</mgrwt>
</event>
<event>
 4    1  0.5900026E-005  0.4708538E+03  0.7818608E-02  0.1021679E+00
          2   -1    0    0  501    0  0.00000000000E+00  0.00000000000E+00  0.63072093529E+03  0.63072093529E+03  0.25500000000E-02 0.  1.
         -2   -1    0    0    0  501 -0.00000000000E+00 -0.00000000000E+00 -0.87876953503E+02  0.87876953540E+02  0.25500000000E-02 0. -1.
    5000001    1    1    2    0    0 -0.41522243409E+02 -0.12975536312E+03  0.27315091007E+03  0.36060500638E+03  0.19200000000E+03 0.  0.
   -5000001    1    1    2    0    0  0.41522243409E+02  0.12975536312E+03  0.26969307172E+03  0.35799288245E+03  0.19200000000E+03 0.  0.
<mgrwt>
<rscale>  0 0.47085384E+03</rscale>
<asrwt>0</asrwt>
<pdfrwt beam="1">  1        2 0.90102986E-01 0.47085384E+03</pdfrwt>
<pdfrwt beam="2">  1       -2 0.12553851E-01 0.47085384E+03</pdfrwt>
<totfact> 0.24002089E+03</totfact>
</mgrwt>
</event>
<event>
 4    1  0.5900026E-005  0.5782067E+03  0.7818608E-02  0.9951681E-01
         -2   -1    0    0    0  501 -0.00000000000E+00  0.00000000000E+00  0.49764806157E+02  0.49764806222E+02  0.25500000000E-02 0. -1.
          2   -1    0    0  501    0  0.00000000000E+00 -0.00000000000E+00 -0.16795152779E+04  0.16795152779E+04  0.25500000000E-02 0.  1.
    5000001    1    1    2    0    0 -0.16022113291E+03 -0.20833522361E+02 -0.38549576692E+03  0.45997373120E+03  0.19200000000E+03 0.  0.
   -5000001    1    1    2    0    0  0.16022113291E+03  0.20833522361E+02 -0.12442547048E+04  0.12693063529E+04  0.19200000000E+03 0.  0.
<mgrwt>
<rscale>  0 0.57820672E+03</rscale>
<asrwt>0</asrwt>
<pdfrwt beam="1">  1        2 0.23993072E+00 0.57820672E+03</pdfrwt>
<pdfrwt beam="2">  1       -2 0.71092591E-02 0.57820672E+03</pdfrwt>
<totfact> 0.14230898E+03</totfact>
</mgrwt>
</event>
<event>
 4    1  0.5900026E-005  0.6408928E+03  0.7818608E-02  0.9824020E-01
         -2   -1    0    0    0  501 -0.00000000000E+00  0.00000000000E+00  0.47835654162E+02  0.47835654230E+02  0.25500000000E-02 0. -1.
          2   -1    0    0  501    0  0.00000000000E+00 -0.00000000000E+00 -0.21466391622E+04  0.21466391622E+04  0.25500000000E-02 0.  1.
    5000001    1    1    2    0    0  0.21397836750E+03  0.54743014622E+02 -0.14963517942E+04  0.15247020139E+04  0.19200000000E+03 0.  0.
   -5000001    1    1    2    0    0 -0.21397836750E+03 -0.54743014622E+02 -0.60245171387E+03  0.66977280249E+03  0.19200000000E+03 0.  0.
<mgrwt>
<rscale>  0 0.64089278E+03</rscale>
<asrwt>0</asrwt>
<pdfrwt beam="1">  1        2 0.30666268E+00 0.64089278E+03</pdfrwt>
<pdfrwt beam="2">  1       -2 0.68336663E-02 0.64089278E+03</pdfrwt>
<totfact> 0.87789340E+02</totfact>
</mgrwt>
</event>
<event>
 4    1  0.5900026E-005  0.1015703E+04  0.7818608E-02  0.9291488E-01
         -2   -1    0    0    0  501 -0.00000000000E+00  0.00000000000E+00  0.20578008515E+03  0.20578008516E+03  0.25500000000E-02 0. -1.
          2   -1    0    0  501    0  0.00000000000E+00 -0.00000000000E+00 -0.12533439214E+04  0.12533439214E+04  0.25500000000E-02 0.  1.
    5000001    1    1    2    0    0 -0.46644366358E+03 -0.43005194121E+02 -0.58178218332E+03  0.77120272746E+03  0.19200000000E+03 0.  0.
   -5000001    1    1    2    0    0  0.46644366358E+03  0.43005194121E+02 -0.46578165290E+03  0.68792127907E+03  0.19200000000E+03 0.  0.
<mgrwt>
<rscale>  0 0.10157031E+04</rscale>
<asrwt>0</asrwt>
<pdfrwt beam="1">  1        2 0.17904913E+00 0.10157031E+04</pdfrwt>
<pdfrwt beam="2">  1       -2 0.29397156E-01 0.10157031E+04</pdfrwt>
<totfact> 0.21121619E+02</totfact>
</mgrwt>
</event>
<event>
 4    1  0.5900026E-005  0.7647824E+03  0.7818608E-02  0.9612440E-01
         -2   -1    0    0    0  501 -0.00000000000E+00  0.00000000000E+00  0.31465410400E+03  0.31465410401E+03  0.25500000000E-02 0. -1.
          2   -1    0    0  501    0  0.00000000000E+00 -0.00000000000E+00 -0.46471035013E+03  0.46471035014E+03  0.25500000000E-02 0.  1.
    5000001    1    1    2    0    0  0.29505244502E+03 -0.80519829472E+02  0.53146159361E+02  0.36500397601E+03  0.19200000000E+03 0.  0.
   -5000001    1    1    2    0    0 -0.29505244502E+03  0.80519829472E+02 -0.20320240549E+03  0.41436047814E+03  0.19200000000E+03 0.  0.
<mgrwt>
<rscale>  0 0.76478237E+03</rscale>
<asrwt>0</asrwt>
<pdfrwt beam="1">  1        2 0.66387193E-01 0.76478237E+03</pdfrwt>
<pdfrwt beam="2">  1       -2 0.44950587E-01 0.76478237E+03</pdfrwt>
<totfact> 0.34487756E+02</totfact>
</mgrwt>
</event>
<event>
 4    1  0.5900026E-005  0.4594331E+03  0.7818608E-02  0.1024946E+00
          2   -1    0    0  501    0  0.00000000000E+00  0.00000000000E+00  0.25609533908E+03  0.25609533910E+03  0.25500000000E-02 0.  1.
         -2   -1    0    0    0  501 -0.00000000000E+00 -0.00000000000E+00 -0.20605490849E+03  0.20605490850E+03  0.25500000000E-02 0. -1.
    5000001    1    1    2    0    0 -0.10669653433E+03 -0.62000538450E+02 -0.11622504377E+01  0.22824015429E+03  0.19200000000E+03 0.  0.
   -5000001    1    1    2    0    0  0.10669653433E+03  0.62000538450E+02  0.51202681034E+02  0.23391009331E+03  0.19200000000E+03 0.  0.
<mgrwt>
<rscale>  0 0.45943314E+03</rscale>
<asrwt>0</asrwt>
<pdfrwt beam="1">  1        2 0.36585048E-01 0.45943314E+03</pdfrwt>
<pdfrwt beam="2">  1       -2 0.29436416E-01 0.45943314E+03</pdfrwt>
<totfact> 0.15042013E+03</totfact>
</mgrwt>
</event>
<event>
 4    1  0.5900026E-005  0.5139014E+03  0.7818608E-02  0.1010213E+00
          2   -1    0    0  501    0  0.00000000000E+00  0.00000000000E+00  0.14960441474E+04  0.14960441474E+04  0.25500000000E-02 0.  1.
         -2   -1    0    0    0  501 -0.00000000000E+00 -0.00000000000E+00 -0.44132162821E+02  0.44132162895E+02  0.25500000000E-02 0. -1.
    5000001    1    1    2    0    0 -0.68686541286E+02  0.15570997286E+03  0.68397328814E+03  0.73051139313E+03  0.19200000000E+03 0.  0.
   -5000001    1    1    2    0    0  0.68686541286E+02 -0.15570997286E+03  0.76793869639E+03  0.80966491712E+03  0.19200000000E+03 0.  0.
<mgrwt>
<rscale>  0 0.51390141E+03</rscale>
<asrwt>0</asrwt>
<pdfrwt beam="1">  1        2 0.21372056E+00 0.51390141E+03</pdfrwt>
<pdfrwt beam="2">  1       -2 0.63045958E-02 0.51390141E+03</pdfrwt>
<totfact> 0.21395390E+03</totfact>
</mgrwt>
</event>
<event>
 4    1  0.5900026E-005  0.4282216E+03  0.7818608E-02  0.1034423E+00
          2   -1    0    0  501    0  0.00000000000E+00  0.00000000000E+00  0.84915453218E+03  0.84915453219E+03  0.25500000000E-02 0.  1.
         -2   -1    0    0    0  501 -0.00000000000E+00 -0.00000000000E+00 -0.53987163745E+02  0.53987163805E+02  0.25500000000E-02 0. -1.
    5000001    1    1    2    0    0  0.37901314045E+02  0.83931758529E+02  0.35049959650E+03  0.41011585783E+03  0.19200000000E+03 0.  0.
   -5000001    1    1    2    0    0 -0.37901314045E+02 -0.83931758529E+02  0.44466777194E+03  0.49302583816E+03  0.19200000000E+03 0.  0.
<mgrwt>
<rscale>  0 0.42822165E+03</rscale>
<asrwt>0</asrwt>
<pdfrwt beam="1">  1        2 0.12130778E+00 0.42822165E+03</pdfrwt>
<pdfrwt beam="2">  1       -2 0.77124528E-02 0.42822165E+03</pdfrwt>
<totfact> 0.36426825E+03</totfact>
</mgrwt>
</event>
<event>
 4    1  0.5900026E-005  0.8471252E+03  0.7818608E-02  0.9494204E-01
          2   -1    0    0  501    0  0.00000000000E+00  0.00000000000E+00  0.70036843508E+03  0.70036843509E+03  0.25500000000E-02 0.  1.
         -2   -1    0    0    0  501 -0.00000000000E+00 -0.00000000000E+00 -0.25615844818E+03  0.25615844820E+03  0.25500000000E-02 0. -1.
    5000001    1    1    2    0    0  0.31924531314E+03 -0.82673169448E+02  0.42966151586E+03  0.57465245246E+03  0.19200000000E+03 0.  0.
   -5000001    1    1    2    0    0 -0.31924531314E+03  0.82673169448E+02  0.14548471041E+02  0.38187443082E+03  0.19200000000E+03 0.  0.
<mgrwt>
<rscale>  0 0.84712524E+03</rscale>
<asrwt>0</asrwt>
<pdfrwt beam="1">  1        2 0.10005263E+00 0.84712524E+03</pdfrwt>
<pdfrwt beam="2">  1       -2 0.36594065E-01 0.84712524E+03</pdfrwt>
<totfact> 0.31714017E+02</totfact>
</mgrwt>
</event>
<event>
 4    1  0.5900026E-005  0.5325622E+03  0.7818608E-02  0.1005613E+00
         -2   -1    0    0    0  501 -0.00000000000E+00  0.00000000000E+00  0.45360731171E+02  0.45360731243E+02  0.25500000000E-02 0. -1.
          2   -1    0    0  501    0  0.00000000000E+00 -0.00000000000E+00 -0.15631501436E+04  0.15631501436E+04  0.25500000000E-02 0.  1.
    5000001    1    1    2    0    0  0.14816776126E+03  0.16579144677E+02 -0.43062167355E+03  0.49449729953E+03  0.19200000000E+03 0.  0.
   -5000001    1    1    2    0    0 -0.14816776126E+03 -0.16579144677E+02 -0.10871677388E+04  0.11140135753E+04  0.19200000000E+03 0.  0.
<mgrwt>
<rscale>  0 0.53256223E+03</rscale>
<asrwt>0</asrwt>
<pdfrwt beam="1">  1        2 0.22330713E+00 0.53256223E+03</pdfrwt>
<pdfrwt beam="2">  1       -2 0.64801054E-02 0.53256223E+03</pdfrwt>
<totfact> 0.18913874E+03</totfact>
</mgrwt>
</event>
<event>
 4    1  0.5900026E-005  0.7522931E+03  0.7818608E-02  0.9631760E-01
          2   -1    0    0  501    0  0.00000000000E+00  0.00000000000E+00  0.77729320119E+03  0.77729320120E+03  0.25500000000E-02 0.  1.
         -2   -1    0    0    0  501 -0.00000000000E+00 -0.00000000000E+00 -0.18202425841E+03  0.18202425843E+03  0.25500000000E-02 0. -1.
    5000001    1    1    2    0    0  0.22380354180E+03  0.22978387328E+03  0.24454048658E+03  0.44671322268E+03  0.19200000000E+03 0.  0.
   -5000001    1    1    2    0    0 -0.22380354180E+03 -0.22978387328E+03  0.35072845620E+03  0.51260423694E+03  0.19200000000E+03 0.  0.
<mgrwt>
<rscale>  0 0.75229308E+03</rscale>
<asrwt>0</asrwt>
<pdfrwt beam="1">  1        2 0.11104189E+00 0.75229308E+03</pdfrwt>
<pdfrwt beam="2">  1       -2 0.26003465E-01 0.75229308E+03</pdfrwt>
<totfact> 0.52808548E+02</totfact>
</mgrwt>
</event>
<event>
 4    1  0.5900026E-005  0.4595093E+03  0.7818608E-02  0.1024924E+00
         -2   -1    0    0    0  501 -0.00000000000E+00  0.00000000000E+00  0.81132913810E+02  0.81132913850E+02  0.25500000000E-02 0. -1.
          2   -1    0    0  501    0  0.00000000000E+00 -0.00000000000E+00 -0.65062623765E+03  0.65062623766E+03  0.25500000000E-02 0.  1.
    5000001    1    1    2    0    0 -0.44838821148E+02  0.11794382846E+03 -0.28253092624E+03  0.36415517412E+03  0.19200000000E+03 0.  0.
   -5000001    1    1    2    0    0  0.44838821148E+02 -0.11794382846E+03 -0.28696239760E+03  0.36760397739E+03  0.19200000000E+03 0.  0.
<mgrwt>
<rscale>  0 0.45950931E+03</rscale>
<asrwt>0</asrwt>
<pdfrwt beam="1">  1        2 0.92946602E-01 0.45950931E+03</pdfrwt>
<pdfrwt beam="2">  1       -2 0.11590417E-01 0.45950931E+03</pdfrwt>
<totfact> 0.26361266E+03</totfact>
</mgrwt>
</event>
<event>
 4    1  0.5900026E-005  0.5162025E+03  0.7818608E-02  0.1009634E+00
         -2   -1    0    0    0  501 -0.00000000000E+00  0.00000000000E+00  0.59419226780E+02  0.59419226835E+02  0.25500000000E-02 0.  1.
          2   -1    0    0  501    0  0.00000000000E+00 -0.00000000000E+00 -0.11211226900E+04  0.11211226900E+04  0.25500000000E-02 0. -1.
    5000001    1    1    2    0    0 -0.94433315376E+02  0.14403955739E+03 -0.50949596175E+03  0.57106495269E+03  0.19200000000E+03 0.  0.
   -5000001    1    1    2    0    0  0.94433315376E+02 -0.14403955739E+03 -0.55220750143E+03  0.60947696411E+03  0.19200000000E+03 0.  0.
<mgrwt>
<rscale>  0 0.51620245E+03</rscale>
<asrwt>0</asrwt>
<pdfrwt beam="1">  1        2 0.16016037E+00 0.51620245E+03</pdfrwt>
<pdfrwt beam="2">  1       -2 0.84884617E-02 0.51620245E+03</pdfrwt>
<totfact> 0.21349305E+03</totfact>
</mgrwt>
</event>
<event>
 4    1  0.5900026E-005  0.4688069E+03  0.7818608E-02  0.1022258E+00
          2   -1    0    0  501    0  0.00000000000E+00  0.00000000000E+00  0.37333273271E+03  0.37333273271E+03  0.25500000000E-02 0.  1.
         -2   -1    0    0    0  501 -0.00000000000E+00 -0.00000000000E+00 -0.14717426092E+03  0.14717426094E+03  0.25500000000E-02 0. -1.
    5000001    1    1    2    0    0 -0.71075768698E+02  0.10753485843E+03  0.70576259233E+02  0.24178610184E+03  0.19200000000E+03 0.  0.
   -5000001    1    1    2    0    0  0.71075768698E+02 -0.10753485843E+03  0.15558221255E+03  0.27872089182E+03  0.19200000000E+03 0.  0.
<mgrwt>
<rscale>  0 0.46880686E+03</rscale>
<asrwt>0</asrwt>
<pdfrwt beam="1">  1        2 0.53333248E-01 0.46880686E+03</pdfrwt>
<pdfrwt beam="2">  1       -2 0.21024894E-01 0.46880686E+03</pdfrwt>
<totfact> 0.18145721E+03</totfact>
</mgrwt>
</event>
<event>
 4    1  0.5900026E-005  0.4305340E+03  0.7818608E-02  0.1033691E+00
          2   -1    0    0  501    0  0.00000000000E+00  0.00000000000E+00  0.23301150332E+03  0.23301150333E+03  0.25500000000E-02 0.  1.
         -2   -1    0    0    0  501 -0.00000000000E+00 -0.00000000000E+00 -0.19887378035E+03  0.19887378037E+03  0.25500000000E-02 0. -1.
    5000001    1    1    2    0    0 -0.92887093710E+02  0.29101578782E+02  0.16083704533E+02  0.21586477160E+03  0.19200000000E+03 0.  0.
   -5000001    1    1    2    0    0  0.92887093710E+02 -0.29101578782E+02  0.18054018434E+02  0.21602051210E+03  0.19200000000E+03 0.  0.
<mgrwt>
<rscale>  0 0.43053399E+03</rscale>
<asrwt>0</asrwt>
<pdfrwt beam="1">  1        2 0.33287358E-01 0.43053399E+03</pdfrwt>
<pdfrwt beam="2">  1       -2 0.28410540E-01 0.43053399E+03</pdfrwt>
<totfact> 0.17800909E+03</totfact>
</mgrwt>
</event>
<event>
 4    1  0.5900026E-005  0.5057677E+03  0.7818608E-02  0.1012284E+00
         -2   -1    0    0    0  501 -0.00000000000E+00  0.00000000000E+00  0.43477976913E+02  0.43477976988E+02  0.25500000000E-02 0. -1.
          2   -1    0    0  501    0  0.00000000000E+00 -0.00000000000E+00 -0.14708652012E+04  0.14708652012E+04  0.25500000000E-02 0.  1.
    5000001    1    1    2    0    0  0.11738364073E+03  0.11164820069E+03 -0.80057568109E+03  0.83906475375E+03  0.19200000000E+03 0.  0.
   -5000001    1    1    2    0    0 -0.11738364073E+03 -0.11164820069E+03 -0.62681154316E+03  0.67527842441E+03  0.19200000000E+03 0.  0.
<mgrwt>
<rscale>  0 0.50576771E+03</rscale>
<asrwt>0</asrwt>
<pdfrwt beam="1">  1        2 0.21012357E+00 0.50576771E+03</pdfrwt>
<pdfrwt beam="2">  1       -2 0.62111405E-02 0.50576771E+03</pdfrwt>
<totfact> 0.22574701E+03</totfact>
</mgrwt>
</event>
<event>
 4    1  0.5900026E-005  0.8185617E+03  0.7818608E-02  0.9533532E-01
          2   -1    0    0  501    0  0.00000000000E+00  0.00000000000E+00  0.71024497529E+03  0.71024497530E+03  0.25500000000E-02 0.  1.
         -2   -1    0    0    0  501 -0.00000000000E+00 -0.00000000000E+00 -0.23584931946E+03  0.23584931947E+03  0.25500000000E-02 0. -1.
    5000001    1    1    2    0    0 -0.80407941234E+02  0.30045565858E+03  0.45002767987E+03  0.57976542880E+03  0.19200000000E+03 0.  0.
   -5000001    1    1    2    0    0  0.80407941234E+02 -0.30045565858E+03  0.24367975961E+02  0.36632886597E+03  0.19200000000E+03 0.  0.
<mgrwt>
<rscale>  0 0.81856165E+03</rscale>
<asrwt>0</asrwt>
<pdfrwt beam="1">  1        2 0.10146357E+00 0.81856165E+03</pdfrwt>
<pdfrwt beam="2">  1       -2 0.33692760E-01 0.81856165E+03</pdfrwt>
<totfact> 0.36523610E+02</totfact>
</mgrwt>
</event>
<event>
 4    1  0.5900026E-005  0.9023555E+03  0.7818608E-02  0.9422642E-01
          2   -1    0    0  501    0  0.00000000000E+00  0.00000000000E+00  0.74339909364E+03  0.74339909364E+03  0.25500000000E-02 0.  1.
         -2   -1    0    0    0  501 -0.00000000000E+00 -0.00000000000E+00 -0.27382511650E+03  0.27382511652E+03  0.25500000000E-02 0. -1.
    5000001    1    1    2    0    0  0.24189682136E+03 -0.85753752590E+01 -0.13586935552E+03  0.33750865325E+03  0.19200000000E+03 0.  0.
   -5000001    1    1    2    0    0 -0.24189682136E+03  0.85753752590E+01  0.60544333266E+03  0.67971555691E+03  0.19200000000E+03 0.  0.
<mgrwt>
<rscale>  0 0.90235546E+03</rscale>
<asrwt>0</asrwt>
<pdfrwt beam="1">  1        2 0.10619987E+00 0.90235546E+03</pdfrwt>
<pdfrwt beam="2">  1       -2 0.39117874E-01 0.90235546E+03</pdfrwt>
<totfact> 0.25820351E+02</totfact>
</mgrwt>
</event>
<event>
 4    1  0.5900026E-005  0.6655719E+03  0.7818608E-02  0.9777991E-01
         -2   -1    0    0    0  501 -0.00000000000E+00  0.00000000000E+00  0.48634759800E+02  0.48634759866E+02  0.25500000000E-02 0. -1.
          2   -1    0    0  501    0  0.00000000000E+00 -0.00000000000E+00 -0.22771056205E+04  0.22771056205E+04  0.25500000000E-02 0.  1.
    5000001    1    1    2    0    0  0.17959691953E+03  0.87919745205E+02 -0.47088082165E+03  0.54642262334E+03  0.19200000000E+03 0.  0.
   -5000001    1    1    2    0    0 -0.17959691953E+03 -0.87919745205E+02 -0.17575900391E+04  0.17793177570E+04  0.19200000000E+03 0.  0.
<mgrwt>
<rscale>  0 0.66557189E+03</rscale>
<asrwt>0</asrwt>
<pdfrwt beam="1">  1        2 0.32530074E+00 0.66557189E+03</pdfrwt>
<pdfrwt beam="2">  1       -2 0.69478243E-02 0.66557189E+03</pdfrwt>
<totfact> 0.73351099E+02</totfact>
</mgrwt>
</event>
<event>
 4    1  0.5900026E-005  0.4843111E+03  0.7818608E-02  0.1017957E+00
          2   -1    0    0  501    0  0.00000000000E+00  0.00000000000E+00  0.49182580603E+03  0.49182580604E+03  0.25500000000E-02 0.  1.
         -2   -1    0    0    0  501 -0.00000000000E+00 -0.00000000000E+00 -0.11922778282E+03  0.11922778284E+03  0.25500000000E-02 0. -1.
    5000001    1    1    2    0    0  0.16815327335E+02 -0.14635263045E+03  0.17548569637E+03  0.29893323218E+03  0.19200000000E+03 0.  0.
   -5000001    1    1    2    0    0 -0.16815327335E+02  0.14635263045E+03  0.19711232685E+03  0.31212035670E+03  0.19200000000E+03 0.  0.
<mgrwt>
<rscale>  0 0.48431106E+03</rscale>
<asrwt>0</asrwt>
<pdfrwt beam="1">  1        2 0.70260831E-01 0.48431106E+03</pdfrwt>
<pdfrwt beam="2">  1       -2 0.17032540E-01 0.48431106E+03</pdfrwt>
<totfact> 0.19200218E+03</totfact>
</mgrwt>
</event>
<event>
 4    1  0.5900026E-005  0.7160037E+03  0.7818608E-02  0.9690248E-01
          2   -1    0    0  501    0  0.00000000000E+00  0.00000000000E+00  0.10239785234E+04  0.10239785234E+04  0.25500000000E-02 0.  1.
         -2   -1    0    0    0  501 -0.00000000000E+00 -0.00000000000E+00 -0.12516409158E+03  0.12516409160E+03  0.25500000000E-02 0. -1.
    5000001    1    1    2    0    0 -0.19055793737E+03  0.19639931018E+03  0.24377241848E+03  0.41373180751E+03  0.19200000000E+03 0.  0.
   -5000001    1    1    2    0    0  0.19055793737E+03 -0.19639931018E+03  0.65504201338E+03  0.73541080752E+03  0.19200000000E+03 0.  0.
<mgrwt>
<rscale>  0 0.71600375E+03</rscale>
<asrwt>0</asrwt>
<pdfrwt beam="1">  1        2 0.14628264E+00 0.71600375E+03</pdfrwt>
<pdfrwt beam="2">  1       -2 0.17880585E-01 0.71600375E+03</pdfrwt>
<totfact> 0.70716147E+02</totfact>
</mgrwt>
</event>
<event>
 4    1  0.5900026E-005  0.4217307E+03  0.7818608E-02  0.1036504E+00
          2   -1    0    0  501    0  0.00000000000E+00  0.00000000000E+00  0.42306647640E+03  0.42306647640E+03  0.25500000000E-02 0.  1.
         -2   -1    0    0    0  501 -0.00000000000E+00 -0.00000000000E+00 -0.10509977748E+03  0.10509977751E+03  0.25500000000E-02 0. -1.
    5000001    1    1    2    0    0 -0.23063191195E+02 -0.83417667287E+02  0.17210493314E+03  0.27198258403E+03  0.19200000000E+03 0.  0.
   -5000001    1    1    2    0    0  0.23063191195E+02  0.83417667287E+02  0.14586176578E+03  0.25618366989E+03  0.19200000000E+03 0.  0.
<mgrwt>
<rscale>  0 0.42173068E+03</rscale>
<asrwt>0</asrwt>
<pdfrwt beam="1">  1        2 0.60438068E-01 0.42173068E+03</pdfrwt>
<pdfrwt beam="2">  1       -2 0.15014254E-01 0.42173068E+03</pdfrwt>
<totfact> 0.28043554E+03</totfact>
</mgrwt>
</event>
<event>
 4    1  0.5900026E-005  0.5797287E+03  0.7818608E-02  0.9948379E-01
          2   -1    0    0  501    0  0.00000000000E+00  0.00000000000E+00  0.26543953742E+04  0.26543953742E+04  0.25500000000E-02 0.  1.
         -2   -1    0    0    0  501 -0.00000000000E+00 -0.00000000000E+00 -0.31653660684E+02  0.31653660787E+02  0.25500000000E-02 0. -1.
    5000001    1    1    2    0    0 -0.20163537486E+02 -0.20899222210E+03  0.10545256903E+04  0.10922329187E+04  0.19200000000E+03 0.  0.
   -5000001    1    1    2    0    0  0.20163537486E+02  0.20899222210E+03  0.15682160232E+04  0.15938161163E+04  0.19200000000E+03 0.  0.
<mgrwt>
<rscale>  0 0.57972866E+03</rscale>
<asrwt>0</asrwt>
<pdfrwt beam="1">  1        2 0.37919939E+00 0.57972866E+03</pdfrwt>
<pdfrwt beam="2">  1       -2 0.45219509E-02 0.57972866E+03</pdfrwt>
<totfact> 0.92479521E+02</totfact>
</mgrwt>
</event>
<event>
 4    1  0.5900026E-005  0.6109436E+03  0.7818608E-02  0.9882958E-01
          2   -1    0    0  501    0  0.00000000000E+00  0.00000000000E+00  0.75001875869E+03  0.75001875870E+03  0.25500000000E-02 0.  1.
         -2   -1    0    0    0  501 -0.00000000000E+00 -0.00000000000E+00 -0.12441423496E+03  0.12441423498E+03  0.25500000000E-02 0. -1.
    5000001    1    1    2    0    0 -0.12519278159E+03 -0.17106884765E+03  0.46636514151E+03  0.54708155555E+03  0.19200000000E+03 0.  0.
   -5000001    1    1    2    0    0  0.12519278159E+03  0.17106884765E+03  0.15923938222E+03  0.32735143813E+03  0.19200000000E+03 0.  0.
<mgrwt>
<rscale>  0 0.61094357E+03</rscale>
<asrwt>0</asrwt>
<pdfrwt beam="1">  1        2 0.10714554E+00 0.61094357E+03</pdfrwt>
<pdfrwt beam="2">  1       -2 0.17773462E-01 0.61094357E+03</pdfrwt>
<totfact> 0.10844984E+03</totfact>
</mgrwt>
</event>
<event>
 4    1  0.5900026E-005  0.4283025E+03  0.7818608E-02  0.1034398E+00
         -2   -1    0    0    0  501 -0.00000000000E+00  0.00000000000E+00  0.23445646004E+02  0.23445646142E+02  0.25500000000E-02 0.  1.
          2   -1    0    0  501    0  0.00000000000E+00 -0.00000000000E+00 -0.19560457251E+04  0.19560457251E+04  0.25500000000E-02 0. -1.
    5000001    1    1    2    0    0  0.70804375092E+01 -0.59829798563E+02 -0.13048864748E+04  0.13203114971E+04  0.19200000000E+03 0.  0.
   -5000001    1    1    2    0    0 -0.70804375092E+01  0.59829798563E+02 -0.62771360430E+03  0.65917987410E+03  0.19200000000E+03 0.  0.
<mgrwt>
<rscale>  0 0.42830249E+03</rscale>
<asrwt>0</asrwt>
<pdfrwt beam="1">  1        2 0.27943500E+00 0.42830249E+03</pdfrwt>
<pdfrwt beam="2">  1       -2 0.33493793E-02 0.42830249E+03</pdfrwt>
<totfact> 0.33221723E+03</totfact>
</mgrwt>
</event>
<event>
 4    1  0.5900026E-005  0.4816021E+03  0.7818608E-02  0.1018696E+00
          2   -1    0    0  501    0  0.00000000000E+00  0.00000000000E+00  0.44988834375E+03  0.44988834376E+03  0.25500000000E-02 0.  1.
         -2   -1    0    0    0  501 -0.00000000000E+00 -0.00000000000E+00 -0.12888783759E+03  0.12888783762E+03  0.25500000000E-02 0. -1.
    5000001    1    1    2    0    0 -0.81614490830E+02  0.11874218016E+03  0.18331828379E+03  0.30204341349E+03  0.19200000000E+03 0.  0.
   -5000001    1    1    2    0    0  0.81614490830E+02 -0.11874218016E+03  0.13768222237E+03  0.27673276788E+03  0.19200000000E+03 0.  0.
<mgrwt>
<rscale>  0 0.48160206E+03</rscale>
<asrwt>0</asrwt>
<pdfrwt beam="1">  1        2 0.64269764E-01 0.48160206E+03</pdfrwt>
<pdfrwt beam="2">  1       -2 0.18412548E-01 0.48160206E+03</pdfrwt>
<totfact> 0.18574569E+03</totfact>
</mgrwt>
</event>
<event>
 4    1  0.5900026E-005  0.4634253E+03  0.7818608E-02  0.1023792E+00
         -2   -1    0    0    0  501 -0.00000000000E+00  0.00000000000E+00  0.29179505262E+02  0.29179505374E+02  0.25500000000E-02 0. -1.
          2   -1    0    0  501    0  0.00000000000E+00 -0.00000000000E+00 -0.18400158917E+04  0.18400158917E+04  0.25500000000E-02 0.  1.
    5000001    1    1    2    0    0 -0.45806149412E+02  0.38884038533E+02 -0.13691154543E+04  0.13838176538E+04  0.19200000000E+03 0.  0.
   -5000001    1    1    2    0    0  0.45806149412E+02 -0.38884038533E+02 -0.44172093216E+03  0.48537774329E+03  0.19200000000E+03 0.  0.
<mgrwt>
<rscale>  0 0.46342531E+03</rscale>
<asrwt>0</asrwt>
<pdfrwt beam="1">  1        2 0.26285934E+00 0.46342531E+03</pdfrwt>
<pdfrwt beam="2">  1       -2 0.41685019E-02 0.46342531E+03</pdfrwt>
<totfact> 0.27179669E+03</totfact>
</mgrwt>
</event>
<event>
 4    1  0.5900026E-005  0.7340825E+03  0.7818608E-02  0.9660659E-01
          2   -1    0    0  501    0  0.00000000000E+00  0.00000000000E+00  0.20656553043E+03  0.20656553044E+03  0.25500000000E-02 0.  1.
         -2   -1    0    0    0  501 -0.00000000000E+00 -0.00000000000E+00 -0.65218666224E+03  0.65218666225E+03  0.25500000000E-02 0. -1.
    5000001    1    1    2    0    0  0.29632931886E+03 -0.93185920666E+02 -0.26596134700E+03  0.45176777123E+03  0.19200000000E+03 0.  0.
   -5000001    1    1    2    0    0 -0.29632931886E+03  0.93185920666E+02 -0.17965978482E+03  0.40698442146E+03  0.19200000000E+03 0.  0.
<mgrwt>
<rscale>  0 0.73408251E+03</rscale>
<asrwt>0</asrwt>
<pdfrwt beam="1">  1        2 0.29509362E-01 0.73408251E+03</pdfrwt>
<pdfrwt beam="2">  1       -2 0.93169522E-01 0.73408251E+03</pdfrwt>
<totfact> 0.17845688E+02</totfact>
</mgrwt>
</event>
<event>
 4    1  0.5900026E-005  0.6114522E+03  0.7818608E-02  0.9881927E-01
         -2   -1    0    0    0  501 -0.00000000000E+00  0.00000000000E+00  0.53122036075E+03  0.53122036076E+03  0.25500000000E-02 0.  1.
          2   -1    0    0  501    0  0.00000000000E+00 -0.00000000000E+00 -0.17595042242E+03  0.17595042243E+03  0.25500000000E-02 0. -1.
    5000001    1    1    2    0    0 -0.22194805998E+03 -0.63040577188E+01  0.27647552490E+03  0.40324111688E+03  0.19200000000E+03 0.  0.
   -5000001    1    1    2    0    0  0.22194805998E+03  0.63040577188E+01  0.78794413430E+02  0.30392966631E+03  0.19200000000E+03 0.  0.
<mgrwt>
<rscale>  0 0.61145220E+03</rscale>
<asrwt>0</asrwt>
<pdfrwt beam="1">  1        2 0.25135774E-01 0.61145220E+03</pdfrwt>
<pdfrwt beam="2">  1       -2 0.75888625E-01 0.61145220E+03</pdfrwt>
<totfact> 0.34216800E+02</totfact>
</mgrwt>
</event>
<event>
 4    1  0.5900026E-005  0.6031524E+03  0.7818608E-02  0.9898887E-01
         -2   -1    0    0    0  501 -0.00000000000E+00  0.00000000000E+00  0.41954160127E+03  0.41954160128E+03  0.25500000000E-02 0. -1.
          2   -1    0    0  501    0  0.00000000000E+00 -0.00000000000E+00 -0.21677996828E+03  0.21677996829E+03  0.25500000000E-02 0.  1.
    5000001    1    1    2    0    0  0.20044098939E+03  0.10923763803E+03  0.14826291849E+03  0.33309960190E+03  0.19200000000E+03 0.  0.
   -5000001    1    1    2    0    0 -0.20044098939E+03 -0.10923763803E+03  0.54498714505E+02  0.30322196766E+03  0.19200000000E+03 0.  0.
<mgrwt>
<rscale>  0 0.60315244E+03</rscale>
<asrwt>0</asrwt>
<pdfrwt beam="1">  1        2 0.30968567E-01 0.60315244E+03</pdfrwt>
<pdfrwt beam="2">  1       -2 0.59934514E-01 0.60315244E+03</pdfrwt>
<totfact> 0.44956378E+02</totfact>
</mgrwt>
</event>
<event>
 4    1  0.5900026E-005  0.1341657E+04  0.7818608E-02  0.8997168E-01
         -2   -1    0    0    0  501 -0.00000000000E+00  0.00000000000E+00  0.24174453143E+03  0.24174453144E+03  0.25500000000E-02 0. -1.
          2   -1    0    0  501    0  0.00000000000E+00 -0.00000000000E+00 -0.18615131814E+04  0.18615131814E+04  0.25500000000E-02 0.  1.
    5000001    1    1    2    0    0 -0.16996048920E+03 -0.33750845030E+03  0.52192090853E+01  0.42389829211E+03  0.19200000000E+03 0.  0.
   -5000001    1    1    2    0    0  0.16996048920E+03  0.33750845030E+03 -0.16249878590E+04  0.16793594207E+04  0.19200000000E+03 0.  0.
<mgrwt>
<rscale>  0 0.13416566E+04</rscale>
<asrwt>0</asrwt>
<pdfrwt beam="1">  1        2 0.26593045E+00 0.13416566E+04</pdfrwt>
<pdfrwt beam="2">  1       -2 0.34534934E-01 0.13416566E+04</pdfrwt>
<totfact> 0.72684157E+01</totfact>
</mgrwt>
</event>
<event>
 4    1  0.5900026E-005  0.6714771E+03  0.7818608E-02  0.9767293E-01
         -2   -1    0    0    0  501 -0.00000000000E+00  0.00000000000E+00  0.25471970987E+03  0.25471970988E+03  0.25500000000E-02 0. -1.
          2   -1    0    0  501    0  0.00000000000E+00 -0.00000000000E+00 -0.44252703557E+03  0.44252703558E+03  0.25500000000E-02 0.  1.
    5000001    1    1    2    0    0  0.58008317383E+02  0.16670165805E+03 -0.31344613817E+03  0.40775837112E+03  0.19200000000E+03 0.  0.
   -5000001    1    1    2    0    0 -0.58008317383E+02 -0.16670165805E+03  0.12563881247E+03  0.28948837434E+03  0.19200000000E+03 0.  0.
<mgrwt>
<rscale>  0 0.67147705E+03</rscale>
<asrwt>0</asrwt>
<pdfrwt beam="1">  1        2 0.63218148E-01 0.67147705E+03</pdfrwt>
<pdfrwt beam="2">  1       -2 0.36388530E-01 0.67147705E+03</pdfrwt>
<totfact> 0.55184577E+02</totfact>
</mgrwt>
</event>
<event>
 4    1  0.5900026E-005  0.4602736E+03  0.7818608E-02  0.1024702E+00
          2   -1    0    0  501    0  0.00000000000E+00  0.00000000000E+00  0.10818449705E+04  0.10818449706E+04  0.25500000000E-02 0.  1.
         -2   -1    0    0    0  501 -0.00000000000E+00 -0.00000000000E+00 -0.48956131336E+02  0.48956131402E+02  0.25500000000E-02 0. -1.
    5000001    1    1    2    0    0  0.52284672788E+02 -0.11515462032E+03  0.49130917168E+03  0.54244167960E+03  0.19200000000E+03 0.  0.
   -5000001    1    1    2    0    0 -0.52284672788E+02  0.11515462032E+03  0.54157966753E+03  0.58835942235E+03  0.19200000000E+03 0.  0.
<mgrwt>
<rscale>  0 0.46027359E+03</rscale>
<asrwt>0</asrwt>
<pdfrwt beam="1">  1        2 0.15454925E+00 0.46027359E+03</pdfrwt>
<pdfrwt beam="2">  1       -2 0.69937344E-02 0.46027359E+03</pdfrwt>
<totfact> 0.30563228E+03</totfact>
</mgrwt>
</event>
<event>
 4    1  0.5900026E-005  0.5220108E+03  0.7818608E-02  0.1008188E+00
          2   -1    0    0  501    0  0.00000000000E+00  0.00000000000E+00  0.19549263815E+04  0.19549263815E+04  0.25500000000E-02 0.  1.
         -2   -1    0    0    0  501 -0.00000000000E+00 -0.00000000000E+00 -0.34847256683E+02  0.34847256776E+02  0.25500000000E-02 0. -1.
    5000001    1    1    2    0    0 -0.18138735532E+02 -0.16753206857E+03  0.75605534654E+03  0.79804742638E+03  0.19200000000E+03 0.  0.
   -5000001    1    1    2    0    0  0.18138735532E+02  0.16753206857E+03  0.11640237783E+04  0.11917262119E+04  0.19200000000E+03 0.  0.
<mgrwt>
<rscale>  0 0.52201081E+03</rscale>
<asrwt>0</asrwt>
<pdfrwt beam="1">  1        2 0.27927526E+00 0.52201081E+03</pdfrwt>
<pdfrwt beam="2">  1       -2 0.49781785E-02 0.52201081E+03</pdfrwt>
<totfact> 0.18088426E+03</totfact>
</mgrwt>
</event>
<event>
 4    1  0.5900026E-005  0.6557971E+03  0.7818608E-02  0.9795962E-01
          2   -1    0    0  501    0  0.00000000000E+00  0.00000000000E+00  0.12193039337E+04  0.12193039337E+04  0.25500000000E-02 0.  1.
         -2   -1    0    0    0  501 -0.00000000000E+00 -0.00000000000E+00 -0.88179368920E+02  0.88179368957E+02  0.25500000000E-02 0. -1.
    5000001    1    1    2    0    0  0.27213383624E+02 -0.24343822850E+03  0.35980462946E+03  0.47573743885E+03  0.19200000000E+03 0.  0.
   -5000001    1    1    2    0    0 -0.27213383624E+02  0.24343822850E+03  0.77131993535E+03  0.83174586384E+03  0.19200000000E+03 0.  0.
<mgrwt>
<rscale>  0 0.65579708E+03</rscale>
<asrwt>0</asrwt>
<pdfrwt beam="1">  1        2 0.17418628E+00 0.65579708E+03</pdfrwt>
<pdfrwt beam="2">  1       -2 0.12597052E-01 0.65579708E+03</pdfrwt>
<totfact> 0.98605302E+02</totfact>
</mgrwt>
</event>
<event>
 4    1  0.5900026E-005  0.5289707E+03  0.7818608E-02  0.1006482E+00
         -2   -1    0    0    0  501 -0.00000000000E+00  0.00000000000E+00  0.24373754643E+03  0.24373754644E+03  0.25500000000E-02 0. -1.
          2   -1    0    0  501    0  0.00000000000E+00 -0.00000000000E+00 -0.28699927691E+03  0.28699927692E+03  0.25500000000E-02 0.  1.
    5000001    1    1    2    0    0  0.16490619305E+03 -0.49989514027E+02  0.36834570417E+02  0.26060274288E+03  0.19200000000E+03 0.  0.
   -5000001    1    1    2    0    0 -0.16490619305E+03  0.49989514027E+02 -0.80096300900E+02  0.27013408048E+03  0.19200000000E+03 0.  0.
<mgrwt>
<rscale>  0 0.52897070E+03</rscale>
<asrwt>0</asrwt>
<pdfrwt beam="1">  1        2 0.40999897E-01 0.52897070E+03</pdfrwt>
<pdfrwt beam="2">  1       -2 0.34819649E-01 0.52897070E+03</pdfrwt>
<totfact> 0.97129203E+02</totfact>
</mgrwt>
</event>
<event>
 4    1  0.5900026E-005  0.6921270E+03  0.7818608E-02  0.9730792E-01
          2   -1    0    0  501    0  0.00000000000E+00  0.00000000000E+00  0.10454348871E+04  0.10454348871E+04  0.25500000000E-02 0.  1.
         -2   -1    0    0    0  501 -0.00000000000E+00 -0.00000000000E+00 -0.11455513328E+03  0.11455513331E+03  0.25500000000E-02 0. -1.
    5000001    1    1    2    0    0 -0.69243689107E+02 -0.25243056239E+03  0.66641799122E+03  0.74127782668E+03  0.19200000000E+03 0.  0.
   -5000001    1    1    2    0    0  0.69243689107E+02  0.25243056239E+03  0.26446176264E+03  0.41871219376E+03  0.19200000000E+03 0.  0.
<mgrwt>
<rscale>  0 0.69212696E+03</rscale>
<asrwt>0</asrwt>
<pdfrwt beam="1">  1        2 0.14934784E+00 0.69212696E+03</pdfrwt>
<pdfrwt beam="2">  1       -2 0.16365019E-01 0.69212696E+03</pdfrwt>
<totfact> 0.79954143E+02</totfact>
</mgrwt>
</event>
<event>
 4    1  0.5900026E-005  0.7006715E+03  0.7818608E-02  0.9716085E-01
          2   -1    0    0  501    0  0.00000000000E+00  0.00000000000E+00  0.11204942187E+04  0.11204942187E+04  0.25500000000E-02 0.  1.
         -2   -1    0    0    0  501 -0.00000000000E+00 -0.00000000000E+00 -0.10953660924E+03  0.10953660927E+03  0.25500000000E-02 0. -1.
    5000001    1    1    2    0    0 -0.11860709636E+02 -0.21788140897E+03  0.16210786147E+03  0.33280015559E+03  0.19200000000E+03 0.  0.
   -5000001    1    1    2    0    0  0.11860709636E+02  0.21788140897E+03  0.84884974798E+03  0.89723067237E+03  0.19200000000E+03 0.  0.
<mgrwt>
<rscale>  0 0.70067150E+03</rscale>
<asrwt>0</asrwt>
<pdfrwt beam="1">  1        2 0.16007060E+00 0.70067150E+03</pdfrwt>
<pdfrwt beam="2">  1       -2 0.15648087E-01 0.70067150E+03</pdfrwt>
<totfact> 0.77905566E+02</totfact>
</mgrwt>
</event>
<event>
 4    1  0.5900026E-005  0.5341871E+03  0.7818608E-02  0.1005222E+00
         -2   -1    0    0    0  501 -0.00000000000E+00  0.00000000000E+00  0.19565405973E+03  0.19565405975E+03  0.25500000000E-02 0. -1.
          2   -1    0    0  501    0  0.00000000000E+00 -0.00000000000E+00 -0.36461792215E+03  0.36461792216E+03  0.25500000000E-02 0.  1.
    5000001    1    1    2    0    0  0.13943104453E+03  0.96936567669E+02 -0.16322994278E+03  0.30388439998E+03  0.19200000000E+03 0.  0.
   -5000001    1    1    2    0    0 -0.13943104453E+03 -0.96936567669E+02 -0.57339196303E+01  0.25638758193E+03  0.19200000000E+03 0.  0.
<mgrwt>
<rscale>  0 0.53418715E+03</rscale>
<asrwt>0</asrwt>
<pdfrwt beam="1">  1        2 0.52088275E-01 0.53418715E+03</pdfrwt>
<pdfrwt beam="2">  1       -2 0.27950580E-01 0.53418715E+03</pdfrwt>
<totfact> 0.11219462E+03</totfact>
</mgrwt>
</event>
<event>
 4    1  0.5900026E-005  0.6775132E+03  0.7818608E-02  0.9756480E-01
          2   -1    0    0  501    0  0.00000000000E+00  0.00000000000E+00  0.96474792367E+03  0.96474792368E+03  0.25500000000E-02 0.  1.
         -2   -1    0    0    0  501 -0.00000000000E+00 -0.00000000000E+00 -0.11894922654E+03  0.11894922657E+03  0.25500000000E-02 0. -1.
    5000001    1    1    2    0    0 -0.32071940323E+02  0.25282332057E+03  0.24092057429E+03  0.39981866376E+03  0.19200000000E+03 0.  0.
   -5000001    1    1    2    0    0  0.32071940323E+02 -0.25282332057E+03  0.60487812285E+03  0.68387848649E+03  0.19200000000E+03 0.  0.
<mgrwt>
<rscale>  0 0.67751316E+03</rscale>
<asrwt>0</asrwt>
<pdfrwt beam="1">  1        2 0.13782114E+00 0.67751316E+03</pdfrwt>
<pdfrwt beam="2">  1       -2 0.16992746E-01 0.67751316E+03</pdfrwt>
<totfact> 0.84025664E+02</totfact>
</mgrwt>
</event>
<event>
 4    1  0.5900026E-005  0.7379860E+03  0.7818608E-02  0.9654389E-01
          2   -1    0    0  501    0  0.00000000000E+00  0.00000000000E+00  0.28948214817E+04  0.28948214817E+04  0.25500000000E-02 0. -1.
         -2   -1    0    0    0  501 -0.00000000000E+00 -0.00000000000E+00 -0.47034276169E+02  0.47034276238E+02  0.25500000000E-02 0.  1.
    5000001    1    1    2    0    0 -0.40953350580E+02 -0.28941149068E+03  0.95466267276E+03  0.10167010409E+04  0.19200000000E+03 0.  0.
   -5000001    1    1    2    0    0  0.40953350580E+02  0.28941149068E+03  0.18931245328E+04  0.19251547170E+04  0.19200000000E+03 0.  0.
<mgrwt>
<rscale>  0 0.73798600E+03</rscale>
<asrwt>0</asrwt>
<pdfrwt beam="1">  1        2 0.41354600E+00 0.73798600E+03</pdfrwt>
<pdfrwt beam="2">  1       -2 0.67191811E-02 0.73798600E+03</pdfrwt>
<totfact> 0.36652301E+02</totfact>
</mgrwt>
</event>
<event>
 4    1  0.5900026E-005  0.8507293E+03  0.7818608E-02  0.9489359E-01
          2   -1    0    0  501    0  0.00000000000E+00  0.00000000000E+00  0.34093019497E+03  0.34093019498E+03  0.25500000000E-02 0.  1.
         -2   -1    0    0    0  501 -0.00000000000E+00 -0.00000000000E+00 -0.53071010049E+03  0.53071010050E+03  0.25500000000E-02 0. -1.
    5000001    1    1    2    0    0 -0.21864371100E+03 -0.20177838825E+03  0.14659708202E+03  0.38324182285E+03  0.19200000000E+03 0.  0.
   -5000001    1    1    2    0    0  0.21864371100E+03  0.20177838825E+03 -0.33637698754E+03  0.48839847263E+03  0.19200000000E+03 0.  0.
<mgrwt>
<rscale>  0 0.85072933E+03</rscale>
<asrwt>0</asrwt>
<pdfrwt beam="1">  1        2 0.48704314E-01 0.85072933E+03</pdfrwt>
<pdfrwt beam="2">  1       -2 0.75815729E-01 0.85072933E+03</pdfrwt>
<totfact> 0.16213568E+02</totfact>
</mgrwt>
</event>
<event>
 4    1  0.5900026E-005  0.5415828E+03  0.7818608E-02  0.1003461E+00
          2   -1    0    0  501    0  0.00000000000E+00  0.00000000000E+00  0.12318205477E+03  0.12318205479E+03  0.25500000000E-02 0.  1.
         -2   -1    0    0    0  501 -0.00000000000E+00 -0.00000000000E+00 -0.59528132554E+03  0.59528132554E+03  0.25500000000E-02 0. -1.
    5000001    1    1    2    0    0 -0.17511006166E+03 -0.74268458703E+02 -0.21366824059E+03  0.34452496962E+03  0.19200000000E+03 0.  0.
   -5000001    1    1    2    0    0  0.17511006166E+03  0.74268458703E+02 -0.25843103018E+03  0.37393841072E+03  0.19200000000E+03 0.  0.
<mgrwt>
<rscale>  0 0.54158278E+03</rscale>
<asrwt>0</asrwt>
<pdfrwt beam="1">  1        2 0.17597437E-01 0.54158278E+03</pdfrwt>
<pdfrwt beam="2">  1       -2 0.85040188E-01 0.54158278E+03</pdfrwt>
<totfact> 0.40208171E+02</totfact>
</mgrwt>
</event>
<event>
 4    1  0.5900026E-005  0.6935777E+03  0.7818608E-02  0.9728279E-01
          2   -1    0    0  501    0  0.00000000000E+00  0.00000000000E+00  0.55450635523E+03  0.55450635524E+03  0.25500000000E-02 0.  1.
         -2   -1    0    0    0  501 -0.00000000000E+00 -0.00000000000E+00 -0.21688210085E+03  0.21688210087E+03  0.25500000000E-02 0. -1.
    5000001    1    1    2    0    0 -0.21505138814E+03  0.15281699038E+03  0.38167386377E+02  0.32851313744E+03  0.19200000000E+03 0.  0.
   -5000001    1    1    2    0    0  0.21505138814E+03 -0.15281699038E+03  0.29945686800E+03  0.44287531867E+03  0.19200000000E+03 0.  0.
<mgrwt>
<rscale>  0 0.69357769E+03</rscale>
<asrwt>0</asrwt>
<pdfrwt beam="1">  1        2 0.79215194E-01 0.69357769E+03</pdfrwt>
<pdfrwt beam="2">  1       -2 0.30983157E-01 0.69357769E+03</pdfrwt>
<totfact> 0.57740316E+02</totfact>
</mgrwt>
</event>
<event>
 4    1  0.5900026E-005  0.6019591E+03  0.7818608E-02  0.9901350E-01
         -2   -1    0    0    0  501 -0.00000000000E+00  0.00000000000E+00  0.12987323763E+03  0.12987323765E+03  0.25500000000E-02 0. -1.
          2   -1    0    0  501    0  0.00000000000E+00 -0.00000000000E+00 -0.69751613359E+03  0.69751613360E+03  0.25500000000E-02 0.  1.
    5000001    1    1    2    0    0  0.15150738655E+02  0.22525448709E+03 -0.35597323756E+03  0.46319550375E+03  0.19200000000E+03 0.  0.
   -5000001    1    1    2    0    0 -0.15150738655E+02 -0.22525448709E+03 -0.21166965841E+03  0.36419386750E+03  0.19200000000E+03 0.  0.
<mgrwt>
<rscale>  0 0.60195906E+03</rscale>
<asrwt>0</asrwt>
<pdfrwt beam="1">  1        2 0.99645160E-01 0.60195906E+03</pdfrwt>
<pdfrwt beam="2">  1       -2 0.18553320E-01 0.60195906E+03</pdfrwt>
<totfact> 0.11019930E+03</totfact>
</mgrwt>
</event>
<event>
 4    1  0.5900026E-005  0.6349314E+03  0.7818608E-02  0.9835472E-01
          2   -1    0    0  501    0  0.00000000000E+00  0.00000000000E+00  0.27104568989E+03  0.27104568990E+03  0.25500000000E-02 0.  1.
         -2   -1    0    0    0  501 -0.00000000000E+00 -0.00000000000E+00 -0.37183575898E+03  0.37183575899E+03  0.25500000000E-02 0. -1.
    5000001    1    1    2    0    0 -0.59169108128E+02 -0.22683513074E+03 -0.14626597000E+03  0.33647123781E+03  0.19200000000E+03 0.  0.
   -5000001    1    1    2    0    0  0.59169108128E+02  0.22683513074E+03  0.45475900911E+02  0.30641021108E+03  0.19200000000E+03 0.  0.
<mgrwt>
<rscale>  0 0.63493143E+03</rscale>
<asrwt>0</asrwt>
<pdfrwt beam="1">  1        2 0.38720813E-01 0.63493143E+03</pdfrwt>
<pdfrwt beam="2">  1       -2 0.53119394E-01 0.63493143E+03</pdfrwt>
<totfact> 0.45006299E+02</totfact>
</mgrwt>
</event>
<event>
 4    1  0.5900026E-005  0.7102121E+03  0.7818608E-02  0.9699926E-01
          2   -1    0    0  501    0  0.00000000000E+00  0.00000000000E+00  0.15653688664E+03  0.15653688666E+03  0.25500000000E-02 0.  1.
         -2   -1    0    0    0  501 -0.00000000000E+00 -0.00000000000E+00 -0.80556295041E+03  0.80556295041E+03  0.25500000000E-02 0. -1.
    5000001    1    1    2    0    0  0.27986579098E+03 -0.60530745961E+02 -0.20918743982E+03  0.40325205163E+03  0.19200000000E+03 0.  0.
   -5000001    1    1    2    0    0 -0.27986579098E+03  0.60530745961E+02 -0.43983862395E+03  0.55884778544E+03  0.19200000000E+03 0.  0.
<mgrwt>
<rscale>  0 0.71021213E+03</rscale>
<asrwt>0</asrwt>
<pdfrwt beam="1">  1        2 0.22362413E-01 0.71021213E+03</pdfrwt>
<pdfrwt beam="2">  1       -2 0.11508042E+00 0.71021213E+03</pdfrwt>
<totfact> 0.14829924E+02</totfact>
</mgrwt>
</event>
<event>
 4    1  0.5900026E-005  0.9687798E+03  0.7818608E-02  0.9343465E-01
          2   -1    0    0  501    0  0.00000000000E+00  0.00000000000E+00  0.78296270319E+03  0.78296270320E+03  0.25500000000E-02 0.  1.
         -2   -1    0    0    0  501 -0.00000000000E+00 -0.00000000000E+00 -0.29967400577E+03  0.29967400578E+03  0.25500000000E-02 0. -1.
    5000001    1    1    2    0    0  0.38571076285E+03  0.20334841202E+03  0.14392501056E+03  0.49769647167E+03  0.19200000000E+03 0.  0.
   -5000001    1    1    2    0    0 -0.38571076285E+03 -0.20334841202E+03  0.33936368687E+03  0.58494023730E+03  0.19200000000E+03 0.  0.
<mgrwt>
<rscale>  0 0.96877979E+03</rscale>
<asrwt>0</asrwt>
<pdfrwt beam="1">  1        2 0.11185182E+00 0.96877979E+03</pdfrwt>
<pdfrwt beam="2">  1       -2 0.42810572E-01 0.96877979E+03</pdfrwt>
<totfact> 0.20190749E+02</totfact>
</mgrwt>
</event>
<event>
 4    1  0.5900026E-005  0.8358777E+03  0.7818608E-02  0.9509490E-01
          2   -1    0    0  501    0  0.00000000000E+00  0.00000000000E+00  0.50338796409E+03  0.50338796409E+03  0.25500000000E-02 0.  1.
         -2   -1    0    0    0  501 -0.00000000000E+00 -0.00000000000E+00 -0.34699457051E+03  0.34699457052E+03  0.25500000000E-02 0. -1.
    5000001    1    1    2    0    0  0.16371319953E+03  0.25727072476E+03 -0.13718112591E+03  0.38558124802E+03  0.19200000000E+03 0.  0.
   -5000001    1    1    2    0    0 -0.16371319953E+03 -0.25727072476E+03  0.29357451949E+03  0.46480128659E+03  0.19200000000E+03 0.  0.
<mgrwt>
<rscale>  0 0.83587772E+03</rscale>
<asrwt>0</asrwt>
<pdfrwt beam="1">  1        2 0.71912567E-01 0.83587772E+03</pdfrwt>
<pdfrwt beam="2">  1       -2 0.49570653E-01 0.83587772E+03</pdfrwt>
<totfact> 0.25791349E+02</totfact>
</mgrwt>
</event>
<event>
 4    1  0.5900026E-005  0.6532077E+03  0.7818608E-02  0.9800779E-01
          2   -1    0    0  501    0  0.00000000000E+00  0.00000000000E+00  0.14109326337E+04  0.14109326337E+04  0.25500000000E-02 0.  1.
         -2   -1    0    0    0  501 -0.00000000000E+00 -0.00000000000E+00 -0.75602533553E+02  0.75602533596E+02  0.25500000000E-02 0. -1.
    5000001    1    1    2    0    0 -0.21753056791E+03 -0.47846278107E+02  0.99108751812E+03  0.10337926692E+04  0.19200000000E+03 0.  0.
   -5000001    1    1    2    0    0  0.21753056791E+03  0.47846278107E+02  0.34424258199E+03  0.45274249807E+03  0.19200000000E+03 0.  0.
<mgrwt>
<rscale>  0 0.65320772E+03</rscale>
<asrwt>0</asrwt>
<pdfrwt beam="1">  1        2 0.20156180E+00 0.65320772E+03</pdfrwt>
<pdfrwt beam="2">  1       -2 0.10800362E-01 0.65320772E+03</pdfrwt>
<totfact> 0.99917779E+02</totfact>
</mgrwt>
</event>
<event>
 4    1  0.5900026E-005  0.4305463E+03  0.7818608E-02  0.1033688E+00
          2   -1    0    0  501    0  0.00000000000E+00  0.00000000000E+00  0.12028643794E+04  0.12028643794E+04  0.25500000000E-02 0.  1.
         -2   -1    0    0    0  501 -0.00000000000E+00 -0.00000000000E+00 -0.38526804444E+02  0.38526804528E+02  0.25500000000E-02 0. -1.
    5000001    1    1    2    0    0  0.45378260556E+02  0.86123176149E+02  0.58637955094E+03  0.62464499179E+03  0.19200000000E+03 0.  0.
   -5000001    1    1    2    0    0 -0.45378260556E+02 -0.86123176149E+02  0.57795802400E+03  0.61674619213E+03  0.19200000000E+03 0.  0.
<mgrwt>
<rscale>  0 0.43054626E+03</rscale>
<asrwt>0</asrwt>
<pdfrwt beam="1">  1        2 0.17183772E+00 0.43054626E+03</pdfrwt>
<pdfrwt beam="2">  1       -2 0.55038307E-02 0.43054626E+03</pdfrwt>
<totfact> 0.37905154E+03</totfact>
</mgrwt>
</event>
<event>
 4    1  0.5900026E-005  0.9265035E+03  0.7818608E-02  0.9393044E-01
          2   -1    0    0  501    0  0.00000000000E+00  0.00000000000E+00  0.32666151609E+04  0.32666151609E+04  0.25500000000E-02 0.  1.
         -2   -1    0    0    0  501 -0.00000000000E+00 -0.00000000000E+00 -0.65695585251E+02  0.65695585301E+02  0.25500000000E-02 0. -1.
    5000001    1    1    2    0    0  0.10417875148E+03 -0.40772068044E+03  0.16920741712E+04  0.17541574519E+04  0.19200000000E+03 0.  0.
   -5000001    1    1    2    0    0 -0.10417875148E+03  0.40772068044E+03  0.15088454044E+04  0.15781532942E+04  0.19200000000E+03 0.  0.
<mgrwt>
<rscale>  0 0.92650352E+03</rscale>
<asrwt>0</asrwt>
<pdfrwt beam="1">  1        2 0.46665938E+00 0.92650352E+03</pdfrwt>
<pdfrwt beam="2">  1       -2 0.93850821E-02 0.92650352E+03</pdfrwt>
<totfact> 0.13081774E+02</totfact>
</mgrwt>
</event>
<event>
 4    1  0.5900026E-005  0.6228314E+03  0.7818608E-02  0.9859139E-01
          2   -1    0    0  501    0  0.00000000000E+00  0.00000000000E+00  0.64322604980E+03  0.64322604981E+03  0.25500000000E-02 0.  1.
         -2   -1    0    0    0  501 -0.00000000000E+00 -0.00000000000E+00 -0.15077083241E+03  0.15077083243E+03  0.25500000000E-02 0. -1.
    5000001    1    1    2    0    0  0.21744366132E+03  0.95588048825E+02  0.32373935635E+03  0.44507301848E+03  0.19200000000E+03 0.  0.
   -5000001    1    1    2    0    0 -0.21744366132E+03 -0.95588048825E+02  0.16871586104E+03  0.34892386375E+03  0.19200000000E+03 0.  0.
<mgrwt>
<rscale>  0 0.62283136E+03</rscale>
<asrwt>0</asrwt>
<pdfrwt beam="1">  1        2 0.91889435E-01 0.62283136E+03</pdfrwt>
<pdfrwt beam="2">  1       -2 0.21538691E-01 0.62283136E+03</pdfrwt>
<totfact> 0.93691147E+02</totfact>
</mgrwt>
</event>
<event>
 4    1  0.5900026E-005  0.4890881E+03  0.7818608E-02  0.1016667E+00
          2   -1    0    0  501    0  0.00000000000E+00  0.00000000000E+00  0.24112077454E+04  0.24112077454E+04  0.25500000000E-02 0.  1.
         -2   -1    0    0    0  501 -0.00000000000E+00 -0.00000000000E+00 -0.24801596909E+02  0.24801597040E+02  0.25500000000E-02 0. -1.
    5000001    1    1    2    0    0  0.28067620901E+02  0.13791724629E+03  0.91460134364E+03  0.94507596306E+03  0.19200000000E+03 0.  0.
   -5000001    1    1    2    0    0 -0.28067620901E+02 -0.13791724629E+03  0.14718048048E+04  0.14909333794E+04  0.19200000000E+03 0.  0.
<mgrwt>
<rscale>  0 0.48908814E+03</rscale>
<asrwt>0</asrwt>
<pdfrwt beam="1">  1        2 0.34445834E+00 0.48908814E+03</pdfrwt>
<pdfrwt beam="2">  1       -2 0.35430843E-02 0.48908814E+03</pdfrwt>
<totfact> 0.18023797E+03</totfact>
</mgrwt>
</event>
<event>
 4    1  0.5900026E-005  0.5339579E+03  0.7818608E-02  0.1005277E+00
         -2   -1    0    0    0  501 -0.00000000000E+00  0.00000000000E+00  0.29217793484E+02  0.29217793595E+02  0.25500000000E-02 0. -1.
          2   -1    0    0  501    0  0.00000000000E+00 -0.00000000000E+00 -0.24395327125E+04  0.24395327125E+04  0.25500000000E-02 0.  1.
    5000001    1    1    2    0    0 -0.11897567315E+03  0.81173479177E+01 -0.54815506503E+03  0.59292417513E+03  0.19200000000E+03 0.  0.
   -5000001    1    1    2    0    0  0.11897567315E+03 -0.81173479177E+01 -0.18621598540E+04  0.18758263310E+04  0.19200000000E+03 0.  0.
<mgrwt>
<rscale>  0 0.53395791E+03</rscale>
<asrwt>0</asrwt>
<pdfrwt beam="1">  1        2 0.34850454E+00 0.53395791E+03</pdfrwt>
<pdfrwt beam="2">  1       -2 0.41739721E-02 0.53395791E+03</pdfrwt>
<totfact> 0.13536448E+03</totfact>
</mgrwt>
</event>
<event>
 4    1  0.5900026E-005  0.5321675E+03  0.7818608E-02  0.1005708E+00
         -2   -1    0    0    0  501 -0.00000000000E+00  0.00000000000E+00  0.43723145146E+02  0.43723145221E+02  0.25500000000E-02 0. -1.
          2   -1    0    0  501    0  0.00000000000E+00 -0.00000000000E+00 -0.16192925005E+04  0.16192925005E+04  0.25500000000E-02 0.  1.
    5000001    1    1    2    0    0  0.32375200741E+02  0.16873383270E+03 -0.99547989469E+03  0.10282818099E+04  0.19200000000E+03 0.  0.
   -5000001    1    1    2    0    0 -0.32375200741E+02 -0.16873383270E+03 -0.58008946071E+03  0.63473383583E+03  0.19200000000E+03 0.  0.
<mgrwt>
<rscale>  0 0.53216750E+03</rscale>
<asrwt>0</asrwt>
<pdfrwt beam="1">  1        2 0.23132746E+00 0.53216750E+03</pdfrwt>
<pdfrwt beam="2">  1       -2 0.62461646E-02 0.53216750E+03</pdfrwt>
<totfact> 0.18752185E+03</totfact>
</mgrwt>
</event>
<event>
 4    1  0.5900026E-005  0.6767330E+03  0.7818608E-02  0.9757870E-01
          2   -1    0    0  501    0  0.00000000000E+00  0.00000000000E+00  0.14918283103E+04  0.14918283103E+04  0.25500000000E-02 0. -1.
         -2   -1    0    0    0  501 -0.00000000000E+00 -0.00000000000E+00 -0.76746030950E+02  0.76746030993E+02  0.25500000000E-02 0.  1.
    5000001    1    1    2    0    0 -0.83726076704E+02 -0.21649884571E+03  0.10647184251E+04  0.11065130505E+04  0.19200000000E+03 0.  0.
   -5000001    1    1    2    0    0  0.83726076704E+02  0.21649884571E+03  0.35036385425E+03  0.46206129082E+03  0.19200000000E+03 0.  0.
<mgrwt>
<rscale>  0 0.67673304E+03</rscale>
<asrwt>0</asrwt>
<pdfrwt beam="1">  1        2 0.21311834E+00 0.67673304E+03</pdfrwt>
<pdfrwt beam="2">  1       -2 0.10963718E-01 0.67673304E+03</pdfrwt>
<totfact> 0.88281939E+02</totfact>
</mgrwt>
</event>
<event>
 4    1  0.5900026E-005  0.6332303E+03  0.7818608E-02  0.9838765E-01
         -2   -1    0    0    0  501 -0.00000000000E+00  0.00000000000E+00  0.55729623023E+02  0.55729623082E+02  0.25500000000E-02 0. -1.
          2   -1    0    0  501    0  0.00000000000E+00 -0.00000000000E+00 -0.17987768799E+04  0.17987768799E+04  0.25500000000E-02 0.  1.
    5000001    1    1    2    0    0 -0.15301156520E+03  0.15702209326E+03 -0.50912021808E+03  0.58663095155E+03  0.19200000000E+03 0.  0.
   -5000001    1    1    2    0    0  0.15301156520E+03 -0.15702209326E+03 -0.12339270388E+04  0.12678755514E+04  0.19200000000E+03 0.  0.
<mgrwt>
<rscale>  0 0.63323031E+03</rscale>
<asrwt>0</asrwt>
<pdfrwt beam="1">  1        2 0.25696809E+00 0.63323031E+03</pdfrwt>
<pdfrwt beam="2">  1       -2 0.79613759E-02 0.63323031E+03</pdfrwt>
<totfact> 0.10318005E+03</totfact>
</mgrwt>
</event>
<event>
 4    1  0.5900026E-005  0.4786435E+03  0.7818608E-02  0.1019509E+00
         -2   -1    0    0    0  501 -0.00000000000E+00  0.00000000000E+00  0.10828892018E+03  0.10828892021E+03  0.25500000000E-02 0. -1.
          2   -1    0    0  501    0  0.00000000000E+00 -0.00000000000E+00 -0.52890811416E+03  0.52890811417E+03  0.25500000000E-02 0.  1.
    5000001    1    1    2    0    0  0.81313187495E+02 -0.36644603442E+02 -0.35888772539E+03  0.41667620626E+03  0.19200000000E+03 0.  0.
   -5000001    1    1    2    0    0 -0.81313187495E+02  0.36644603442E+02 -0.61731468586E+02  0.22052082812E+03  0.19200000000E+03 0.  0.
<mgrwt>
<rscale>  0 0.47864345E+03</rscale>
<asrwt>0</asrwt>
<pdfrwt beam="1">  1        2 0.75558301E-01 0.47864345E+03</pdfrwt>
<pdfrwt beam="2">  1       -2 0.15469846E-01 0.47864345E+03</pdfrwt>
<totfact> 0.20802403E+03</totfact>
</mgrwt>
</event>
<event>
 4    1  0.5900026E-005  0.8384720E+03  0.7818608E-02  0.9505941E-01
          2   -1    0    0  501    0  0.00000000000E+00  0.00000000000E+00  0.16042310162E+04  0.16042310162E+04  0.25500000000E-02 0.  1.
         -2   -1    0    0    0  501 -0.00000000000E+00 -0.00000000000E+00 -0.10955955313E+03  0.10955955316E+03  0.25500000000E-02 0. -1.
    5000001    1    1    2    0    0  0.76682095778E+01  0.26081586470E+03  0.20343468586E+03  0.38253547303E+03  0.19200000000E+03 0.  0.
   -5000001    1    1    2    0    0 -0.76682095778E+01 -0.26081586470E+03  0.12912367772E+04  0.13312550964E+04  0.19200000000E+03 0.  0.
<mgrwt>
<rscale>  0 0.83847202E+03</rscale>
<asrwt>0</asrwt>
<pdfrwt beam="1">  1        2 0.22917586E+00 0.83847202E+03</pdfrwt>
<pdfrwt beam="2">  1       -2 0.15651365E-01 0.83847202E+03</pdfrwt>
<totfact> 0.42252222E+02</totfact>
</mgrwt>
</event>
<event>
 4    1  0.5900026E-005  0.1412798E+04  0.7818608E-02  0.8944606E-01
          2   -1    0    0  501    0  0.00000000000E+00  0.00000000000E+00  0.25883098490E+04  0.25883098490E+04  0.25500000000E-02 0.  1.
         -2   -1    0    0    0  501 -0.00000000000E+00 -0.00000000000E+00 -0.19278975453E+03  0.19278975455E+03  0.25500000000E-02 0. -1.
    5000001    1    1    2    0    0  0.30286695613E+03 -0.59433052309E+03  0.14557652786E+04  0.16127844587E+04  0.19200000000E+03 0.  0.
   -5000001    1    1    2    0    0 -0.30286695613E+03  0.59433052309E+03  0.93975481589E+03  0.11683151449E+04  0.19200000000E+03 0.  0.
<mgrwt>
<rscale>  0 0.14127981E+04</rscale>
<asrwt>0</asrwt>
<pdfrwt beam="1">  1        2 0.36975856E+00 0.14127981E+04</pdfrwt>
<pdfrwt beam="2">  1       -2 0.27541393E-01 0.14127981E+04</pdfrwt>
<totfact> 0.46421452E+01</totfact>
</mgrwt>
</event>
<event>
 4    1  0.5900026E-005  0.4969177E+03  0.7818608E-02  0.1014587E+00
          2   -1    0    0  501    0  0.00000000000E+00  0.00000000000E+00  0.43934190702E+03  0.43934190703E+03  0.25500000000E-02 0.  1.
         -2   -1    0    0    0  501 -0.00000000000E+00 -0.00000000000E+00 -0.14050971651E+03  0.14050971653E+03  0.25500000000E-02 0. -1.
    5000001    1    1    2    0    0  0.14529063048E+03 -0.93273481796E+01  0.78711016503E+02  0.25348725973E+03  0.19200000000E+03 0.  0.
   -5000001    1    1    2    0    0 -0.14529063048E+03  0.93273481796E+01  0.22012117401E+03  0.32636436383E+03  0.19200000000E+03 0.  0.
<mgrwt>
<rscale>  0 0.49691773E+03</rscale>
<asrwt>0</asrwt>
<pdfrwt beam="1">  1        2 0.62763130E-01 0.49691773E+03</pdfrwt>
<pdfrwt beam="2">  1       -2 0.20072817E-01 0.49691773E+03</pdfrwt>
<totfact> 0.16435549E+03</totfact>
</mgrwt>
</event>
<event>
 4    1  0.5900026E-005  0.4321756E+03  0.7818608E-02  0.1033175E+00
         -2   -1    0    0    0  501 -0.00000000000E+00  0.00000000000E+00  0.97826648068E+02  0.97826648102E+02  0.25500000000E-02 0. -1.
          2   -1    0    0  501    0  0.00000000000E+00 -0.00000000000E+00 -0.47731307340E+03  0.47731307341E+03  0.25500000000E-02 0.  1.
    5000001    1    1    2    0    0  0.65067788836E+02 -0.30144175749E+02 -0.98629987324E+02  0.22745189134E+03  0.19200000000E+03 0.  0.
   -5000001    1    1    2    0    0 -0.65067788836E+02  0.30144175749E+02 -0.28085643801E+03  0.34768783017E+03  0.19200000000E+03 0.  0.
<mgrwt>
<rscale>  0 0.43217560E+03</rscale>
<asrwt>0</asrwt>
<pdfrwt beam="1">  1        2 0.68187581E-01 0.43217560E+03</pdfrwt>
<pdfrwt beam="2">  1       -2 0.13975236E-01 0.43217560E+03</pdfrwt>
<totfact> 0.27646828E+03</totfact>
</mgrwt>
</event>
<event>
 4    1  0.5900026E-005  0.5850579E+03  0.7818608E-02  0.9936900E-01
         -2   -1    0    0    0  501 -0.00000000000E+00  0.00000000000E+00  0.10372688518E+03  0.10372688521E+03  0.25500000000E-02 0. -1.
          2   -1    0    0  501    0  0.00000000000E+00 -0.00000000000E+00 -0.82498559294E+03  0.82498559295E+03  0.25500000000E-02 0.  1.
    5000001    1    1    2    0    0  0.11229647596E+03  0.73234080507E+02 -0.63892234640E+03  0.68048474912E+03  0.19200000000E+03 0.  0.
   -5000001    1    1    2    0    0 -0.11229647596E+03 -0.73234080507E+02 -0.82336361366E+02  0.24822772904E+03  0.19200000000E+03 0.  0.
<mgrwt>
<rscale>  0 0.58505790E+03</rscale>
<asrwt>0</asrwt>
<pdfrwt beam="1">  1        2 0.11785508E+00 0.58505790E+03</pdfrwt>
<pdfrwt beam="2">  1       -2 0.14818127E-01 0.58505790E+03</pdfrwt>
<totfact> 0.13090402E+03</totfact>
</mgrwt>
</event>
<event>
 4    1  0.5900026E-005  0.4526521E+03  0.7818608E-02  0.1026934E+00
         -2   -1    0    0    0  501 -0.00000000000E+00  0.00000000000E+00  0.98396317490E+02  0.98396317523E+02  0.25500000000E-02 0. -1.
          2   -1    0    0  501    0  0.00000000000E+00 -0.00000000000E+00 -0.52058332895E+03  0.52058332896E+03  0.25500000000E-02 0.  1.
    5000001    1    1    2    0    0  0.11361759681E+03 -0.30194343852E+02 -0.17935137891E+03  0.28783949316E+03  0.19200000000E+03 0.  0.
   -5000001    1    1    2    0    0 -0.11361759681E+03  0.30194343852E+02 -0.24283563255E+03  0.33114015332E+03  0.19200000000E+03 0.  0.
<mgrwt>
<rscale>  0 0.45265211E+03</rscale>
<asrwt>0</asrwt>
<pdfrwt beam="1">  1        2 0.74369045E-01 0.45265211E+03</pdfrwt>
<pdfrwt beam="2">  1       -2 0.14056617E-01 0.45265211E+03</pdfrwt>
<totfact> 0.24845828E+03</totfact>
</mgrwt>
</event>
<event>
 4    1  0.5900026E-005  0.6162737E+03  0.7818608E-02  0.9872207E-01
         -2   -1    0    0    0  501 -0.00000000000E+00  0.00000000000E+00  0.10573144947E+03  0.10573144950E+03  0.25500000000E-02 0.  1.
          2   -1    0    0  501    0  0.00000000000E+00 -0.00000000000E+00 -0.89801389894E+03  0.89801389894E+03  0.25500000000E-02 0. -1.
    5000001    1    1    2    0    0  0.21752764145E+03 -0.80995689104E+02 -0.50176723283E+03  0.58524604431E+03  0.19200000000E+03 0.  0.
   -5000001    1    1    2    0    0 -0.21752764145E+03  0.80995689104E+02 -0.29051521664E+03  0.41849930412E+03  0.19200000000E+03 0.  0.
<mgrwt>
<rscale>  0 0.61627368E+03</rscale>
<asrwt>0</asrwt>
<pdfrwt beam="1">  1        2 0.12828770E+00 0.61627368E+03</pdfrwt>
<pdfrwt beam="2">  1       -2 0.15104493E-01 0.61627368E+03</pdfrwt>
<totfact> 0.11332423E+03</totfact>
</mgrwt>
</event>
<event>
 4    1  0.5900026E-005  0.4704313E+03  0.7818608E-02  0.1021799E+00
          2   -1    0    0  501    0  0.00000000000E+00  0.00000000000E+00  0.91869740693E+03  0.91869740693E+03  0.25500000000E-02 0. -1.
         -2   -1    0    0    0  501 -0.00000000000E+00 -0.00000000000E+00 -0.60222650252E+02  0.60222650306E+02  0.25500000000E-02 0.  1.
    5000001    1    1    2    0    0  0.12870555203E+03  0.43370068654E+02  0.43764139745E+03  0.49683002600E+03  0.19200000000E+03 0.  0.
   -5000001    1    1    2    0    0 -0.12870555203E+03 -0.43370068654E+02  0.42083335923E+03  0.48209003124E+03  0.19200000000E+03 0.  0.
<mgrwt>
<rscale>  0 0.47043126E+03</rscale>
<asrwt>0</asrwt>
<pdfrwt beam="1">  1        2 0.13124248E+00 0.47043126E+03</pdfrwt>
<pdfrwt beam="2">  1       -2 0.86032362E-02 0.47043126E+03</pdfrwt>
<totfact> 0.27643875E+03</totfact>
</mgrwt>
</event>
<event>
 4    1  0.5900026E-005  0.5825880E+03  0.7818608E-02  0.9942204E-01
          2   -1    0    0  501    0  0.00000000000E+00  0.00000000000E+00  0.21997451512E+04  0.21997451512E+04  0.25500000000E-02 0.  1.
         -2   -1    0    0    0  501 -0.00000000000E+00 -0.00000000000E+00 -0.38573648536E+02  0.38573648620E+02  0.25500000000E-02 0. -1.
    5000001    1    1    2    0    0  0.12525109691E+03 -0.11989320254E+03  0.15949868005E+04  0.16158307805E+04  0.19200000000E+03 0.  0.
   -5000001    1    1    2    0    0 -0.12525109691E+03  0.11989320254E+03  0.56618470219E+03  0.62248801940E+03  0.19200000000E+03 0.  0.
<mgrwt>
<rscale>  0 0.58258801E+03</rscale>
<asrwt>0</asrwt>
<pdfrwt beam="1">  1        2 0.31424933E+00 0.58258801E+03</pdfrwt>
<pdfrwt beam="2">  1       -2 0.55105208E-02 0.58258801E+03</pdfrwt>
<totfact> 0.11610948E+03</totfact>
</mgrwt>
</event>
<event>
 4    1  0.5900026E-005  0.5710701E+03  0.7818608E-02  0.9967314E-01
          2   -1    0    0  501    0  0.00000000000E+00  0.00000000000E+00  0.16014830771E+03  0.16014830773E+03  0.25500000000E-02 0.  1.
         -2   -1    0    0    0  501 -0.00000000000E+00 -0.00000000000E+00 -0.50909219522E+03  0.50909219523E+03  0.25500000000E-02 0. -1.
    5000001    1    1    2    0    0 -0.19927500109E+03 -0.39087038636E+02 -0.24308533007E+03  0.37039546479E+03  0.19200000000E+03 0.  0.
   -5000001    1    1    2    0    0  0.19927500109E+03  0.39087038636E+02 -0.10585855745E+03  0.29884503816E+03  0.19200000000E+03 0.  0.
<mgrwt>
<rscale>  0 0.57107006E+03</rscale>
<asrwt>0</asrwt>
<pdfrwt beam="1">  1        2 0.22878330E-01 0.57107006E+03</pdfrwt>
<pdfrwt beam="2">  1       -2 0.72727456E-01 0.57107006E+03</pdfrwt>
<totfact> 0.41895798E+02</totfact>
</mgrwt>
</event>
<event>
 4    1  0.5900026E-005  0.4211504E+03  0.7818608E-02  0.1036693E+00
         -2   -1    0    0    0  501 -0.00000000000E+00  0.00000000000E+00  0.26012011436E+02  0.26012011561E+02  0.25500000000E-02 0. -1.
          2   -1    0    0  501    0  0.00000000000E+00 -0.00000000000E+00 -0.17046705899E+04  0.17046705899E+04  0.25500000000E-02 0.  1.
    5000001    1    1    2    0    0  0.62942326941E+02  0.62818777456E+01 -0.59702303861E+03  0.63031873456E+03  0.19200000000E+03 0.  0.
   -5000001    1    1    2    0    0 -0.62942326941E+02 -0.62818777456E+01 -0.10816355399E+04  0.11003638669E+04  0.19200000000E+03 0.  0.
<mgrwt>
<rscale>  0 0.42115038E+03</rscale>
<asrwt>0</asrwt>
<pdfrwt beam="1">  1        2 0.24352430E+00 0.42115038E+03</pdfrwt>
<pdfrwt beam="2">  1       -2 0.37160027E-02 0.42115038E+03</pdfrwt>
<totfact> 0.37872678E+03</totfact>
</mgrwt>
</event>
<event>
 4    1  0.5900026E-005  0.7227137E+03  0.7818608E-02  0.9679158E-01
          2   -1    0    0  501    0  0.00000000000E+00  0.00000000000E+00  0.79742814667E+03  0.79742814668E+03  0.25500000000E-02 0. -1.
         -2   -1    0    0    0  501 -0.00000000000E+00 -0.00000000000E+00 -0.16374987420E+03  0.16374987422E+03  0.25500000000E-02 0.  1.
    5000001    1    1    2    0    0  0.22119653508E+03  0.99630044870E+02  0.68522592255E+02  0.31688073249E+03  0.19200000000E+03 0.  0.
   -5000001    1    1    2    0    0 -0.22119653508E+03 -0.99630044870E+02  0.56515568022E+03  0.64429728841E+03  0.19200000000E+03 0.  0.
<mgrwt>
<rscale>  0 0.72271366E+03</rscale>
<asrwt>0</asrwt>
<pdfrwt beam="1">  1        2 0.11391831E+00 0.72271366E+03</pdfrwt>
<pdfrwt beam="2">  1       -2 0.23392839E-01 0.72271366E+03</pdfrwt>
<totfact> 0.61881295E+02</totfact>
</mgrwt>
</event>
<event>
 4    1  0.5900026E-005  0.4471216E+03  0.7818608E-02  0.1028584E+00
          2   -1    0    0  501    0  0.00000000000E+00  0.00000000000E+00  0.71626654440E+03  0.71626654441E+03  0.25500000000E-02 0.  1.
         -2   -1    0    0    0  501 -0.00000000000E+00 -0.00000000000E+00 -0.69777691193E+02  0.69777691240E+02  0.25500000000E-02 0. -1.
    5000001    1    1    2    0    0  0.11228359584E+03 -0.17774556619E+02  0.29889202004E+03  0.37299327126E+03  0.19200000000E+03 0.  0.
   -5000001    1    1    2    0    0 -0.11228359584E+03  0.17774556619E+02  0.34759683317E+03  0.41305096439E+03  0.19200000000E+03 0.  0.
<mgrwt>
<rscale>  0 0.44712158E+03</rscale>
<asrwt>0</asrwt>
<pdfrwt beam="1">  1        2 0.10232379E+00 0.44712158E+03</pdfrwt>
<pdfrwt beam="2">  1       -2 0.99682415E-02 0.44712158E+03</pdfrwt>
<totfact> 0.29971904E+03</totfact>
</mgrwt>
</event>
<event>
 4    1  0.5900026E-005  0.4642132E+03  0.7818608E-02  0.1023566E+00
         -2   -1    0    0    0  501 -0.00000000000E+00  0.00000000000E+00  0.63112987918E+02  0.63112987970E+02  0.25500000000E-02 0.  1.
          2   -1    0    0  501    0  0.00000000000E+00 -0.00000000000E+00 -0.85360354216E+03  0.85360354217E+03  0.25500000000E-02 0. -1.
    5000001    1    1    2    0    0 -0.80344560553E+02  0.10133698532E+03 -0.36190507260E+03  0.42960879248E+03  0.19200000000E+03 0.  0.
   -5000001    1    1    2    0    0  0.80344560553E+02 -0.10133698532E+03 -0.42858548165E+03  0.48710773766E+03  0.19200000000E+03 0.  0.
<mgrwt>
<rscale>  0 0.46421318E+03</rscale>
<asrwt>0</asrwt>
<pdfrwt beam="1">  1        2 0.12194336E+00 0.46421318E+03</pdfrwt>
<pdfrwt beam="2">  1       -2 0.90161417E-02 0.46421318E+03</pdfrwt>
<totfact> 0.28255843E+03</totfact>
</mgrwt>
</event>
<event>
 4    1  0.5900026E-005  0.8012732E+03  0.7818608E-02  0.9558176E-01
         -2   -1    0    0    0  501 -0.00000000000E+00  0.00000000000E+00  0.42693309712E+03  0.42693309713E+03  0.25500000000E-02 0. -1.
          2   -1    0    0  501    0  0.00000000000E+00 -0.00000000000E+00 -0.37595982623E+03  0.37595982624E+03  0.25500000000E-02 0.  1.
    5000001    1    1    2    0    0  0.64614501304E+02 -0.33912349271E+03 -0.41475959279E+02  0.39719520678E+03  0.19200000000E+03 0.  0.
   -5000001    1    1    2    0    0 -0.64614501304E+02  0.33912349271E+03  0.92449230175E+02  0.40569771659E+03  0.19200000000E+03 0.  0.
<mgrwt>
<rscale>  0 0.80127322E+03</rscale>
<asrwt>0</asrwt>
<pdfrwt beam="1">  1        2 0.53708547E-01 0.80127322E+03</pdfrwt>
<pdfrwt beam="2">  1       -2 0.60990442E-01 0.80127322E+03</pdfrwt>
<totfact> 0.23353993E+02</totfact>
</mgrwt>
</event>
<event>
 4    1  0.5900026E-005  0.4902014E+03  0.7818608E-02  0.1016369E+00
         -2   -1    0    0    0  501 -0.00000000000E+00  0.00000000000E+00  0.28262670291E+02  0.28262670406E+02  0.25500000000E-02 0. -1.
          2   -1    0    0  501    0  0.00000000000E+00 -0.00000000000E+00 -0.21255725798E+04  0.21255725798E+04  0.25500000000E-02 0.  1.
    5000001    1    1    2    0    0  0.14932565196E+03 -0.27260689207E+02 -0.99152545420E+03  0.10212874335E+04  0.19200000000E+03 0.  0.
   -5000001    1    1    2    0    0 -0.14932565196E+03  0.27260689207E+02 -0.11057844553E+04  0.11325478167E+04  0.19200000000E+03 0.  0.
<mgrwt>
<rscale>  0 0.49020142E+03</rscale>
<asrwt>0</asrwt>
<pdfrwt beam="1">  1        2 0.30365313E+00 0.49020142E+03</pdfrwt>
<pdfrwt beam="2">  1       -2 0.40375257E-02 0.49020142E+03</pdfrwt>
<totfact> 0.20543587E+03</totfact>
</mgrwt>
</event>
<event>
 4    1  0.5900026E-005  0.6903362E+03  0.7818608E-02  0.9733903E-01
          2   -1    0    0  501    0  0.00000000000E+00  0.00000000000E+00  0.48185833473E+02  0.48185833541E+02  0.25500000000E-02 0.  1.
         -2   -1    0    0    0  501 -0.00000000000E+00 -0.00000000000E+00 -0.24725320389E+04  0.24725320389E+04  0.25500000000E-02 0. -1.
    5000001    1    1    2    0    0  0.27462942937E+03  0.53219465822E+02 -0.14437841316E+04  0.14831150507E+04  0.19200000000E+03 0.  0.
   -5000001    1    1    2    0    0 -0.27462942937E+03 -0.53219465822E+02 -0.98056207382E+03  0.10376028217E+04  0.19200000000E+03 0.  0.
<mgrwt>
<rscale>  0 0.69033620E+03</rscale>
<asrwt>0</asrwt>
<pdfrwt beam="1">  1        2 0.68836920E-02 0.69033620E+03</pdfrwt>
<pdfrwt beam="2">  1       -2 0.35321878E+00 0.69033620E+03</pdfrwt>
<totfact> 0.17032066E+01</totfact>
</mgrwt>
</event>
<event>
 4    1  0.5900026E-005  0.5528529E+03  0.7818608E-02  0.1000836E+00
         -2   -1    0    0    0  501 -0.00000000000E+00  0.00000000000E+00  0.12001528221E+03  0.12001528224E+03  0.25500000000E-02 0. -1.
          2   -1    0    0  501    0  0.00000000000E+00 -0.00000000000E+00 -0.63668214986E+03  0.63668214987E+03  0.25500000000E-02 0.  1.
    5000001    1    1    2    0    0 -0.19369315144E+03  0.16149630987E+02 -0.20075399390E+03  0.33903394161E+03  0.19200000000E+03 0.  0.
   -5000001    1    1    2    0    0  0.19369315144E+03 -0.16149630987E+02 -0.31591287375E+03  0.41766349050E+03  0.19200000000E+03 0.  0.
<mgrwt>
<rscale>  0 0.55285292E+03</rscale>
<asrwt>0</asrwt>
<pdfrwt beam="1">  1        2 0.90954591E-01 0.55285292E+03</pdfrwt>
<pdfrwt beam="2">  1       -2 0.17145041E-01 0.55285292E+03</pdfrwt>
<totfact> 0.14091686E+03</totfact>
</mgrwt>
</event>
<event>
 4    1  0.5900026E-005  0.4349249E+03  0.7818608E-02  0.1032315E+00
          2   -1    0    0  501    0  0.00000000000E+00  0.00000000000E+00  0.65527748622E+03  0.65527748623E+03  0.25500000000E-02 0.  1.
         -2   -1    0    0    0  501 -0.00000000000E+00 -0.00000000000E+00 -0.72167770333E+02  0.72167770378E+02  0.25500000000E-02 0. -1.
    5000001    1    1    2    0    0 -0.63340413712E+02  0.71662613216E+02  0.23175288275E+03  0.31578622010E+03  0.19200000000E+03 0.  0.
   -5000001    1    1    2    0    0  0.63340413712E+02 -0.71662613216E+02  0.35135683315E+03  0.41165903651E+03  0.19200000000E+03 0.  0.
<mgrwt>
<rscale>  0 0.43492489E+03</rscale>
<asrwt>0</asrwt>
<pdfrwt beam="1">  1        2 0.93611063E-01 0.43492489E+03</pdfrwt>
<pdfrwt beam="2">  1       -2 0.10309682E-01 0.43492489E+03</pdfrwt>
<totfact> 0.31587591E+03</totfact>
</mgrwt>
</event>
<event>
 4    1  0.5900026E-005  0.5302200E+03  0.7818608E-02  0.1006179E+00
          2   -1    0    0  501    0  0.00000000000E+00  0.00000000000E+00  0.72329822786E+03  0.72329822786E+03  0.25500000000E-02 0.  1.
         -2   -1    0    0    0  501 -0.00000000000E+00 -0.00000000000E+00 -0.97170596066E+02  0.97170596100E+02  0.25500000000E-02 0. -1.
    5000001    1    1    2    0    0 -0.10657145050E+03  0.13253357605E+03  0.41682926530E+03  0.48942135145E+03  0.19200000000E+03 0.  0.
   -5000001    1    1    2    0    0  0.10657145050E+03 -0.13253357605E+03  0.20929836649E+03  0.33104747251E+03  0.19200000000E+03 0.  0.
<mgrwt>
<rscale>  0 0.53022003E+03</rscale>
<asrwt>0</asrwt>
<pdfrwt beam="1">  1        2 0.10332832E+00 0.53022003E+03</pdfrwt>
<pdfrwt beam="2">  1       -2 0.13881513E-01 0.53022003E+03</pdfrwt>
<totfact> 0.17239804E+03</totfact>
</mgrwt>
</event>
<event>
 4    1  0.5900026E-005  0.5710422E+03  0.7818608E-02  0.9967375E-01
          2   -1    0    0  501    0  0.00000000000E+00  0.00000000000E+00  0.58733005810E+03  0.58733005810E+03  0.25500000000E-02 0.  1.
         -2   -1    0    0    0  501 -0.00000000000E+00 -0.00000000000E+00 -0.13880152455E+03  0.13880152457E+03  0.25500000000E-02 0. -1.
    5000001    1    1    2    0    0 -0.12685341699E+03  0.11480256558E+03  0.66531286306E+02  0.26563476904E+03  0.19200000000E+03 0.  0.
   -5000001    1    1    2    0    0  0.12685341699E+03 -0.11480256558E+03  0.38199724724E+03  0.46049681363E+03  0.19200000000E+03 0.  0.
<mgrwt>
<rscale>  0 0.57104223E+03</rscale>
<asrwt>0</asrwt>
<pdfrwt beam="1">  1        2 0.83904295E-01 0.57104223E+03</pdfrwt>
<pdfrwt beam="2">  1       -2 0.19828789E-01 0.57104223E+03</pdfrwt>
<totfact> 0.12064629E+03</totfact>
</mgrwt>
</event>
<event>
 4    1  0.5900026E-005  0.8118833E+03  0.7818608E-02  0.9542974E-01
          2   -1    0    0  501    0  0.00000000000E+00  0.00000000000E+00  0.31098197437E+04  0.31098197437E+04  0.25500000000E-02 0.  1.
         -2   -1    0    0    0  501 -0.00000000000E+00 -0.00000000000E+00 -0.52989765672E+02  0.52989765733E+02  0.25500000000E-02 0. -1.
    5000001    1    1    2    0    0 -0.28521081248E+03 -0.15384298281E+03  0.21180843340E+04  0.21513154387E+04  0.19200000000E+03 0.  0.
   -5000001    1    1    2    0    0  0.28521081248E+03  0.15384298281E+03  0.93874564401E+03  0.10114940707E+04  0.19200000000E+03 0.  0.
<mgrwt>
<rscale>  0 0.81188329E+03</rscale>
<asrwt>0</asrwt>
<pdfrwt beam="1">  1        2 0.44425999E+00 0.81188329E+03</pdfrwt>
<pdfrwt beam="2">  1       -2 0.75699660E-02 0.81188329E+03</pdfrwt>
<totfact> 0.22951359E+02</totfact>
</mgrwt>
</event>
<event>
 4    1  0.5900026E-005  0.4363405E+03  0.7818608E-02  0.1031876E+00
          2   -1    0    0  501    0  0.00000000000E+00  0.00000000000E+00  0.14759783309E+04  0.14759783309E+04  0.25500000000E-02 0.  1.
         -2   -1    0    0    0  501 -0.00000000000E+00 -0.00000000000E+00 -0.32248617092E+02  0.32248617193E+02  0.25500000000E-02 0. -1.
    5000001    1    1    2    0    0  0.92652060357E+02 -0.41501613625E+02  0.79333011050E+03  0.82252261516E+03  0.19200000000E+03 0.  0.
   -5000001    1    1    2    0    0 -0.92652060357E+02  0.41501613625E+02  0.65039960328E+03  0.68570433291E+03  0.19200000000E+03 0.  0.
<mgrwt>
<rscale>  0 0.43634051E+03</rscale>
<asrwt>0</asrwt>
<pdfrwt beam="1">  1        2 0.21085409E+00 0.43634051E+03</pdfrwt>
<pdfrwt beam="2">  1       -2 0.46069444E-02 0.43634051E+03</pdfrwt>
<totfact> 0.35657935E+03</totfact>
</mgrwt>
</event>
<event>
 4    1  0.5900026E-005  0.4739174E+03  0.7818608E-02  0.1020820E+00
         -2   -1    0    0    0  501 -0.00000000000E+00  0.00000000000E+00  0.51293025530E+02  0.51293025594E+02  0.25500000000E-02 0. -1.
          2   -1    0    0  501    0  0.00000000000E+00 -0.00000000000E+00 -0.10946793795E+04  0.10946793795E+04  0.25500000000E-02 0.  1.
    5000001    1    1    2    0    0  0.12807336896E+03 -0.44815713352E+02 -0.45019872908E+03  0.50789185037E+03  0.19200000000E+03 0.  0.
   -5000001    1    1    2    0    0 -0.12807336896E+03  0.44815713352E+02 -0.59318762484E+03  0.63808055468E+03  0.19200000000E+03 0.  0.
<mgrwt>
<rscale>  0 0.47391737E+03</rscale>
<asrwt>0</asrwt>
<pdfrwt beam="1">  1        2 0.15638275E+00 0.47391737E+03</pdfrwt>
<pdfrwt beam="2">  1       -2 0.73275758E-02 0.47391737E+03</pdfrwt>
<totfact> 0.27921280E+03</totfact>
</mgrwt>
</event>
<event>
 4    1  0.5900026E-005  0.7353674E+03  0.7818608E-02  0.9658590E-01
         -2   -1    0    0    0  501 -0.00000000000E+00  0.00000000000E+00  0.35455194301E+03  0.35455194302E+03  0.25500000000E-02 0. -1.
          2   -1    0    0  501    0  0.00000000000E+00 -0.00000000000E+00 -0.38130179126E+03  0.38130179126E+03  0.25500000000E-02 0.  1.
    5000001    1    1    2    0    0  0.24031697103E+03 -0.18121612430E+03 -0.10138626917E+03  0.37112626672E+03  0.19200000000E+03 0.  0.
   -5000001    1    1    2    0    0 -0.24031697103E+03  0.18121612430E+03  0.74636420926E+02  0.36472746757E+03  0.19200000000E+03 0.  0.
<mgrwt>
<rscale>  0 0.73536737E+03</rscale>
<asrwt>0</asrwt>
<pdfrwt beam="1">  1        2 0.54471685E-01 0.73536737E+03</pdfrwt>
<pdfrwt beam="2">  1       -2 0.50650278E-01 0.73536737E+03</pdfrwt>
<totfact> 0.33892251E+02</totfact>
</mgrwt>
</event>
<event>
 4    1  0.5900026E-005  0.6218283E+03  0.7818608E-02  0.9861126E-01
         -2   -1    0    0    0  501 -0.00000000000E+00  0.00000000000E+00  0.10708003853E+03  0.10708003856E+03  0.25500000000E-02 0. -1.
          2   -1    0    0  501    0  0.00000000000E+00 -0.00000000000E+00 -0.90276042259E+03  0.90276042260E+03  0.25500000000E-02 0.  1.
    5000001    1    1    2    0    0  0.24192778623E+03 -0.55488619128E+01 -0.34056671391E+03  0.45979292105E+03  0.19200000000E+03 0.  0.
   -5000001    1    1    2    0    0 -0.24192778623E+03  0.55488619128E+01 -0.45511367015E+03  0.55004754011E+03  0.19200000000E+03 0.  0.
<mgrwt>
<rscale>  0 0.62182834E+03</rscale>
<asrwt>0</asrwt>
<pdfrwt beam="1">  1        2 0.12896577E+00 0.62182834E+03</pdfrwt>
<pdfrwt beam="2">  1       -2 0.15297149E-01 0.62182834E+03</pdfrwt>
<totfact> 0.11013339E+03</totfact>
</mgrwt>
</event>
<event>
 4    1  0.5900026E-005  0.5435073E+03  0.7818608E-02  0.1003008E+00
         -2   -1    0    0    0  501 -0.00000000000E+00  0.00000000000E+00  0.13313230749E+03  0.13313230751E+03  0.25500000000E-02 0. -1.
          2   -1    0    0  501    0  0.00000000000E+00 -0.00000000000E+00 -0.55471163890E+03  0.55471163891E+03  0.25500000000E-02 0.  1.
    5000001    1    1    2    0    0 -0.75226086976E+02  0.17137225509E+03 -0.15478033679E+03  0.30959387370E+03  0.19200000000E+03 0.  0.
   -5000001    1    1    2    0    0  0.75226086976E+02 -0.17137225509E+03 -0.26679899462E+03  0.37825007271E+03  0.19200000000E+03 0.  0.
<mgrwt>
<rscale>  0 0.54350728E+03</rscale>
<asrwt>0</asrwt>
<pdfrwt beam="1">  1        2 0.79244519E-01 0.54350728E+03</pdfrwt>
<pdfrwt beam="2">  1       -2 0.19018901E-01 0.54350728E+03</pdfrwt>
<totfact> 0.13860538E+03</totfact>
</mgrwt>
</event>
<event>
 4    1  0.5900026E-005  0.9147396E+03  0.7818608E-02  0.9407342E-01
         -2   -1    0    0    0  501 -0.00000000000E+00  0.00000000000E+00  0.45887212553E+03  0.45887212554E+03  0.25500000000E-02 0. -1.
          2   -1    0    0  501    0  0.00000000000E+00 -0.00000000000E+00 -0.45587236360E+03  0.45587236361E+03  0.25500000000E-02 0.  1.
    5000001    1    1    2    0    0 -0.27063654549E+03  0.25923394723E+03 -0.17704166635E+03  0.45678674541E+03  0.19200000000E+03 0.  0.
   -5000001    1    1    2    0    0  0.27063654549E+03 -0.25923394723E+03  0.18004142828E+03  0.45795774374E+03  0.19200000000E+03 0.  0.
<mgrwt>
<rscale>  0 0.91473957E+03</rscale>
<asrwt>0</asrwt>
<pdfrwt beam="1">  1        2 0.65124623E-01 0.91473957E+03</pdfrwt>
<pdfrwt beam="2">  1       -2 0.65553161E-01 0.91473957E+03</pdfrwt>
<totfact> 0.16046087E+02</totfact>
</mgrwt>
</event>
<event>
 4    1  0.5900026E-005  0.4423936E+03  0.7818608E-02  0.1030015E+00
         -2   -1    0    0    0  501 -0.00000000000E+00  0.00000000000E+00  0.11796829841E+03  0.11796829844E+03  0.25500000000E-02 0. -1.
          2   -1    0    0  501    0  0.00000000000E+00 -0.00000000000E+00 -0.41475561667E+03  0.41475561668E+03  0.25500000000E-02 0.  1.
    5000001    1    1    2    0    0  0.93157599846E+02  0.22236918787E+02 -0.21314251883E+03  0.30243437685E+03  0.19200000000E+03 0.  0.
   -5000001    1    1    2    0    0 -0.93157599846E+02 -0.22236918787E+02 -0.83644799421E+02  0.23028953827E+03  0.19200000000E+03 0.  0.
<mgrwt>
<rscale>  0 0.44239355E+03</rscale>
<asrwt>0</asrwt>
<pdfrwt beam="1">  1        2 0.59250802E-01 0.44239355E+03</pdfrwt>
<pdfrwt beam="2">  1       -2 0.16852614E-01 0.44239355E+03</pdfrwt>
<totfact> 0.23617888E+03</totfact>
</mgrwt>
</event>
<event>
 4    1  0.5900026E-005  0.7683579E+03  0.7818608E-02  0.9606982E-01
         -2   -1    0    0    0  501 -0.00000000000E+00  0.00000000000E+00  0.44186713773E+03  0.44186713774E+03  0.25500000000E-02 0. -1.
          2   -1    0    0  501    0  0.00000000000E+00 -0.00000000000E+00 -0.33402225656E+03  0.33402225657E+03  0.25500000000E-02 0.  1.
    5000001    1    1    2    0    0  0.31509464074E+03  0.69440469960E+02 -0.28256137952E+02  0.37652227135E+03  0.19200000000E+03 0.  0.
   -5000001    1    1    2    0    0 -0.31509464074E+03 -0.69440469960E+02  0.13610101912E+03  0.39936712296E+03  0.19200000000E+03 0.  0.
<mgrwt>
<rscale>  0 0.76835788E+03</rscale>
<asrwt>0</asrwt>
<pdfrwt beam="1">  1        2 0.47717465E-01 0.76835788E+03</pdfrwt>
<pdfrwt beam="2">  1       -2 0.63123877E-01 0.76835788E+03</pdfrwt>
<totfact> 0.24791220E+02</totfact>
</mgrwt>
</event>
<event>
 4    1  0.5900026E-005  0.9202891E+03  0.7818608E-02  0.9400569E-01
          2   -1    0    0  501    0  0.00000000000E+00  0.00000000000E+00  0.40299373776E+03  0.40299373777E+03  0.25500000000E-02 0.  1.
         -2   -1    0    0    0  501 -0.00000000000E+00 -0.00000000000E+00 -0.52540023711E+03  0.52540023712E+03  0.25500000000E-02 0. -1.
    5000001    1    1    2    0    0  0.37264390240E+03 -0.12115126741E+03  0.86123654167E+02  0.44477229163E+03  0.19200000000E+03 0.  0.
   -5000001    1    1    2    0    0 -0.37264390240E+03  0.12115126741E+03 -0.20853015352E+03  0.48362168326E+03  0.19200000000E+03 0.  0.
<mgrwt>
<rscale>  0 0.92028910E+03</rscale>
<asrwt>0</asrwt>
<pdfrwt beam="1">  1        2 0.57570534E-01 0.92028910E+03</pdfrwt>
<pdfrwt beam="2">  1       -2 0.75057176E-01 0.92028910E+03</pdfrwt>
<totfact> 0.13712796E+02</totfact>
</mgrwt>
</event>
<event>
 4    1  0.5900026E-005  0.4097515E+03  0.7818608E-02  0.1040454E+00
         -2   -1    0    0    0  501 -0.00000000000E+00  0.00000000000E+00  0.34954965000E+02  0.34954965093E+02  0.25500000000E-02 0. -1.
          2   -1    0    0  501    0  0.00000000000E+00 -0.00000000000E+00 -0.12008042074E+04  0.12008042074E+04  0.25500000000E-02 0.  1.
    5000001    1    1    2    0    0  0.53226165648E+02 -0.20764651026E+02 -0.71249755638E+03  0.74012226239E+03  0.19200000000E+03 0.  0.
   -5000001    1    1    2    0    0 -0.53226165648E+02  0.20764651026E+02 -0.45335168605E+03  0.49563691013E+03  0.19200000000E+03 0.  0.
<mgrwt>
<rscale>  0 0.40975148E+03</rscale>
<asrwt>0</asrwt>
<pdfrwt beam="1">  1        2 0.17154343E+00 0.40975148E+03</pdfrwt>
<pdfrwt beam="2">  1       -2 0.49935672E-02 0.40975148E+03</pdfrwt>
<totfact> 0.44140077E+03</totfact>
</mgrwt>
</event>
<event>
 4    1  0.5900026E-005  0.5113668E+03  0.7818608E-02  0.1010854E+00
          2   -1    0    0  501    0  0.00000000000E+00  0.00000000000E+00  0.17377890144E+03  0.17377890146E+03  0.25500000000E-02 0.  1.
         -2   -1    0    0    0  501 -0.00000000000E+00 -0.00000000000E+00 -0.37619065432E+03  0.37619065433E+03  0.25500000000E-02 0. -1.
    5000001    1    1    2    0    0  0.49460244511E+02  0.46019381165E+02  0.65220326874E+02  0.21373298825E+03  0.19200000000E+03 0.  0.
   -5000001    1    1    2    0    0 -0.49460244511E+02 -0.46019381165E+02 -0.26763207976E+03  0.33623656753E+03  0.19200000000E+03 0.  0.
<mgrwt>
<rscale>  0 0.51136679E+03</rscale>
<asrwt>0</asrwt>
<pdfrwt beam="1">  1        2 0.24825558E-01 0.51136679E+03</pdfrwt>
<pdfrwt beam="2">  1       -2 0.53741522E-01 0.51136679E+03</pdfrwt>
<totfact> 0.72455431E+02</totfact>
</mgrwt>
</event>
<event>
 4    1  0.5900026E-005  0.8195649E+03  0.7818608E-02  0.9532122E-01
          2   -1    0    0  501    0  0.00000000000E+00  0.00000000000E+00  0.23268003113E+04  0.23268003113E+04  0.25500000000E-02 0.  1.
         -2   -1    0    0    0  501 -0.00000000000E+00 -0.00000000000E+00 -0.72168493549E+02  0.72168493594E+02  0.25500000000E-02 0. -1.
    5000001    1    1    2    0    0  0.15000753318E+03  0.25085594899E+03  0.50207010300E+03  0.61185729993E+03  0.19200000000E+03 0.  0.
   -5000001    1    1    2    0    0 -0.15000753318E+03 -0.25085594899E+03  0.17525617148E+04  0.17871115050E+04  0.19200000000E+03 0.  0.
<mgrwt>
<rscale>  0 0.81956494E+03</rscale>
<asrwt>0</asrwt>
<pdfrwt beam="1">  1        2 0.33240009E+00 0.81956494E+03</pdfrwt>
<pdfrwt beam="2">  1       -2 0.10309783E-01 0.81956494E+03</pdfrwt>
<totfact> 0.36286133E+02</totfact>
</mgrwt>
</event>
<event>
 4    1  0.5900026E-005  0.4067049E+03  0.7818608E-02  0.1041482E+00
          2   -1    0    0  501    0  0.00000000000E+00  0.00000000000E+00  0.51824117812E+02  0.51824117875E+02  0.25500000000E-02 0.  1.
         -2   -1    0    0    0  501 -0.00000000000E+00 -0.00000000000E+00 -0.79793376114E+03  0.79793376114E+03  0.25500000000E-02 0. -1.
    5000001    1    1    2    0    0  0.98698239058E+01 -0.62693962906E+02 -0.32822978231E+03  0.38552138255E+03  0.19200000000E+03 0.  0.
   -5000001    1    1    2    0    0 -0.98698239058E+01  0.62693962906E+02 -0.41787986102E+03  0.46423649647E+03  0.19200000000E+03 0.  0.
<mgrwt>
<rscale>  0 0.40670487E+03</rscale>
<asrwt>0</asrwt>
<pdfrwt beam="1">  1        2 0.74034459E-02 0.40670487E+03</pdfrwt>
<pdfrwt beam="2">  1       -2 0.11399053E+00 0.40670487E+03</pdfrwt>
<totfact> 0.59471735E+02</totfact>
</mgrwt>
</event>
<event>
 4    1  0.5900026E-005  0.1520553E+04  0.7818608E-02  0.8870900E-01
         -2   -1    0    0    0  501 -0.00000000000E+00  0.00000000000E+00  0.11006837245E+04  0.11006837245E+04  0.25500000000E-02 0. -1.
          2   -1    0    0  501    0  0.00000000000E+00 -0.00000000000E+00 -0.52514635462E+03  0.52514635462E+03  0.25500000000E-02 0.  1.
    5000001    1    1    2    0    0  0.14376736720E+03 -0.43231020939E+03  0.90533470466E+03  0.10315309498E+04  0.19200000000E+03 0.  0.
   -5000001    1    1    2    0    0 -0.14376736720E+03  0.43231020939E+03 -0.32979733480E+03  0.59429912927E+03  0.19200000000E+03 0.  0.
<mgrwt>
<rscale>  0 0.15205526E+04</rscale>
<asrwt>0</asrwt>
<pdfrwt beam="1">  1        2 0.75020908E-01 0.15205526E+04</pdfrwt>
<pdfrwt beam="2">  1       -2 0.15724053E+00 0.15205526E+04</pdfrwt>
<totfact> 0.16183676E+01</totfact>
</mgrwt>
</event>
<event>
 4    1  0.5900026E-005  0.8995026E+03  0.7818608E-02  0.9426203E-01
         -2   -1    0    0    0  501 -0.00000000000E+00  0.00000000000E+00  0.25118788969E+03  0.25118788970E+03  0.25500000000E-02 0.  1.
          2   -1    0    0  501    0  0.00000000000E+00 -0.00000000000E+00 -0.80527865219E+03  0.80527865220E+03  0.25500000000E-02 0. -1.
    5000001    1    1    2    0    0  0.12013635503E+03  0.19401256406E+03  0.11835973344E+03  0.32085299642E+03  0.19200000000E+03 0.  0.
   -5000001    1    1    2    0    0 -0.12013635503E+03 -0.19401256406E+03 -0.67245049594E+03  0.73561354548E+03  0.19200000000E+03 0.  0.
<mgrwt>
<rscale>  0 0.89950263E+03</rscale>
<asrwt>0</asrwt>
<pdfrwt beam="1">  1        2 0.11503981E+00 0.89950263E+03</pdfrwt>
<pdfrwt beam="2">  1       -2 0.35883985E-01 0.89950263E+03</pdfrwt>
<totfact> 0.27539170E+02</totfact>
</mgrwt>
</event>
<event>
 4    1  0.5900026E-005  0.9572146E+03  0.7818608E-02  0.9356757E-01
         -2   -1    0    0    0  501 -0.00000000000E+00  0.00000000000E+00  0.30291540549E+03  0.30291540550E+03  0.25500000000E-02 0. -1.
          2   -1    0    0  501    0  0.00000000000E+00 -0.00000000000E+00 -0.75620111480E+03  0.75620111481E+03  0.25500000000E-02 0.  1.
    5000001    1    1    2    0    0  0.35012717196E+03 -0.66679700731E+02 -0.50909449601E+03  0.65044325264E+03  0.19200000000E+03 0.  0.
   -5000001    1    1    2    0    0 -0.35012717196E+03  0.66679700731E+02  0.55808786702E+02  0.40867326767E+03  0.19200000000E+03 0.  0.
<mgrwt>
<rscale>  0 0.95721464E+03</rscale>
<asrwt>0</asrwt>
<pdfrwt beam="1">  1        2 0.10802873E+00 0.95721464E+03</pdfrwt>
<pdfrwt beam="2">  1       -2 0.43273630E-01 0.95721464E+03</pdfrwt>
<totfact> 0.20673885E+02</totfact>
</mgrwt>
</event>
<event>
 4    1  0.5900026E-005  0.5537367E+03  0.7818608E-02  0.1000633E+00
          2   -1    0    0  501    0  0.00000000000E+00  0.00000000000E+00  0.15099197871E+04  0.15099197872E+04  0.25500000000E-02 0.  1.
         -2   -1    0    0    0  501 -0.00000000000E+00 -0.00000000000E+00 -0.50768315318E+02  0.50768315382E+02  0.25500000000E-02 0. -1.
    5000001    1    1    2    0    0  0.10999124930E+03  0.12773998430E+03  0.42895616667E+03  0.49928245657E+03  0.19200000000E+03 0.  0.
   -5000001    1    1    2    0    0 -0.10999124930E+03 -0.12773998430E+03  0.10301953052E+04  0.10614056460E+04  0.19200000000E+03 0.  0.
<mgrwt>
<rscale>  0 0.55373670E+03</rscale>
<asrwt>0</asrwt>
<pdfrwt beam="1">  1        2 0.21570279E+00 0.55373670E+03</pdfrwt>
<pdfrwt beam="2">  1       -2 0.72526177E-02 0.55373670E+03</pdfrwt>
<totfact> 0.16864428E+03</totfact>
</mgrwt>
</event>
<event>
 4    1  0.5900026E-005  0.1062445E+04  0.7818608E-02  0.9242589E-01
         -2   -1    0    0    0  501 -0.00000000000E+00  0.00000000000E+00  0.50082453664E+03  0.50082453664E+03  0.25500000000E-02 0. -1.
          2   -1    0    0  501    0  0.00000000000E+00 -0.00000000000E+00 -0.56346558340E+03  0.56346558340E+03  0.25500000000E-02 0.  1.
    5000001    1    1    2    0    0 -0.31387130511E+03  0.37874139418E+03  0.26859160670E+02  0.52872077163E+03  0.19200000000E+03 0.  0.
   -5000001    1    1    2    0    0  0.31387130511E+03 -0.37874139418E+03 -0.89500207429E+02  0.53556934842E+03  0.19200000000E+03 0.  0.
<mgrwt>
<rscale>  0 0.10624451E+04</rscale>
<asrwt>0</asrwt>
<pdfrwt beam="1">  1        2 0.80495083E-01 0.10624451E+04</pdfrwt>
<pdfrwt beam="2">  1       -2 0.71546363E-01 0.10624451E+04</pdfrwt>
<totfact> 0.10315049E+02</totfact>
</mgrwt>
</event>
<event>
 4    1  0.5900026E-005  0.5027139E+03  0.7818608E-02  0.1013073E+00
         -2   -1    0    0    0  501 -0.00000000000E+00  0.00000000000E+00  0.23892271724E+02  0.23892271861E+02  0.25500000000E-02 0. -1.
          2   -1    0    0  501    0  0.00000000000E+00 -0.00000000000E+00 -0.26443831654E+04  0.26443831654E+04  0.25500000000E-02 0.  1.
    5000001    1    1    2    0    0  0.97719701192E+02 -0.12792307446E+03 -0.14167802024E+04  0.14387646072E+04  0.19200000000E+03 0.  0.
   -5000001    1    1    2    0    0 -0.97719701192E+02  0.12792307446E+03 -0.12037106913E+04  0.12295108301E+04  0.19200000000E+03 0.  0.
<mgrwt>
<rscale>  0 0.50271392E+03</rscale>
<asrwt>0</asrwt>
<pdfrwt beam="1">  1        2 0.37776884E+00 0.50271392E+03</pdfrwt>
<pdfrwt beam="2">  1       -2 0.34131834E-02 0.50271392E+03</pdfrwt>
<totfact> 0.14484495E+03</totfact>
</mgrwt>
</event>
<event>
 4    1  0.5900026E-005  0.4267679E+03  0.7818608E-02  0.1034886E+00
         -2   -1    0    0    0  501 -0.00000000000E+00  0.00000000000E+00  0.39265388614E+02  0.39265388697E+02  0.25500000000E-02 0. -1.
          2   -1    0    0  501    0  0.00000000000E+00 -0.00000000000E+00 -0.11596144343E+04  0.11596144343E+04  0.25500000000E-02 0.  1.
    5000001    1    1    2    0    0 -0.52153464012E+02  0.55117455084E+02 -0.71173627550E+03  0.74107384485E+03  0.19200000000E+03 0.  0.
   -5000001    1    1    2    0    0  0.52153464012E+02 -0.55117455084E+02 -0.40861277015E+03  0.45780597811E+03  0.19200000000E+03 0.  0.
<mgrwt>
<rscale>  0 0.42676791E+03</rscale>
<asrwt>0</asrwt>
<pdfrwt beam="1">  1        2 0.16565918E+00 0.42676791E+03</pdfrwt>
<pdfrwt beam="2">  1       -2 0.56093420E-02 0.42676791E+03</pdfrwt>
<totfact> 0.38904681E+03</totfact>
</mgrwt>
</event>
<event>
 4    1  0.5900026E-005  0.4885462E+03  0.7818608E-02  0.1016813E+00
         -2   -1    0    0    0  501 -0.00000000000E+00  0.00000000000E+00  0.67916455285E+02  0.67916455333E+02  0.25500000000E-02 0. -1.
          2   -1    0    0  501    0  0.00000000000E+00 -0.00000000000E+00 -0.87856971132E+03  0.87856971132E+03  0.25500000000E-02 0.  1.
    5000001    1    1    2    0    0 -0.11693073435E+03  0.88931732436E+02 -0.33755553097E+03  0.41519800838E+03  0.19200000000E+03 0.  0.
   -5000001    1    1    2    0    0  0.11693073435E+03 -0.88931732436E+02 -0.47309772506E+03  0.53128815828E+03  0.19200000000E+03 0.  0.
<mgrwt>
<rscale>  0 0.48854617E+03</rscale>
<asrwt>0</asrwt>
<pdfrwt beam="1">  1        2 0.12550995E+00 0.48854617E+03</pdfrwt>
<pdfrwt beam="2">  1       -2 0.97023513E-02 0.48854617E+03</pdfrwt>
<totfact> 0.24197366E+03</totfact>
</mgrwt>
</event>
<event>
 4    1  0.5900026E-005  0.4756438E+03  0.7818608E-02  0.1020339E+00
          2   -1    0    0  501    0  0.00000000000E+00  0.00000000000E+00  0.37078472320E+04  0.37078472320E+04  0.25500000000E-02 0.  1.
         -2   -1    0    0    0  501 -0.00000000000E+00 -0.00000000000E+00 -0.15253934775E+02  0.15253934988E+02  0.25500000000E-02 0. -1.
    5000001    1    1    2    0    0  0.84624569598E+02  0.10355399939E+03  0.15132357535E+04  0.15312188591E+04  0.19200000000E+03 0.  0.
   -5000001    1    1    2    0    0 -0.84624569598E+02 -0.10355399939E+03  0.21793575436E+04  0.21918823079E+04  0.19200000000E+03 0.  0.
<mgrwt>
<rscale>  0 0.47564382E+03</rscale>
<asrwt>0</asrwt>
<pdfrwt beam="1">  1        2 0.52969233E+00 0.47564382E+03</pdfrwt>
<pdfrwt beam="2">  1       -2 0.21791341E-02 0.47564382E+03</pdfrwt>
<totfact> 0.72627406E+02</totfact>
</mgrwt>
</event>
<event>
 4    1  0.5900026E-005  0.6079488E+03  0.7818608E-02  0.9889051E-01
         -2   -1    0    0    0  501 -0.00000000000E+00  0.00000000000E+00  0.20966821368E+03  0.20966821369E+03  0.25500000000E-02 0.  1.
          2   -1    0    0  501    0  0.00000000000E+00 -0.00000000000E+00 -0.44069832725E+03  0.44069832726E+03  0.25500000000E-02 0. -1.
    5000001    1    1    2    0    0 -0.85428705354E+02 -0.13051381431E+03  0.73458001210E+02  0.25805425276E+03  0.19200000000E+03 0.  0.
   -5000001    1    1    2    0    0  0.85428705354E+02  0.13051381431E+03 -0.30448811478E+03  0.39231228820E+03  0.19200000000E+03 0.  0.
<mgrwt>
<rscale>  0 0.60794878E+03</rscale>
<asrwt>0</asrwt>
<pdfrwt beam="1">  1        2 0.62956904E-01 0.60794878E+03</pdfrwt>
<pdfrwt beam="2">  1       -2 0.29952602E-01 0.60794878E+03</pdfrwt>
<totfact> 0.80016575E+02</totfact>
</mgrwt>
</event>
<event>
 4    1  0.5900026E-005  0.1380728E+04  0.7818608E-02  0.8967888E-01
          2   -1    0    0  501    0  0.00000000000E+00  0.00000000000E+00  0.41434398943E+04  0.41434398943E+04  0.25500000000E-02 0.  1.
         -2   -1    0    0    0  501 -0.00000000000E+00 -0.00000000000E+00 -0.11502580663E+03  0.11502580666E+03  0.25500000000E-02 0. -1.
    5000001    1    1    2    0    0  0.21468656452E+03  0.53566355557E+03  0.30217258219E+04  0.30823232648E+04  0.19200000000E+03 0.  0.
   -5000001    1    1    2    0    0 -0.21468656452E+03 -0.53566355557E+03  0.10066882657E+04  0.11761424361E+04  0.19200000000E+03 0.  0.
<mgrwt>
<rscale>  0 0.13807281E+04</rscale>
<asrwt>0</asrwt>
<pdfrwt beam="1">  1        2 0.59192007E+00 0.13807281E+04</pdfrwt>
<pdfrwt beam="2">  1       -2 0.16432256E-01 0.13807281E+04</pdfrwt>
<totfact> 0.13595616E+01</totfact>
</mgrwt>
</event>
<event>
 4    1  0.5900026E-005  0.1126119E+04  0.7818608E-02  0.9180102E-01
         -2   -1    0    0    0  501 -0.00000000000E+00  0.00000000000E+00  0.68182719955E+03  0.68182719956E+03  0.25500000000E-02 0. -1.
          2   -1    0    0  501    0  0.00000000000E+00 -0.00000000000E+00 -0.46498025921E+03  0.46498025922E+03  0.25500000000E-02 0.  1.
    5000001    1    1    2    0    0  0.49931183514E+03 -0.17559958183E+03  0.11348121205E+03  0.57436008509E+03  0.19200000000E+03 0.  0.
   -5000001    1    1    2    0    0 -0.49931183514E+03  0.17559958183E+03  0.10336572829E+03  0.57244737368E+03  0.19200000000E+03 0.  0.
<mgrwt>
<rscale>  0 0.11261193E+04</rscale>
<asrwt>0</asrwt>
<pdfrwt beam="1">  1        2 0.66425751E-01 0.11261193E+04</pdfrwt>
<pdfrwt beam="2">  1       -2 0.97403886E-01 0.11261193E+04</pdfrwt>
<totfact> 0.63635941E+01</totfact>
</mgrwt>
</event>
<event>
 4    1  0.5900026E-005  0.1079637E+04  0.7818608E-02  0.9225269E-01
         -2   -1    0    0    0  501 -0.00000000000E+00  0.00000000000E+00  0.92327727263E+03  0.92327727264E+03  0.25500000000E-02 0. -1.
          2   -1    0    0  501    0  0.00000000000E+00 -0.00000000000E+00 -0.31561922647E+03  0.31561922648E+03  0.25500000000E-02 0.  1.
    5000001    1    1    2    0    0  0.20615393298E+03  0.33316187268E+03  0.66859307106E+03  0.79835892439E+03  0.19200000000E+03 0.  0.
   -5000001    1    1    2    0    0 -0.20615393298E+03 -0.33316187268E+03 -0.60935024898E+02  0.44053757473E+03  0.19200000000E+03 0.  0.
<mgrwt>
<rscale>  0 0.10796371E+04</rscale>
<asrwt>0</asrwt>
<pdfrwt beam="1">  1        2 0.45088461E-01 0.10796371E+04</pdfrwt>
<pdfrwt beam="2">  1       -2 0.13189675E+00 0.10796371E+04</pdfrwt>
<totfact> 0.46899857E+01</totfact>
</mgrwt>
</event>
<event>
 4    1  0.5900026E-005  0.8133204E+03  0.7818608E-02  0.9540934E-01
         -2   -1    0    0    0  501 -0.00000000000E+00  0.00000000000E+00  0.94661635396E+03  0.94661635397E+03  0.25500000000E-02 0. -1.
          2   -1    0    0  501    0  0.00000000000E+00 -0.00000000000E+00 -0.17469857714E+03  0.17469857716E+03  0.25500000000E-02 0.  1.
    5000001    1    1    2    0    0  0.14971315373E+03 -0.22632288176E+03  0.70891471126E+03  0.78298157262E+03  0.19200000000E+03 0.  0.
   -5000001    1    1    2    0    0 -0.14971315373E+03  0.22632288176E+03  0.63003065555E+02  0.33833335851E+03  0.19200000000E+03 0.  0.
<mgrwt>
<rscale>  0 0.81332043E+03</rscale>
<asrwt>0</asrwt>
<pdfrwt beam="1">  1        2 0.24956940E-01 0.81332043E+03</pdfrwt>
<pdfrwt beam="2">  1       -2 0.13523091E+00 0.81332043E+03</pdfrwt>
<totfact> 0.86886213E+01</totfact>
</mgrwt>
</event>
<event>
 4    1  0.5900026E-005  0.7268576E+03  0.7818608E-02  0.9672373E-01
          2   -1    0    0  501    0  0.00000000000E+00  0.00000000000E+00  0.17926247704E+04  0.17926247704E+04  0.25500000000E-02 0.  1.
         -2   -1    0    0    0  501 -0.00000000000E+00 -0.00000000000E+00 -0.73679935604E+02  0.73679935648E+02  0.25500000000E-02 0. -1.
    5000001    1    1    2    0    0  0.28902766556E+03  0.10805684308E+03  0.85487578138E+03  0.92891865865E+03  0.19200000000E+03 0.  0.
   -5000001    1    1    2    0    0 -0.28902766556E+03 -0.10805684308E+03  0.86406905340E+03  0.93738604739E+03  0.19200000000E+03 0.  0.
<mgrwt>
<rscale>  0 0.72685756E+03</rscale>
<asrwt>0</asrwt>
<pdfrwt beam="1">  1        2 0.25608925E+00 0.72685756E+03</pdfrwt>
<pdfrwt beam="2">  1       -2 0.10525705E-01 0.72685756E+03</pdfrwt>
<totfact> 0.65893898E+02</totfact>
</mgrwt>
</event>
<event>
 4    1  0.5900026E-005  0.1043215E+04  0.7818608E-02  0.9262377E-01
          2   -1    0    0  501    0  0.00000000000E+00  0.00000000000E+00  0.22507430904E+04  0.22507430904E+04  0.25500000000E-02 0.  1.
         -2   -1    0    0    0  501 -0.00000000000E+00 -0.00000000000E+00 -0.12088211845E+03  0.12088211848E+03  0.25500000000E-02 0. -1.
    5000001    1    1    2    0    0 -0.24068433725E+03 -0.83193012199E+02  0.12659831885E+03  0.34313432036E+03  0.19200000000E+03 0.  0.
   -5000001    1    1    2    0    0  0.24068433725E+03  0.83193012199E+02  0.20032626531E+04  0.20284908886E+04  0.19200000000E+03 0.  0.
<mgrwt>
<rscale>  0 0.10432154E+04</rscale>
<asrwt>0</asrwt>
<pdfrwt beam="1">  1        2 0.32153471E+00 0.10432154E+04</pdfrwt>
<pdfrwt beam="2">  1       -2 0.17268875E-01 0.10432154E+04</pdfrwt>
<totfact> 0.16436239E+02</totfact>
</mgrwt>
</event>
<event>
 4    1  0.5900026E-005  0.4856616E+03  0.7818608E-02  0.1017591E+00
          2   -1    0    0  501    0  0.00000000000E+00  0.00000000000E+00  0.73837575714E+03  0.73837575715E+03  0.25500000000E-02 0.  1.
         -2   -1    0    0    0  501 -0.00000000000E+00 -0.00000000000E+00 -0.79860141236E+02  0.79860141277E+02  0.25500000000E-02 0. -1.
    5000001    1    1    2    0    0  0.72572990544E+02  0.12828251667E+03  0.29643476510E+03  0.38270198980E+03  0.19200000000E+03 0.  0.
   -5000001    1    1    2    0    0 -0.72572990544E+02 -0.12828251667E+03  0.36208085080E+03  0.43553390862E+03  0.19200000000E+03 0.  0.
<mgrwt>
<rscale>  0 0.48566158E+03</rscale>
<asrwt>0</asrwt>
<pdfrwt beam="1">  1        2 0.10548225E+00 0.48566158E+03</pdfrwt>
<pdfrwt beam="2">  1       -2 0.11408592E-01 0.48566158E+03</pdfrwt>
<totfact> 0.23218269E+03</totfact>
</mgrwt>
</event>
<event>
 4    1  0.5900026E-005  0.6339727E+03  0.7818608E-02  0.9837327E-01
         -2   -1    0    0    0  501 -0.00000000000E+00  0.00000000000E+00  0.18772822982E+03  0.18772822983E+03  0.25500000000E-02 0. -1.
          2   -1    0    0  501    0  0.00000000000E+00 -0.00000000000E+00 -0.53524367615E+03  0.53524367616E+03  0.25500000000E-02 0.  1.
    5000001    1    1    2    0    0 -0.15616295959E+03 -0.18561979790E+03 -0.94957577143E+02  0.32360859194E+03  0.19200000000E+03 0.  0.
   -5000001    1    1    2    0    0  0.15616295959E+03  0.18561979790E+03 -0.25255786920E+03  0.39936331405E+03  0.19200000000E+03 0.  0.
<mgrwt>
<rscale>  0 0.63397271E+03</rscale>
<asrwt>0</asrwt>
<pdfrwt beam="1">  1        2 0.76463382E-01 0.63397271E+03</pdfrwt>
<pdfrwt beam="2">  1       -2 0.26818319E-01 0.63397271E+03</pdfrwt>
<totfact> 0.78542170E+02</totfact>
</mgrwt>
</event>
<event>
 4    1  0.5900026E-005  0.8608348E+03  0.7818608E-02  0.9475909E-01
          2   -1    0    0  501    0  0.00000000000E+00  0.00000000000E+00  0.96344758705E+02  0.96344758739E+02  0.25500000000E-02 0.  1.
         -2   -1    0    0    0  501 -0.00000000000E+00 -0.00000000000E+00 -0.19228770399E+04  0.19228770399E+04  0.25500000000E-02 0. -1.
    5000001    1    1    2    0    0  0.24904714407E+03 -0.14663191984E+03 -0.31583857986E+03  0.46919442496E+03  0.19200000000E+03 0.  0.
   -5000001    1    1    2    0    0 -0.24904714407E+03  0.14663191984E+03 -0.15106937013E+04  0.15500273736E+04  0.19200000000E+03 0.  0.
<mgrwt>
<rscale>  0 0.86083477E+03</rscale>
<asrwt>0</asrwt>
<pdfrwt beam="1">  1        2 0.13763538E-01 0.86083477E+03</pdfrwt>
<pdfrwt beam="2">  1       -2 0.27469670E+00 0.86083477E+03</pdfrwt>
<totfact> 0.20708272E+01</totfact>
</mgrwt>
</event>
<event>
 4    1  0.5900026E-005  0.1993793E+04  0.7818608E-02  0.8609528E-01
          2   -1    0    0  501    0  0.00000000000E+00  0.00000000000E+00  0.92353612679E+03  0.92353612679E+03  0.25500000000E-02 0.  1.
         -2   -1    0    0    0  501 -0.00000000000E+00 -0.00000000000E+00 -0.10760842085E+04  0.10760842085E+04  0.25500000000E-02 0. -1.
    5000001    1    1    2    0    0 -0.34121896362E+03  0.60565163798E+03  0.61399211445E+03  0.94715078226E+03  0.19200000000E+03 0.  0.
   -5000001    1    1    2    0    0  0.34121896362E+03 -0.60565163798E+03 -0.76654019613E+03  0.10524695530E+04  0.19200000000E+03 0.  0.
<mgrwt>
<rscale>  0 0.19937930E+04</rscale>
<asrwt>0</asrwt>
<pdfrwt beam="1">  1        2 0.13193373E+00 0.19937930E+04</pdfrwt>
<pdfrwt beam="2">  1       -2 0.15372631E+00 0.19937930E+04</pdfrwt>
<totfact> 0.82189058E+00</totfact>
</mgrwt>
</event>
<event>
 4    1  0.5900026E-005  0.1077780E+04  0.7818608E-02  0.9227124E-01
          2   -1    0    0  501    0  0.00000000000E+00  0.00000000000E+00  0.15477306404E+04  0.15477306404E+04  0.25500000000E-02 0.  1.
         -2   -1    0    0    0  501 -0.00000000000E+00 -0.00000000000E+00 -0.18763109800E+03  0.18763109802E+03  0.25500000000E-02 0. -1.
    5000001    1    1    2    0    0 -0.24544773751E+03 -0.30256912058E+03  0.11936415088E+04  0.12702112880E+04  0.19200000000E+03 0.  0.
   -5000001    1    1    2    0    0  0.24544773751E+03  0.30256912058E+03  0.16645803358E+03  0.46515045042E+03  0.19200000000E+03 0.  0.
<mgrwt>
<rscale>  0 0.10777799E+04</rscale>
<asrwt>0</asrwt>
<pdfrwt beam="1">  1        2 0.22110438E+00 0.10777799E+04</pdfrwt>
<pdfrwt beam="2">  1       -2 0.26804443E-01 0.10777799E+04</pdfrwt>
<totfact> 0.17285787E+02</totfact>
</mgrwt>
</event>
<event>
 4    1  0.5900026E-005  0.4532430E+03  0.7818608E-02  0.1026759E+00
         -2   -1    0    0    0  501 -0.00000000000E+00  0.00000000000E+00  0.49541401288E+02  0.49541401354E+02  0.25500000000E-02 0. -1.
          2   -1    0    0  501    0  0.00000000000E+00 -0.00000000000E+00 -0.10366543718E+04  0.10366543718E+04  0.25500000000E-02 0.  1.
    5000001    1    1    2    0    0  0.85875961586E+02  0.58681958961E+02 -0.63883755469E+03  0.67512641362E+03  0.19200000000E+03 0.  0.
   -5000001    1    1    2    0    0 -0.85875961586E+02 -0.58681958961E+02 -0.34827541584E+03  0.41106935955E+03  0.19200000000E+03 0.  0.
<mgrwt>
<rscale>  0 0.45324303E+03</rscale>
<asrwt>0</asrwt>
<pdfrwt beam="1">  1        2 0.14809347E+00 0.45324303E+03</pdfrwt>
<pdfrwt beam="2">  1       -2 0.70773437E-02 0.45324303E+03</pdfrwt>
<totfact> 0.31882510E+03</totfact>
</mgrwt>
</event>
<event>
 4    1  0.5900026E-005  0.7132389E+03  0.7818608E-02  0.9694856E-01
          2   -1    0    0  501    0  0.00000000000E+00  0.00000000000E+00  0.26673161317E+04  0.26673161317E+04  0.25500000000E-02 0.  1.
         -2   -1    0    0    0  501 -0.00000000000E+00 -0.00000000000E+00 -0.47679927876E+02  0.47679927944E+02  0.25500000000E-02 0. -1.
    5000001    1    1    2    0    0 -0.44389699680E+02  0.25713192206E+03  0.74231729424E+03  0.80992977233E+03  0.19200000000E+03 0.  0.
   -5000001    1    1    2    0    0  0.44389699680E+02 -0.25713192206E+03  0.18773189096E+04  0.19050662873E+04  0.19200000000E+03 0.  0.
<mgrwt>
<rscale>  0 0.71323892E+03</rscale>
<asrwt>0</asrwt>
<pdfrwt beam="1">  1        2 0.38104510E+00 0.71323892E+03</pdfrwt>
<pdfrwt beam="2">  1       -2 0.68114193E-02 0.71323892E+03</pdfrwt>
<totfact> 0.47488069E+02</totfact>
</mgrwt>
</event>
<event>
 4    1  0.5900026E-005  0.3974662E+03  0.7818608E-02  0.1044661E+00
         -2   -1    0    0    0  501 -0.00000000000E+00  0.00000000000E+00  0.19196258209E+03  0.19196258210E+03  0.25500000000E-02 0. -1.
          2   -1    0    0  501    0  0.00000000000E+00 -0.00000000000E+00 -0.20574245295E+03  0.20574245296E+03  0.25500000000E-02 0.  1.
    5000001    1    1    2    0    0 -0.45515867168E+02 -0.22372073261E+02 -0.14552779968E+02  0.19911802337E+03  0.19200000000E+03 0.  0.
   -5000001    1    1    2    0    0  0.45515867168E+02  0.22372073261E+02  0.77290910589E+00  0.19858701170E+03  0.19200000000E+03 0.  0.
<mgrwt>
<rscale>  0 0.39746624E+03</rscale>
<asrwt>0</asrwt>
<pdfrwt beam="1">  1        2 0.29391779E-01 0.39746624E+03</pdfrwt>
<pdfrwt beam="2">  1       -2 0.27423226E-01 0.39746624E+03</pdfrwt>
<totfact> 0.21765277E+03</totfact>
</mgrwt>
</event>
<event>
 4    1  0.5900026E-005  0.4096600E+03  0.7818608E-02  0.1040485E+00
          2   -1    0    0  501    0  0.00000000000E+00  0.00000000000E+00  0.88190555471E+02  0.88190555508E+02  0.25500000000E-02 0.  1.
         -2   -1    0    0    0  501 -0.00000000000E+00 -0.00000000000E+00 -0.47573493803E+03  0.47573493803E+03  0.25500000000E-02 0. -1.
    5000001    1    1    2    0    0  0.19831695821E+02 -0.68394014421E+02 -0.19997303545E+03  0.28622412944E+03  0.19200000000E+03 0.  0.
   -5000001    1    1    2    0    0 -0.19831695821E+02  0.68394014421E+02 -0.18757134710E+03  0.27770136410E+03  0.19200000000E+03 0.  0.
<mgrwt>
<rscale>  0 0.40966000E+03</rscale>
<asrwt>0</asrwt>
<pdfrwt beam="1">  1        2 0.12598651E-01 0.40966000E+03</pdfrwt>
<pdfrwt beam="2">  1       -2 0.67962133E-01 0.40966000E+03</pdfrwt>
<totfact> 0.98601692E+02</totfact>
</mgrwt>
</event>
<event>
 4    1  0.5900026E-005  0.7543281E+03  0.7818608E-02  0.9628585E-01
         -2   -1    0    0    0  501 -0.00000000000E+00  0.00000000000E+00  0.16798504273E+04  0.16798504273E+04  0.25500000000E-02 0.  1.
          2   -1    0    0  501    0  0.00000000000E+00 -0.00000000000E+00 -0.84681785214E+02  0.84681785252E+02  0.25500000000E-02 0. -1.
    5000001    1    1    2    0    0 -0.68921353534E+02  0.30322208173E+03  0.10157079992E+04  0.10794538080E+04  0.19200000000E+03 0.  0.
   -5000001    1    1    2    0    0  0.68921353534E+02 -0.30322208173E+03  0.57946064286E+03  0.68507840460E+03  0.19200000000E+03 0.  0.
<mgrwt>
<rscale>  0 0.75432813E+03</rscale>
<asrwt>0</asrwt>
<pdfrwt beam="1">  1        2 0.12097398E-01 0.75432813E+03</pdfrwt>
<pdfrwt beam="2">  1       -2 0.23997863E+00 0.75432813E+03</pdfrwt>
<totfact> 0.39725226E+01</totfact>
</mgrwt>
</event>
<event>
 4    1  0.5900026E-005  0.5843408E+03  0.7818608E-02  0.9938437E-01
          2   -1    0    0  501    0  0.00000000000E+00  0.00000000000E+00  0.84703862744E+03  0.84703862744E+03  0.25500000000E-02 0.  1.
         -2   -1    0    0    0  501 -0.00000000000E+00 -0.00000000000E+00 -0.10077880909E+03  0.10077880912E+03  0.25500000000E-02 0. -1.
    5000001    1    1    2    0    0  0.88264097524E+02  0.92828288086E+02  0.82556272344E+02  0.24512686528E+03  0.19200000000E+03 0.  0.
   -5000001    1    1    2    0    0 -0.88264097524E+02 -0.92828288086E+02  0.66370354601E+03  0.70269057128E+03  0.19200000000E+03 0.  0.
<mgrwt>
<rscale>  0 0.58434081E+03</rscale>
<asrwt>0</asrwt>
<pdfrwt beam="1">  1        2 0.12100552E+00 0.58434081E+03</pdfrwt>
<pdfrwt beam="2">  1       -2 0.14396972E-01 0.58434081E+03</pdfrwt>
<totfact> 0.13277043E+03</totfact>
</mgrwt>
</event>
<event>
 4    1  0.5900026E-005  0.5579985E+03  0.7818608E-02  0.9996594E-01
          2   -1    0    0  501    0  0.00000000000E+00  0.00000000000E+00  0.32891563397E+04  0.32891563397E+04  0.25500000000E-02 0.  1.
         -2   -1    0    0    0  501 -0.00000000000E+00 -0.00000000000E+00 -0.23665816415E+02  0.23665816552E+02  0.25500000000E-02 0. -1.
    5000001    1    1    2    0    0  0.16047357668E+02 -0.19409969521E+03  0.19603221050E+04  0.19793076983E+04  0.19200000000E+03 0.  0.
   -5000001    1    1    2    0    0 -0.16047357668E+02  0.19409969521E+03  0.13051684183E+04  0.13335144579E+04  0.19200000000E+03 0.  0.
<mgrwt>
<rscale>  0 0.55799846E+03</rscale>
<asrwt>0</asrwt>
<pdfrwt beam="1">  1        2 0.46987927E+00 0.55799846E+03</pdfrwt>
<pdfrwt beam="2">  1       -2 0.33808324E-02 0.55799846E+03</pdfrwt>
<totfact> 0.65530438E+02</totfact>
</mgrwt>
</event>
<event>
 4    1  0.5900026E-005  0.4317482E+03  0.7818608E-02  0.1033309E+00
          2   -1    0    0  501    0  0.00000000000E+00  0.00000000000E+00  0.53163553689E+03  0.53163553690E+03  0.25500000000E-02 0.  1.
         -2   -1    0    0    0  501 -0.00000000000E+00 -0.00000000000E+00 -0.87657096016E+02  0.87657096053E+02  0.25500000000E-02 0. -1.
    5000001    1    1    2    0    0 -0.49272962776E+02  0.68483803078E+01  0.99747213000E+02  0.22200953059E+03  0.19200000000E+03 0.  0.
   -5000001    1    1    2    0    0  0.49272962776E+02 -0.68483803078E+01  0.34423122788E+03  0.39728310236E+03  0.19200000000E+03 0.  0.
<mgrwt>
<rscale>  0 0.43174820E+03</rscale>
<asrwt>0</asrwt>
<pdfrwt beam="1">  1        2 0.75947932E-01 0.43174820E+03</pdfrwt>
<pdfrwt beam="2">  1       -2 0.12522443E-01 0.43174820E+03</pdfrwt>
<totfact> 0.29343827E+03</totfact>
</mgrwt>
</event>
<event>
 4    1  0.5900026E-005  0.6518541E+03  0.7818608E-02  0.9803306E-01
         -2   -1    0    0    0  501 -0.00000000000E+00  0.00000000000E+00  0.11421847841E+03  0.11421847844E+03  0.25500000000E-02 0. -1.
          2   -1    0    0  501    0  0.00000000000E+00 -0.00000000000E+00 -0.93004596337E+03  0.93004596338E+03  0.25500000000E-02 0.  1.
    5000001    1    1    2    0    0  0.21154484938E+03  0.38785035798E+02 -0.16438510146E+03  0.33187642863E+03  0.19200000000E+03 0.  0.
   -5000001    1    1    2    0    0 -0.21154484938E+03 -0.38785035798E+02 -0.65144238350E+03  0.71238801318E+03  0.19200000000E+03 0.  0.
<mgrwt>
<rscale>  0 0.65185408E+03</rscale>
<asrwt>0</asrwt>
<pdfrwt beam="1">  1        2 0.13286370E+00 0.65185408E+03</pdfrwt>
<pdfrwt beam="2">  1       -2 0.16316926E-01 0.65185408E+03</pdfrwt>
<totfact> 0.94761857E+02</totfact>
</mgrwt>
</event>
<event>
 4    1  0.5900026E-005  0.6114038E+03  0.7818608E-02  0.9882025E-01
         -2   -1    0    0    0  501 -0.00000000000E+00  0.00000000000E+00  0.28052190515E+03  0.28052190516E+03  0.25500000000E-02 0.  1.
          2   -1    0    0  501    0  0.00000000000E+00 -0.00000000000E+00 -0.33314205549E+03  0.33314205550E+03  0.25500000000E-02 0. -1.
    5000001    1    1    2    0    0 -0.12879947238E+03  0.19298041118E+03 -0.79029486763E+02  0.31135253807E+03  0.19200000000E+03 0.  0.
   -5000001    1    1    2    0    0  0.12879947238E+03 -0.19298041118E+03  0.26409336426E+02  0.30231142260E+03  0.19200000000E+03 0.  0.
<mgrwt>
<rscale>  0 0.61140378E+03</rscale>
<asrwt>0</asrwt>
<pdfrwt beam="1">  1        2 0.47591722E-01 0.61140378E+03</pdfrwt>
<pdfrwt beam="2">  1       -2 0.40074558E-01 0.61140378E+03</pdfrwt>
<totfact> 0.62914164E+02</totfact>
</mgrwt>
</event>
<event>
 4    1  0.5900026E-005  0.4434853E+03  0.7818608E-02  0.1029683E+00
          2   -1    0    0  501    0  0.00000000000E+00  0.00000000000E+00  0.38300979980E+04  0.38300979980E+04  0.25500000000E-02 0.  1.
         -2   -1    0    0    0  501 -0.00000000000E+00 -0.00000000000E+00 -0.12837740748E+02  0.12837741002E+02  0.25500000000E-02 0. -1.
    5000001    1    1    2    0    0  0.63035210994E+02 -0.29009238023E+02  0.11586514672E+04  0.11764999772E+04  0.19200000000E+03 0.  0.
   -5000001    1    1    2    0    0 -0.63035210994E+02  0.29009238023E+02  0.26586087900E+04  0.26664357618E+04  0.19200000000E+03 0.  0.
<mgrwt>
<rscale>  0 0.44348531E+03</rscale>
<asrwt>0</asrwt>
<pdfrwt beam="1">  1        2 0.54715684E+00 0.44348531E+03</pdfrwt>
<pdfrwt beam="2">  1       -2 0.18339630E-02 0.44348531E+03</pdfrwt>
<totfact> 0.79154262E+02</totfact>
</mgrwt>
</event>
<event>
 4    1  0.5900026E-005  0.8218676E+03  0.7818608E-02  0.9528893E-01
          2   -1    0    0  501    0  0.00000000000E+00  0.00000000000E+00  0.22785080640E+04  0.22785080640E+04  0.25500000000E-02 0. -1.
         -2   -1    0    0    0  501 -0.00000000000E+00 -0.00000000000E+00 -0.74112795801E+02  0.74112795845E+02  0.25500000000E-02 0.  1.
    5000001    1    1    2    0    0 -0.34007000949E+03 -0.69291449802E+02  0.14098854898E+04  0.14646125804E+04  0.19200000000E+03 0.  0.
   -5000001    1    1    2    0    0  0.34007000949E+03  0.69291449802E+02  0.79450977843E+03  0.88800827946E+03  0.19200000000E+03 0.  0.
<mgrwt>
<rscale>  0 0.82186764E+03</rscale>
<asrwt>0</asrwt>
<pdfrwt beam="1">  1        2 0.32550115E+00 0.82186764E+03</pdfrwt>
<pdfrwt beam="2">  1       -2 0.10587542E-01 0.82186764E+03</pdfrwt>
<totfact> 0.36767287E+02</totfact>
</mgrwt>
</event>
<event>
 4    1  0.5900026E-005  0.6724444E+03  0.7818608E-02  0.9765552E-01
         -2   -1    0    0    0  501 -0.00000000000E+00  0.00000000000E+00  0.75682632362E+02  0.75682632405E+02  0.25500000000E-02 0. -1.
          2   -1    0    0  501    0  0.00000000000E+00 -0.00000000000E+00 -0.14936764378E+04  0.14936764378E+04  0.25500000000E-02 0.  1.
    5000001    1    1    2    0    0  0.61067987269E+02 -0.25532403893E+03 -0.90787416026E+03  0.96437500734E+03  0.19200000000E+03 0.  0.
   -5000001    1    1    2    0    0 -0.61067987269E+02  0.25532403893E+03 -0.51011964519E+03  0.60498406288E+03  0.19200000000E+03 0.  0.
<mgrwt>
<rscale>  0 0.67244439E+03</rscale>
<asrwt>0</asrwt>
<pdfrwt beam="1">  1        2 0.21338233E+00 0.67244439E+03</pdfrwt>
<pdfrwt beam="2">  1       -2 0.10811806E-01 0.67244439E+03</pdfrwt>
<totfact> 0.90135982E+02</totfact>
</mgrwt>
</event>
<event>
 4    1  0.5900026E-005  0.4644599E+03  0.7818608E-02  0.1023496E+00
          2   -1    0    0  501    0  0.00000000000E+00  0.00000000000E+00  0.87656606489E+03  0.87656606489E+03  0.25500000000E-02 0.  1.
         -2   -1    0    0    0  501 -0.00000000000E+00 -0.00000000000E+00 -0.61525025524E+02  0.61525025577E+02  0.25500000000E-02 0. -1.
    5000001    1    1    2    0    0  0.10429101955E+03 -0.77425365669E+02  0.37928409769E+03  0.44451291406E+03  0.19200000000E+03 0.  0.
   -5000001    1    1    2    0    0 -0.10429101955E+03  0.77425365669E+02  0.43575694167E+03  0.49357817641E+03  0.19200000000E+03 0.  0.
<mgrwt>
<rscale>  0 0.46445990E+03</rscale>
<asrwt>0</asrwt>
<pdfrwt beam="1">  1        2 0.12522371E+00 0.46445990E+03</pdfrwt>
<pdfrwt beam="2">  1       -2 0.87892901E-02 0.46445990E+03</pdfrwt>
<totfact> 0.28428246E+03</totfact>
</mgrwt>
</event>
<event>
 4    1  0.5900026E-005  0.5144682E+03  0.7818608E-02  0.1010070E+00
          2   -1    0    0  501    0  0.00000000000E+00  0.00000000000E+00  0.19706631847E+04  0.19706631847E+04  0.25500000000E-02 0.  1.
         -2   -1    0    0    0  501 -0.00000000000E+00 -0.00000000000E+00 -0.33577215566E+02  0.33577215663E+02  0.25500000000E-02 0. -1.
    5000001    1    1    2    0    0  0.81093855150E+02 -0.37529084971E+02  0.15373859380E+04  0.15519034016E+04  0.19200000000E+03 0.  0.
   -5000001    1    1    2    0    0 -0.81093855150E+02  0.37529084971E+02  0.39970003120E+03  0.45233699882E+03  0.19200000000E+03 0.  0.
<mgrwt>
<rscale>  0 0.51446820E+03</rscale>
<asrwt>0</asrwt>
<pdfrwt beam="1">  1        2 0.28152338E+00 0.51446820E+03</pdfrwt>
<pdfrwt beam="2">  1       -2 0.47967439E-02 0.51446820E+03</pdfrwt>
<totfact> 0.18818338E+03</totfact>
</mgrwt>
</event>
<event>
 4    1  0.5900026E-005  0.4404102E+03  0.7818608E-02  0.1030621E+00
         -2   -1    0    0    0  501 -0.00000000000E+00  0.00000000000E+00  0.26633483932E+02  0.26633484054E+02  0.25500000000E-02 0. -1.
          2   -1    0    0  501    0  0.00000000000E+00 -0.00000000000E+00 -0.18206514085E+04  0.18206514085E+04  0.25500000000E-02 0.  1.
    5000001    1    1    2    0    0  0.76498090687E+02  0.71803824424E+02 -0.10013274935E+04  0.10249529239E+04  0.19200000000E+03 0.  0.
   -5000001    1    1    2    0    0 -0.76498090687E+02 -0.71803824424E+02 -0.79269043108E+03  0.82233196862E+03  0.19200000000E+03 0.  0.
<mgrwt>
<rscale>  0 0.44041022E+03</rscale>
<asrwt>0</asrwt>
<pdfrwt beam="1">  1        2 0.26009298E+00 0.44041022E+03</pdfrwt>
<pdfrwt beam="2">  1       -2 0.38047846E-02 0.44041022E+03</pdfrwt>
<totfact> 0.31961240E+03</totfact>
</mgrwt>
</event>
<event>
 4    1  0.5900026E-005  0.7156402E+03  0.7818608E-02  0.9690853E-01
          2   -1    0    0  501    0  0.00000000000E+00  0.00000000000E+00  0.20251038571E+04  0.20251038571E+04  0.25500000000E-02 0.  1.
         -2   -1    0    0    0  501 -0.00000000000E+00 -0.00000000000E+00 -0.63224034736E+02  0.63224034788E+02  0.25500000000E-02 0. -1.
    5000001    1    1    2    0    0  0.26473157192E+02  0.21585090146E+03  0.36967242640E+03  0.46990865341E+03  0.19200000000E+03 0.  0.
   -5000001    1    1    2    0    0 -0.26473157192E+02 -0.21585090146E+03  0.15922073960E+04  0.16184192385E+04  0.19200000000E+03 0.  0.
<mgrwt>
<rscale>  0 0.71564024E+03</rscale>
<asrwt>0</asrwt>
<pdfrwt beam="1">  1        2 0.28930057E+00 0.71564024E+03</pdfrwt>
<pdfrwt beam="2">  1       -2 0.90320045E-02 0.71564024E+03</pdfrwt>
<totfact> 0.64469826E+02</totfact>
</mgrwt>
</event>
<event>
 4    1  0.5900026E-005  0.6896951E+03  0.7818608E-02  0.9735019E-01
          2   -1    0    0  501    0  0.00000000000E+00  0.00000000000E+00  0.15006591489E+03  0.15006591491E+03  0.25500000000E-02 0.  1.
         -2   -1    0    0    0  501 -0.00000000000E+00 -0.00000000000E+00 -0.79245068730E+03  0.79245068730E+03  0.25500000000E-02 0. -1.
    5000001    1    1    2    0    0  0.11292266098E+03  0.26306564513E+03 -0.30747373987E+03  0.46190817456E+03  0.19200000000E+03 0.  0.
   -5000001    1    1    2    0    0 -0.11292266098E+03 -0.26306564513E+03 -0.33491103255E+03  0.48060842766E+03  0.19200000000E+03 0.  0.
<mgrwt>
<rscale>  0 0.68969511E+03</rscale>
<asrwt>0</asrwt>
<pdfrwt beam="1">  1        2 0.21437988E-01 0.68969511E+03</pdfrwt>
<pdfrwt beam="2">  1       -2 0.11320724E+00 0.68969511E+03</pdfrwt>
<totfact> 0.16222782E+02</totfact>
</mgrwt>
</event>
<event>
 4    1  0.5900026E-005  0.6515499E+03  0.7818608E-02  0.9803875E-01
         -2   -1    0    0    0  501 -0.00000000000E+00  0.00000000000E+00  0.13622595196E+03  0.13622595199E+03  0.25500000000E-02 0. -1.
          2   -1    0    0  501    0  0.00000000000E+00 -0.00000000000E+00 -0.77906832464E+03  0.77906832464E+03  0.25500000000E-02 0.  1.
    5000001    1    1    2    0    0  0.12232281601E+03  0.22699061749E+03 -0.39545952981E+03  0.50964679088E+03  0.19200000000E+03 0.  0.
   -5000001    1    1    2    0    0 -0.12232281601E+03 -0.22699061749E+03 -0.24738284287E+03  0.40564748574E+03  0.19200000000E+03 0.  0.
<mgrwt>
<rscale>  0 0.65154992E+03</rscale>
<asrwt>0</asrwt>
<pdfrwt beam="1">  1        2 0.11129547E+00 0.65154992E+03</pdfrwt>
<pdfrwt beam="2">  1       -2 0.19460851E-01 0.65154992E+03</pdfrwt>
<totfact> 0.88317324E+02</totfact>
</mgrwt>
</event>
<event>
 4    1  0.5900026E-005  0.7817161E+03  0.7818608E-02  0.9586866E-01
         -2   -1    0    0    0  501 -0.00000000000E+00  0.00000000000E+00  0.11402783135E+03  0.11402783138E+03  0.25500000000E-02 0. -1.
          2   -1    0    0  501    0  0.00000000000E+00 -0.00000000000E+00 -0.13397607332E+04  0.13397607332E+04  0.25500000000E-02 0.  1.
    5000001    1    1    2    0    0 -0.30582482950E+03 -0.12370156761E+03 -0.76929596541E+03  0.85878471491E+03  0.19200000000E+03 0.  0.
   -5000001    1    1    2    0    0  0.30582482950E+03  0.12370156761E+03 -0.45643693638E+03  0.59500384962E+03  0.19200000000E+03 0.  0.
<mgrwt>
<rscale>  0 0.78171609E+03</rscale>
<asrwt>0</asrwt>
<pdfrwt beam="1">  1        2 0.19139438E+00 0.78171609E+03</pdfrwt>
<pdfrwt beam="2">  1       -2 0.16289691E-01 0.78171609E+03</pdfrwt>
<totfact> 0.54657943E+02</totfact>
</mgrwt>
</event>
<event>
 4    1  0.5900026E-005  0.6242608E+03  0.7818608E-02  0.9856313E-01
          2   -1    0    0  501    0  0.00000000000E+00  0.00000000000E+00  0.62406775326E+03  0.62406775327E+03  0.25500000000E-02 0.  1.
         -2   -1    0    0    0  501 -0.00000000000E+00 -0.00000000000E+00 -0.15611345924E+03  0.15611345926E+03  0.25500000000E-02 0. -1.
    5000001    1    1    2    0    0 -0.10679847324E+03  0.22098583871E+03  0.21159544391E+03  0.37666601477E+03  0.19200000000E+03 0.  0.
   -5000001    1    1    2    0    0  0.10679847324E+03 -0.22098583871E+03  0.25635885011E+03  0.40351519776E+03  0.19200000000E+03 0.  0.
<mgrwt>
<rscale>  0 0.62426077E+03</rscale>
<asrwt>0</asrwt>
<pdfrwt beam="1">  1        2 0.89152538E-01 0.62426077E+03</pdfrwt>
<pdfrwt beam="2">  1       -2 0.22301922E-01 0.62426077E+03</pdfrwt>
<totfact> 0.91343385E+02</totfact>
</mgrwt>
</event>
<event>
 4    1  0.5900026E-005  0.8714427E+03  0.7818608E-02  0.9462001E-01
          2   -1    0    0  501    0  0.00000000000E+00  0.00000000000E+00  0.28568496598E+04  0.28568496598E+04  0.25500000000E-02 0.  1.
         -2   -1    0    0    0  501 -0.00000000000E+00 -0.00000000000E+00 -0.66455406195E+02  0.66455406244E+02  0.25500000000E-02 0. -1.
    5000001    1    1    2    0    0  0.22680629334E+03  0.25356331128E+03  0.74772698100E+03  0.84362022595E+03  0.19200000000E+03 0.  0.
   -5000001    1    1    2    0    0 -0.22680629334E+03 -0.25356331128E+03  0.20426672726E+04  0.20796848401E+04  0.19200000000E+03 0.  0.
<mgrwt>
<rscale>  0 0.87144272E+03</rscale>
<asrwt>0</asrwt>
<pdfrwt beam="1">  1        2 0.40812141E+00 0.87144272E+03</pdfrwt>
<pdfrwt beam="2">  1       -2 0.94936288E-02 0.87144272E+03</pdfrwt>
<totfact> 0.21808886E+02</totfact>
</mgrwt>
</event>
<event>
 4    1  0.5900026E-005  0.5206780E+03  0.7818608E-02  0.1008518E+00
         -2   -1    0    0    0  501 -0.00000000000E+00  0.00000000000E+00  0.37517926053E+03  0.37517926054E+03  0.25500000000E-02 0. -1.
          2   -1    0    0  501    0  0.00000000000E+00 -0.00000000000E+00 -0.18065069686E+03  0.18065069688E+03  0.25500000000E-02 0.  1.
    5000001    1    1    2    0    0 -0.35845750589E+02 -0.13188817217E+03 -0.20805559803E+02  0.23659306649E+03  0.19200000000E+03 0.  0.
   -5000001    1    1    2    0    0  0.35845750589E+02  0.13188817217E+03  0.21533412347E+03  0.31923689092E+03  0.19200000000E+03 0.  0.
<mgrwt>
<rscale>  0 0.52067800E+03</rscale>
<asrwt>0</asrwt>
<pdfrwt beam="1">  1        2 0.25807242E-01 0.52067800E+03</pdfrwt>
<pdfrwt beam="2">  1       -2 0.53597038E-01 0.52067800E+03</pdfrwt>
<totfact> 0.69708241E+02</totfact>
</mgrwt>
</event>
<event>
 4    1  0.5900026E-005  0.8216282E+03  0.7818608E-02  0.9529228E-01
          2   -1    0    0  501    0  0.00000000000E+00  0.00000000000E+00  0.13279232902E+04  0.13279232902E+04  0.25500000000E-02 0.  1.
         -2   -1    0    0    0  501 -0.00000000000E+00 -0.00000000000E+00 -0.12709183821E+03  0.12709183824E+03  0.25500000000E-02 0. -1.
    5000001    1    1    2    0    0 -0.28101387720E+03 -0.22879136460E+03  0.64342779422E+03  0.76300564484E+03  0.19200000000E+03 0.  0.
   -5000001    1    1    2    0    0  0.28101387720E+03  0.22879136460E+03  0.55740365775E+03  0.69200948358E+03  0.19200000000E+03 0.  0.
<mgrwt>
<rscale>  0 0.82162817E+03</rscale>
<asrwt>0</asrwt>
<pdfrwt beam="1">  1        2 0.18970333E+00 0.82162817E+03</pdfrwt>
<pdfrwt beam="2">  1       -2 0.18155977E-01 0.82162817E+03</pdfrwt>
<totfact> 0.45956167E+02</totfact>
</mgrwt>
</event>
<event>
 4    1  0.5900026E-005  0.7036999E+03  0.7818608E-02  0.9710926E-01
         -2   -1    0    0    0  501 -0.00000000000E+00  0.00000000000E+00  0.46212238101E+02  0.46212238172E+02  0.25500000000E-02 0. -1.
          2   -1    0    0  501    0  0.00000000000E+00 -0.00000000000E+00 -0.26789093413E+04  0.26789093413E+04  0.25500000000E-02 0.  1.
    5000001    1    1    2    0    0 -0.58928310176E+02 -0.26438287251E+03 -0.17673573585E+04  0.17982733056E+04  0.19200000000E+03 0.  0.
   -5000001    1    1    2    0    0  0.58928310176E+02  0.26438287251E+03 -0.86533974473E+03  0.92684827389E+03  0.19200000000E+03 0.  0.
<mgrwt>
<rscale>  0 0.70369993E+03</rscale>
<asrwt>0</asrwt>
<pdfrwt beam="1">  1        2 0.38270124E+00 0.70369993E+03</pdfrwt>
<pdfrwt beam="2">  1       -2 0.66017500E-02 0.70369993E+03</pdfrwt>
<totfact> 0.49241820E+02</totfact>
</mgrwt>
</event>
<event>
 4    1  0.5900026E-005  0.4407748E+03  0.7818608E-02  0.1030509E+00
          2   -1    0    0  501    0  0.00000000000E+00  0.00000000000E+00  0.25092442303E+03  0.25092442304E+03  0.25500000000E-02 0.  1.
         -2   -1    0    0    0  501 -0.00000000000E+00 -0.00000000000E+00 -0.19356668438E+03  0.19356668439E+03  0.25500000000E-02 0. -1.
    5000001    1    1    2    0    0  0.62614422765E+02 -0.80267062975E+02  0.65638133902E+02  0.22701482762E+03  0.19200000000E+03 0.  0.
   -5000001    1    1    2    0    0 -0.62614422765E+02  0.80267062975E+02 -0.82803952524E+01  0.21747627982E+03  0.19200000000E+03 0.  0.
<mgrwt>
<rscale>  0 0.44077481E+03</rscale>
<asrwt>0</asrwt>
<pdfrwt beam="1">  1        2 0.35846346E-01 0.44077481E+03</pdfrwt>
<pdfrwt beam="2">  1       -2 0.27652383E-01 0.44077481E+03</pdfrwt>
<totfact> 0.17233691E+03</totfact>
</mgrwt>
</event>
<event>
 4    1  0.5900026E-005  0.5775229E+03  0.7818608E-02  0.9953168E-01
         -2   -1    0    0    0  501 -0.00000000000E+00  0.00000000000E+00  0.41688103222E+02  0.41688103300E+02  0.25500000000E-02 0. -1.
          2   -1    0    0  501    0  0.00000000000E+00 -0.00000000000E+00 -0.20001669278E+04  0.20001669278E+04  0.25500000000E-02 0.  1.
    5000001    1    1    2    0    0  0.14200907090E+03  0.10580304537E+03 -0.14145317652E+04  0.14384453328E+04  0.19200000000E+03 0.  0.
   -5000001    1    1    2    0    0 -0.14200907090E+03 -0.10580304537E+03 -0.54394705940E+03  0.60340969834E+03  0.19200000000E+03 0.  0.
<mgrwt>
<rscale>  0 0.57752287E+03</rscale>
<asrwt>0</asrwt>
<pdfrwt beam="1">  1        2 0.28573807E+00 0.57752287E+03</pdfrwt>
<pdfrwt beam="2">  1       -2 0.59554446E-02 0.57752287E+03</pdfrwt>
<totfact> 0.12958581E+03</totfact>
</mgrwt>
</event>
<event>
 4    1  0.5900026E-005  0.4309530E+03  0.7818608E-02  0.1033559E+00
          2   -1    0    0  501    0  0.00000000000E+00  0.00000000000E+00  0.10252249852E+04  0.10252249852E+04  0.25500000000E-02 0.  1.
         -2   -1    0    0    0  501 -0.00000000000E+00 -0.00000000000E+00 -0.45287745981E+02  0.45287746053E+02  0.25500000000E-02 0. -1.
    5000001    1    1    2    0    0 -0.90109738670E+02  0.29964738394E+02  0.54814431462E+03  0.58850984716E+03  0.19200000000E+03 0.  0.
   -5000001    1    1    2    0    0  0.90109738670E+02 -0.29964738394E+02  0.43179292463E+03  0.48200288413E+03  0.19200000000E+03 0.  0.
<mgrwt>
<rscale>  0 0.43095303E+03</rscale>
<asrwt>0</asrwt>
<pdfrwt beam="1">  1        2 0.14646071E+00 0.43095303E+03</pdfrwt>
<pdfrwt beam="2">  1       -2 0.64696781E-02 0.43095303E+03</pdfrwt>
<totfact> 0.37259152E+03</totfact>
</mgrwt>
</event>
<event>
 4    1  0.5900026E-005  0.4582603E+03  0.7818608E-02  0.1025287E+00
          2   -1    0    0  501    0  0.00000000000E+00  0.00000000000E+00  0.60756597670E+03  0.60756597670E+03  0.25500000000E-02 0.  1.
         -2   -1    0    0    0  501 -0.00000000000E+00 -0.00000000000E+00 -0.86411382298E+02  0.86411382336E+02  0.25500000000E-02 0. -1.
    5000001    1    1    2    0    0  0.75921151167E+01 -0.10602652039E+03  0.16084278344E+03  0.27209127921E+03  0.19200000000E+03 0.  0.
   -5000001    1    1    2    0    0 -0.75921151167E+01  0.10602652039E+03  0.36031181096E+03  0.42188607983E+03  0.19200000000E+03 0.  0.
<mgrwt>
<rscale>  0 0.45826026E+03</rscale>
<asrwt>0</asrwt>
<pdfrwt beam="1">  1        2 0.86795138E-01 0.45826026E+03</pdfrwt>
<pdfrwt beam="2">  1       -2 0.12344483E-01 0.45826026E+03</pdfrwt>
<totfact> 0.25776176E+03</totfact>
</mgrwt>
</event>
<event>
 4    1  0.5900026E-005  0.5911696E+03  0.7818608E-02  0.9923898E-01
          2   -1    0    0  501    0  0.00000000000E+00  0.00000000000E+00  0.31865182625E+04  0.31865182625E+04  0.25500000000E-02 0.  1.
         -2   -1    0    0    0  501 -0.00000000000E+00 -0.00000000000E+00 -0.27418757001E+02  0.27418757120E+02  0.25500000000E-02 0. -1.
    5000001    1    1    2    0    0 -0.77734929428E+02 -0.15745957740E+03  0.23420305658E+04  0.23564395619E+04  0.19200000000E+03 0.  0.
   -5000001    1    1    2    0    0  0.77734929428E+02  0.15745957740E+03  0.81706893968E+03  0.85749745770E+03  0.19200000000E+03 0.  0.
<mgrwt>
<rscale>  0 0.59116959E+03</rscale>
<asrwt>0</asrwt>
<pdfrwt beam="1">  1        2 0.45521663E+00 0.59116959E+03</pdfrwt>
<pdfrwt beam="2">  1       -2 0.39169676E-02 0.59116959E+03</pdfrwt>
<totfact> 0.59576815E+02</totfact>
</mgrwt>
</event>
<event>
 4    1  0.5900026E-005  0.6271526E+03  0.7818608E-02  0.9850621E-01
          2   -1    0    0  501    0  0.00000000000E+00  0.00000000000E+00  0.22250580389E+03  0.22250580391E+03  0.25500000000E-02 0.  1.
         -2   -1    0    0    0  501 -0.00000000000E+00 -0.00000000000E+00 -0.44192149253E+03  0.44192149253E+03  0.25500000000E-02 0. -1.
    5000001    1    1    2    0    0  0.17207383904E+03 -0.16247362021E+03 -0.31431357524E+02  0.30636418456E+03  0.19200000000E+03 0.  0.
   -5000001    1    1    2    0    0 -0.17207383904E+03  0.16247362021E+03 -0.18798433111E+03  0.35806311188E+03  0.19200000000E+03 0.  0.
<mgrwt>
<rscale>  0 0.62715260E+03</rscale>
<asrwt>0</asrwt>
<pdfrwt beam="1">  1        2 0.31786543E-01 0.62715260E+03</pdfrwt>
<pdfrwt beam="2">  1       -2 0.63131642E-01 0.62715260E+03</pdfrwt>
<totfact> 0.39098970E+02</totfact>
</mgrwt>
</event>
<event>
 4    1  0.5900026E-005  0.6261623E+03  0.7818608E-02  0.9852566E-01
         -2   -1    0    0    0  501 -0.00000000000E+00  0.00000000000E+00  0.36802251020E+02  0.36802251108E+02  0.25500000000E-02 0. -1.
          2   -1    0    0  501    0  0.00000000000E+00 -0.00000000000E+00 -0.26634190540E+04  0.26634190540E+04  0.25500000000E-02 0.  1.
    5000001    1    1    2    0    0 -0.18394931780E+02 -0.15595345960E+03 -0.48948366787E+03  0.54874230399E+03  0.19200000000E+03 0.  0.
   -5000001    1    1    2    0    0  0.18394931780E+02  0.15595345960E+03 -0.21371331352E+04  0.21514790012E+04  0.19200000000E+03 0.  0.
<mgrwt>
<rscale>  0 0.62616233E+03</rscale>
<asrwt>0</asrwt>
<pdfrwt beam="1">  1        2 0.38048831E+00 0.62616233E+03</pdfrwt>
<pdfrwt beam="2">  1       -2 0.52574661E-02 0.62616233E+03</pdfrwt>
<totfact> 0.72158188E+02</totfact>
</mgrwt>
</event>
<event>
 4    1  0.5900026E-005  0.5501460E+03  0.7818608E-02  0.1001460E+00
         -2   -1    0    0    0  501 -0.00000000000E+00  0.00000000000E+00  0.15828157823E+03  0.15828157825E+03  0.25500000000E-02 0. -1.
          2   -1    0    0  501    0  0.00000000000E+00 -0.00000000000E+00 -0.47804145218E+03  0.47804145219E+03  0.25500000000E-02 0.  1.
    5000001    1    1    2    0    0 -0.15173044523E+03  0.97301337630E+02 -0.67990584569E+02  0.27198602520E+03  0.19200000000E+03 0.  0.
   -5000001    1    1    2    0    0  0.15173044523E+03 -0.97301337630E+02 -0.25176928938E+03  0.36433700524E+03  0.19200000000E+03 0.  0.
<mgrwt>
<rscale>  0 0.55014600E+03</rscale>
<asrwt>0</asrwt>
<pdfrwt beam="1">  1        2 0.68291635E-01 0.55014600E+03</pdfrwt>
<pdfrwt beam="2">  1       -2 0.22611654E-01 0.55014600E+03</pdfrwt>
<totfact> 0.12138769E+03</totfact>
</mgrwt>
</event>
<event>
 4    1  0.5900026E-005  0.7460766E+03  0.7818608E-02  0.9641526E-01
          2   -1    0    0  501    0  0.00000000000E+00  0.00000000000E+00  0.23203510620E+04  0.23203510620E+04  0.25500000000E-02 0.  1.
         -2   -1    0    0    0  501 -0.00000000000E+00 -0.00000000000E+00 -0.59972642707E+02  0.59972642761E+02  0.25500000000E-02 0. -1.
    5000001    1    1    2    0    0  0.11135828025E+03  0.28021473486E+02  0.17780926976E+03  0.28577264734E+03  0.19200000000E+03 0.  0.
   -5000001    1    1    2    0    0 -0.11135828025E+03 -0.28021473486E+02  0.20825691496E+04  0.20945510575E+04  0.19200000000E+03 0.  0.
<mgrwt>
<rscale>  0 0.74607663E+03</rscale>
<asrwt>0</asrwt>
<pdfrwt beam="1">  1        2 0.33147862E+00 0.74607663E+03</pdfrwt>
<pdfrwt beam="2">  1       -2 0.85675230E-02 0.74607663E+03</pdfrwt>
<totfact> 0.49628381E+02</totfact>
</mgrwt>
</event>
<event>
 4    1  0.5900026E-005  0.5162068E+03  0.7818608E-02  0.1009633E+00
          2   -1    0    0  501    0  0.00000000000E+00  0.00000000000E+00  0.14958387124E+04  0.14958387124E+04  0.25500000000E-02 0.  1.
         -2   -1    0    0    0  501 -0.00000000000E+00 -0.00000000000E+00 -0.44535125630E+02  0.44535125703E+02  0.25500000000E-02 0. -1.
    5000001    1    1    2    0    0 -0.64959319478E+02  0.90955735219E+02  0.33361060992E+03  0.40081504214E+03  0.19200000000E+03 0.  0.
   -5000001    1    1    2    0    0  0.64959319478E+02 -0.90955735219E+02  0.11176929768E+04  0.11395587959E+04  0.19200000000E+03 0.  0.
<mgrwt>
<rscale>  0 0.51620680E+03</rscale>
<asrwt>0</asrwt>
<pdfrwt beam="1">  1        2 0.21369126E+00 0.51620680E+03</pdfrwt>
<pdfrwt beam="2">  1       -2 0.63621602E-02 0.51620680E+03</pdfrwt>
<totfact> 0.21097149E+03</totfact>
</mgrwt>
</event>
<event>
 4    1  0.5900026E-005  0.7151933E+03  0.7818608E-02  0.9691597E-01
         -2   -1    0    0    0  501 -0.00000000000E+00  0.00000000000E+00  0.31709863540E+02  0.31709863642E+02  0.25500000000E-02 0. -1.
          2   -1    0    0  501    0  0.00000000000E+00 -0.00000000000E+00 -0.40326682698E+04  0.40326682698E+04  0.25500000000E-02 0.  1.
    5000001    1    1    2    0    0 -0.19626728968E+03  0.13088895335E+03 -0.93187183088E+03  0.98025602589E+03  0.19200000000E+03 0.  0.
   -5000001    1    1    2    0    0  0.19626728968E+03 -0.13088895335E+03 -0.30690865754E+04  0.30841221075E+04  0.19200000000E+03 0.  0.
<mgrwt>
<rscale>  0 0.71519329E+03</rscale>
<asrwt>0</asrwt>
<pdfrwt beam="1">  1        2 0.57609514E+00 0.71519329E+03</pdfrwt>
<pdfrwt beam="2">  1       -2 0.45299831E-02 0.71519329E+03</pdfrwt>
<totfact> 0.14232828E+02</totfact>
</mgrwt>
</event>
<event>
 4    1  0.5900026E-005  0.6666113E+03  0.7818608E-02  0.9776099E-01
         -2   -1    0    0    0  501 -0.00000000000E+00  0.00000000000E+00  0.10358574722E+03  0.10358574725E+03  0.25500000000E-02 0. -1.
          2   -1    0    0  501    0  0.00000000000E+00 -0.00000000000E+00 -0.10724703849E+04  0.10724703849E+04  0.25500000000E-02 0.  1.
    5000001    1    1    2    0    0 -0.22066822802E+03  0.11333417476E+03 -0.68317917269E+03  0.75175586730E+03  0.19200000000E+03 0.  0.
   -5000001    1    1    2    0    0  0.22066822802E+03 -0.11333417476E+03 -0.28570546502E+03  0.42430026487E+03  0.19200000000E+03 0.  0.
<mgrwt>
<rscale>  0 0.66661127E+03</rscale>
<asrwt>0</asrwt>
<pdfrwt beam="1">  1        2 0.15321005E+00 0.66661127E+03</pdfrwt>
<pdfrwt beam="2">  1       -2 0.14797965E-01 0.66661127E+03</pdfrwt>
<totfact> 0.91447505E+02</totfact>
</mgrwt>
</event>
<event>
 4    1  0.5900026E-005  0.7170565E+03  0.7818608E-02  0.9688500E-01
         -2   -1    0    0    0  501 -0.00000000000E+00  0.00000000000E+00  0.10906152335E+03  0.10906152338E+03  0.25500000000E-02 0. -1.
          2   -1    0    0  501    0  0.00000000000E+00 -0.00000000000E+00 -0.11786237439E+04  0.11786237439E+04  0.25500000000E-02 0.  1.
    5000001    1    1    2    0    0 -0.24436936182E+03  0.11397293711E+03 -0.78213354249E+03  0.84929564562E+03  0.19200000000E+03 0.  0.
   -5000001    1    1    2    0    0  0.24436936182E+03 -0.11397293711E+03 -0.28742867802E+03  0.43838962161E+03  0.19200000000E+03 0.  0.
<mgrwt>
<rscale>  0 0.71705649E+03</rscale>
<asrwt>0</asrwt>
<pdfrwt beam="1">  1        2 0.16837481E+00 0.71705649E+03</pdfrwt>
<pdfrwt beam="2">  1       -2 0.15580218E-01 0.71705649E+03</pdfrwt>
<totfact> 0.72635577E+02</totfact>
</mgrwt>
</event>
<event>
 4    1  0.5900026E-005  0.1008501E+04  0.7818608E-02  0.9299270E-01
          2   -1    0    0  501    0  0.00000000000E+00  0.00000000000E+00  0.25443199879E+04  0.25443199879E+04  0.25500000000E-02 0.  1.
         -2   -1    0    0    0  501 -0.00000000000E+00 -0.00000000000E+00 -0.99935696890E+02  0.99935696922E+02  0.25500000000E-02 0. -1.
    5000001    1    1    2    0    0 -0.28247117421E+03 -0.36585564095E+03  0.13830552719E+04  0.14708318053E+04  0.19200000000E+03 0.  0.
   -5000001    1    1    2    0    0  0.28247117421E+03  0.36585564095E+03  0.10613290190E+04  0.11734238795E+04  0.19200000000E+03 0.  0.
<mgrwt>
<rscale>  0 0.10085007E+04</rscale>
<asrwt>0</asrwt>
<pdfrwt beam="1">  1        2 0.36347422E+00 0.10085007E+04</pdfrwt>
<pdfrwt beam="2">  1       -2 0.14276531E-01 0.10085007E+04</pdfrwt>
<totfact> 0.16071493E+02</totfact>
</mgrwt>
</event>
<event>
 4    1  0.5900026E-005  0.8441085E+03  0.7818608E-02  0.9498279E-01
         -2   -1    0    0    0  501 -0.00000000000E+00  0.00000000000E+00  0.14507817399E+03  0.14507817401E+03  0.25500000000E-02 0. -1.
          2   -1    0    0  501    0  0.00000000000E+00 -0.00000000000E+00 -0.12278194093E+04  0.12278194093E+04  0.25500000000E-02 0.  1.
    5000001    1    1    2    0    0  0.33281549027E+03  0.10905111992E+03 -0.31950813014E+03  0.51147604299E+03  0.19200000000E+03 0.  0.
   -5000001    1    1    2    0    0 -0.33281549027E+03 -0.10905111992E+03 -0.76323310515E+03  0.86142154032E+03  0.19200000000E+03 0.  0.
<mgrwt>
<rscale>  0 0.84410852E+03</rscale>
<asrwt>0</asrwt>
<pdfrwt beam="1">  1        2 0.17540277E+00 0.84410852E+03</pdfrwt>
<pdfrwt beam="2">  1       -2 0.20725454E-01 0.84410852E+03</pdfrwt>
<totfact> 0.41397129E+02</totfact>
</mgrwt>
</event>
<event>
 4    1  0.5900026E-005  0.4521162E+03  0.7818608E-02  0.1027093E+00
         -2   -1    0    0    0  501 -0.00000000000E+00  0.00000000000E+00  0.22847205590E+02  0.22847205732E+02  0.25500000000E-02 0. -1.
          2   -1    0    0  501    0  0.00000000000E+00 -0.00000000000E+00 -0.22366961817E+04  0.22366961817E+04  0.25500000000E-02 0.  1.
    5000001    1    1    2    0    0  0.67694527004E+02 -0.97345822739E+02 -0.10399665243E+04  0.10641678110E+04  0.19200000000E+03 0.  0.
   -5000001    1    1    2    0    0 -0.67694527004E+02  0.97345822739E+02 -0.11738824517E+04  0.11953755764E+04  0.19200000000E+03 0.  0.
<mgrwt>
<rscale>  0 0.45211617E+03</rscale>
<asrwt>0</asrwt>
<pdfrwt beam="1">  1        2 0.31952789E+00 0.45211617E+03</pdfrwt>
<pdfrwt beam="2">  1       -2 0.32638879E-02 0.45211617E+03</pdfrwt>
<totfact> 0.25033674E+03</totfact>
</mgrwt>
</event>
<event>
 4    1  0.5900026E-005  0.7498290E+03  0.7818608E-02  0.9635619E-01
          2   -1    0    0  501    0  0.00000000000E+00  0.00000000000E+00  0.16720370731E+04  0.16720370731E+04  0.25500000000E-02 0.  1.
         -2   -1    0    0    0  501 -0.00000000000E+00 -0.00000000000E+00 -0.84065660474E+02  0.84065660513E+02  0.25500000000E-02 0. -1.
    5000001    1    1    2    0    0  0.24115382124E+02  0.24199950153E+03  0.12883183198E+04  0.13250560002E+04  0.19200000000E+03 0.  0.
   -5000001    1    1    2    0    0 -0.24115382124E+02 -0.24199950153E+03  0.29965309284E+03  0.43104673348E+03  0.19200000000E+03 0.  0.
<mgrwt>
<rscale>  0 0.74982905E+03</rscale>
<asrwt>0</asrwt>
<pdfrwt beam="1">  1        2 0.23886247E+00 0.74982905E+03</pdfrwt>
<pdfrwt beam="2">  1       -2 0.12009379E-01 0.74982905E+03</pdfrwt>
<totfact> 0.61067133E+02</totfact>
</mgrwt>
</event>
<event>
 4    1  0.5900026E-005  0.1299750E+04  0.7818608E-02  0.9029763E-01
          2   -1    0    0  501    0  0.00000000000E+00  0.00000000000E+00  0.18994715149E+04  0.18994715149E+04  0.25500000000E-02 0.  1.
         -2   -1    0    0    0  501 -0.00000000000E+00 -0.00000000000E+00 -0.22234476823E+03  0.22234476825E+03  0.25500000000E-02 0. -1.
    5000001    1    1    2    0    0 -0.61428272576E+03  0.72808546776E+02  0.75173135058E+03  0.99227434468E+03  0.19200000000E+03 0.  0.
   -5000001    1    1    2    0    0  0.61428272576E+03 -0.72808546776E+02  0.92539539607E+03  0.11295419384E+04  0.19200000000E+03 0.  0.
<mgrwt>
<rscale>  0 0.12997501E+04</rscale>
<asrwt>0</asrwt>
<pdfrwt beam="1">  1        2 0.27135310E+00 0.12997501E+04</pdfrwt>
<pdfrwt beam="2">  1       -2 0.31763535E-01 0.12997501E+04</pdfrwt>
<totfact> 0.81660895E+01</totfact>
</mgrwt>
</event>
<event>
 4    1  0.5900026E-005  0.1160112E+04  0.7818608E-02  0.9148506E-01
         -2   -1    0    0    0  501 -0.00000000000E+00  0.00000000000E+00  0.71274910201E+03  0.71274910202E+03  0.25500000000E-02 0. -1.
          2   -1    0    0  501    0  0.00000000000E+00 -0.00000000000E+00 -0.47206615894E+03  0.47206615895E+03  0.25500000000E-02 0.  1.
    5000001    1    1    2    0    0  0.85436715176E+02  0.52553619682E+03 -0.92985616054E+01  0.56607260110E+03  0.19200000000E+03 0.  0.
   -5000001    1    1    2    0    0 -0.85436715176E+02 -0.52553619682E+03  0.24998150467E+03  0.61874265987E+03  0.19200000000E+03 0.  0.
<mgrwt>
<rscale>  0 0.11601116E+04</rscale>
<asrwt>0</asrwt>
<pdfrwt beam="1">  1        2 0.67438022E-01 0.11601116E+04</pdfrwt>
<pdfrwt beam="2">  1       -2 0.10182130E+00 0.11601116E+04</pdfrwt>
<totfact> 0.56191572E+01</totfact>
</mgrwt>
</event>
<event>
 4    1  0.5900026E-005  0.4083276E+03  0.7818608E-02  0.1040934E+00
         -2   -1    0    0    0  501 -0.00000000000E+00  0.00000000000E+00  0.19745165012E+02  0.19745165177E+02  0.25500000000E-02 0. -1.
          2   -1    0    0  501    0  0.00000000000E+00 -0.00000000000E+00 -0.21110413031E+04  0.21110413031E+04  0.25500000000E-02 0.  1.
    5000001    1    1    2    0    0  0.69314597098E+02 -0.34862915219E+01 -0.10379230867E+04  0.10578114205E+04  0.19200000000E+03 0.  0.
   -5000001    1    1    2    0    0 -0.69314597098E+02  0.34862915219E+01 -0.10533730514E+04  0.10729750477E+04  0.19200000000E+03 0.  0.
<mgrwt>
<rscale>  0 0.40832761E+03</rscale>
<asrwt>0</asrwt>
<pdfrwt beam="1">  1        2 0.30157718E+00 0.40832761E+03</pdfrwt>
<pdfrwt beam="2">  1       -2 0.28207392E-02 0.40832761E+03</pdfrwt>
<totfact> 0.36082931E+03</totfact>
</mgrwt>
</event>
<event>
 4    1  0.5900026E-005  0.2069506E+04  0.7818608E-02  0.8574796E-01
          2   -1    0    0  501    0  0.00000000000E+00  0.00000000000E+00  0.12018307657E+04  0.12018307657E+04  0.25500000000E-02 0.  1.
         -2   -1    0    0    0  501 -0.00000000000E+00 -0.00000000000E+00 -0.89090222212E+03  0.89090222212E+03  0.25500000000E-02 0. -1.
    5000001    1    1    2    0    0  0.54512715182E+03 -0.70057676120E+03 -0.34596217542E+03  0.97186688224E+03  0.19200000000E+03 0.  0.
   -5000001    1    1    2    0    0 -0.54512715182E+03  0.70057676120E+03  0.65689071903E+03  0.11208661056E+04  0.19200000000E+03 0.  0.
<mgrwt>
<rscale>  0 0.20695059E+04</rscale>
<asrwt>0</asrwt>
<pdfrwt beam="1">  1        2 0.17169011E+00 0.20695059E+04</pdfrwt>
<pdfrwt beam="2">  1       -2 0.12727175E+00 0.20695059E+04</pdfrwt>
<totfact> 0.90648033E+00</totfact>
</mgrwt>
</event>
<event>
 4    1  0.5900026E-005  0.8619518E+03  0.7818608E-02  0.9474435E-01
          2   -1    0    0  501    0  0.00000000000E+00  0.00000000000E+00  0.52346511531E+04  0.52346511531E+04  0.25500000000E-02 0.  1.
         -2   -1    0    0    0  501 -0.00000000000E+00 -0.00000000000E+00 -0.35482830955E+02  0.35482831047E+02  0.25500000000E-02 0. -1.
    5000001    1    1    2    0    0  0.38393120865E+03 -0.38380576697E+02  0.25994373898E+04  0.26349221971E+04  0.19200000000E+03 0.  0.
   -5000001    1    1    2    0    0 -0.38393120865E+03  0.38380576697E+02  0.25997309324E+04  0.26352117870E+04  0.19200000000E+03 0.  0.
<mgrwt>
<rscale>  0 0.86195184E+03</rscale>
<asrwt>0</asrwt>
<pdfrwt beam="1">  1        2 0.74780698E+00 0.86195184E+03</pdfrwt>
<pdfrwt beam="2">  1       -2 0.50689781E-02 0.86195184E+03</pdfrwt>
<totfact> 0.11619062E+01</totfact>
</mgrwt>
</event>
<event>
 4    1  0.5900026E-005  0.6288849E+03  0.7818608E-02  0.9847227E-01
          2   -1    0    0  501    0  0.00000000000E+00  0.00000000000E+00  0.94805531486E+03  0.94805531486E+03  0.25500000000E-02 0.  1.
         -2   -1    0    0    0  501 -0.00000000000E+00 -0.00000000000E+00 -0.10429144670E+03  0.10429144673E+03  0.25500000000E-02 0. -1.
    5000001    1    1    2    0    0 -0.61528701666E+02  0.20421060040E+03  0.63697334612E+03  0.69863208780E+03  0.19200000000E+03 0.  0.
   -5000001    1    1    2    0    0  0.61528701666E+02 -0.20421060040E+03  0.20679052204E+03  0.35371467379E+03  0.19200000000E+03 0.  0.
<mgrwt>
<rscale>  0 0.62888492E+03</rscale>
<asrwt>0</asrwt>
<pdfrwt beam="1">  1        2 0.13543647E+00 0.62888492E+03</pdfrwt>
<pdfrwt beam="2">  1       -2 0.14898779E-01 0.62888492E+03</pdfrwt>
<totfact> 0.10773191E+03</totfact>
</mgrwt>
</event>
<event>
 4    1  0.5900026E-005  0.8615476E+03  0.7818608E-02  0.9474968E-01
          2   -1    0    0  501    0  0.00000000000E+00  0.00000000000E+00  0.38455241592E+03  0.38455241593E+03  0.25500000000E-02 0.  1.
         -2   -1    0    0    0  501 -0.00000000000E+00 -0.00000000000E+00 -0.48255077907E+03  0.48255077908E+03  0.25500000000E-02 0. -1.
    5000001    1    1    2    0    0  0.35230605016E+03 -0.13954705564E+03 -0.12093830850E+03  0.44168202157E+03  0.19200000000E+03 0.  0.
   -5000001    1    1    2    0    0 -0.35230605016E+03  0.13954705564E+03  0.22939945344E+02  0.42542117344E+03  0.19200000000E+03 0.  0.
<mgrwt>
<rscale>  0 0.86154760E+03</rscale>
<asrwt>0</asrwt>
<pdfrwt beam="1">  1        2 0.54936059E-01 0.86154760E+03</pdfrwt>
<pdfrwt beam="2">  1       -2 0.68935826E-01 0.86154760E+03</pdfrwt>
<totfact> 0.17466694E+02</totfact>
</mgrwt>
</event>
<event>
 4    1  0.5900026E-005  0.5550642E+03  0.7818608E-02  0.1000329E+00
          2   -1    0    0  501    0  0.00000000000E+00  0.00000000000E+00  0.12268691663E+04  0.12268691663E+04  0.25500000000E-02 0.  1.
         -2   -1    0    0    0  501 -0.00000000000E+00 -0.00000000000E+00 -0.62780992869E+02  0.62780992921E+02  0.25500000000E-02 0. -1.
    5000001    1    1    2    0    0  0.14152780261E+03  0.10709571668E+03  0.36582252072E+03  0.44965512129E+03  0.19200000000E+03 0.  0.
   -5000001    1    1    2    0    0 -0.14152780261E+03 -0.10709571668E+03  0.79826565270E+03  0.83999503791E+03  0.19200000000E+03 0.  0.
<mgrwt>
<rscale>  0 0.55506419E+03</rscale>
<asrwt>0</asrwt>
<pdfrwt beam="1">  1        2 0.17526700E+00 0.55506419E+03</pdfrwt>
<pdfrwt beam="2">  1       -2 0.89687145E-02 0.55506419E+03</pdfrwt>
<totfact> 0.17034405E+03</totfact>
</mgrwt>
</event>
<event>
 4    1  0.5900026E-005  0.5914579E+03  0.7818608E-02  0.9923288E-01
         -2   -1    0    0    0  501 -0.00000000000E+00  0.00000000000E+00  0.29666226075E+03  0.29666226076E+03  0.25500000000E-02 0. -1.
          2   -1    0    0  501    0  0.00000000000E+00 -0.00000000000E+00 -0.29479855035E+03  0.29479855036E+03  0.25500000000E-02 0.  1.
    5000001    1    1    2    0    0 -0.57557475475E+02  0.21609243985E+03 -0.23209492390E+02  0.29565433547E+03  0.19200000000E+03 0.  0.
   -5000001    1    1    2    0    0  0.57557475475E+02 -0.21609243985E+03  0.25073202791E+02  0.29580647566E+03  0.19200000000E+03 0.  0.
<mgrwt>
<rscale>  0 0.59145787E+03</rscale>
<asrwt>0</asrwt>
<pdfrwt beam="1">  1        2 0.42114079E-01 0.59145787E+03</pdfrwt>
<pdfrwt beam="2">  1       -2 0.42380323E-01 0.59145787E+03</pdfrwt>
<totfact> 0.64575237E+02</totfact>
</mgrwt>
</event>
<event>
 4    1  0.5900026E-005  0.7408312E+03  0.7818608E-02  0.9649846E-01
         -2   -1    0    0    0  501 -0.00000000000E+00  0.00000000000E+00  0.13210738852E+03  0.13210738855E+03  0.25500000000E-02 0. -1.
          2   -1    0    0  501    0  0.00000000000E+00 -0.00000000000E+00 -0.10386073459E+04  0.10386073459E+04  0.25500000000E-02 0.  1.
    5000001    1    1    2    0    0  0.16683075768E+03  0.26383278493E+03 -0.36809891689E+03  0.51942376989E+03  0.19200000000E+03 0.  0.
   -5000001    1    1    2    0    0 -0.16683075768E+03 -0.26383278493E+03 -0.53840104046E+03  0.65129096453E+03  0.19200000000E+03 0.  0.
<mgrwt>
<rscale>  0 0.74083117E+03</rscale>
<asrwt>0</asrwt>
<pdfrwt beam="1">  1        2 0.14837247E+00 0.74083117E+03</pdfrwt>
<pdfrwt beam="2">  1       -2 0.18872485E-01 0.74083117E+03</pdfrwt>
<totfact> 0.63060999E+02</totfact>
</mgrwt>
</event>
<event>
 4    1  0.5900026E-005  0.1004318E+04  0.7818608E-02  0.9303822E-01
         -2   -1    0    0    0  501 -0.00000000000E+00  0.00000000000E+00  0.11492459452E+03  0.11492459455E+03  0.25500000000E-02 0. -1.
          2   -1    0    0  501    0  0.00000000000E+00 -0.00000000000E+00 -0.21941651257E+04  0.21941651257E+04  0.25500000000E-02 0.  1.
    5000001    1    1    2    0    0  0.32027267538E+03 -0.29566498180E+03 -0.14053762610E+04  0.14838931239E+04  0.19200000000E+03 0.  0.
   -5000001    1    1    2    0    0 -0.32027267538E+03  0.29566498180E+03 -0.67386427014E+03  0.82519659635E+03  0.19200000000E+03 0.  0.
<mgrwt>
<rscale>  0 0.10043178E+04</rscale>
<asrwt>0</asrwt>
<pdfrwt beam="1">  1        2 0.31345213E+00 0.10043178E+04</pdfrwt>
<pdfrwt beam="2">  1       -2 0.16417801E-01 0.10043178E+04</pdfrwt>
<totfact> 0.19221880E+02</totfact>
</mgrwt>
</event>
<event>
 4    1  0.5900026E-005  0.5742449E+03  0.7818608E-02  0.9960329E-01
          2   -1    0    0  501    0  0.00000000000E+00  0.00000000000E+00  0.10956689195E+04  0.10956689195E+04  0.25500000000E-02 0.  1.
         -2   -1    0    0    0  501 -0.00000000000E+00 -0.00000000000E+00 -0.75241073619E+02  0.75241073663E+02  0.25500000000E-02 0. -1.
    5000001    1    1    2    0    0  0.24879614159E+02  0.12342270699E+03  0.86175310791E+03  0.89181532774E+03  0.19200000000E+03 0.  0.
   -5000001    1    1    2    0    0 -0.24879614159E+02 -0.12342270699E+03  0.15867473799E+03  0.27909466544E+03  0.19200000000E+03 0.  0.
<mgrwt>
<rscale>  0 0.57424492E+03</rscale>
<asrwt>0</asrwt>
<pdfrwt beam="1">  1        2 0.15652414E+00 0.57424492E+03</pdfrwt>
<pdfrwt beam="2">  1       -2 0.10748724E-01 0.57424492E+03</pdfrwt>
<totfact> 0.15082525E+03</totfact>
</mgrwt>
</event>
<event>
 4    1  0.5900026E-005  0.6679349E+03  0.7818608E-02  0.9773696E-01
          2   -1    0    0  501    0  0.00000000000E+00  0.00000000000E+00  0.77894244238E+03  0.77894244238E+03  0.25500000000E-02 0.  1.
         -2   -1    0    0    0  501 -0.00000000000E+00 -0.00000000000E+00 -0.14318679590E+03  0.14318679592E+03  0.25500000000E-02 0. -1.
    5000001    1    1    2    0    0  0.18036437350E+02  0.26740836187E+03  0.24433454780E+03  0.41036071488E+03  0.19200000000E+03 0.  0.
   -5000001    1    1    2    0    0 -0.18036437350E+02 -0.26740836187E+03  0.39142109868E+03  0.51176852342E+03  0.19200000000E+03 0.  0.
<mgrwt>
<rscale>  0 0.66793494E+03</rscale>
<asrwt>0</asrwt>
<pdfrwt beam="1">  1        2 0.11127749E+00 0.66793494E+03</pdfrwt>
<pdfrwt beam="2">  1       -2 0.20455257E-01 0.66793494E+03</pdfrwt>
<totfact> 0.80949131E+02</totfact>
</mgrwt>
</event>
<event>
 4    1  0.5900026E-005  0.5671826E+03  0.7818608E-02  0.9975933E-01
          2   -1    0    0  501    0  0.00000000000E+00  0.00000000000E+00  0.14880257230E+04  0.14880257230E+04  0.25500000000E-02 0. -1.
         -2   -1    0    0    0  501 -0.00000000000E+00 -0.00000000000E+00 -0.54047463667E+02  0.54047463728E+02  0.25500000000E-02 0.  1.
    5000001    1    1    2    0    0  0.42186109113E+02 -0.37177430715E+02  0.12634550081E+04  0.12791967740E+04  0.19200000000E+03 0.  0.
   -5000001    1    1    2    0    0 -0.42186109113E+02  0.37177430715E+02  0.17052325126E+03  0.26287641275E+03  0.19200000000E+03 0.  0.
<mgrwt>
<rscale>  0 0.56718257E+03</rscale>
<asrwt>0</asrwt>
<pdfrwt beam="1">  1        2 0.21257511E+00 0.56718257E+03</pdfrwt>
<pdfrwt beam="2">  1       -2 0.77210662E-02 0.56718257E+03</pdfrwt>
<totfact> 0.15671350E+03</totfact>
</mgrwt>
</event>
<event>
 4    1  0.5900026E-005  0.4036136E+03  0.7818608E-02  0.1042536E+00
          2   -1    0    0  501    0  0.00000000000E+00  0.00000000000E+00  0.10393830396E+04  0.10393830396E+04  0.25500000000E-02 0.  1.
         -2   -1    0    0    0  501 -0.00000000000E+00 -0.00000000000E+00 -0.39182836487E+02  0.39182836570E+02  0.25500000000E-02 0. -1.
    5000001    1    1    2    0    0 -0.17862391005E+02  0.49370535210E+02  0.41125108217E+03  0.45688944762E+03  0.19200000000E+03 0.  0.
   -5000001    1    1    2    0    0  0.17862391005E+02 -0.49370535210E+02  0.58894912090E+03  0.62167642852E+03  0.19200000000E+03 0.  0.
<mgrwt>
<rscale>  0 0.40361356E+03</rscale>
<asrwt>0</asrwt>
<pdfrwt beam="1">  1        2 0.14848325E+00 0.40361356E+03</pdfrwt>
<pdfrwt beam="2">  1       -2 0.55975495E-02 0.40361356E+03</pdfrwt>
<totfact> 0.45730843E+03</totfact>
</mgrwt>
</event>
<event>
 4    1  0.5900026E-005  0.8776720E+03  0.7818608E-02  0.9453931E-01
         -2   -1    0    0    0  501 -0.00000000000E+00  0.00000000000E+00  0.10098124558E+03  0.10098124561E+03  0.25500000000E-02 0. -1.
          2   -1    0    0  501    0  0.00000000000E+00 -0.00000000000E+00 -0.19070573889E+04  0.19070573890E+04  0.25500000000E-02 0.  1.
    5000001    1    1    2    0    0 -0.35991591552E+03  0.40516072040E+02 -0.12613872492E+04  0.13263268115E+04  0.19200000000E+03 0.  0.
   -5000001    1    1    2    0    0  0.35991591552E+03 -0.40516072040E+02 -0.54468889416E+03  0.68171182311E+03  0.19200000000E+03 0.  0.
<mgrwt>
<rscale>  0 0.87767199E+03</rscale>
<asrwt>0</asrwt>
<pdfrwt beam="1">  1        2 0.27243675E+00 0.87767199E+03</pdfrwt>
<pdfrwt beam="2">  1       -2 0.14425893E-01 0.87767199E+03</pdfrwt>
<totfact> 0.33842187E+02</totfact>
</mgrwt>
</event>
<event>
 4    1  0.5900026E-005  0.5799990E+03  0.7818608E-02  0.9947793E-01
         -2   -1    0    0    0  501 -0.00000000000E+00  0.00000000000E+00  0.31038810541E+02  0.31038810646E+02  0.25500000000E-02 0. -1.
          2   -1    0    0  501    0  0.00000000000E+00 -0.00000000000E+00 -0.27095017724E+04  0.27095017724E+04  0.25500000000E-02 0.  1.
    5000001    1    1    2    0    0 -0.10767982573E+03  0.19513836138E+01 -0.22312200912E+04  0.22420539352E+04  0.19200000000E+03 0.  0.
   -5000001    1    1    2    0    0  0.10767982573E+03 -0.19513836138E+01 -0.44724287060E+03  0.49848664784E+03  0.19200000000E+03 0.  0.
<mgrwt>
<rscale>  0 0.57999901E+03</rscale>
<asrwt>0</asrwt>
<pdfrwt beam="1">  1        2 0.38707153E+00 0.57999901E+03</pdfrwt>
<pdfrwt beam="2">  1       -2 0.44341175E-02 0.57999901E+03</pdfrwt>
<totfact> 0.89212796E+02</totfact>
</mgrwt>
</event>
<event>
 4    1  0.5900026E-005  0.4459680E+03  0.7818608E-02  0.1028931E+00
          2   -1    0    0  501    0  0.00000000000E+00  0.00000000000E+00  0.97470686650E+03  0.97470686650E+03  0.25500000000E-02 0.  1.
         -2   -1    0    0    0  501 -0.00000000000E+00 -0.00000000000E+00 -0.51012123877E+02  0.51012123940E+02  0.25500000000E-02 0. -1.
    5000001    1    1    2    0    0  0.37721170443E+02 -0.45570200398E+02  0.23935043329E+03  0.31249345558E+03  0.19200000000E+03 0.  0.
   -5000001    1    1    2    0    0 -0.37721170443E+02  0.45570200398E+02  0.68434430934E+03  0.71322553487E+03  0.19200000000E+03 0.  0.
<mgrwt>
<rscale>  0 0.44596801E+03</rscale>
<asrwt>0</asrwt>
<pdfrwt beam="1">  1        2 0.13924384E+00 0.44596801E+03</pdfrwt>
<pdfrwt beam="2">  1       -2 0.72874461E-02 0.44596801E+03</pdfrwt>
<totfact> 0.33172458E+03</totfact>
</mgrwt>
</event>
<event>
 4    1  0.5900026E-005  0.5978919E+03  0.7818608E-02  0.9909789E-01
          2   -1    0    0  501    0  0.00000000000E+00  0.00000000000E+00  0.37110736393E+04  0.37110736393E+04  0.25500000000E-02 0.  1.
         -2   -1    0    0    0  501 -0.00000000000E+00 -0.00000000000E+00 -0.24081622843E+02  0.24081622978E+02  0.25500000000E-02 0. -1.
    5000001    1    1    2    0    0 -0.18411808772E+03 -0.11832122155E+03  0.14195459539E+04  0.14490942333E+04  0.19200000000E+03 0.  0.
   -5000001    1    1    2    0    0  0.18411808772E+03  0.11832122155E+03  0.22674460625E+04  0.22860610290E+04  0.19200000000E+03 0.  0.
<mgrwt>
<rscale>  0 0.59789188E+03</rscale>
<asrwt>0</asrwt>
<pdfrwt beam="1">  1        2 0.53015303E+00 0.59789188E+03</pdfrwt>
<pdfrwt beam="2">  1       -2 0.34402341E-02 0.59789188E+03</pdfrwt>
<totfact> 0.35664538E+02</totfact>
</mgrwt>
</event>
<event>
 4    1  0.5900026E-005  0.5962700E+03  0.7818608E-02  0.9913175E-01
         -2   -1    0    0    0  501 -0.00000000000E+00  0.00000000000E+00  0.28510152210E+02  0.28510152324E+02  0.25500000000E-02 0. -1.
          2   -1    0    0  501    0  0.00000000000E+00 -0.00000000000E+00 -0.31176431324E+04  0.31176431324E+04  0.25500000000E-02 0.  1.
    5000001    1    1    2    0    0  0.10261549284E+03  0.17598087022E+03 -0.20857830625E+04  0.21044843050E+04  0.19200000000E+03 0.  0.
   -5000001    1    1    2    0    0 -0.10261549284E+03 -0.17598087022E+03 -0.10033499176E+04  0.10416689797E+04  0.19200000000E+03 0.  0.
<mgrwt>
<rscale>  0 0.59627001E+03</rscale>
<asrwt>0</asrwt>
<pdfrwt beam="1">  1        2 0.44537737E+00 0.59627001E+03</pdfrwt>
<pdfrwt beam="2">  1       -2 0.40728809E-02 0.59627001E+03</pdfrwt>
<totfact> 0.61259110E+02</totfact>
</mgrwt>
</event>
<event>
 4    1  0.5900026E-005  0.7542038E+03  0.7818608E-02  0.9628778E-01
          2   -1    0    0  501    0  0.00000000000E+00  0.00000000000E+00  0.15365839883E+04  0.15365839883E+04  0.25500000000E-02 0.  1.
         -2   -1    0    0    0  501 -0.00000000000E+00 -0.00000000000E+00 -0.92546738875E+02  0.92546738910E+02  0.25500000000E-02 0. -1.
    5000001    1    1    2    0    0  0.25610435256E+03  0.19015081697E+03  0.59250347423E+03  0.69976506027E+03  0.19200000000E+03 0.  0.
   -5000001    1    1    2    0    0 -0.25610435256E+03 -0.19015081697E+03  0.85153377522E+03  0.92936566697E+03  0.19200000000E+03 0.  0.
<mgrwt>
<rscale>  0 0.75420378E+03</rscale>
<asrwt>0</asrwt>
<pdfrwt beam="1">  1        2 0.21951197E+00 0.75420378E+03</pdfrwt>
<pdfrwt beam="2">  1       -2 0.13220964E-01 0.75420378E+03</pdfrwt>
<totfact> 0.61166563E+02</totfact>
</mgrwt>
</event>
<event>
 4    1  0.5900026E-005  0.1019908E+04  0.7818608E-02  0.9286976E-01
          2   -1    0    0  501    0  0.00000000000E+00  0.00000000000E+00  0.16641818175E+04  0.16641818175E+04  0.25500000000E-02 0.  1.
         -2   -1    0    0    0  501 -0.00000000000E+00 -0.00000000000E+00 -0.15626468509E+03  0.15626468511E+03  0.25500000000E-02 0. -1.
    5000001    1    1    2    0    0 -0.27727968479E+03 -0.27316549728E+03  0.27606346215E+03  0.51437189624E+03  0.19200000000E+03 0.  0.
   -5000001    1    1    2    0    0  0.27727968479E+03  0.27316549728E+03  0.12318536702E+04  0.13060746064E+04  0.19200000000E+03 0.  0.
<mgrwt>
<rscale>  0 0.10199075E+04</rscale>
<asrwt>0</asrwt>
<pdfrwt beam="1">  1        2 0.23774025E+00 0.10199075E+04</pdfrwt>
<pdfrwt beam="2">  1       -2 0.22323528E-01 0.10199075E+04</pdfrwt>
<totfact> 0.20977947E+02</totfact>
</mgrwt>
</event>
<event>
 4    1  0.5900026E-005  0.5857828E+03  0.7818608E-02  0.9935349E-01
          2   -1    0    0  501    0  0.00000000000E+00  0.00000000000E+00  0.74631718779E+03  0.74631718780E+03  0.25500000000E-02 0.  1.
         -2   -1    0    0    0  501 -0.00000000000E+00 -0.00000000000E+00 -0.11494492100E+03  0.11494492103E+03  0.25500000000E-02 0. -1.
    5000001    1    1    2    0    0  0.11127605726E+02  0.21524769681E+03  0.24267432270E+03  0.37710770542E+03  0.19200000000E+03 0.  0.
   -5000001    1    1    2    0    0 -0.11127605726E+02 -0.21524769681E+03  0.38869794410E+03  0.48415440340E+03  0.19200000000E+03 0.  0.
<mgrwt>
<rscale>  0 0.58578279E+03</rscale>
<asrwt>0</asrwt>
<pdfrwt beam="1">  1        2 0.10661674E+00 0.58578279E+03</pdfrwt>
<pdfrwt beam="2">  1       -2 0.16420703E-01 0.58578279E+03</pdfrwt>
<totfact> 0.12496438E+03</totfact>
</mgrwt>
</event>
<event>
 4    1  0.5900026E-005  0.5481139E+03  0.7818608E-02  0.1001931E+00
          2   -1    0    0  501    0  0.00000000000E+00  0.00000000000E+00  0.31734001967E+03  0.31734001968E+03  0.25500000000E-02 0.  1.
         -2   -1    0    0    0  501 -0.00000000000E+00 -0.00000000000E+00 -0.23667742867E+03  0.23667742868E+03  0.25500000000E-02 0. -1.
    5000001    1    1    2    0    0 -0.22210313008E+02 -0.14551487964E+03  0.17046321878E+03  0.29595538035E+03  0.19200000000E+03 0.  0.
   -5000001    1    1    2    0    0  0.22210313008E+02  0.14551487964E+03 -0.89800627772E+02  0.25806206802E+03  0.19200000000E+03 0.  0.
<mgrwt>
<rscale>  0 0.54811393E+03</rscale>
<asrwt>0</asrwt>
<pdfrwt beam="1">  1        2 0.45334288E-01 0.54811393E+03</pdfrwt>
<pdfrwt beam="2">  1       -2 0.33811061E-01 0.54811393E+03</pdfrwt>
<totfact> 0.91909048E+02</totfact>
</mgrwt>
</event>
<event>
 4    1  0.5900026E-005  0.6027003E+03  0.7818608E-02  0.9899820E-01
         -2   -1    0    0    0  501 -0.00000000000E+00  0.00000000000E+00  0.40091475922E+02  0.40091476004E+02  0.25500000000E-02 0. -1.
          2   -1    0    0  501    0  0.00000000000E+00 -0.00000000000E+00 -0.22651178751E+04  0.22651178751E+04  0.25500000000E-02 0.  1.
    5000001    1    1    2    0    0  0.92310318248E+02 -0.21256021087E+03 -0.10526601517E+04  0.10948335184E+04  0.19200000000E+03 0.  0.
   -5000001    1    1    2    0    0 -0.92310318248E+02  0.21256021087E+03 -0.11723662475E+04  0.12103758327E+04  0.19200000000E+03 0.  0.
<mgrwt>
<rscale>  0 0.60270032E+03</rscale>
<asrwt>0</asrwt>
<pdfrwt beam="1">  1        2 0.32358819E+00 0.60270032E+03</pdfrwt>
<pdfrwt beam="2">  1       -2 0.57273551E-02 0.60270032E+03</pdfrwt>
<totfact> 0.10120599E+03</totfact>
</mgrwt>
</event>
<event>
 4    1  0.5900026E-005  0.4626475E+03  0.7818608E-02  0.1024016E+00
          2   -1    0    0  501    0  0.00000000000E+00  0.00000000000E+00  0.16466501863E+04  0.16466501863E+04  0.25500000000E-02 0.  1.
         -2   -1    0    0    0  501 -0.00000000000E+00 -0.00000000000E+00 -0.32496692771E+02  0.32496692871E+02  0.25500000000E-02 0. -1.
    5000001    1    1    2    0    0  0.52414063462E+02 -0.82011476039E+02  0.11144783129E+04  0.11350766609E+04  0.19200000000E+03 0.  0.
   -5000001    1    1    2    0    0 -0.52414063462E+02  0.82011476039E+02  0.49967518066E+03  0.54407021828E+03  0.19200000000E+03 0.  0.
<mgrwt>
<rscale>  0 0.46264753E+03</rscale>
<asrwt>0</asrwt>
<pdfrwt beam="1">  1        2 0.23523573E+00 0.46264753E+03</pdfrwt>
<pdfrwt beam="2">  1       -2 0.46423849E-02 0.46264753E+03</pdfrwt>
<totfact> 0.28820066E+03</totfact>
</mgrwt>
</event>
<event>
 4    1  0.5900026E-005  0.6642573E+03  0.7818608E-02  0.9780388E-01
         -2   -1    0    0    0  501 -0.00000000000E+00  0.00000000000E+00  0.11879760498E+03  0.11879760500E+03  0.25500000000E-02 0. -1.
          2   -1    0    0  501    0  0.00000000000E+00 -0.00000000000E+00 -0.92854941496E+03  0.92854941497E+03  0.25500000000E-02 0.  1.
    5000001    1    1    2    0    0 -0.18545997299E+03 -0.19330016933E+03 -0.46959996443E+03  0.57371463607E+03  0.19200000000E+03 0.  0.
   -5000001    1    1    2    0    0  0.18545997299E+03  0.19330016933E+03 -0.34015184555E+03  0.47363238390E+03  0.19200000000E+03 0.  0.
<mgrwt>
<rscale>  0 0.66425732E+03</rscale>
<asrwt>0</asrwt>
<pdfrwt beam="1">  1        2 0.13264991E+00 0.66425732E+03</pdfrwt>
<pdfrwt beam="2">  1       -2 0.16971087E-01 0.66425732E+03</pdfrwt>
<totfact> 0.88781684E+02</totfact>
</mgrwt>
</event>
<event>
 4    1  0.5900026E-005  0.4254501E+03  0.7818608E-02  0.1035307E+00
          2   -1    0    0  501    0  0.00000000000E+00  0.00000000000E+00  0.60249342958E+03  0.60249342958E+03  0.25500000000E-02 0.  1.
         -2   -1    0    0    0  501 -0.00000000000E+00 -0.00000000000E+00 -0.75107788738E+02  0.75107788781E+02  0.25500000000E-02 0. -1.
    5000001    1    1    2    0    0 -0.62664797599E+02 -0.30117750646E+02  0.35864038953E+03  0.41269950904E+03  0.19200000000E+03 0.  0.
   -5000001    1    1    2    0    0  0.62664797599E+02  0.30117750646E+02  0.16874525131E+03  0.26490170932E+03  0.19200000000E+03 0.  0.
<mgrwt>
<rscale>  0 0.42545011E+03</rscale>
<asrwt>0</asrwt>
<pdfrwt beam="1">  1        2 0.86070490E-01 0.42545011E+03</pdfrwt>
<pdfrwt beam="2">  1       -2 0.10729684E-01 0.42545011E+03</pdfrwt>
<totfact> 0.32677920E+03</totfact>
</mgrwt>
</event>
<event>
 4    1  0.5900026E-005  0.9430036E+03  0.7818608E-02  0.9373366E-01
         -2   -1    0    0    0  501 -0.00000000000E+00  0.00000000000E+00  0.73377578841E+02  0.73377578885E+02  0.25500000000E-02 0. -1.
          2   -1    0    0  501    0  0.00000000000E+00 -0.00000000000E+00 -0.30297258528E+04  0.30297258528E+04  0.25500000000E-02 0.  1.
    5000001    1    1    2    0    0 -0.32775732469E+03 -0.78251927787E+02 -0.23605478047E+04  0.23921952609E+04  0.19200000000E+03 0.  0.
   -5000001    1    1    2    0    0  0.32775732469E+03  0.78251927787E+02 -0.59580046925E+03  0.71090817076E+03  0.19200000000E+03 0.  0.
<mgrwt>
<rscale>  0 0.94300360E+03</rscale>
<asrwt>0</asrwt>
<pdfrwt beam="1">  1        2 0.43281790E+00 0.94300360E+03</pdfrwt>
<pdfrwt beam="2">  1       -2 0.10482513E-01 0.94300360E+03</pdfrwt>
<totfact> 0.14829503E+02</totfact>
</mgrwt>
</event>
<event>
 4    1  0.5900026E-005  0.9680385E+03  0.7818608E-02  0.9344311E-01
         -2   -1    0    0    0  501 -0.00000000000E+00  0.00000000000E+00  0.94811637915E+02  0.94811637950E+02  0.25500000000E-02 0. -1.
          2   -1    0    0  501    0  0.00000000000E+00 -0.00000000000E+00 -0.24709481917E+04  0.24709481917E+04  0.25500000000E-02 0.  1.
    5000001    1    1    2    0    0 -0.32737953211E+03 -0.28663127303E+03 -0.14262542347E+04  0.15034626656E+04  0.19200000000E+03 0.  0.
   -5000001    1    1    2    0    0  0.32737953211E+03  0.28663127303E+03 -0.94988231905E+03  0.10622971641E+04  0.19200000000E+03 0.  0.
<mgrwt>
<rscale>  0 0.96803852E+03</rscale>
<asrwt>0</asrwt>
<pdfrwt beam="1">  1        2 0.35299256E+00 0.96803852E+03</pdfrwt>
<pdfrwt beam="2">  1       -2 0.13544521E-01 0.96803852E+03</pdfrwt>
<totfact> 0.19240286E+02</totfact>
</mgrwt>
</event>
<event>
 4    1  0.5900026E-005  0.6880283E+03  0.7818608E-02  0.9737927E-01
         -2   -1    0    0    0  501 -0.00000000000E+00  0.00000000000E+00  0.91189621215E+02  0.91189621251E+02  0.25500000000E-02 0. -1.
          2   -1    0    0  501    0  0.00000000000E+00 -0.00000000000E+00 -0.12977981161E+04  0.12977981161E+04  0.25500000000E-02 0.  1.
    5000001    1    1    2    0    0 -0.48033673484E+02 -0.22985127328E+03 -0.27564400927E+03  0.40985663525E+03  0.19200000000E+03 0.  0.
   -5000001    1    1    2    0    0  0.48033673484E+02  0.22985127328E+03 -0.93096448558E+03  0.97913110207E+03  0.19200000000E+03 0.  0.
<mgrwt>
<rscale>  0 0.68802825E+03</rscale>
<asrwt>0</asrwt>
<pdfrwt beam="1">  1        2 0.18539972E+00 0.68802825E+03</pdfrwt>
<pdfrwt beam="2">  1       -2 0.13027090E-01 0.68802825E+03</pdfrwt>
<totfact> 0.84298948E+02</totfact>
</mgrwt>
</event>
<event>
 4    1  0.5900026E-005  0.5928239E+03  0.7818608E-02  0.9920407E-01
         -2   -1    0    0    0  501 -0.00000000000E+00  0.00000000000E+00  0.27214635971E+03  0.27214635972E+03  0.25500000000E-02 0. -1.
          2   -1    0    0  501    0  0.00000000000E+00 -0.00000000000E+00 -0.32284110429E+03  0.32284110430E+03  0.25500000000E-02 0.  1.
    5000001    1    1    2    0    0  0.17715836456E+03 -0.95021606730E+02  0.77896129528E+02  0.28869707112E+03  0.19200000000E+03 0.  0.
   -5000001    1    1    2    0    0 -0.17715836456E+03  0.95021606730E+02 -0.12859087411E+03  0.30629039290E+03  0.19200000000E+03 0.  0.
<mgrwt>
<rscale>  0 0.59282386E+03</rscale>
<asrwt>0</asrwt>
<pdfrwt beam="1">  1        2 0.46120158E-01 0.59282386E+03</pdfrwt>
<pdfrwt beam="2">  1       -2 0.38878051E-01 0.59282386E+03</pdfrwt>
<totfact> 0.69090703E+02</totfact>
</mgrwt>
</event>
<event>
 4    1  0.5900026E-005  0.4750305E+03  0.7818608E-02  0.1020510E+00
          2   -1    0    0  501    0  0.00000000000E+00  0.00000000000E+00  0.29508924071E+03  0.29508924073E+03  0.25500000000E-02 0.  1.
         -2   -1    0    0    0  501 -0.00000000000E+00 -0.00000000000E+00 -0.19117435657E+03  0.19117435659E+03  0.25500000000E-02 0. -1.
    5000001    1    1    2    0    0 -0.51954987385E+02  0.51754037887E+02 -0.69902550950E+02  0.21709022958E+03  0.19200000000E+03 0.  0.
   -5000001    1    1    2    0    0  0.51954987385E+02 -0.51754037887E+02  0.17381743509E+03  0.26917336773E+03  0.19200000000E+03 0.  0.
<mgrwt>
<rscale>  0 0.47503051E+03</rscale>
<asrwt>0</asrwt>
<pdfrwt beam="1">  1        2 0.42155606E-01 0.47503051E+03</pdfrwt>
<pdfrwt beam="2">  1       -2 0.27310622E-01 0.47503051E+03</pdfrwt>
<totfact> 0.14759469E+03</totfact>
</mgrwt>
</event>
<event>
 4    1  0.5900026E-005  0.4608257E+03  0.7818608E-02  0.1024542E+00
         -2   -1    0    0    0  501 -0.00000000000E+00  0.00000000000E+00  0.24909251834E+03  0.24909251835E+03  0.25500000000E-02 0. -1.
          2   -1    0    0  501    0  0.00000000000E+00 -0.00000000000E+00 -0.21313396496E+03  0.21313396497E+03  0.25500000000E-02 0.  1.
    5000001    1    1    2    0    0  0.48475200608E+02  0.10689091495E+03  0.67632919824E+02  0.23497600860E+03  0.19200000000E+03 0.  0.
   -5000001    1    1    2    0    0 -0.48475200608E+02 -0.10689091495E+03 -0.31674366441E+02  0.22725047472E+03  0.19200000000E+03 0.  0.
<mgrwt>
<rscale>  0 0.46082568E+03</rscale>
<asrwt>0</asrwt>
<pdfrwt beam="1">  1        2 0.30447709E-01 0.46082568E+03</pdfrwt>
<pdfrwt beam="2">  1       -2 0.35584646E-01 0.46082568E+03</pdfrwt>
<totfact> 0.12953051E+03</totfact>
</mgrwt>
</event>
<event>
 4    1  0.5900026E-005  0.5145456E+03  0.7818608E-02  0.1010051E+00
         -2   -1    0    0    0  501 -0.00000000000E+00  0.00000000000E+00  0.26982511259E+02  0.26982511379E+02  0.25500000000E-02 0. -1.
          2   -1    0    0  501    0  0.00000000000E+00 -0.00000000000E+00 -0.24530443747E+04  0.24530443747E+04  0.25500000000E-02 0.  1.
    5000001    1    1    2    0    0 -0.13211928100E+03  0.84238020920E+02 -0.15460447837E+04  0.15657809623E+04  0.19200000000E+03 0.  0.
   -5000001    1    1    2    0    0  0.13211928100E+03 -0.84238020920E+02 -0.88001707972E+03  0.91424592380E+03  0.19200000000E+03 0.  0.
<mgrwt>
<rscale>  0 0.51454562E+03</rscale>
<asrwt>0</asrwt>
<pdfrwt beam="1">  1        2 0.35043477E+00 0.51454562E+03</pdfrwt>
<pdfrwt beam="2">  1       -2 0.38546460E-02 0.51454562E+03</pdfrwt>
<totfact> 0.15070153E+03</totfact>
</mgrwt>
</event>
<event>
 4    1  0.5900026E-005  0.5151915E+03  0.7818608E-02  0.1009888E+00
         -2   -1    0    0    0  501 -0.00000000000E+00  0.00000000000E+00  0.97760386056E+02  0.97760386089E+02  0.25500000000E-02 0. -1.
          2   -1    0    0  501    0  0.00000000000E+00 -0.00000000000E+00 -0.67875715422E+03  0.67875715422E+03  0.25500000000E-02 0.  1.
    5000001    1    1    2    0    0  0.14501047741E+03 -0.66897161560E+02 -0.38568505116E+03  0.45947821218E+03  0.19200000000E+03 0.  0.
   -5000001    1    1    2    0    0 -0.14501047741E+03  0.66897161560E+02 -0.19531171701E+03  0.31703932813E+03  0.19200000000E+03 0.  0.
<mgrwt>
<rscale>  0 0.51519147E+03</rscale>
<asrwt>0</asrwt>
<pdfrwt beam="1">  1        2 0.96965305E-01 0.51519147E+03</pdfrwt>
<pdfrwt beam="2">  1       -2 0.13965770E-01 0.51519147E+03</pdfrwt>
<totfact> 0.18441134E+03</totfact>
</mgrwt>
</event>
<event>
 4    1  0.5900026E-005  0.4748288E+03  0.7818608E-02  0.1020566E+00
         -2   -1    0    0    0  501 -0.00000000000E+00  0.00000000000E+00  0.48930045112E+03  0.48930045113E+03  0.25500000000E-02 0. -1.
          2   -1    0    0  501    0  0.00000000000E+00 -0.00000000000E+00 -0.11519626976E+03  0.11519626979E+03  0.25500000000E-02 0.  1.
    5000001    1    1    2    0    0  0.13772922093E+03 -0.18453123710E+01  0.21632867729E+03  0.32036672751E+03  0.19200000000E+03 0.  0.
   -5000001    1    1    2    0    0 -0.13772922093E+03  0.18453123710E+01  0.15777550407E+03  0.28412999342E+03  0.19200000000E+03 0.  0.
<mgrwt>
<rscale>  0 0.47482876E+03</rscale>
<asrwt>0</asrwt>
<pdfrwt beam="1">  1        2 0.16456610E-01 0.47482876E+03</pdfrwt>
<pdfrwt beam="2">  1       -2 0.69900063E-01 0.47482876E+03</pdfrwt>
<totfact> 0.67244637E+02</totfact>
</mgrwt>
</event>
<event>
 4    1  0.5900026E-005  0.7759769E+03  0.7818608E-02  0.9595456E-01
         -2   -1    0    0    0  501 -0.00000000000E+00  0.00000000000E+00  0.93261897286E+02  0.93261897321E+02  0.25500000000E-02 0. -1.
          2   -1    0    0  501    0  0.00000000000E+00 -0.00000000000E+00 -0.16141106571E+04  0.16141106571E+04  0.25500000000E-02 0.  1.
    5000001    1    1    2    0    0 -0.20996209948E+03  0.19707023044E+03 -0.11462614444E+04  0.11973721468E+04  0.19200000000E+03 0.  0.
   -5000001    1    1    2    0    0  0.20996209948E+03 -0.19707023044E+03 -0.37458731543E+03  0.51000040767E+03  0.19200000000E+03 0.  0.
<mgrwt>
<rscale>  0 0.77597686E+03</rscale>
<asrwt>0</asrwt>
<pdfrwt beam="1">  1        2 0.23058722E+00 0.77597686E+03</pdfrwt>
<pdfrwt beam="2">  1       -2 0.13323129E-01 0.77597686E+03</pdfrwt>
<totfact> 0.54971489E+02</totfact>
</mgrwt>
</event>
<event>
 4    1  0.5900026E-005  0.4455582E+03  0.7818608E-02  0.1029055E+00
          2   -1    0    0  501    0  0.00000000000E+00  0.00000000000E+00  0.12152715098E+04  0.12152715098E+04  0.25500000000E-02 0.  1.
         -2   -1    0    0    0  501 -0.00000000000E+00 -0.00000000000E+00 -0.40839052498E+02  0.40839052578E+02  0.25500000000E-02 0. -1.
    5000001    1    1    2    0    0 -0.69903013157E+02  0.79777842603E+02  0.69696910613E+03  0.73067152013E+03  0.19200000000E+03 0.  0.
   -5000001    1    1    2    0    0  0.69903013157E+02 -0.79777842603E+02  0.47746335120E+03  0.52543904228E+03  0.19200000000E+03 0.  0.
<mgrwt>
<rscale>  0 0.44555824E+03</rscale>
<asrwt>0</asrwt>
<pdfrwt beam="1">  1        2 0.17361025E+00 0.44555824E+03</pdfrwt>
<pdfrwt beam="2">  1       -2 0.58341492E-02 0.44555824E+03</pdfrwt>
<totfact> 0.34094947E+03</totfact>
</mgrwt>
</event>
<event>
 4    1  0.5900026E-005  0.5953903E+03  0.7818608E-02  0.9915016E-01
         -2   -1    0    0    0  501 -0.00000000000E+00  0.00000000000E+00  0.43652720461E+02  0.43652720535E+02  0.25500000000E-02 0. -1.
          2   -1    0    0  501    0  0.00000000000E+00 -0.00000000000E+00 -0.20301693867E+04  0.20301693867E+04  0.25500000000E-02 0.  1.
    5000001    1    1    2    0    0  0.12914136067E+03  0.16864519606E+03 -0.70943721256E+03  0.76503846423E+03  0.19200000000E+03 0.  0.
   -5000001    1    1    2    0    0 -0.12914136067E+03 -0.16864519606E+03 -0.12770794537E+04  0.13087836430E+04  0.19200000000E+03 0.  0.
<mgrwt>
<rscale>  0 0.59539035E+03</rscale>
<asrwt>0</asrwt>
<pdfrwt beam="1">  1        2 0.29002414E+00 0.59539035E+03</pdfrwt>
<pdfrwt beam="2">  1       -2 0.62361042E-02 0.59539035E+03</pdfrwt>
<totfact> 0.11634704E+03</totfact>
</mgrwt>
</event>
<event>
 4    1  0.5900026E-005  0.6302731E+03  0.7818608E-02  0.9844516E-01
         -2   -1    0    0    0  501 -0.00000000000E+00  0.00000000000E+00  0.67410149118E+02  0.67410149166E+02  0.25500000000E-02 0. -1.
          2   -1    0    0  501    0  0.00000000000E+00 -0.00000000000E+00 -0.14732359240E+04  0.14732359240E+04  0.25500000000E-02 0.  1.
    5000001    1    1    2    0    0  0.17714419168E+03  0.13066949103E+03 -0.99206164308E+03  0.10341686923E+04  0.19200000000E+03 0.  0.
   -5000001    1    1    2    0    0 -0.17714419168E+03 -0.13066949103E+03 -0.41376413181E+03  0.50647738084E+03  0.19200000000E+03 0.  0.
<mgrwt>
<rscale>  0 0.63027313E+03</rscale>
<asrwt>0</asrwt>
<pdfrwt beam="1">  1        2 0.21046226E+00 0.63027313E+03</pdfrwt>
<pdfrwt beam="2">  1       -2 0.96300222E-02 0.63027313E+03</pdfrwt>
<totfact> 0.11171657E+03</totfact>
</mgrwt>
</event>
<event>
 4    1  0.5900026E-005  0.7295599E+03  0.7818608E-02  0.9667975E-01
          2   -1    0    0  501    0  0.00000000000E+00  0.00000000000E+00  0.11095096494E+04  0.11095096494E+04  0.25500000000E-02 0.  1.
         -2   -1    0    0    0  501 -0.00000000000E+00 -0.00000000000E+00 -0.11993083791E+03  0.11993083793E+03  0.25500000000E-02 0. -1.
    5000001    1    1    2    0    0  0.29167418914E+03  0.96726898695E+02  0.56569721423E+03  0.67179406348E+03  0.19200000000E+03 0.  0.
   -5000001    1    1    2    0    0 -0.29167418914E+03 -0.96726898695E+02  0.42388159726E+03  0.55764642386E+03  0.19200000000E+03 0.  0.
<mgrwt>
<rscale>  0 0.72955993E+03</rscale>
<asrwt>0</asrwt>
<pdfrwt beam="1">  1        2 0.15850138E+00 0.72955993E+03</pdfrwt>
<pdfrwt beam="2">  1       -2 0.17132977E-01 0.72955993E+03</pdfrwt>
<totfact> 0.67664899E+02</totfact>
</mgrwt>
</event>
<event>
 4    1  0.5900026E-005  0.3934210E+03  0.7818608E-02  0.1046082E+00
         -2   -1    0    0    0  501 -0.00000000000E+00  0.00000000000E+00  0.44861610729E+02  0.44861610801E+02  0.25500000000E-02 0. -1.
          2   -1    0    0  501    0  0.00000000000E+00 -0.00000000000E+00 -0.86254206269E+03  0.86254206269E+03  0.25500000000E-02 0.  1.
    5000001    1    1    2    0    0  0.76159282658E+01  0.36621765750E+02 -0.45677156729E+03  0.49689377212E+03  0.19200000000E+03 0.  0.
   -5000001    1    1    2    0    0 -0.76159282658E+01 -0.36621765750E+02 -0.36090888467E+03  0.41050990137E+03  0.19200000000E+03 0.  0.
<mgrwt>
<rscale>  0 0.39342103E+03</rscale>
<asrwt>0</asrwt>
<pdfrwt beam="1">  1        2 0.12322028E+00 0.39342103E+03</pdfrwt>
<pdfrwt beam="2">  1       -2 0.64088021E-02 0.39342103E+03</pdfrwt>
<totfact> 0.47654156E+03</totfact>
</mgrwt>
</event>
<event>
 4    1  0.5900026E-005  0.4131383E+03  0.7818608E-02  0.1039323E+00
          2   -1    0    0  501    0  0.00000000000E+00  0.00000000000E+00  0.34552825542E+03  0.34552825543E+03  0.25500000000E-02 0.  1.
         -2   -1    0    0    0  501 -0.00000000000E+00 -0.00000000000E+00 -0.12349443321E+03  0.12349443324E+03  0.25500000000E-02 0. -1.
    5000001    1    1    2    0    0 -0.43243659747E+02  0.62109774437E+02  0.12111874730E+03  0.23929352088E+03  0.19200000000E+03 0.  0.
   -5000001    1    1    2    0    0  0.43243659747E+02 -0.62109774437E+02  0.10091507491E+03  0.22972916779E+03  0.19200000000E+03 0.  0.
<mgrwt>
<rscale>  0 0.41313831E+03</rscale>
<asrwt>0</asrwt>
<pdfrwt beam="1">  1        2 0.49361179E-01 0.41313831E+03</pdfrwt>
<pdfrwt beam="2">  1       -2 0.17642062E-01 0.41313831E+03</pdfrwt>
<totfact> 0.26677444E+03</totfact>
</mgrwt>
</event>
<event>
 4    1  0.5900026E-005  0.4673455E+03  0.7818608E-02  0.1022672E+00
         -2   -1    0    0    0  501 -0.00000000000E+00  0.00000000000E+00  0.50044753127E+02  0.50044753192E+02  0.25500000000E-02 0. -1.
          2   -1    0    0  501    0  0.00000000000E+00 -0.00000000000E+00 -0.10910822852E+04  0.10910822852E+04  0.25500000000E-02 0.  1.
    5000001    1    1    2    0    0 -0.90155449541E+02 -0.87260534086E+02 -0.62962127430E+03  0.67009652658E+03  0.19200000000E+03 0.  0.
   -5000001    1    1    2    0    0  0.90155449541E+02  0.87260534086E+02 -0.41141625774E+03  0.47103051177E+03  0.19200000000E+03 0.  0.
<mgrwt>
<rscale>  0 0.46734546E+03</rscale>
<asrwt>0</asrwt>
<pdfrwt beam="1">  1        2 0.15586888E+00 0.46734546E+03</pdfrwt>
<pdfrwt beam="2">  1       -2 0.71492511E-02 0.46734546E+03</pdfrwt>
<totfact> 0.29164357E+03</totfact>
</mgrwt>
</event>
<event>
 4    1  0.5900026E-005  0.6610802E+03  0.7818608E-02  0.9786207E-01
         -2   -1    0    0    0  501 -0.00000000000E+00  0.00000000000E+00  0.32428952954E+03  0.32428952955E+03  0.25500000000E-02 0. -1.
          2   -1    0    0  501    0  0.00000000000E+00 -0.00000000000E+00 -0.33691113586E+03  0.33691113587E+03  0.25500000000E-02 0.  1.
    5000001    1    1    2    0    0 -0.10773355339E+03 -0.13195463382E+03  0.20199191067E+03  0.32662405896E+03  0.19200000000E+03 0.  0.
   -5000001    1    1    2    0    0  0.10773355339E+03  0.13195463382E+03 -0.21461351700E+03  0.33457660646E+03  0.19200000000E+03 0.  0.
<mgrwt>
<rscale>  0 0.66108019E+03</rscale>
<asrwt>0</asrwt>
<pdfrwt beam="1">  1        2 0.48130162E-01 0.66108019E+03</pdfrwt>
<pdfrwt beam="2">  1       -2 0.46327076E-01 0.66108019E+03</pdfrwt>
<totfact> 0.46650390E+02</totfact>
</mgrwt>
</event>
<event>
 4    1  0.5900026E-005  0.7656603E+03  0.7818608E-02  0.9611097E-01
          2   -1    0    0  501    0  0.00000000000E+00  0.00000000000E+00  0.32035120665E+04  0.32035120665E+04  0.25500000000E-02 0.  1.
         -2   -1    0    0    0  501 -0.00000000000E+00 -0.00000000000E+00 -0.45749454489E+02  0.45749454560E+02  0.25500000000E-02 0. -1.
    5000001    1    1    2    0    0  0.28575115273E+03 -0.16495298151E+03  0.14564936324E+04  0.15056895127E+04  0.19200000000E+03 0.  0.
   -5000001    1    1    2    0    0 -0.28575115273E+03  0.16495298151E+03  0.17012689796E+04  0.17435720083E+04  0.19200000000E+03 0.  0.
<mgrwt>
<rscale>  0 0.76566032E+03</rscale>
<asrwt>0</asrwt>
<pdfrwt beam="1">  1        2 0.45764471E+00 0.76566032E+03</pdfrwt>
<pdfrwt beam="2">  1       -2 0.65356345E-02 0.76566032E+03</pdfrwt>
<totfact> 0.25797959E+02</totfact>
</mgrwt>
</event>
<event>
 4    1  0.5900026E-005  0.6786022E+03  0.7818608E-02  0.9754542E-01
          2   -1    0    0  501    0  0.00000000000E+00  0.00000000000E+00  0.53147950213E+03  0.53147950214E+03  0.25500000000E-02 0.  1.
         -2   -1    0    0    0  501 -0.00000000000E+00 -0.00000000000E+00 -0.21661276855E+03  0.21661276856E+03  0.25500000000E-02 0. -1.
    5000001    1    1    2    0    0  0.23684738057E+03 -0.87342796182E+02  0.24522844406E+02  0.31810503867E+03  0.19200000000E+03 0.  0.
   -5000001    1    1    2    0    0 -0.23684738057E+03  0.87342796182E+02  0.29034388918E+03  0.42998723203E+03  0.19200000000E+03 0.  0.
<mgrwt>
<rscale>  0 0.67860223E+03</rscale>
<asrwt>0</asrwt>
<pdfrwt beam="1">  1        2 0.75925643E-01 0.67860223E+03</pdfrwt>
<pdfrwt beam="2">  1       -2 0.30944681E-01 0.67860223E+03</pdfrwt>
<totfact> 0.60809709E+02</totfact>
</mgrwt>
</event>
<event>
 4    1  0.5900026E-005  0.5800371E+03  0.7818608E-02  0.9947711E-01
         -2   -1    0    0    0  501 -0.00000000000E+00  0.00000000000E+00  0.26631994511E+02  0.26631994633E+02  0.25500000000E-02 0. -1.
          2   -1    0    0  501    0  0.00000000000E+00 -0.00000000000E+00 -0.31582601234E+04  0.31582601234E+04  0.25500000000E-02 0.  1.
    5000001    1    1    2    0    0 -0.31523382334E+02 -0.11153466180E+03 -0.55614003443E+03  0.59965777100E+03  0.19200000000E+03 0.  0.
   -5000001    1    1    2    0    0  0.31523382334E+02  0.11153466180E+03 -0.25754880944E+04  0.25852343470E+04  0.19200000000E+03 0.  0.
<mgrwt>
<rscale>  0 0.58003712E+03</rscale>
<asrwt>0</asrwt>
<pdfrwt beam="1">  1        2 0.45117977E+00 0.58003712E+03</pdfrwt>
<pdfrwt beam="2">  1       -2 0.38045727E-02 0.58003712E+03</pdfrwt>
<totfact> 0.64677882E+02</totfact>
</mgrwt>
</event>
<event>
 4    1  0.5900026E-005  0.4685694E+03  0.7818608E-02  0.1022325E+00
         -2   -1    0    0    0  501 -0.00000000000E+00  0.00000000000E+00  0.12712262148E+03  0.12712262150E+03  0.25500000000E-02 0. -1.
          2   -1    0    0  501    0  0.00000000000E+00 -0.00000000000E+00 -0.43178239867E+03  0.43178239868E+03  0.25500000000E-02 0.  1.
    5000001    1    1    2    0    0 -0.76008500243E+02 -0.65236730254E+02 -0.45695580464E+02  0.22132602458E+03  0.19200000000E+03 0.  0.
   -5000001    1    1    2    0    0  0.76008500243E+02  0.65236730254E+02 -0.25896419673E+03  0.33757899560E+03  0.19200000000E+03 0.  0.
<mgrwt>
<rscale>  0 0.46856936E+03</rscale>
<asrwt>0</asrwt>
<pdfrwt beam="1">  1        2 0.61683199E-01 0.46856936E+03</pdfrwt>
<pdfrwt beam="2">  1       -2 0.18160375E-01 0.46856936E+03</pdfrwt>
<totfact> 0.19903015E+03</totfact>
</mgrwt>
</event>
<event>
 4    1  0.5900026E-005  0.5812960E+03  0.7818608E-02  0.9944989E-01
         -2   -1    0    0    0  501 -0.00000000000E+00  0.00000000000E+00  0.45388429262E+02  0.45388429333E+02  0.25500000000E-02 0. -1.
          2   -1    0    0  501    0  0.00000000000E+00 -0.00000000000E+00 -0.18611851672E+04  0.18611851672E+04  0.25500000000E-02 0.  1.
    5000001    1    1    2    0    0  0.19210916969E+03  0.73875001249E+02 -0.11455206459E+04  0.11795952691E+04  0.19200000000E+03 0.  0.
   -5000001    1    1    2    0    0 -0.19210916969E+03 -0.73875001249E+02 -0.67027609208E+03  0.72697832740E+03  0.19200000000E+03 0.  0.
<mgrwt>
<rscale>  0 0.58129604E+03</rscale>
<asrwt>0</asrwt>
<pdfrwt beam="1">  1        2 0.26588355E+00 0.58129604E+03</pdfrwt>
<pdfrwt beam="2">  1       -2 0.64840625E-02 0.58129604E+03</pdfrwt>
<totfact> 0.13315054E+03</totfact>
</mgrwt>
</event>
<event>
 4    1  0.5900026E-005  0.5109510E+03  0.7818608E-02  0.1010959E+00
         -2   -1    0    0    0  501 -0.00000000000E+00  0.00000000000E+00  0.80366324222E+02  0.80366324263E+02  0.25500000000E-02 0. -1.
          2   -1    0    0  501    0  0.00000000000E+00 -0.00000000000E+00 -0.81212798275E+03  0.81212798275E+03  0.25500000000E-02 0.  1.
    5000001    1    1    2    0    0  0.76953990385E+02 -0.14974602151E+03 -0.35258348621E+03  0.43534457886E+03  0.19200000000E+03 0.  0.
   -5000001    1    1    2    0    0 -0.76953990385E+02  0.14974602151E+03 -0.37917817232E+03  0.45714972816E+03  0.19200000000E+03 0.  0.
<mgrwt>
<rscale>  0 0.51095104E+03</rscale>
<asrwt>0</asrwt>
<pdfrwt beam="1">  1        2 0.11601828E+00 0.51095104E+03</pdfrwt>
<pdfrwt beam="2">  1       -2 0.11480904E-01 0.51095104E+03</pdfrwt>
<totfact> 0.20394238E+03</totfact>
</mgrwt>
</event>
<event>
 4    1  0.5900026E-005  0.1043482E+04  0.7818608E-02  0.9262099E-01
          2   -1    0    0  501    0  0.00000000000E+00  0.00000000000E+00  0.15633585056E+04  0.15633585056E+04  0.25500000000E-02 0. -1.
         -2   -1    0    0    0  501 -0.00000000000E+00 -0.00000000000E+00 -0.17412112637E+03  0.17412112639E+03  0.25500000000E-02 0.  1.
    5000001    1    1    2    0    0 -0.48152538037E+03 -0.19137010203E+02  0.78757760325E+03  0.94306701683E+03  0.19200000000E+03 0.  0.
   -5000001    1    1    2    0    0  0.48152538037E+03  0.19137010203E+02  0.60165977602E+03  0.79441261520E+03  0.19200000000E+03 0.  0.
<mgrwt>
<rscale>  0 0.10434821E+04</rscale>
<asrwt>0</asrwt>
<pdfrwt beam="1">  1        2 0.22333692E+00 0.10434821E+04</pdfrwt>
<pdfrwt beam="2">  1       -2 0.24874448E-01 0.10434821E+04</pdfrwt>
<totfact> 0.19471803E+02</totfact>
</mgrwt>
</event>
<event>
 4    1  0.5900026E-005  0.6095808E+03  0.7818608E-02  0.9885726E-01
          2   -1    0    0  501    0  0.00000000000E+00  0.00000000000E+00  0.17979038528E+03  0.17979038530E+03  0.25500000000E-02 0.  1.
         -2   -1    0    0    0  501 -0.00000000000E+00 -0.00000000000E+00 -0.51669721786E+03  0.51669721786E+03  0.25500000000E-02 0. -1.
    5000001    1    1    2    0    0  0.71773065156E+02  0.22440510837E+03 -0.19461214694E+03  0.36089737222E+03  0.19200000000E+03 0.  0.
   -5000001    1    1    2    0    0 -0.71773065156E+02 -0.22440510837E+03 -0.14229468564E+03  0.33559023094E+03  0.19200000000E+03 0.  0.
<mgrwt>
<rscale>  0 0.60958081E+03</rscale>
<asrwt>0</asrwt>
<pdfrwt beam="1">  1        2 0.25684341E-01 0.60958081E+03</pdfrwt>
<pdfrwt beam="2">  1       -2 0.73813888E-01 0.60958081E+03</pdfrwt>
<totfact> 0.35490198E+02</totfact>
</mgrwt>
</event>
<event>
 4    1  0.5900026E-005  0.7440691E+03  0.7818608E-02  0.9644701E-01
          2   -1    0    0  501    0  0.00000000000E+00  0.00000000000E+00  0.11956192510E+03  0.11956192513E+03  0.25500000000E-02 0.  1.
         -2   -1    0    0    0  501 -0.00000000000E+00 -0.00000000000E+00 -0.11576404387E+04  0.11576404387E+04  0.25500000000E-02 0. -1.
    5000001    1    1    2    0    0 -0.22527109583E+03  0.20710824214E+03 -0.36642585958E+03  0.51456078469E+03  0.19200000000E+03 0.  0.
   -5000001    1    1    2    0    0  0.22527109583E+03 -0.20710824214E+03 -0.67165265403E+03  0.76264157914E+03  0.19200000000E+03 0.  0.
<mgrwt>
<rscale>  0 0.74406914E+03</rscale>
<asrwt>0</asrwt>
<pdfrwt beam="1">  1        2 0.17080276E-01 0.74406914E+03</pdfrwt>
<pdfrwt beam="2">  1       -2 0.16537720E+00 0.74406914E+03</pdfrwt>
<totfact> 0.79881562E+01</totfact>
</mgrwt>
</event>
<event>
 4    1  0.5900026E-005  0.5452582E+03  0.7818608E-02  0.1002597E+00
          2   -1    0    0  501    0  0.00000000000E+00  0.00000000000E+00  0.81455283012E+03  0.81455283013E+03  0.25500000000E-02 0.  1.
         -2   -1    0    0    0  501 -0.00000000000E+00 -0.00000000000E+00 -0.91248380703E+02  0.91248380738E+02  0.25500000000E-02 0. -1.
    5000001    1    1    2    0    0 -0.14323523511E+03 -0.11650696880E+03  0.26518016654E+03  0.37586530444E+03  0.19200000000E+03 0.  0.
   -5000001    1    1    2    0    0  0.14323523511E+03  0.11650696880E+03  0.45812428288E+03  0.52993590642E+03  0.19200000000E+03 0.  0.
<mgrwt>
<rscale>  0 0.54525820E+03</rscale>
<asrwt>0</asrwt>
<pdfrwt beam="1">  1        2 0.11636468E+00 0.54525820E+03</pdfrwt>
<pdfrwt beam="2">  1       -2 0.13035484E-01 0.54525820E+03</pdfrwt>
<totfact> 0.16485391E+03</totfact>
</mgrwt>
</event>
<event>
 4    1  0.5900026E-005  0.6308616E+03  0.7818608E-02  0.9843369E-01
          2   -1    0    0  501    0  0.00000000000E+00  0.00000000000E+00  0.14018143715E+04  0.14018143715E+04  0.25500000000E-02 0.  1.
         -2   -1    0    0    0  501 -0.00000000000E+00 -0.00000000000E+00 -0.70977014651E+02  0.70977014697E+02  0.25500000000E-02 0. -1.
    5000001    1    1    2    0    0  0.15353087761E+03  0.15720034015E+03  0.94506992349E+03  0.98909293679E+03  0.19200000000E+03 0.  0.
   -5000001    1    1    2    0    0 -0.15353087761E+03 -0.15720034015E+03  0.38576743336E+03  0.48369844942E+03  0.19200000000E+03 0.  0.
<mgrwt>
<rscale>  0 0.63086163E+03</rscale>
<asrwt>0</asrwt>
<pdfrwt beam="1">  1        2 0.20025918E+00 0.63086163E+03</pdfrwt>
<pdfrwt beam="2">  1       -2 0.10139574E-01 0.63086163E+03</pdfrwt>
<totfact> 0.11207910E+03</totfact>
</mgrwt>
</event>
<event>
 4    1  0.5900026E-005  0.5109116E+03  0.7818608E-02  0.1010969E+00
          2   -1    0    0  501    0  0.00000000000E+00  0.00000000000E+00  0.14032602299E+04  0.14032602299E+04  0.25500000000E-02 0.  1.
         -2   -1    0    0    0  501 -0.00000000000E+00 -0.00000000000E+00 -0.46504319766E+02  0.46504319836E+02  0.25500000000E-02 0. -1.
    5000001    1    1    2    0    0  0.15318982442E+03  0.64287319224E+02  0.75831988982E+03  0.79969559022E+03  0.19200000000E+03 0.  0.
   -5000001    1    1    2    0    0 -0.15318982442E+03 -0.64287319224E+02  0.59843602027E+03  0.65006895948E+03  0.19200000000E+03 0.  0.
<mgrwt>
<rscale>  0 0.51091159E+03</rscale>
<asrwt>0</asrwt>
<pdfrwt beam="1">  1        2 0.20046572E+00 0.51091159E+03</pdfrwt>
<pdfrwt beam="2">  1       -2 0.66434751E-02 0.51091159E+03</pdfrwt>
<totfact> 0.22040649E+03</totfact>
</mgrwt>
</event>
<event>
 4    1  0.5900026E-005  0.5384781E+03  0.7818608E-02  0.1004197E+00
         -2   -1    0    0    0  501 -0.00000000000E+00  0.00000000000E+00  0.22985518311E+02  0.22985518452E+02  0.25500000000E-02 0.  1.
          2   -1    0    0  501    0  0.00000000000E+00 -0.00000000000E+00 -0.31537097805E+04  0.31537097805E+04  0.25500000000E-02 0. -1.
    5000001    1    1    2    0    0 -0.17923390636E+03 -0.32904407549E+02 -0.18554637474E+04  0.18742511068E+04  0.19200000000E+03 0.  0.
   -5000001    1    1    2    0    0  0.17923390636E+03  0.32904407549E+02 -0.12752605147E+04  0.13024441921E+04  0.19200000000E+03 0.  0.
<mgrwt>
<rscale>  0 0.53847806E+03</rscale>
<asrwt>0</asrwt>
<pdfrwt beam="1">  1        2 0.45052969E+00 0.53847806E+03</pdfrwt>
<pdfrwt beam="2">  1       -2 0.32836475E-02 0.53847806E+03</pdfrwt>
<totfact> 0.81801858E+02</totfact>
</mgrwt>
</event>
<event>
 4    1  0.5900026E-005  0.5321749E+03  0.7818608E-02  0.1005706E+00
         -2   -1    0    0    0  501 -0.00000000000E+00  0.00000000000E+00  0.34824030269E+02  0.34824030362E+02  0.25500000000E-02 0. -1.
          2   -1    0    0  501    0  0.00000000000E+00 -0.00000000000E+00 -0.20331517676E+04  0.20331517676E+04  0.25500000000E-02 0.  1.
    5000001    1    1    2    0    0 -0.17676875956E+03  0.28358695492E+02 -0.83035633871E+03  0.87086569527E+03  0.19200000000E+03 0.  0.
   -5000001    1    1    2    0    0  0.17676875956E+03 -0.28358695492E+02 -0.11679713986E+04  0.11971101026E+04  0.19200000000E+03 0.  0.
<mgrwt>
<rscale>  0 0.53217493E+03</rscale>
<asrwt>0</asrwt>
<pdfrwt beam="1">  1        2 0.29045018E+00 0.53217493E+03</pdfrwt>
<pdfrwt beam="2">  1       -2 0.49748628E-02 0.53217493E+03</pdfrwt>
<totfact> 0.16540334E+03</totfact>
</mgrwt>
</event>
<event>
 4    1  0.5900026E-005  0.8473252E+03  0.7818608E-02  0.9493934E-01
          2   -1    0    0  501    0  0.00000000000E+00  0.00000000000E+00  0.15638458021E+04  0.15638458021E+04  0.25500000000E-02 0.  1.
         -2   -1    0    0    0  501 -0.00000000000E+00 -0.00000000000E+00 -0.11477473262E+03  0.11477473265E+03  0.25500000000E-02 0. -1.
    5000001    1    1    2    0    0  0.48959056483E+02  0.33605638454E+03  0.10518346110E+04  0.11218515640E+04  0.19200000000E+03 0.  0.
   -5000001    1    1    2    0    0 -0.48959056483E+02 -0.33605638454E+03  0.39723645845E+03  0.55676897070E+03  0.19200000000E+03 0.  0.
<mgrwt>
<rscale>  0 0.84732517E+03</rscale>
<asrwt>0</asrwt>
<pdfrwt beam="1">  1        2 0.22340653E+00 0.84732517E+03</pdfrwt>
<pdfrwt beam="2">  1       -2 0.16396391E-01 0.84732517E+03</pdfrwt>
<totfact> 0.40947050E+02</totfact>
</mgrwt>
</event>
<event>
 4    1  0.5900026E-005  0.8821859E+03  0.7818608E-02  0.9448128E-01
          2   -1    0    0  501    0  0.00000000000E+00  0.00000000000E+00  0.92566658804E+03  0.92566658804E+03  0.25500000000E-02 0.  1.
         -2   -1    0    0    0  501 -0.00000000000E+00 -0.00000000000E+00 -0.21018688094E+03  0.21018688096E+03  0.25500000000E-02 0. -1.
    5000001    1    1    2    0    0  0.70464588063E+02 -0.38970447493E+03  0.31989093154E+03  0.54408551169E+03  0.19200000000E+03 0.  0.
   -5000001    1    1    2    0    0 -0.70464588063E+02  0.38970447493E+03  0.39558877556E+03  0.59176795731E+03  0.19200000000E+03 0.  0.
<mgrwt>
<rscale>  0 0.88218586E+03</rscale>
<asrwt>0</asrwt>
<pdfrwt beam="1">  1        2 0.13223809E+00 0.88218586E+03</pdfrwt>
<pdfrwt beam="2">  1       -2 0.30026696E-01 0.88218586E+03</pdfrwt>
<totfact> 0.32040027E+02</totfact>
</mgrwt>
</event>
<event>
 4    1  0.5900026E-005  0.4971576E+03  0.7818608E-02  0.1014524E+00
          2   -1    0    0  501    0  0.00000000000E+00  0.00000000000E+00  0.19811358944E+03  0.19811358946E+03  0.25500000000E-02 0. -1.
         -2   -1    0    0    0  501 -0.00000000000E+00 -0.00000000000E+00 -0.31189890071E+03  0.31189890072E+03  0.25500000000E-02 0.  1.
    5000001    1    1    2    0    0 -0.11045252362E+03  0.94350939616E+02 -0.12034296713E+03  0.26916219928E+03  0.19200000000E+03 0.  0.
   -5000001    1    1    2    0    0  0.11045252362E+03 -0.94350939616E+02  0.65576558645E+01  0.24085029091E+03  0.19200000000E+03 0.  0.
<mgrwt>
<rscale>  0 0.49715756E+03</rscale>
<asrwt>0</asrwt>
<pdfrwt beam="1">  1        2 0.28301941E-01 0.49715756E+03</pdfrwt>
<pdfrwt beam="2">  1       -2 0.44556986E-01 0.49715756E+03</pdfrwt>
<totfact> 0.91073859E+02</totfact>
</mgrwt>
</event>
<event>
 4    1  0.5900026E-005  0.4745556E+03  0.7818608E-02  0.1020642E+00
          2   -1    0    0  501    0  0.00000000000E+00  0.00000000000E+00  0.20077042591E+04  0.20077042591E+04  0.25500000000E-02 0.  1.
         -2   -1    0    0    0  501 -0.00000000000E+00 -0.00000000000E+00 -0.28042358858E+02  0.28042358974E+02  0.25500000000E-02 0. -1.
    5000001    1    1    2    0    0  0.21948306107E+02  0.11373041697E+03  0.65697965466E+03  0.69419205017E+03  0.19200000000E+03 0.  0.
   -5000001    1    1    2    0    0 -0.21948306107E+02 -0.11373041697E+03  0.13226822456E+04  0.13415545679E+04  0.19200000000E+03 0.  0.
<mgrwt>
<rscale>  0 0.47455564E+03</rscale>
<asrwt>0</asrwt>
<pdfrwt beam="1">  1        2 0.28681486E+00 0.47455564E+03</pdfrwt>
<pdfrwt beam="2">  1       -2 0.40060518E-02 0.47455564E+03</pdfrwt>
<totfact> 0.23818189E+03</totfact>
</mgrwt>
</event>
<event>
 4    1  0.5900026E-005  0.5880534E+03  0.7818608E-02  0.9930506E-01
          2   -1    0    0  501    0  0.00000000000E+00  0.00000000000E+00  0.30136920126E+04  0.30136920126E+04  0.25500000000E-02 0.  1.
         -2   -1    0    0    0  501 -0.00000000000E+00 -0.00000000000E+00 -0.28686304932E+02  0.28686305046E+02  0.25500000000E-02 0. -1.
    5000001    1    1    2    0    0  0.98711639407E+02  0.19955801500E+03  0.15158124667E+04  0.15440592033E+04  0.19200000000E+03 0.  0.
   -5000001    1    1    2    0    0 -0.98711639407E+02 -0.19955801500E+03  0.14691932410E+04  0.14983191144E+04  0.19200000000E+03 0.  0.
<mgrwt>
<rscale>  0 0.58805336E+03</rscale>
<asrwt>0</asrwt>
<pdfrwt beam="1">  1        2 0.43052714E+00 0.58805336E+03</pdfrwt>
<pdfrwt beam="2">  1       -2 0.40980463E-02 0.58805336E+03</pdfrwt>
<totfact> 0.69265505E+02</totfact>
</mgrwt>
</event>
<event>
 4    1  0.5900026E-005  0.5825401E+03  0.7818608E-02  0.9942307E-01
         -2   -1    0    0    0  501 -0.00000000000E+00  0.00000000000E+00  0.20769217345E+03  0.20769217347E+03  0.25500000000E-02 0. -1.
          2   -1    0    0  501    0  0.00000000000E+00 -0.00000000000E+00 -0.40848066161E+03  0.40848066162E+03  0.25500000000E-02 0.  1.
    5000001    1    1    2    0    0 -0.36251363086E+02  0.21329608084E+03 -0.64293758494E+02  0.29632257222E+03  0.19200000000E+03 0.  0.
   -5000001    1    1    2    0    0  0.36251363086E+02 -0.21329608084E+03 -0.13649472967E+03  0.31985026286E+03  0.19200000000E+03 0.  0.
<mgrwt>
<rscale>  0 0.58254008E+03</rscale>
<asrwt>0</asrwt>
<pdfrwt beam="1">  1        2 0.58354380E-01 0.58254008E+03</pdfrwt>
<pdfrwt beam="2">  1       -2 0.29670311E-01 0.58254008E+03</pdfrwt>
<totfact> 0.88652730E+02</totfact>
</mgrwt>
</event>
<event>
 4    1  0.5900026E-005  0.4960577E+03  0.7818608E-02  0.1014813E+00
         -2   -1    0    0    0  501 -0.00000000000E+00  0.00000000000E+00  0.20769749208E+02  0.20769749364E+02  0.25500000000E-02 0. -1.
          2   -1    0    0  501    0  0.00000000000E+00 -0.00000000000E+00 -0.29619193694E+04  0.29619193694E+04  0.25500000000E-02 0.  1.
    5000001    1    1    2    0    0  0.12545029973E+03 -0.78491354332E+02 -0.11549377709E+04  0.11801033536E+04  0.19200000000E+03 0.  0.
   -5000001    1    1    2    0    0 -0.12545029973E+03  0.78491354332E+02 -0.17862118492E+04  0.18025857651E+04  0.19200000000E+03 0.  0.
<mgrwt>
<rscale>  0 0.49605775E+03</rscale>
<asrwt>0</asrwt>
<pdfrwt beam="1">  1        2 0.42313107E+00 0.49605775E+03</pdfrwt>
<pdfrwt beam="2">  1       -2 0.29671089E-02 0.49605775E+03</pdfrwt>
<totfact> 0.12192060E+03</totfact>
</mgrwt>
</event>
<event>
 4    1  0.5900026E-005  0.6962614E+03  0.7818608E-02  0.9723647E-01
         -2   -1    0    0    0  501 -0.00000000000E+00  0.00000000000E+00  0.11755891122E+03  0.11755891125E+03  0.25500000000E-02 0. -1.
          2   -1    0    0  501    0  0.00000000000E+00 -0.00000000000E+00 -0.10309296797E+04  0.10309296797E+04  0.25500000000E-02 0.  1.
    5000001    1    1    2    0    0 -0.55080748766E+02 -0.13886204600E+03 -0.45913497564E+02  0.24756535695E+03  0.19200000000E+03 0.  0.
   -5000001    1    1    2    0    0  0.55080748766E+02  0.13886204600E+03 -0.86745727089E+03  0.90092323398E+03  0.19200000000E+03 0.  0.
<mgrwt>
<rscale>  0 0.69626136E+03</rscale>
<asrwt>0</asrwt>
<pdfrwt beam="1">  1        2 0.14727566E+00 0.69626136E+03</pdfrwt>
<pdfrwt beam="2">  1       -2 0.16794131E-01 0.69626136E+03</pdfrwt>
<totfact> 0.78039715E+02</totfact>
</mgrwt>
</event>
<event>
 4    1  0.5900026E-005  0.5459689E+03  0.7818608E-02  0.1002431E+00
          2   -1    0    0  501    0  0.00000000000E+00  0.00000000000E+00  0.10712830112E+04  0.10712830112E+04  0.25500000000E-02 0.  1.
         -2   -1    0    0    0  501 -0.00000000000E+00 -0.00000000000E+00 -0.69561920827E+02  0.69561920874E+02  0.25500000000E-02 0. -1.
    5000001    1    1    2    0    0  0.14110159853E+03 -0.32019454015E+02  0.23065291248E+03  0.33316613360E+03  0.19200000000E+03 0.  0.
   -5000001    1    1    2    0    0 -0.14110159853E+03  0.32019454015E+02  0.77106817789E+03  0.80767879847E+03  0.19200000000E+03 0.  0.
<mgrwt>
<rscale>  0 0.54596888E+03</rscale>
<asrwt>0</asrwt>
<pdfrwt beam="1">  1        2 0.15304042E+00 0.54596888E+03</pdfrwt>
<pdfrwt beam="2">  1       -2 0.99374181E-02 0.54596888E+03</pdfrwt>
<totfact> 0.17710738E+03</totfact>
</mgrwt>
</event>
<event>
 4    1  0.5900026E-005  0.1142438E+04  0.7818608E-02  0.9164788E-01
         -2   -1    0    0    0  501 -0.00000000000E+00  0.00000000000E+00  0.50339118134E+03  0.50339118134E+03  0.25500000000E-02 0. -1.
          2   -1    0    0  501    0  0.00000000000E+00 -0.00000000000E+00 -0.64818623468E+03  0.64818623468E+03  0.25500000000E-02 0.  1.
    5000001    1    1    2    0    0 -0.34833924983E+02  0.53299151607E+03 -0.75879542311E+01  0.56763979386E+03  0.19200000000E+03 0.  0.
   -5000001    1    1    2    0    0  0.34833924983E+02 -0.53299151607E+03 -0.13720709911E+03  0.58393762216E+03  0.19200000000E+03 0.  0.
<mgrwt>
<rscale>  0 0.11424382E+04</rscale>
<asrwt>0</asrwt>
<pdfrwt beam="1">  1        2 0.92598033E-01 0.11424382E+04</pdfrwt>
<pdfrwt beam="2">  1       -2 0.71913026E-01 0.11424382E+04</pdfrwt>
<totfact> 0.85915435E+01</totfact>
</mgrwt>
</event>
<event>
 4    1  0.5900026E-005  0.6382805E+03  0.7818608E-02  0.9829022E-01
          2   -1    0    0  501    0  0.00000000000E+00  0.00000000000E+00  0.73199364326E+03  0.73199364326E+03  0.25500000000E-02 0.  1.
         -2   -1    0    0    0  501 -0.00000000000E+00 -0.00000000000E+00 -0.13914125622E+03  0.13914125625E+03  0.25500000000E-02 0. -1.
    5000001    1    1    2    0    0 -0.25084931220E+03  0.38511230064E+02  0.26361316686E+03  0.41323648679E+03  0.19200000000E+03 0.  0.
   -5000001    1    1    2    0    0  0.25084931220E+03 -0.38511230064E+02  0.32923922017E+03  0.45789841272E+03  0.19200000000E+03 0.  0.
<mgrwt>
<rscale>  0 0.63828055E+03</rscale>
<asrwt>0</asrwt>
<pdfrwt beam="1">  1        2 0.10457052E+00 0.63828055E+03</pdfrwt>
<pdfrwt beam="2">  1       -2 0.19877323E-01 0.63828055E+03</pdfrwt>
<totfact> 0.92078807E+02</totfact>
</mgrwt>
</event>
<event>
 4    1  0.5900026E-005  0.5983938E+03  0.7818608E-02  0.9908744E-01
          2   -1    0    0  501    0  0.00000000000E+00  0.00000000000E+00  0.16799119910E+04  0.16799119910E+04  0.25500000000E-02 0.  1.
         -2   -1    0    0    0  501 -0.00000000000E+00 -0.00000000000E+00 -0.53287776677E+02  0.53287776738E+02  0.25500000000E-02 0. -1.
    5000001    1    1    2    0    0  0.15569535289E+03 -0.14507298038E+03  0.56469931219E+03  0.63327444740E+03  0.19200000000E+03 0.  0.
   -5000001    1    1    2    0    0 -0.15569535289E+03  0.14507298038E+03  0.10619249021E+04  0.10999253203E+04  0.19200000000E+03 0.  0.
<mgrwt>
<rscale>  0 0.59839377E+03</rscale>
<asrwt>0</asrwt>
<pdfrwt beam="1">  1        2 0.23998739E+00 0.59839377E+03</pdfrwt>
<pdfrwt beam="2">  1       -2 0.76125408E-02 0.59839377E+03</pdfrwt>
<totfact> 0.12752663E+03</totfact>
</mgrwt>
</event>
<event>
 4    1  0.5900026E-005  0.5596203E+03  0.7818608E-02  0.9992914E-01
          2   -1    0    0  501    0  0.00000000000E+00  0.00000000000E+00  0.11574273121E+03  0.11574273124E+03  0.25500000000E-02 0.  1.
         -2   -1    0    0    0  501 -0.00000000000E+00 -0.00000000000E+00 -0.67644602198E+03  0.67644602199E+03  0.25500000000E-02 0. -1.
    5000001    1    1    2    0    0  0.62552481830E+02  0.17595112809E+03 -0.16571481233E+03  0.31495557065E+03  0.19200000000E+03 0.  0.
   -5000001    1    1    2    0    0 -0.62552481830E+02 -0.17595112809E+03 -0.39498847843E+03  0.47723318258E+03  0.19200000000E+03 0.  0.
<mgrwt>
<rscale>  0 0.55962026E+03</rscale>
<asrwt>0</asrwt>
<pdfrwt beam="1">  1        2 0.16534676E-01 0.55962026E+03</pdfrwt>
<pdfrwt beam="2">  1       -2 0.96635144E-01 0.55962026E+03</pdfrwt>
<totfact> 0.32274010E+02</totfact>
</mgrwt>
</event>
<event>
 4    1  0.5900026E-005  0.4613958E+03  0.7818608E-02  0.1024377E+00
         -2   -1    0    0    0  501 -0.00000000000E+00  0.00000000000E+00  0.13837356878E+03  0.13837356881E+03  0.25500000000E-02 0. -1.
          2   -1    0    0  501    0  0.00000000000E+00 -0.00000000000E+00 -0.38462207569E+03  0.38462207570E+03  0.25500000000E-02 0.  1.
    5000001    1    1    2    0    0 -0.68196710100E+02  0.95196433620E+02 -0.18141318416E+03  0.28894272033E+03  0.19200000000E+03 0.  0.
   -5000001    1    1    2    0    0  0.68196710100E+02 -0.95196433620E+02 -0.64835322747E+02  0.23405292418E+03  0.19200000000E+03 0.  0.
<mgrwt>
<rscale>  0 0.46139584E+03</rscale>
<asrwt>0</asrwt>
<pdfrwt beam="1">  1        2 0.54946011E-01 0.46139584E+03</pdfrwt>
<pdfrwt beam="2">  1       -2 0.19767653E-01 0.46139584E+03</pdfrwt>
<totfact> 0.19542484E+03</totfact>
</mgrwt>
</event>
<event>
 4    1  0.5900026E-005  0.7143291E+03  0.7818608E-02  0.9693036E-01
          2   -1    0    0  501    0  0.00000000000E+00  0.00000000000E+00  0.52846151705E+03  0.52846151705E+03  0.25500000000E-02 0.  1.
         -2   -1    0    0    0  501 -0.00000000000E+00 -0.00000000000E+00 -0.24139227976E+03  0.24139227978E+03  0.25500000000E-02 0. -1.
    5000001    1    1    2    0    0 -0.26402722564E+03  0.13723006389E+03  0.19362371588E+03  0.40360452136E+03  0.19200000000E+03 0.  0.
   -5000001    1    1    2    0    0  0.26402722564E+03 -0.13723006389E+03  0.93445521403E+02  0.36624927547E+03  0.19200000000E+03 0.  0.
<mgrwt>
<rscale>  0 0.71432914E+03</rscale>
<asrwt>0</asrwt>
<pdfrwt beam="1">  1        2 0.75494503E-01 0.71432914E+03</pdfrwt>
<pdfrwt beam="2">  1       -2 0.34484611E-01 0.71432914E+03</pdfrwt>
<totfact> 0.49899338E+02</totfact>
</mgrwt>
</event>
<event>
 4    1  0.5900026E-005  0.4665006E+03  0.7818608E-02  0.1022913E+00
         -2   -1    0    0    0  501 -0.00000000000E+00  0.00000000000E+00  0.35159041998E+02  0.35159042090E+02  0.25500000000E-02 0. -1.
          2   -1    0    0  501    0  0.00000000000E+00 -0.00000000000E+00 -0.15474168285E+04  0.15474168285E+04  0.25500000000E-02 0.  1.
    5000001    1    1    2    0    0 -0.79817618391E+02  0.89909694164E+02 -0.94461826903E+03  0.97140222334E+03  0.19200000000E+03 0.  0.
   -5000001    1    1    2    0    0  0.79817618391E+02 -0.89909694164E+02 -0.56763951748E+03  0.61117364727E+03  0.19200000000E+03 0.  0.
<mgrwt>
<rscale>  0 0.46650056E+03</rscale>
<asrwt>0</asrwt>
<pdfrwt beam="1">  1        2 0.22105951E+00 0.46650056E+03</pdfrwt>
<pdfrwt beam="2">  1       -2 0.50227212E-02 0.46650056E+03</pdfrwt>
<totfact> 0.28678600E+03</totfact>
</mgrwt>
</event>
<event>
 4    1  0.5900026E-005  0.4788662E+03  0.7818608E-02  0.1019447E+00
          2   -1    0    0  501    0  0.00000000000E+00  0.00000000000E+00  0.17014289148E+03  0.17014289150E+03  0.25500000000E-02 0.  1.
         -2   -1    0    0    0  501 -0.00000000000E+00 -0.00000000000E+00 -0.33694152022E+03  0.33694152023E+03  0.25500000000E-02 0. -1.
    5000001    1    1    2    0    0  0.14076910596E+03  0.23250608693E+02 -0.72411317309E+02  0.24992785133E+03  0.19200000000E+03 0.  0.
   -5000001    1    1    2    0    0 -0.14076910596E+03 -0.23250608693E+02 -0.94387311424E+02  0.25715656040E+03  0.19200000000E+03 0.  0.
<mgrwt>
<rscale>  0 0.47886618E+03</rscale>
<asrwt>0</asrwt>
<pdfrwt beam="1">  1        2 0.24306127E-01 0.47886618E+03</pdfrwt>
<pdfrwt beam="2">  1       -2 0.48134503E-01 0.47886618E+03</pdfrwt>
<totfact> 0.92787943E+02</totfact>
</mgrwt>
</event>
<event>
 4    1  0.5900026E-005  0.9180800E+03  0.7818608E-02  0.9403259E-01
          2   -1    0    0  501    0  0.00000000000E+00  0.00000000000E+00  0.11267610063E+04  0.11267610063E+04  0.25500000000E-02 0. -1.
         -2   -1    0    0    0  501 -0.00000000000E+00 -0.00000000000E+00 -0.18701189742E+03  0.18701189744E+03  0.25500000000E-02 0.  1.
    5000001    1    1    2    0    0 -0.25584341395E+03  0.30314767097E+03  0.65368627949E+03  0.78836800725E+03  0.19200000000E+03 0.  0.
   -5000001    1    1    2    0    0  0.25584341395E+03 -0.30314767097E+03  0.28606282936E+03  0.52540489645E+03  0.19200000000E+03 0.  0.
<mgrwt>
<rscale>  0 0.91807998E+03</rscale>
<asrwt>0</asrwt>
<pdfrwt beam="1">  1        2 0.16096586E+00 0.91807998E+03</pdfrwt>
<pdfrwt beam="2">  1       -2 0.26715985E-01 0.91807998E+03</pdfrwt>
<totfact> 0.29899646E+02</totfact>
</mgrwt>
</event>
<event>
 4    1  0.5900026E-005  0.8724725E+03  0.7818608E-02  0.9460662E-01
          2   -1    0    0  501    0  0.00000000000E+00  0.00000000000E+00  0.33878059100E+03  0.33878059100E+03  0.25500000000E-02 0.  1.
         -2   -1    0    0    0  501 -0.00000000000E+00 -0.00000000000E+00 -0.56172662975E+03  0.56172662975E+03  0.25500000000E-02 0. -1.
    5000001    1    1    2    0    0 -0.37198421533E+03 -0.12036813559E+03 -0.86673148829E+02  0.44411370081E+03  0.19200000000E+03 0.  0.
   -5000001    1    1    2    0    0  0.37198421533E+03  0.12036813559E+03 -0.13627288992E+03  0.45639351995E+03  0.19200000000E+03 0.  0.
<mgrwt>
<rscale>  0 0.87247253E+03</rscale>
<asrwt>0</asrwt>
<pdfrwt beam="1">  1        2 0.48397227E-01 0.87247253E+03</pdfrwt>
<pdfrwt beam="2">  1       -2 0.80246662E-01 0.87247253E+03</pdfrwt>
<totfact> 0.14367287E+02</totfact>
</mgrwt>
</event>
<event>
 4    1  0.5900026E-005  0.1185730E+04  0.7818608E-02  0.9125440E-01
          2   -1    0    0  501    0  0.00000000000E+00  0.00000000000E+00  0.14666869631E+04  0.14666869631E+04  0.25500000000E-02 0.  1.
         -2   -1    0    0    0  501 -0.00000000000E+00 -0.00000000000E+00 -0.23964817657E+03  0.23964817659E+03  0.25500000000E-02 0. -1.
    5000001    1    1    2    0    0  0.44675498582E+03  0.33387129189E+03  0.69943975714E+03  0.91495356754E+03  0.19200000000E+03 0.  0.
   -5000001    1    1    2    0    0 -0.44675498582E+03 -0.33387129189E+03  0.52759902936E+03  0.79138157211E+03  0.19200000000E+03 0.  0.
<mgrwt>
<rscale>  0 0.11857299E+04</rscale>
<asrwt>0</asrwt>
<pdfrwt beam="1">  1        2 0.20952671E+00 0.11857299E+04</pdfrwt>
<pdfrwt beam="2">  1       -2 0.34235454E-01 0.11857299E+04</pdfrwt>
<totfact> 0.12008170E+02</totfact>
</mgrwt>
</event>
<event>
 4    1  0.5900026E-005  0.4349054E+03  0.7818608E-02  0.1032322E+00
         -2   -1    0    0    0  501 -0.00000000000E+00  0.00000000000E+00  0.26176999240E+02  0.26176999364E+02  0.25500000000E-02 0. -1.
          2   -1    0    0  501    0  0.00000000000E+00 -0.00000000000E+00 -0.18063825305E+04  0.18063825305E+04  0.25500000000E-02 0.  1.
    5000001    1    1    2    0    0  0.97091999453E+02 -0.30473441208E+02 -0.92438353232E+03  0.94958117178E+03  0.19200000000E+03 0.  0.
   -5000001    1    1    2    0    0 -0.97091999453E+02  0.30473441208E+02 -0.85582199893E+03  0.88297835807E+03  0.19200000000E+03 0.  0.
<mgrwt>
<rscale>  0 0.43490539E+03</rscale>
<asrwt>0</asrwt>
<pdfrwt beam="1">  1        2 0.25805457E+00 0.43490539E+03</pdfrwt>
<pdfrwt beam="2">  1       -2 0.37395725E-02 0.43490539E+03</pdfrwt>
<totfact> 0.33358382E+03</totfact>
</mgrwt>
</event>
<event>
 4    1  0.5900026E-005  0.5359749E+03  0.7818608E-02  0.1004793E+00
          2   -1    0    0  501    0  0.00000000000E+00  0.00000000000E+00  0.12360243536E+04  0.12360243536E+04  0.25500000000E-02 0.  1.
         -2   -1    0    0    0  501 -0.00000000000E+00 -0.00000000000E+00 -0.58103448451E+02  0.58103448507E+02  0.25500000000E-02 0. -1.
    5000001    1    1    2    0    0  0.75913142864E+02  0.16958463288E+03  0.53880301146E+03  0.60141037414E+03  0.19200000000E+03 0.  0.
   -5000001    1    1    2    0    0 -0.75913142864E+02 -0.16958463288E+03  0.63911789366E+03  0.69271742794E+03  0.19200000000E+03 0.  0.
<mgrwt>
<rscale>  0 0.53597491E+03</rscale>
<asrwt>0</asrwt>
<pdfrwt beam="1">  1        2 0.17657488E+00 0.53597491E+03</pdfrwt>
<pdfrwt beam="2">  1       -2 0.83004939E-02 0.53597491E+03</pdfrwt>
<totfact> 0.19062933E+03</totfact>
</mgrwt>
</event>
<event>
 4    1  0.5900026E-005  0.8324167E+03  0.7818608E-02  0.9514245E-01
         -2   -1    0    0    0  501 -0.00000000000E+00  0.00000000000E+00  0.45533840225E+03  0.45533840225E+03  0.25500000000E-02 0. -1.
          2   -1    0    0  501    0  0.00000000000E+00 -0.00000000000E+00 -0.38044102453E+03  0.38044102453E+03  0.25500000000E-02 0.  1.
    5000001    1    1    2    0    0  0.21573178337E+03 -0.27044403606E+03  0.16714181516E+03  0.42951200841E+03  0.19200000000E+03 0.  0.
   -5000001    1    1    2    0    0 -0.21573178337E+03  0.27044403606E+03 -0.92244437437E+02  0.40626741838E+03  0.19200000000E+03 0.  0.
<mgrwt>
<rscale>  0 0.83241674E+03</rscale>
<asrwt>0</asrwt>
<pdfrwt beam="1">  1        2 0.54348718E-01 0.83241674E+03</pdfrwt>
<pdfrwt beam="2">  1       -2 0.65048343E-01 0.83241674E+03</pdfrwt>
<totfact> 0.20064879E+02</totfact>
</mgrwt>
</event>
<event>
 4    1  0.5900026E-005  0.9226414E+03  0.7818608E-02  0.9397713E-01
         -2   -1    0    0    0  501 -0.00000000000E+00  0.00000000000E+00  0.85836662647E+02  0.85836662685E+02  0.25500000000E-02 0. -1.
          2   -1    0    0  501    0  0.00000000000E+00 -0.00000000000E+00 -0.24793225916E+04  0.24793225916E+04  0.25500000000E-02 0.  1.
    5000001    1    1    2    0    0 -0.22676152278E+03  0.24624540634E+03 -0.18995166387E+04  0.19383201616E+04  0.19200000000E+03 0.  0.
   -5000001    1    1    2    0    0  0.22676152278E+03 -0.24624540634E+03 -0.49396929028E+03  0.62683909267E+03  0.19200000000E+03 0.  0.
<mgrwt>
<rscale>  0 0.92264138E+03</rscale>
<asrwt>0</asrwt>
<pdfrwt beam="1">  1        2 0.35418890E+00 0.92264138E+03</pdfrwt>
<pdfrwt beam="2">  1       -2 0.12262382E-01 0.92264138E+03</pdfrwt>
<totfact> 0.22572208E+02</totfact>
</mgrwt>
</event>
<event>
 4    1  0.5900026E-005  0.6428650E+03  0.7818608E-02  0.9820260E-01
          2   -1    0    0  501    0  0.00000000000E+00  0.00000000000E+00  0.18238305684E+04  0.18238305684E+04  0.25500000000E-02 0.  1.
         -2   -1    0    0    0  501 -0.00000000000E+00 -0.00000000000E+00 -0.56649372022E+02  0.56649372080E+02  0.25500000000E-02 0. -1.
    5000001    1    1    2    0    0 -0.24457832681E+03 -0.37139637149E+02  0.67150280892E+03  0.74093045084E+03  0.19200000000E+03 0.  0.
   -5000001    1    1    2    0    0  0.24457832681E+03  0.37139637149E+02  0.10956783874E+04  0.11395494896E+04  0.19200000000E+03 0.  0.
<mgrwt>
<rscale>  0 0.64286501E+03</rscale>
<asrwt>0</asrwt>
<pdfrwt beam="1">  1        2 0.26054720E+00 0.64286501E+03</pdfrwt>
<pdfrwt beam="2">  1       -2 0.80927682E-02 0.64286501E+03</pdfrwt>
<totfact> 0.97580529E+02</totfact>
</mgrwt>
</event>
<event>
 4    1  0.5900026E-005  0.4956702E+03  0.7818608E-02  0.1014915E+00
          2   -1    0    0  501    0  0.00000000000E+00  0.00000000000E+00  0.10753048715E+04  0.10753048715E+04  0.25500000000E-02 0.  1.
         -2   -1    0    0    0  501 -0.00000000000E+00 -0.00000000000E+00 -0.57120759246E+02  0.57120759303E+02  0.25500000000E-02 0. -1.
    5000001    1    1    2    0    0 -0.14497362274E+03  0.59089670885E+02  0.52513179387E+03  0.58063443011E+03  0.19200000000E+03 0.  0.
   -5000001    1    1    2    0    0  0.14497362274E+03 -0.59089670885E+02  0.49305231835E+03  0.55179120066E+03  0.19200000000E+03 0.  0.
<mgrwt>
<rscale>  0 0.49567018E+03</rscale>
<asrwt>0</asrwt>
<pdfrwt beam="1">  1        2 0.15361499E+00 0.49567018E+03</pdfrwt>
<pdfrwt beam="2">  1       -2 0.81601080E-02 0.49567018E+03</pdfrwt>
<totfact> 0.24167414E+03</totfact>
</mgrwt>
</event>
<event>
 4    1  0.5900026E-005  0.5937357E+03  0.7818608E-02  0.9918488E-01
          2   -1    0    0  501    0  0.00000000000E+00  0.00000000000E+00  0.21245229590E+04  0.21245229590E+04  0.25500000000E-02 0.  1.
         -2   -1    0    0    0  501 -0.00000000000E+00 -0.00000000000E+00 -0.41482496997E+02  0.41482497076E+02  0.25500000000E-02 0. -1.
    5000001    1    1    2    0    0 -0.13411186884E+03 -0.10393335231E+03  0.15884718562E+04  0.16090043422E+04  0.19200000000E+03 0.  0.
   -5000001    1    1    2    0    0  0.13411186884E+03  0.10393335231E+03  0.49456860582E+03  0.55700111395E+03  0.19200000000E+03 0.  0.
<mgrwt>
<rscale>  0 0.59373569E+03</rscale>
<asrwt>0</asrwt>
<pdfrwt beam="1">  1        2 0.30350323E+00 0.59373569E+03</pdfrwt>
<pdfrwt beam="2">  1       -2 0.59260721E-02 0.59373569E+03</pdfrwt>
<totfact> 0.11300868E+03</totfact>
</mgrwt>
</event>
<event>
 4    1  0.5900026E-005  0.1054859E+04  0.7818608E-02  0.9250341E-01
          2   -1    0    0  501    0  0.00000000000E+00  0.00000000000E+00  0.15333374366E+04  0.15333374366E+04  0.25500000000E-02 0.  1.
         -2   -1    0    0    0  501 -0.00000000000E+00 -0.00000000000E+00 -0.18142263306E+03  0.18142263308E+03  0.25500000000E-02 0. -1.
    5000001    1    1    2    0    0 -0.28884585540E+02 -0.35679258759E+03  0.12228462498E+04  0.12885465535E+04  0.19200000000E+03 0.  0.
   -5000001    1    1    2    0    0  0.28884585540E+02  0.35679258759E+03  0.12906855377E+03  0.42621351623E+03  0.19200000000E+03 0.  0.
<mgrwt>
<rscale>  0 0.10548595E+04</rscale>
<asrwt>0</asrwt>
<pdfrwt beam="1">  1        2 0.21904822E+00 0.10548595E+04</pdfrwt>
<pdfrwt beam="2">  1       -2 0.25917518E-01 0.10548595E+04</pdfrwt>
<totfact> 0.18730347E+02</totfact>
</mgrwt>
</event>
<event>
 4    1  0.5900026E-005  0.3919346E+03  0.7818608E-02  0.1046609E+00
          2   -1    0    0  501    0  0.00000000000E+00  0.00000000000E+00  0.18872611727E+04  0.18872611727E+04  0.25500000000E-02 0.  1.
         -2   -1    0    0    0  501 -0.00000000000E+00 -0.00000000000E+00 -0.20348631579E+02  0.20348631739E+02  0.25500000000E-02 0. -1.
    5000001    1    1    2    0    0  0.34617250421E+02  0.18233372894E+02  0.91937296951E+03  0.94002205665E+03  0.19200000000E+03 0.  0.
   -5000001    1    1    2    0    0 -0.34617250421E+02 -0.18233372894E+02  0.94753957157E+03  0.96758774776E+03  0.19200000000E+03 0.  0.
<mgrwt>
<rscale>  0 0.39193460E+03</rscale>
<asrwt>0</asrwt>
<pdfrwt beam="1">  1        2 0.26960880E+00 0.39193460E+03</pdfrwt>
<pdfrwt beam="2">  1       -2 0.29069467E-02 0.39193460E+03</pdfrwt>
<totfact> 0.44519265E+03</totfact>
</mgrwt>
</event>
<event>
 4    1  0.5900026E-005  0.9031973E+03  0.7818608E-02  0.9421593E-01
          2   -1    0    0  501    0  0.00000000000E+00  0.00000000000E+00  0.15862223215E+04  0.15862223215E+04  0.25500000000E-02 0. -1.
         -2   -1    0    0    0  501 -0.00000000000E+00 -0.00000000000E+00 -0.12857045888E+03  0.12857045890E+03  0.25500000000E-02 0.  1.
    5000001    1    1    2    0    0 -0.33594644487E+03  0.13655046528E+03  0.37074695524E+03  0.55301297292E+03  0.19200000000E+03 0.  0.
   -5000001    1    1    2    0    0  0.33594644487E+03 -0.13655046528E+03  0.10869049074E+04  0.11617798075E+04  0.19200000000E+03 0.  0.
<mgrwt>
<rscale>  0 0.90319728E+03</rscale>
<asrwt>0</asrwt>
<pdfrwt beam="1">  1        2 0.22660318E+00 0.90319728E+03</pdfrwt>
<pdfrwt beam="2">  1       -2 0.18367209E-01 0.90319728E+03</pdfrwt>
<totfact> 0.32680277E+02</totfact>
</mgrwt>
</event>
<event>
 4    1  0.5900026E-005  0.4817665E+03  0.7818608E-02  0.1018651E+00
         -2   -1    0    0    0  501 -0.00000000000E+00  0.00000000000E+00  0.12987045270E+02  0.12987045520E+02  0.25500000000E-02 0. -1.
          2   -1    0    0  501    0  0.00000000000E+00 -0.00000000000E+00 -0.44678932741E+04  0.44678932741E+04  0.25500000000E-02 0.  1.
    5000001    1    1    2    0    0  0.76080480839E+02  0.11101820652E+03 -0.17140066803E+04  0.17299699945E+04  0.19200000000E+03 0.  0.
   -5000001    1    1    2    0    0 -0.76080480839E+02 -0.11101820652E+03 -0.27408995485E+04  0.27509103251E+04  0.19200000000E+03 0.  0.
<mgrwt>
<rscale>  0 0.48176647E+03</rscale>
<asrwt>0</asrwt>
<pdfrwt beam="1">  1        2 0.63826949E+00 0.48176647E+03</pdfrwt>
<pdfrwt beam="2">  1       -2 0.18552951E-02 0.48176647E+03</pdfrwt>
<totfact> 0.27965421E+02</totfact>
</mgrwt>
</event>
<event>
 4    1  0.5900026E-005  0.1095121E+04  0.7818608E-02  0.9209960E-01
         -2   -1    0    0    0  501 -0.00000000000E+00  0.00000000000E+00  0.62543406347E+03  0.62543406348E+03  0.25500000000E-02 0. -1.
          2   -1    0    0  501    0  0.00000000000E+00 -0.00000000000E+00 -0.47938320517E+03  0.47938320518E+03  0.25500000000E-02 0.  1.
    5000001    1    1    2    0    0  0.14178777645E+03 -0.38409194219E+03  0.38451173940E+03  0.59358543727E+03  0.19200000000E+03 0.  0.
   -5000001    1    1    2    0    0 -0.14178777645E+03  0.38409194219E+03 -0.23846088110E+03  0.51123183138E+03  0.19200000000E+03 0.  0.
<mgrwt>
<rscale>  0 0.10951212E+04</rscale>
<asrwt>0</asrwt>
<pdfrwt beam="1">  1        2 0.68483315E-01 0.10951212E+04</pdfrwt>
<pdfrwt beam="2">  1       -2 0.89347723E-01 0.10951212E+04</pdfrwt>
<totfact> 0.75291345E+01</totfact>
</mgrwt>
</event>
<event>
 4    1  0.5900026E-005  0.7111907E+03  0.7818608E-02  0.9698284E-01
          2   -1    0    0  501    0  0.00000000000E+00  0.00000000000E+00  0.89819919206E+03  0.89819919207E+03  0.25500000000E-02 0.  1.
         -2   -1    0    0    0  501 -0.00000000000E+00 -0.00000000000E+00 -0.14077951676E+03  0.14077951678E+03  0.25500000000E-02 0. -1.
    5000001    1    1    2    0    0  0.19927571333E+03 -0.20312538465E+03  0.24312666631E+03  0.42064867489E+03  0.19200000000E+03 0.  0.
   -5000001    1    1    2    0    0 -0.19927571333E+03  0.20312538465E+03  0.51429300899E+03  0.61833003397E+03  0.19200000000E+03 0.  0.
<mgrwt>
<rscale>  0 0.71119069E+03</rscale>
<asrwt>0</asrwt>
<pdfrwt beam="1">  1        2 0.12831417E+00 0.71119069E+03</pdfrwt>
<pdfrwt beam="2">  1       -2 0.20111360E-01 0.71119069E+03</pdfrwt>
<totfact> 0.69149690E+02</totfact>
</mgrwt>
</event>
<event>
 4    1  0.5900026E-005  0.7980124E+03  0.7818608E-02  0.9562899E-01
          2   -1    0    0  501    0  0.00000000000E+00  0.00000000000E+00  0.81020052157E+03  0.81020052157E+03  0.25500000000E-02 0.  1.
         -2   -1    0    0    0  501 -0.00000000000E+00 -0.00000000000E+00 -0.19650188917E+03  0.19650188919E+03  0.25500000000E-02 0. -1.
    5000001    1    1    2    0    0  0.40319280118E+02 -0.28522148077E+03  0.55714109954E+03  0.65593226955E+03  0.19200000000E+03 0.  0.
   -5000001    1    1    2    0    0 -0.40319280118E+02  0.28522148077E+03  0.56557532858E+02  0.35077014121E+03  0.19200000000E+03 0.  0.
<mgrwt>
<rscale>  0 0.79801236E+03</rscale>
<asrwt>0</asrwt>
<pdfrwt beam="1">  1        2 0.11574293E+00 0.79801236E+03</pdfrwt>
<pdfrwt beam="2">  1       -2 0.28071698E-01 0.79801236E+03</pdfrwt>
<totfact> 0.43474109E+02</totfact>
</mgrwt>
</event>
<event>
 4    1  0.5900026E-005  0.5549775E+03  0.7818608E-02  0.1000348E+00
         -2   -1    0    0    0  501 -0.00000000000E+00  0.00000000000E+00  0.46266847405E+02  0.46266847475E+02  0.25500000000E-02 0.  1.
          2   -1    0    0  501    0  0.00000000000E+00 -0.00000000000E+00 -0.16642584839E+04  0.16642584839E+04  0.25500000000E-02 0. -1.
    5000001    1    1    2    0    0 -0.86165180476E+02  0.15932437676E+02 -0.13642772165E+04  0.13805051989E+04  0.19200000000E+03 0.  0.
   -5000001    1    1    2    0    0  0.86165180476E+02 -0.15932437676E+02 -0.25371442006E+03  0.33002013248E+03  0.19200000000E+03 0.  0.
<mgrwt>
<rscale>  0 0.55497745E+03</rscale>
<asrwt>0</asrwt>
<pdfrwt beam="1">  1        2 0.23775118E+00 0.55497745E+03</pdfrwt>
<pdfrwt beam="2">  1       -2 0.66095507E-02 0.55497745E+03</pdfrwt>
<totfact> 0.16265767E+03</totfact>
</mgrwt>
</event>
<event>
 4    1  0.5900026E-005  0.4543408E+03  0.7818608E-02  0.1026435E+00
         -2   -1    0    0    0  501 -0.00000000000E+00  0.00000000000E+00  0.32698326699E+03  0.32698326700E+03  0.25500000000E-02 0. -1.
          2   -1    0    0  501    0  0.00000000000E+00 -0.00000000000E+00 -0.15782576014E+03  0.15782576016E+03  0.25500000000E-02 0.  1.
    5000001    1    1    2    0    0 -0.25985320942E+02 -0.11847446982E+03  0.90514695196E+02  0.24447565717E+03  0.19200000000E+03 0.  0.
   -5000001    1    1    2    0    0  0.25985320942E+02  0.11847446982E+03  0.78642811660E+02  0.24033336999E+03  0.19200000000E+03 0.  0.
<mgrwt>
<rscale>  0 0.45434076E+03</rscale>
<asrwt>0</asrwt>
<pdfrwt beam="1">  1        2 0.22546537E-01 0.45434076E+03</pdfrwt>
<pdfrwt beam="2">  1       -2 0.46711895E-01 0.45434076E+03</pdfrwt>
<totfact> 0.10733022E+03</totfact>
</mgrwt>
</event>
<event>
 4    1  0.5900026E-005  0.7969373E+03  0.7818608E-02  0.9564461E-01
         -2   -1    0    0    0  501 -0.00000000000E+00  0.00000000000E+00  0.12027025636E+04  0.12027025636E+04  0.25500000000E-02 0. -1.
          2   -1    0    0  501    0  0.00000000000E+00 -0.00000000000E+00 -0.13201707746E+03  0.13201707748E+03  0.25500000000E-02 0.  1.
    5000001    1    1    2    0    0  0.13992468882E+03  0.16691647928E+03  0.99239517862E+03  0.10339981722E+04  0.19200000000E+03 0.  0.
   -5000001    1    1    2    0    0 -0.13992468882E+03 -0.16691647928E+03  0.78290307543E+02  0.30072146889E+03  0.19200000000E+03 0.  0.
<mgrwt>
<rscale>  0 0.79693733E+03</rscale>
<asrwt>0</asrwt>
<pdfrwt beam="1">  1        2 0.18859582E-01 0.79693733E+03</pdfrwt>
<pdfrwt beam="2">  1       -2 0.17181465E+00 0.79693733E+03</pdfrwt>
<totfact> 0.63703792E+01</totfact>
</mgrwt>
</event>
<event>
 4    1  0.5900026E-005  0.4463326E+03  0.7818608E-02  0.1028821E+00
          2   -1    0    0  501    0  0.00000000000E+00  0.00000000000E+00  0.54753221255E+03  0.54753221256E+03  0.25500000000E-02 0. -1.
         -2   -1    0    0    0  501 -0.00000000000E+00 -0.00000000000E+00 -0.90959406517E+02  0.90959406552E+02  0.25500000000E-02 0.  1.
    5000001    1    1    2    0    0 -0.67592341543E+02  0.90129906341E+02  0.20580021889E+03  0.30316638129E+03  0.19200000000E+03 0.  0.
   -5000001    1    1    2    0    0  0.67592341543E+02 -0.90129906341E+02  0.25077258715E+03  0.33532523782E+03  0.19200000000E+03 0.  0.
<mgrwt>
<rscale>  0 0.44633263E+03</rscale>
<asrwt>0</asrwt>
<pdfrwt beam="1">  1        2 0.78218885E-01 0.44633263E+03</pdfrwt>
<pdfrwt beam="2">  1       -2 0.12994201E-01 0.44633263E+03</pdfrwt>
<totfact> 0.26711660E+03</totfact>
</mgrwt>
</event>
<event>
 4    1  0.5900026E-005  0.7654472E+03  0.7818608E-02  0.9611423E-01
         -2   -1    0    0    0  501 -0.00000000000E+00  0.00000000000E+00  0.24184323100E+03  0.24184323101E+03  0.25500000000E-02 0.  1.
          2   -1    0    0  501    0  0.00000000000E+00 -0.00000000000E+00 -0.60567068051E+03  0.60567068052E+03  0.25500000000E-02 0. -1.
    5000001    1    1    2    0    0  0.58307410854E+02  0.23537216487E+03  0.67672918440E+02  0.31661243508E+03  0.19200000000E+03 0.  0.
   -5000001    1    1    2    0    0 -0.58307410854E+02 -0.23537216487E+03 -0.43150036795E+03  0.53090147645E+03  0.19200000000E+03 0.  0.
<mgrwt>
<rscale>  0 0.76544720E+03</rscale>
<asrwt>0</asrwt>
<pdfrwt beam="1">  1        2 0.86524382E-01 0.76544720E+03</pdfrwt>
<pdfrwt beam="2">  1       -2 0.34549033E-01 0.76544720E+03</pdfrwt>
<totfact> 0.42325154E+02</totfact>
</mgrwt>
</event>
<event>
 4    1  0.5900026E-005  0.6128344E+03  0.7818608E-02  0.9879131E-01
          2   -1    0    0  501    0  0.00000000000E+00  0.00000000000E+00  0.98811160647E+03  0.98811160648E+03  0.25500000000E-02 0.  1.
         -2   -1    0    0    0  501 -0.00000000000E+00 -0.00000000000E+00 -0.95021154534E+02  0.95021154568E+02  0.25500000000E-02 0. -1.
    5000001    1    1    2    0    0  0.15468499679E+03  0.65891370213E+02  0.14682173002E+03  0.29443121660E+03  0.19200000000E+03 0.  0.
   -5000001    1    1    2    0    0 -0.15468499679E+03 -0.65891370213E+02  0.74626872191E+03  0.78870154444E+03  0.19200000000E+03 0.  0.
<mgrwt>
<rscale>  0 0.61283442E+03</rscale>
<asrwt>0</asrwt>
<pdfrwt beam="1">  1        2 0.14115881E+00 0.61283442E+03</pdfrwt>
<pdfrwt beam="2">  1       -2 0.13574449E-01 0.61283442E+03</pdfrwt>
<totfact> 0.11895296E+03</totfact>
</mgrwt>
</event>
<event>
 4    1  0.5900026E-005  0.6228118E+03  0.7818608E-02  0.9859177E-01
         -2   -1    0    0    0  501 -0.00000000000E+00  0.00000000000E+00  0.61328461331E+02  0.61328461384E+02  0.25500000000E-02 0. -1.
          2   -1    0    0  501    0  0.00000000000E+00 -0.00000000000E+00 -0.15812173443E+04  0.15812173443E+04  0.25500000000E-02 0.  1.
    5000001    1    1    2    0    0  0.15798401509E+03 -0.42587787069E+02 -0.27841409749E+03  0.37570078296E+03  0.19200000000E+03 0.  0.
   -5000001    1    1    2    0    0 -0.15798401509E+03  0.42587787069E+02 -0.12414747854E+04  0.12668450227E+04  0.19200000000E+03 0.  0.
<mgrwt>
<rscale>  0 0.62281178E+03</rscale>
<asrwt>0</asrwt>
<pdfrwt beam="1">  1        2 0.22588817E+00 0.62281178E+03</pdfrwt>
<pdfrwt beam="2">  1       -2 0.87612097E-02 0.62281178E+03</pdfrwt>
<totfact> 0.11436193E+03</totfact>
</mgrwt>
</event>
<event>
 4    1  0.5900026E-005  0.9489723E+03  0.7818608E-02  0.9366353E-01
         -2   -1    0    0    0  501 -0.00000000000E+00  0.00000000000E+00  0.49528863313E+03  0.49528863314E+03  0.25500000000E-02 0. -1.
          2   -1    0    0  501    0  0.00000000000E+00 -0.00000000000E+00 -0.45455735514E+03  0.45455735514E+03  0.25500000000E-02 0.  1.
    5000001    1    1    2    0    0  0.28701211614E+03  0.26096703131E+03 -0.17421845526E+03  0.46657884263E+03  0.19200000000E+03 0.  0.
   -5000001    1    1    2    0    0 -0.28701211614E+03 -0.26096703131E+03  0.21494973326E+03  0.48326714565E+03  0.19200000000E+03 0.  0.
<mgrwt>
<rscale>  0 0.94897227E+03</rscale>
<asrwt>0</asrwt>
<pdfrwt beam="1">  1        2 0.64936765E-01 0.94897227E+03</pdfrwt>
<pdfrwt beam="2">  1       -2 0.70755519E-01 0.94897227E+03</pdfrwt>
<totfact> 0.13617139E+02</totfact>
</mgrwt>
</event>
<event>
 4    1  0.5900026E-005  0.8893555E+03  0.7818608E-02  0.9438986E-01
         -2   -1    0    0    0  501 -0.00000000000E+00  0.00000000000E+00  0.97874204387E+02  0.97874204421E+02  0.25500000000E-02 0. -1.
          2   -1    0    0  501    0  0.00000000000E+00 -0.00000000000E+00 -0.20203312136E+04  0.20203312136E+04  0.25500000000E-02 0.  1.
    5000001    1    1    2    0    0 -0.49247108944E+02  0.39560564837E+03 -0.10662734549E+04  0.11544402052E+04  0.19200000000E+03 0.  0.
   -5000001    1    1    2    0    0  0.49247108944E+02 -0.39560564837E+03 -0.85618355429E+03  0.96376521280E+03  0.19200000000E+03 0.  0.
<mgrwt>
<rscale>  0 0.88935552E+03</rscale>
<asrwt>0</asrwt>
<pdfrwt beam="1">  1        2 0.28861872E+00 0.88935552E+03</pdfrwt>
<pdfrwt beam="2">  1       -2 0.13982030E-01 0.88935552E+03</pdfrwt>
<totfact> 0.31216400E+02</totfact>
</mgrwt>
</event>
<event>
 4    1  0.5900026E-005  0.1234826E+04  0.7818608E-02  0.9082908E-01
         -2   -1    0    0    0  501 -0.00000000000E+00  0.00000000000E+00  0.44561252941E+03  0.44561252942E+03  0.25500000000E-02 0. -1.
          2   -1    0    0  501    0  0.00000000000E+00 -0.00000000000E+00 -0.85544860340E+03  0.85544860340E+03  0.25500000000E-02 0.  1.
    5000001    1    1    2    0    0  0.58077219189E+03  0.69553053967E+02 -0.15549066560E+03  0.63496087539E+03  0.19200000000E+03 0.  0.
   -5000001    1    1    2    0    0 -0.58077219189E+03 -0.69553053967E+02 -0.25434540838E+03  0.66610025743E+03  0.19200000000E+03 0.  0.
<mgrwt>
<rscale>  0 0.12348257E+04</rscale>
<asrwt>0</asrwt>
<pdfrwt beam="1">  1        2 0.12220694E+00 0.12348257E+04</pdfrwt>
<pdfrwt beam="2">  1       -2 0.63658933E-01 0.12348257E+04</pdfrwt>
<totfact> 0.78327264E+01</totfact>
</mgrwt>
</event>
<event>
 4    1  0.5900026E-005  0.7739082E+03  0.7818608E-02  0.9598571E-01
          2   -1    0    0  501    0  0.00000000000E+00  0.00000000000E+00  0.14951865985E+04  0.14951865986E+04  0.25500000000E-02 0.  1.
         -2   -1    0    0    0  501 -0.00000000000E+00 -0.00000000000E+00 -0.10014366116E+03  0.10014366119E+03  0.25500000000E-02 0. -1.
    5000001    1    1    2    0    0  0.20532399217E+03  0.26548776985E+03  0.72863162637E+03  0.82486953190E+03  0.19200000000E+03 0.  0.
   -5000001    1    1    2    0    0 -0.20532399217E+03 -0.26548776985E+03  0.66641131102E+03  0.77046072785E+03  0.19200000000E+03 0.  0.
<mgrwt>
<rscale>  0 0.77390816E+03</rscale>
<asrwt>0</asrwt>
<pdfrwt beam="1">  1        2 0.21359809E+00 0.77390816E+03</pdfrwt>
<pdfrwt beam="2">  1       -2 0.14306237E-01 0.77390816E+03</pdfrwt>
<totfact> 0.56281011E+02</totfact>
</mgrwt>
</event>
<event>
 4    1  0.5900026E-005  0.4361871E+03  0.7818608E-02  0.1031923E+00
          2   -1    0    0  501    0  0.00000000000E+00  0.00000000000E+00  0.25378810967E+04  0.25378810967E+04  0.25500000000E-02 0.  1.
         -2   -1    0    0    0  501 -0.00000000000E+00 -0.00000000000E+00 -0.18741932735E+02  0.18741932909E+02  0.25500000000E-02 0. -1.
    5000001    1    1    2    0    0  0.75849620660E+02 -0.70339404793E+02  0.12594850845E+04  0.12782282562E+04  0.19200000000E+03 0.  0.
   -5000001    1    1    2    0    0 -0.75849620660E+02  0.70339404793E+02  0.12596540795E+04  0.12783947735E+04  0.19200000000E+03 0.  0.
<mgrwt>
<rscale>  0 0.43618710E+03</rscale>
<asrwt>0</asrwt>
<pdfrwt beam="1">  1        2 0.36255460E+00 0.43618710E+03</pdfrwt>
<pdfrwt beam="2">  1       -2 0.26774178E-02 0.43618710E+03</pdfrwt>
<totfact> 0.23817156E+03</totfact>
</mgrwt>
</event>
<event>
 4    1  0.5900026E-005  0.8011290E+03  0.7818608E-02  0.9558384E-01
         -2   -1    0    0    0  501 -0.00000000000E+00  0.00000000000E+00  0.10940285407E+03  0.10940285410E+03  0.25500000000E-02 0. -1.
          2   -1    0    0  501    0  0.00000000000E+00 -0.00000000000E+00 -0.14666153351E+04  0.14666153351E+04  0.25500000000E-02 0.  1.
    5000001    1    1    2    0    0  0.13613471722E+03  0.30977175499E+03 -0.86623559259E+03  0.94958901810E+03  0.19200000000E+03 0.  0.
   -5000001    1    1    2    0    0 -0.13613471722E+03 -0.30977175499E+03 -0.49097688845E+03  0.62642917111E+03  0.19200000000E+03 0.  0.
<mgrwt>
<rscale>  0 0.80112896E+03</rscale>
<asrwt>0</asrwt>
<pdfrwt beam="1">  1        2 0.20951646E+00 0.80112896E+03</pdfrwt>
<pdfrwt beam="2">  1       -2 0.15628980E-01 0.80112896E+03</pdfrwt>
<totfact> 0.50105864E+02</totfact>
</mgrwt>
</event>
<event>
 4    1  0.5900026E-005  0.4107453E+03  0.7818608E-02  0.1040121E+00
          2   -1    0    0  501    0  0.00000000000E+00  0.00000000000E+00  0.26032025432E+04  0.26032025432E+04  0.25500000000E-02 0.  1.
         -2   -1    0    0    0  501 -0.00000000000E+00 -0.00000000000E+00 -0.16202319235E+02  0.16202319435E+02  0.25500000000E-02 0. -1.
    5000001    1    1    2    0    0 -0.39940043168E+02  0.57943481281E+02  0.14147113542E+04  0.14294141702E+04  0.19200000000E+03 0.  0.
   -5000001    1    1    2    0    0  0.39940043168E+02 -0.57943481281E+02  0.11722888697E+04  0.11899906925E+04  0.19200000000E+03 0.  0.
<mgrwt>
<rscale>  0 0.41074527E+03</rscale>
<asrwt>0</asrwt>
<pdfrwt beam="1">  1        2 0.37188624E+00 0.41074527E+03</pdfrwt>
<pdfrwt beam="2">  1       -2 0.23146160E-02 0.41074527E+03</pdfrwt>
<totfact> 0.27475044E+03</totfact>
</mgrwt>
</event>
<event>
 4    1  0.5900026E-005  0.6326206E+03  0.7818608E-02  0.9839948E-01
          2   -1    0    0  501    0  0.00000000000E+00  0.00000000000E+00  0.14384700475E+04  0.14384700475E+04  0.25500000000E-02 0.  1.
         -2   -1    0    0    0  501 -0.00000000000E+00 -0.00000000000E+00 -0.69554608523E+02  0.69554608570E+02  0.25500000000E-02 0. -1.
    5000001    1    1    2    0    0 -0.23686564192E+03 -0.15793654047E+02  0.48740380537E+03  0.57513584597E+03  0.19200000000E+03 0.  0.
   -5000001    1    1    2    0    0  0.23686564192E+03  0.15793654047E+02  0.88151163357E+03  0.93288881006E+03  0.19200000000E+03 0.  0.
<mgrwt>
<rscale>  0 0.63262065E+03</rscale>
<asrwt>0</asrwt>
<pdfrwt beam="1">  1        2 0.20549570E+00 0.63262065E+03</pdfrwt>
<pdfrwt beam="2">  1       -2 0.99363735E-02 0.63262065E+03</pdfrwt>
<totfact> 0.11075004E+03</totfact>
</mgrwt>
</event>
<event>
 4    1  0.5900026E-005  0.1193550E+04  0.7818608E-02  0.9118521E-01
          2   -1    0    0  501    0  0.00000000000E+00  0.00000000000E+00  0.59130027450E+03  0.59130027450E+03  0.25500000000E-02 0.  1.
         -2   -1    0    0    0  501 -0.00000000000E+00 -0.00000000000E+00 -0.60230070552E+03  0.60230070552E+03  0.25500000000E-02 0. -1.
    5000001    1    1    2    0    0  0.25323573424E+03  0.19102304672E+03 -0.47312934739E+03  0.60111024017E+03  0.19200000000E+03 0.  0.
   -5000001    1    1    2    0    0 -0.25323573424E+03 -0.19102304672E+03  0.46212891637E+03  0.59249073986E+03  0.19200000000E+03 0.  0.
<mgrwt>
<rscale>  0 0.11935503E+04</rscale>
<asrwt>0</asrwt>
<pdfrwt beam="1">  1        2 0.84471468E-01 0.11935503E+04</pdfrwt>
<pdfrwt beam="2">  1       -2 0.86042958E-01 0.11935503E+04</pdfrwt>
<totfact> 0.63954071E+01</totfact>
</mgrwt>
</event>
<event>
 4    1  0.5900026E-005  0.6155792E+03  0.7818608E-02  0.9873601E-01
          2   -1    0    0  501    0  0.00000000000E+00  0.00000000000E+00  0.13796056584E+04  0.13796056584E+04  0.25500000000E-02 0.  1.
         -2   -1    0    0    0  501 -0.00000000000E+00 -0.00000000000E+00 -0.68667772239E+02  0.68667772286E+02  0.25500000000E-02 0. -1.
    5000001    1    1    2    0    0 -0.16043177952E+03 -0.72903219982E+02  0.10407462381E+04  0.10728792884E+04  0.19200000000E+03 0.  0.
   -5000001    1    1    2    0    0  0.16043177952E+03  0.72903219982E+02  0.27019164797E+03  0.37539414220E+03  0.19200000000E+03 0.  0.
<mgrwt>
<rscale>  0 0.61557923E+03</rscale>
<asrwt>0</asrwt>
<pdfrwt beam="1">  1        2 0.19708652E+00 0.61557923E+03</pdfrwt>
<pdfrwt beam="2">  1       -2 0.98096818E-02 0.61557923E+03</pdfrwt>
<totfact> 0.12158770E+03</totfact>
</mgrwt>
</event>
<event>
 4    1  0.5900026E-005  0.6272451E+03  0.7818608E-02  0.9850440E-01
          2   -1    0    0  501    0  0.00000000000E+00  0.00000000000E+00  0.30901538877E+04  0.30901538877E+04  0.25500000000E-02 0.  1.
         -2   -1    0    0    0  501 -0.00000000000E+00 -0.00000000000E+00 -0.31829835299E+02  0.31829835401E+02  0.25500000000E-02 0. -1.
    5000001    1    1    2    0    0  0.24355723044E+03 -0.44825843731E+02  0.15932143588E+04  0.16237381174E+04  0.19200000000E+03 0.  0.
   -5000001    1    1    2    0    0 -0.24355723044E+03  0.44825843731E+02  0.14651096936E+04  0.14982456057E+04  0.19200000000E+03 0.  0.
<mgrwt>
<rscale>  0 0.62724505E+03</rscale>
<asrwt>0</asrwt>
<pdfrwt beam="1">  1        2 0.44145023E+00 0.62724505E+03</pdfrwt>
<pdfrwt beam="2">  1       -2 0.45471226E-02 0.62724505E+03</pdfrwt>
<totfact> 0.53371692E+02</totfact>
</mgrwt>
</event>
<event>
 4    1  0.5900026E-005  0.5337116E+03  0.7818608E-02  0.1005336E+00
          2   -1    0    0  501    0  0.00000000000E+00  0.00000000000E+00  0.58133215113E+03  0.58133215113E+03  0.25500000000E-02 0.  1.
         -2   -1    0    0    0  501 -0.00000000000E+00 -0.00000000000E+00 -0.12249799390E+03  0.12249799393E+03  0.25500000000E-02 0. -1.
    5000001    1    1    2    0    0 -0.34498719727E+02 -0.17811451980E+03  0.27933956379E+03  0.38446005739E+03  0.19200000000E+03 0.  0.
   -5000001    1    1    2    0    0  0.34498719727E+02  0.17811451980E+03  0.17949459344E+03  0.31937008767E+03  0.19200000000E+03 0.  0.
<mgrwt>
<rscale>  0 0.53371162E+03</rscale>
<asrwt>0</asrwt>
<pdfrwt beam="1">  1        2 0.83047450E-01 0.53371162E+03</pdfrwt>
<pdfrwt beam="2">  1       -2 0.17499714E-01 0.53371162E+03</pdfrwt>
<totfact> 0.15145193E+03</totfact>
</mgrwt>
</event>
<event>
 4    1  0.5900026E-005  0.5280993E+03  0.7818608E-02  0.1006694E+00
          2   -1    0    0  501    0  0.00000000000E+00  0.00000000000E+00  0.11442849836E+04  0.11442849836E+04  0.25500000000E-02 0.  1.
         -2   -1    0    0    0  501 -0.00000000000E+00 -0.00000000000E+00 -0.60930822953E+02  0.60930823007E+02  0.25500000000E-02 0. -1.
    5000001    1    1    2    0    0  0.10945768954E+03 -0.14322311701E+03  0.49811328477E+03  0.56344892538E+03  0.19200000000E+03 0.  0.
   -5000001    1    1    2    0    0 -0.10945768954E+03  0.14322311701E+03  0.58524087584E+03  0.64176688119E+03  0.19200000000E+03 0.  0.
<mgrwt>
<rscale>  0 0.52809933E+03</rscale>
<asrwt>0</asrwt>
<pdfrwt beam="1">  1        2 0.16346927E+00 0.52809933E+03</pdfrwt>
<pdfrwt beam="2">  1       -2 0.87044039E-02 0.52809933E+03</pdfrwt>
<totfact> 0.19891720E+03</totfact>
</mgrwt>
</event>
<event>
 4    1  0.5900026E-005  0.4945111E+03  0.7818608E-02  0.1015222E+00
         -2   -1    0    0    0  501 -0.00000000000E+00  0.00000000000E+00  0.53941757472E+02  0.53941757532E+02  0.25500000000E-02 0. -1.
          2   -1    0    0  501    0  0.00000000000E+00 -0.00000000000E+00 -0.11333577015E+04  0.11333577015E+04  0.25500000000E-02 0.  1.
    5000001    1    1    2    0    0  0.17395809767E+02  0.13228059204E+03 -0.34657590308E+03  0.41806653277E+03  0.19200000000E+03 0.  0.
   -5000001    1    1    2    0    0 -0.17395809767E+02 -0.13228059204E+03 -0.73284004092E+03  0.76923292624E+03  0.19200000000E+03 0.  0.
<mgrwt>
<rscale>  0 0.49451110E+03</rscale>
<asrwt>0</asrwt>
<pdfrwt beam="1">  1        2 0.16190823E+00 0.49451110E+03</pdfrwt>
<pdfrwt beam="2">  1       -2 0.77059661E-02 0.49451110E+03</pdfrwt>
<totfact> 0.24501786E+03</totfact>
</mgrwt>
</event>
<event>
 4    1  0.5900026E-005  0.1112767E+04  0.7818608E-02  0.9192837E-01
          2   -1    0    0  501    0  0.00000000000E+00  0.00000000000E+00  0.11365528956E+04  0.11365528956E+04  0.25500000000E-02 0.  1.
         -2   -1    0    0    0  501 -0.00000000000E+00 -0.00000000000E+00 -0.27236977244E+03  0.27236977245E+03  0.25500000000E-02 0. -1.
    5000001    1    1    2    0    0  0.13355143768E+03  0.37191071306E+03 -0.15332924577E+00  0.43933767026E+03  0.19200000000E+03 0.  0.
   -5000001    1    1    2    0    0 -0.13355143768E+03 -0.37191071306E+03  0.86433645241E+03  0.96958499780E+03  0.19200000000E+03 0.  0.
<mgrwt>
<rscale>  0 0.11127671E+04</rscale>
<asrwt>0</asrwt>
<pdfrwt beam="1">  1        2 0.16236470E+00 0.11127671E+04</pdfrwt>
<pdfrwt beam="2">  1       -2 0.38909966E-01 0.11127671E+04</pdfrwt>
<totfact> 0.14382608E+02</totfact>
</mgrwt>
</event>
<event>
 4    1  0.5900026E-005  0.4666214E+03  0.7818608E-02  0.1022878E+00
          2   -1    0    0  501    0  0.00000000000E+00  0.00000000000E+00  0.13890043206E+04  0.13890043206E+04  0.25500000000E-02 0.  1.
         -2   -1    0    0    0  501 -0.00000000000E+00 -0.00000000000E+00 -0.39189143989E+02  0.39189144072E+02  0.25500000000E-02 0. -1.
    5000001    1    1    2    0    0 -0.12793055389E+03 -0.24382676916E+01  0.56898227479E+03  0.61398452814E+03  0.19200000000E+03 0.  0.
   -5000001    1    1    2    0    0  0.12793055389E+03  0.24382676916E+01  0.78083290180E+03  0.81420893651E+03  0.19200000000E+03 0.  0.
<mgrwt>
<rscale>  0 0.46662143E+03</rscale>
<asrwt>0</asrwt>
<pdfrwt beam="1">  1        2 0.19842923E+00 0.46662143E+03</pdfrwt>
<pdfrwt beam="2">  1       -2 0.55984479E-02 0.46662143E+03</pdfrwt>
<totfact> 0.29305283E+03</totfact>
</mgrwt>
</event>
<event>
 4    1  0.5900026E-005  0.8460765E+03  0.7818608E-02  0.9495618E-01
          2   -1    0    0  501    0  0.00000000000E+00  0.00000000000E+00  0.17808741156E+04  0.17808741156E+04  0.25500000000E-02 0.  1.
         -2   -1    0    0    0  501 -0.00000000000E+00 -0.00000000000E+00 -0.10049075024E+03  0.10049075027E+03  0.25500000000E-02 0. -1.
    5000001    1    1    2    0    0 -0.23492353969E+03  0.27515016307E+03  0.60485704699E+03  0.73048800746E+03  0.19200000000E+03 0.  0.
   -5000001    1    1    2    0    0  0.23492353969E+03 -0.27515016307E+03  0.10755263184E+04  0.11508768585E+04  0.19200000000E+03 0.  0.
<mgrwt>
<rscale>  0 0.84607654E+03</rscale>
<asrwt>0</asrwt>
<pdfrwt beam="1">  1        2 0.25441057E+00 0.84607654E+03</pdfrwt>
<pdfrwt beam="2">  1       -2 0.14355822E-01 0.84607654E+03</pdfrwt>
<totfact> 0.39650200E+02</totfact>
</mgrwt>
</event>
<event>
 4    1  0.5900026E-005  0.6423400E+03  0.7818608E-02  0.9821260E-01
          2   -1    0    0  501    0  0.00000000000E+00  0.00000000000E+00  0.51180887517E+03  0.51180887518E+03  0.25500000000E-02 0.  1.
         -2   -1    0    0    0  501 -0.00000000000E+00 -0.00000000000E+00 -0.20154041606E+03  0.20154041607E+03  0.25500000000E-02 0. -1.
    5000001    1    1    2    0    0 -0.19615737731E+03  0.10855237328E+03  0.29571764732E+03  0.41782084839E+03  0.19200000000E+03 0.  0.
   -5000001    1    1    2    0    0  0.19615737731E+03 -0.10855237328E+03  0.14550811796E+02  0.29552844286E+03  0.19200000000E+03 0.  0.
<mgrwt>
<rscale>  0 0.64234001E+03</rscale>
<asrwt>0</asrwt>
<pdfrwt beam="1">  1        2 0.73115553E-01 0.64234001E+03</pdfrwt>
<pdfrwt beam="2">  1       -2 0.28791488E-01 0.64234001E+03</pdfrwt>
<totfact> 0.72616557E+02</totfact>
</mgrwt>
</event>
<event>
 4    1  0.5900026E-005  0.8278289E+03  0.7818608E-02  0.9520587E-01
          2   -1    0    0  501    0  0.00000000000E+00  0.00000000000E+00  0.15995440692E+03  0.15995440695E+03  0.25500000000E-02 0.  1.
         -2   -1    0    0    0  501 -0.00000000000E+00 -0.00000000000E+00 -0.10710874342E+04  0.10710874342E+04  0.25500000000E-02 0. -1.
    5000001    1    1    2    0    0  0.21906791242E+03  0.26944827861E+03 -0.63068808323E+03  0.74513393657E+03  0.19200000000E+03 0.  0.
   -5000001    1    1    2    0    0 -0.21906791242E+03 -0.26944827861E+03 -0.28044494407E+03  0.48590790461E+03  0.19200000000E+03 0.  0.
<mgrwt>
<rscale>  0 0.82782886E+03</rscale>
<asrwt>0</asrwt>
<pdfrwt beam="1">  1        2 0.22850630E-01 0.82782886E+03</pdfrwt>
<pdfrwt beam="2">  1       -2 0.15301249E+00 0.82782886E+03</pdfrwt>
<totfact> 0.69625096E+01</totfact>
</mgrwt>
</event>
<event>
 4    1  0.5900026E-005  0.8726704E+03  0.7818608E-02  0.9460405E-01
         -2   -1    0    0    0  501 -0.00000000000E+00  0.00000000000E+00  0.22029964766E+03  0.22029964768E+03  0.25500000000E-02 0. -1.
          2   -1    0    0  501    0  0.00000000000E+00 -0.00000000000E+00 -0.86422481004E+03  0.86422481004E+03  0.25500000000E-02 0.  1.
    5000001    1    1    2    0    0  0.61092705501E+02  0.36741591609E+03 -0.47313947634E+03  0.63202194434E+03  0.19200000000E+03 0.  0.
   -5000001    1    1    2    0    0 -0.61092705501E+02 -0.36741591609E+03 -0.17078568604E+03  0.45250251338E+03  0.19200000000E+03 0.  0.
<mgrwt>
<rscale>  0 0.87267043E+03</rscale>
<asrwt>0</asrwt>
<pdfrwt beam="1">  1        2 0.12346069E+00 0.87267043E+03</pdfrwt>
<pdfrwt beam="2">  1       -2 0.31471379E-01 0.87267043E+03</pdfrwt>
<totfact> 0.32216085E+02</totfact>
</mgrwt>
</event>
<event>
 4    1  0.5900026E-005  0.8945638E+03  0.7818608E-02  0.9432403E-01
          2   -1    0    0  501    0  0.00000000000E+00  0.00000000000E+00  0.22367020704E+04  0.22367020704E+04  0.25500000000E-02 0.  1.
         -2   -1    0    0    0  501 -0.00000000000E+00 -0.00000000000E+00 -0.89444684430E+02  0.89444684466E+02  0.25500000000E-02 0. -1.
    5000001    1    1    2    0    0  0.13889091504E+03 -0.31316291005E+03  0.51692209645E+03  0.64917959635E+03  0.19200000000E+03 0.  0.
   -5000001    1    1    2    0    0 -0.13889091504E+03  0.31316291005E+03  0.16303352895E+04  0.16769671585E+04  0.19200000000E+03 0.  0.
<mgrwt>
<rscale>  0 0.89456383E+03</rscale>
<asrwt>0</asrwt>
<pdfrwt beam="1">  1        2 0.31952887E+00 0.89456383E+03</pdfrwt>
<pdfrwt beam="2">  1       -2 0.12777812E-01 0.89456383E+03</pdfrwt>
<totfact> 0.28155390E+02</totfact>
</mgrwt>
</event>
<event>
 4    1  0.5900026E-005  0.5451412E+03  0.7818608E-02  0.1002625E+00
         -2   -1    0    0    0  501 -0.00000000000E+00  0.00000000000E+00  0.12324667689E+03  0.12324667692E+03  0.25500000000E-02 0. -1.
          2   -1    0    0  501    0  0.00000000000E+00 -0.00000000000E+00 -0.60281318670E+03  0.60281318670E+03  0.25500000000E-02 0.  1.
    5000001    1    1    2    0    0 -0.13577744194E+03  0.13671077530E+03 -0.21650886927E+03  0.34765707284E+03  0.19200000000E+03 0.  0.
   -5000001    1    1    2    0    0  0.13577744194E+03 -0.13671077530E+03 -0.26305764054E+03  0.37840279078E+03  0.19200000000E+03 0.  0.
<mgrwt>
<rscale>  0 0.54514116E+03</rscale>
<asrwt>0</asrwt>
<pdfrwt beam="1">  1        2 0.86116168E-01 0.54514116E+03</pdfrwt>
<pdfrwt beam="2">  1       -2 0.17606669E-01 0.54514116E+03</pdfrwt>
<totfact> 0.14365554E+03</totfact>
</mgrwt>
</event>
<event>
 4    1  0.5900026E-005  0.4251704E+03  0.7818608E-02  0.1035397E+00
         -2   -1    0    0    0  501 -0.00000000000E+00  0.00000000000E+00  0.22172106899E+02  0.22172107045E+02  0.25500000000E-02 0. -1.
          2   -1    0    0  501    0  0.00000000000E+00 -0.00000000000E+00 -0.20382574345E+04  0.20382574345E+04  0.25500000000E-02 0.  1.
    5000001    1    1    2    0    0  0.76243521764E+02 -0.45260624004E+02 -0.90333232012E+03  0.92775798529E+03  0.19200000000E+03 0.  0.
   -5000001    1    1    2    0    0 -0.76243521764E+02  0.45260624004E+02 -0.11127530075E+04  0.11326715563E+04  0.19200000000E+03 0.  0.
<mgrwt>
<rscale>  0 0.42517037E+03</rscale>
<asrwt>0</asrwt>
<pdfrwt beam="1">  1        2 0.29117951E+00 0.42517037E+03</pdfrwt>
<pdfrwt beam="2">  1       -2 0.31674452E-02 0.42517037E+03</pdfrwt>
<totfact> 0.32911622E+03</totfact>
</mgrwt>
</event>
<event>
 4    1  0.5900026E-005  0.4721463E+03  0.7818608E-02  0.1021316E+00
         -2   -1    0    0    0  501 -0.00000000000E+00  0.00000000000E+00  0.16826818081E+03  0.16826818083E+03  0.25500000000E-02 0. -1.
          2   -1    0    0  501    0  0.00000000000E+00 -0.00000000000E+00 -0.33120065661E+03  0.33120065662E+03  0.25500000000E-02 0.  1.
    5000001    1    1    2    0    0 -0.11154467967E+03 -0.77831830929E+02 -0.61213575019E+02  0.24312776730E+03  0.19200000000E+03 0.  0.
   -5000001    1    1    2    0    0  0.11154467967E+03  0.77831830929E+02 -0.10171890078E+03  0.25634107015E+03  0.19200000000E+03 0.  0.
<mgrwt>
<rscale>  0 0.47214630E+03</rscale>
<asrwt>0</asrwt>
<pdfrwt beam="1">  1        2 0.47314379E-01 0.47214630E+03</pdfrwt>
<pdfrwt beam="2">  1       -2 0.24038312E-01 0.47214630E+03</pdfrwt>
<totfact> 0.16349491E+03</totfact>
</mgrwt>
</event>
<event>
 4    1  0.5900026E-005  0.6688323E+03  0.7818608E-02  0.9772070E-01
         -2   -1    0    0    0  501 -0.00000000000E+00  0.00000000000E+00  0.75769198606E+02  0.75769198649E+02  0.25500000000E-02 0. -1.
          2   -1    0    0  501    0  0.00000000000E+00 -0.00000000000E+00 -0.14759843809E+04  0.14759843809E+04  0.25500000000E-02 0.  1.
    5000001    1    1    2    0    0 -0.11598410021E+03 -0.23337625076E+03 -0.50525607108E+03  0.60005373366E+03  0.19200000000E+03 0.  0.
   -5000001    1    1    2    0    0  0.11598410021E+03  0.23337625076E+03 -0.89495911122E+03  0.95169984590E+03  0.19200000000E+03 0.  0.
<mgrwt>
<rscale>  0 0.66883228E+03</rscale>
<asrwt>0</asrwt>
<pdfrwt beam="1">  1        2 0.21085489E+00 0.66883228E+03</pdfrwt>
<pdfrwt beam="2">  1       -2 0.10824172E-01 0.66883228E+03</pdfrwt>
<totfact> 0.91925285E+02</totfact>
</mgrwt>
</event>
<event>
 4    1  0.5900026E-005  0.4460246E+03  0.7818608E-02  0.1028914E+00
          2   -1    0    0  501    0  0.00000000000E+00  0.00000000000E+00  0.33517194837E+03  0.33517194838E+03  0.25500000000E-02 0.  1.
         -2   -1    0    0    0  501 -0.00000000000E+00 -0.00000000000E+00 -0.14838500698E+03  0.14838500700E+03  0.25500000000E-02 0. -1.
    5000001    1    1    2    0    0 -0.33242747041E+02 -0.10699087193E+03  0.11273770099E+03  0.24925070939E+03  0.19200000000E+03 0.  0.
   -5000001    1    1    2    0    0  0.33242747041E+02  0.10699087193E+03  0.74049240404E+02  0.23430624599E+03  0.19200000000E+03 0.  0.
<mgrwt>
<rscale>  0 0.44602463E+03</rscale>
<asrwt>0</asrwt>
<pdfrwt beam="1">  1        2 0.47881707E-01 0.44602463E+03</pdfrwt>
<pdfrwt beam="2">  1       -2 0.21197858E-01 0.44602463E+03</pdfrwt>
<totfact> 0.20124572E+03</totfact>
</mgrwt>
</event>
<event>
 4    1  0.5900026E-005  0.1029303E+04  0.7818608E-02  0.9276977E-01
          2   -1    0    0  501    0  0.00000000000E+00  0.00000000000E+00  0.99635563667E+03  0.99635563667E+03  0.25500000000E-02 0.  1.
         -2   -1    0    0    0  501 -0.00000000000E+00 -0.00000000000E+00 -0.26583502739E+03  0.26583502741E+03  0.25500000000E-02 0. -1.
    5000001    1    1    2    0    0 -0.40690355362E+03 -0.24575043374E+03  0.42062485072E+03  0.66313878085E+03  0.19200000000E+03 0.  0.
   -5000001    1    1    2    0    0  0.40690355362E+03  0.24575043374E+03  0.30989575856E+03  0.59905188323E+03  0.19200000000E+03 0.  0.
<mgrwt>
<rscale>  0 0.10293031E+04</rscale>
<asrwt>0</asrwt>
<pdfrwt beam="1">  1        2 0.14233652E+00 0.10293031E+04</pdfrwt>
<pdfrwt beam="2">  1       -2 0.37976432E-01 0.10293031E+04</pdfrwt>
<totfact> 0.18386711E+02</totfact>
</mgrwt>
</event>
<event>
 4    1  0.5900026E-005  0.7597364E+03  0.7818608E-02  0.9620198E-01
          2   -1    0    0  501    0  0.00000000000E+00  0.00000000000E+00  0.26900098750E+04  0.26900098750E+04  0.25500000000E-02 0.  1.
         -2   -1    0    0    0  501 -0.00000000000E+00 -0.00000000000E+00 -0.53642862941E+02  0.53642863002E+02  0.25500000000E-02 0. -1.
    5000001    1    1    2    0    0  0.24028275484E+03 -0.18175691676E+03  0.85199479330E+03  0.92386714785E+03  0.19200000000E+03 0.  0.
   -5000001    1    1    2    0    0 -0.24028275484E+03  0.18175691676E+03  0.17843722187E+04  0.18197855901E+04  0.19200000000E+03 0.  0.
<mgrwt>
<rscale>  0 0.75973635E+03</rscale>
<asrwt>0</asrwt>
<pdfrwt beam="1">  1        2 0.38428731E+00 0.75973635E+03</pdfrwt>
<pdfrwt beam="2">  1       -2 0.76632625E-02 0.75973635E+03</pdfrwt>
<totfact> 0.38159484E+02</totfact>
</mgrwt>
</event>
<event>
 4    1  0.5900026E-005  0.6593708E+03  0.7818608E-02  0.9789353E-01
          2   -1    0    0  501    0  0.00000000000E+00  0.00000000000E+00  0.75970643495E+03  0.75970643495E+03  0.25500000000E-02 0.  1.
         -2   -1    0    0    0  501 -0.00000000000E+00 -0.00000000000E+00 -0.14307165225E+03  0.14307165227E+03  0.25500000000E-02 0. -1.
    5000001    1    1    2    0    0 -0.20593724393E+03  0.17149766404E+03  0.30473197404E+03  0.44894005526E+03  0.19200000000E+03 0.  0.
   -5000001    1    1    2    0    0  0.20593724393E+03 -0.17149766404E+03  0.31190280865E+03  0.45383803197E+03  0.19200000000E+03 0.  0.
<mgrwt>
<rscale>  0 0.65937078E+03</rscale>
<asrwt>0</asrwt>
<pdfrwt beam="1">  1        2 0.10852949E+00 0.65937078E+03</pdfrwt>
<pdfrwt beam="2">  1       -2 0.20438808E-01 0.65937078E+03</pdfrwt>
<totfact> 0.83684722E+02</totfact>
</mgrwt>
</event>
<event>
 4    1  0.5900026E-005  0.7416058E+03  0.7818608E-02  0.9648612E-01
          2   -1    0    0  501    0  0.00000000000E+00  0.00000000000E+00  0.33163164506E+03  0.33163164507E+03  0.25500000000E-02 0.  1.
         -2   -1    0    0    0  501 -0.00000000000E+00 -0.00000000000E+00 -0.41460088729E+03  0.41460088730E+03  0.25500000000E-02 0. -1.
    5000001    1    1    2    0    0 -0.17942976833E+03  0.25130519438E+03 -0.11461148102E+03  0.38124681516E+03  0.19200000000E+03 0.  0.
   -5000001    1    1    2    0    0  0.17942976833E+03 -0.25130519438E+03  0.31642238791E+02  0.36498571721E+03  0.19200000000E+03 0.  0.
<mgrwt>
<rscale>  0 0.74160576E+03</rscale>
<asrwt>0</asrwt>
<pdfrwt beam="1">  1        2 0.47375949E-01 0.74160576E+03</pdfrwt>
<pdfrwt beam="2">  1       -2 0.59228698E-01 0.74160576E+03</pdfrwt>
<totfact> 0.28623758E+02</totfact>
</mgrwt>
</event>
<event>
 4    1  0.5900026E-005  0.4593488E+03  0.7818608E-02  0.1024970E+00
         -2   -1    0    0    0  501 -0.00000000000E+00  0.00000000000E+00  0.15501022998E+02  0.15501023208E+02  0.25500000000E-02 0.  1.
          2   -1    0    0  501    0  0.00000000000E+00 -0.00000000000E+00 -0.34030224700E+04  0.34030224700E+04  0.25500000000E-02 0. -1.
    5000001    1    1    2    0    0 -0.10092022317E+03 -0.35798751934E+02 -0.11989927184E+04  0.12189807139E+04  0.19200000000E+03 0.  0.
   -5000001    1    1    2    0    0  0.10092022317E+03  0.35798751934E+02 -0.21885287286E+04  0.21995427793E+04  0.19200000000E+03 0.  0.
<mgrwt>
<rscale>  0 0.45934880E+03</rscale>
<asrwt>0</asrwt>
<pdfrwt beam="1">  1        2 0.48614559E+00 0.45934880E+03</pdfrwt>
<pdfrwt beam="2">  1       -2 0.22144340E-02 0.45934880E+03</pdfrwt>
<totfact> 0.10799495E+03</totfact>
</mgrwt>
</event>
<event>
 4    1  0.5900026E-005  0.7464588E+03  0.7818608E-02  0.9640922E-01
          2   -1    0    0  501    0  0.00000000000E+00  0.00000000000E+00  0.66038286524E+03  0.66038286524E+03  0.25500000000E-02 0.  1.
         -2   -1    0    0    0  501 -0.00000000000E+00 -0.00000000000E+00 -0.21093853691E+03  0.21093853693E+03  0.25500000000E-02 0. -1.
    5000001    1    1    2    0    0  0.17244100086E+03 -0.26743452241E+03  0.18464076781E+03  0.41498594638E+03  0.19200000000E+03 0.  0.
   -5000001    1    1    2    0    0 -0.17244100086E+03  0.26743452241E+03  0.26480356052E+03  0.45633545579E+03  0.19200000000E+03 0.  0.
<mgrwt>
<rscale>  0 0.74645883E+03</rscale>
<asrwt>0</asrwt>
<pdfrwt beam="1">  1        2 0.94340408E-01 0.74645883E+03</pdfrwt>
<pdfrwt beam="2">  1       -2 0.30134077E-01 0.74645883E+03</pdfrwt>
<totfact> 0.49345535E+02</totfact>
</mgrwt>
</event>
<event>
 4    1  0.5900026E-005  0.6430858E+03  0.7818608E-02  0.9819840E-01
         -2   -1    0    0    0  501 -0.00000000000E+00  0.00000000000E+00  0.81939117594E+02  0.81939117633E+02  0.25500000000E-02 0. -1.
          2   -1    0    0  501    0  0.00000000000E+00 -0.00000000000E+00 -0.12617886596E+04  0.12617886596E+04  0.25500000000E-02 0.  1.
    5000001    1    1    2    0    0 -0.24835144734E+03  0.89613864513E+00 -0.73539065747E+03  0.79958905918E+03  0.19200000000E+03 0.  0.
   -5000001    1    1    2    0    0  0.24835144734E+03 -0.89613864513E+00 -0.44445888458E+03  0.54413871810E+03  0.19200000000E+03 0.  0.
<mgrwt>
<rscale>  0 0.64308584E+03</rscale>
<asrwt>0</asrwt>
<pdfrwt beam="1">  1        2 0.18025551E+00 0.64308584E+03</pdfrwt>
<pdfrwt beam="2">  1       -2 0.11705589E-01 0.64308584E+03</pdfrwt>
<totfact> 0.10547028E+03</totfact>
</mgrwt>
</event>
<event>
 4    1  0.5900026E-005  0.6732106E+03  0.7818608E-02  0.9764175E-01
          2   -1    0    0  501    0  0.00000000000E+00  0.00000000000E+00  0.60317541189E+03  0.60317541189E+03  0.25500000000E-02 0.  1.
         -2   -1    0    0    0  501 -0.00000000000E+00 -0.00000000000E+00 -0.18784440879E+03  0.18784440880E+03  0.25500000000E-02 0. -1.
    5000001    1    1    2    0    0 -0.26359381895E+02  0.14482381920E+03  0.48265066874E+03  0.53989297426E+03  0.19200000000E+03 0.  0.
   -5000001    1    1    2    0    0  0.26359381895E+02 -0.14482381920E+03 -0.67319665634E+02  0.25112684644E+03  0.19200000000E+03 0.  0.
<mgrwt>
<rscale>  0 0.67321060E+03</rscale>
<asrwt>0</asrwt>
<pdfrwt beam="1">  1        2 0.86167915E-01 0.67321060E+03</pdfrwt>
<pdfrwt beam="2">  1       -2 0.26834916E-01 0.67321060E+03</pdfrwt>
<totfact> 0.68189515E+02</totfact>
</mgrwt>
</event>
<event>
 4    1  0.5900026E-005  0.4452098E+03  0.7818608E-02  0.1029160E+00
          2   -1    0    0  501    0  0.00000000000E+00  0.00000000000E+00  0.94087756438E+02  0.94087756472E+02  0.25500000000E-02 0.  1.
         -2   -1    0    0    0  501 -0.00000000000E+00 -0.00000000000E+00 -0.52666723757E+03  0.52666723758E+03  0.25500000000E-02 0. -1.
    5000001    1    1    2    0    0  0.18091453702E+02 -0.67984467231E+02 -0.33895426899E+03  0.39585753113E+03  0.19200000000E+03 0.  0.
   -5000001    1    1    2    0    0 -0.18091453702E+02  0.67984467231E+02 -0.93625212145E+02  0.22489746293E+03  0.19200000000E+03 0.  0.
<mgrwt>
<rscale>  0 0.44520979E+03</rscale>
<asrwt>0</asrwt>
<pdfrwt beam="1">  1        2 0.13441108E-01 0.44520979E+03</pdfrwt>
<pdfrwt beam="2">  1       -2 0.75238175E-01 0.44520979E+03</pdfrwt>
<totfact> 0.73088622E+02</totfact>
</mgrwt>
</event>
<event>
 4    1  0.5900026E-005  0.1682982E+04  0.7818608E-02  0.8771131E-01
          2   -1    0    0  501    0  0.00000000000E+00  0.00000000000E+00  0.86306159270E+03  0.86306159270E+03  0.25500000000E-02 0.  1.
         -2   -1    0    0    0  501 -0.00000000000E+00 -0.00000000000E+00 -0.82045906933E+03  0.82045906933E+03  0.25500000000E-02 0. -1.
    5000001    1    1    2    0    0 -0.32642553733E+03 -0.44442652043E+03  0.62744433648E+03  0.85709915346E+03  0.19200000000E+03 0.  0.
   -5000001    1    1    2    0    0  0.32642553733E+03  0.44442652043E+03 -0.58484181310E+03  0.82642150857E+03  0.19200000000E+03 0.  0.
<mgrwt>
<rscale>  0 0.16829815E+04</rscale>
<asrwt>0</asrwt>
<pdfrwt beam="1">  1        2 0.12329451E+00 0.16829815E+04</pdfrwt>
<pdfrwt beam="2">  1       -2 0.11720844E+00 0.16829815E+04</pdfrwt>
<totfact> 0.18499501E+01</totfact>
</mgrwt>
</event>
<event>
 4    1  0.5900026E-005  0.4928837E+03  0.7818608E-02  0.1015653E+00
          2   -1    0    0  501    0  0.00000000000E+00  0.00000000000E+00  0.11745644155E+04  0.11745644155E+04  0.25500000000E-02 0.  1.
         -2   -1    0    0    0  501 -0.00000000000E+00 -0.00000000000E+00 -0.51707324690E+02  0.51707324753E+02  0.25500000000E-02 0. -1.
    5000001    1    1    2    0    0  0.61667225381E+02 -0.80940693424E+02  0.27219026167E+03  0.34828979469E+03  0.19200000000E+03 0.  0.
   -5000001    1    1    2    0    0 -0.61667225381E+02  0.80940693424E+02  0.85066682916E+03  0.87798194558E+03  0.19200000000E+03 0.  0.
<mgrwt>
<rscale>  0 0.49288369E+03</rscale>
<asrwt>0</asrwt>
<pdfrwt beam="1">  1        2 0.16779493E+00 0.49288369E+03</pdfrwt>
<pdfrwt beam="2">  1       -2 0.73867601E-02 0.49288369E+03</pdfrwt>
<totfact> 0.24827975E+03</totfact>
</mgrwt>
</event>
<event>
 4    1  0.5900026E-005  0.9119117E+03  0.7818608E-02  0.9410813E-01
         -2   -1    0    0    0  501 -0.00000000000E+00  0.00000000000E+00  0.24979410625E+03  0.24979410627E+03  0.25500000000E-02 0. -1.
          2   -1    0    0  501    0  0.00000000000E+00 -0.00000000000E+00 -0.83226833524E+03  0.83226833525E+03  0.25500000000E-02 0.  1.
    5000001    1    1    2    0    0 -0.34724952631E+03 -0.16209448785E+03 -0.47573084294E+03  0.64034419763E+03  0.19200000000E+03 0.  0.
   -5000001    1    1    2    0    0  0.34724952631E+03  0.16209448785E+03 -0.10674338605E+03  0.44171824388E+03  0.19200000000E+03 0.  0.
<mgrwt>
<rscale>  0 0.91191167E+03</rscale>
<asrwt>0</asrwt>
<pdfrwt beam="1">  1        2 0.11889548E+00 0.91191167E+03</pdfrwt>
<pdfrwt beam="2">  1       -2 0.35684873E-01 0.91191167E+03</pdfrwt>
<totfact> 0.26648255E+02</totfact>
</mgrwt>
</event>
<event>
 4    1  0.5900026E-005  0.6053301E+03  0.7818608E-02  0.9894409E-01
         -2   -1    0    0    0  501 -0.00000000000E+00  0.00000000000E+00  0.71383472191E+02  0.71383472236E+02  0.25500000000E-02 0. -1.
          2   -1    0    0  501    0  0.00000000000E+00 -0.00000000000E+00 -0.12832960287E+04  0.12832960287E+04  0.25500000000E-02 0.  1.
    5000001    1    1    2    0    0 -0.11876297784E+03 -0.17036792929E+03 -0.36479782169E+03  0.46159649798E+03  0.19200000000E+03 0.  0.
   -5000001    1    1    2    0    0  0.11876297784E+03  0.17036792929E+03 -0.84711473486E+03  0.89308300300E+03  0.19200000000E+03 0.  0.
<mgrwt>
<rscale>  0 0.60533008E+03</rscale>
<asrwt>0</asrwt>
<pdfrwt beam="1">  1        2 0.18332799E+00 0.60533008E+03</pdfrwt>
<pdfrwt beam="2">  1       -2 0.10197640E-01 0.60533008E+03</pdfrwt>
<totfact> 0.12874233E+03</totfact>
</mgrwt>
</event>
<event>
 4    1  0.5900026E-005  0.5247649E+03  0.7818608E-02  0.1007510E+00
          2   -1    0    0  501    0  0.00000000000E+00  0.00000000000E+00  0.77714832267E+03  0.77714832268E+03  0.25500000000E-02 0.  1.
         -2   -1    0    0    0  501 -0.00000000000E+00 -0.00000000000E+00 -0.88586111998E+02  0.88586112035E+02  0.25500000000E-02 0. -1.
    5000001    1    1    2    0    0 -0.91844869896E+02  0.69493010050E+02  0.11858503468E+03  0.25335976204E+03  0.19200000000E+03 0.  0.
   -5000001    1    1    2    0    0  0.91844869896E+02 -0.69493010050E+02  0.56997717600E+03  0.61237467267E+03  0.19200000000E+03 0.  0.
<mgrwt>
<rscale>  0 0.52476489E+03</rscale>
<asrwt>0</asrwt>
<pdfrwt beam="1">  1        2 0.11102119E+00 0.52476489E+03</pdfrwt>
<pdfrwt beam="2">  1       -2 0.12655159E-01 0.52476489E+03</pdfrwt>
<totfact> 0.18378834E+03</totfact>
</mgrwt>
</event>
<event>
 4    1  0.5900026E-005  0.8133645E+03  0.7818608E-02  0.9540872E-01
         -2   -1    0    0    0  501 -0.00000000000E+00  0.00000000000E+00  0.87822206098E+02  0.87822206135E+02  0.25500000000E-02 0. -1.
          2   -1    0    0  501    0  0.00000000000E+00 -0.00000000000E+00 -0.18832418196E+04  0.18832418196E+04  0.25500000000E-02 0.  1.
    5000001    1    1    2    0    0 -0.75158640899E+02 -0.27134446737E+03 -0.35991351973E+03  0.49565954339E+03  0.19200000000E+03 0.  0.
   -5000001    1    1    2    0    0  0.75158640899E+02  0.27134446737E+03 -0.14355060938E+04  0.14754044824E+04  0.19200000000E+03 0.  0.
<mgrwt>
<rscale>  0 0.81336450E+03</rscale>
<asrwt>0</asrwt>
<pdfrwt beam="1">  1        2 0.26903452E+00 0.81336450E+03</pdfrwt>
<pdfrwt beam="2">  1       -2 0.12546031E-01 0.81336450E+03</pdfrwt>
<totfact> 0.44148524E+02</totfact>
</mgrwt>
</event>
<event>
 4    1  0.5900026E-005  0.8467792E+03  0.7818608E-02  0.9494670E-01
          2   -1    0    0  501    0  0.00000000000E+00  0.00000000000E+00  0.22340538201E+04  0.22340538201E+04  0.25500000000E-02 0.  1.
         -2   -1    0    0    0  501 -0.00000000000E+00 -0.00000000000E+00 -0.80239232164E+02  0.80239232205E+02  0.25500000000E-02 0. -1.
    5000001    1    1    2    0    0 -0.24837921434E+03 -0.10236295604E+03  0.35265140460E+03  0.48311222511E+03  0.19200000000E+03 0.  0.
   -5000001    1    1    2    0    0  0.24837921434E+03  0.10236295604E+03  0.18011631833E+04  0.18311808271E+04  0.19200000000E+03 0.  0.
<mgrwt>
<rscale>  0 0.84677922E+03</rscale>
<asrwt>0</asrwt>
<pdfrwt beam="1">  1        2 0.31915058E+00 0.84677922E+03</pdfrwt>
<pdfrwt beam="2">  1       -2 0.11462746E-01 0.84677922E+03</pdfrwt>
<totfact> 0.33935145E+02</totfact>
</mgrwt>
</event>
<event>
 4    1  0.5900026E-005  0.6210285E+03  0.7818608E-02  0.9862714E-01
         -2   -1    0    0    0  501 -0.00000000000E+00  0.00000000000E+00  0.24153028506E+03  0.24153028507E+03  0.25500000000E-02 0. -1.
          2   -1    0    0  501    0  0.00000000000E+00 -0.00000000000E+00 -0.39920085095E+03  0.39920085096E+03  0.25500000000E-02 0.  1.
    5000001    1    1    2    0    0 -0.21851593820E+03 -0.80030922213E+02 -0.15465787807E+03  0.33902392689E+03  0.19200000000E+03 0.  0.
   -5000001    1    1    2    0    0  0.21851593820E+03  0.80030922213E+02 -0.30126878233E+01  0.30170720914E+03  0.19200000000E+03 0.  0.
<mgrwt>
<rscale>  0 0.62102849E+03</rscale>
<asrwt>0</asrwt>
<pdfrwt beam="1">  1        2 0.57028693E-01 0.62102849E+03</pdfrwt>
<pdfrwt beam="2">  1       -2 0.34504326E-01 0.62102849E+03</pdfrwt>
<totfact> 0.68577549E+02</totfact>
</mgrwt>
</event>
<event>
 4    1  0.5900026E-005  0.6841189E+03  0.7818608E-02  0.9744783E-01
          2   -1    0    0  501    0  0.00000000000E+00  0.00000000000E+00  0.25978250179E+03  0.25978250180E+03  0.25500000000E-02 0.  1.
         -2   -1    0    0    0  501 -0.00000000000E+00 -0.00000000000E+00 -0.45039465874E+03  0.45039465875E+03  0.25500000000E-02 0. -1.
    5000001    1    1    2    0    0  0.17644029133E+02 -0.27148304604E+03 -0.14054070582E+02  0.33328047190E+03  0.19200000000E+03 0.  0.
   -5000001    1    1    2    0    0 -0.17644029133E+02  0.27148304604E+03 -0.17655808637E+03  0.37689668865E+03  0.19200000000E+03 0.  0.
<mgrwt>
<rscale>  0 0.68411885E+03</rscale>
<asrwt>0</asrwt>
<pdfrwt beam="1">  1        2 0.37111786E-01 0.68411885E+03</pdfrwt>
<pdfrwt beam="2">  1       -2 0.64342094E-01 0.68411885E+03</pdfrwt>
<totfact> 0.31540720E+02</totfact>
</mgrwt>
</event>
<event>
 4    1  0.5900026E-005  0.4646664E+03  0.7818608E-02  0.1023436E+00
         -2   -1    0    0    0  501 -0.00000000000E+00  0.00000000000E+00  0.38159015054E+03  0.38159015055E+03  0.25500000000E-02 0. -1.
          2   -1    0    0  501    0  0.00000000000E+00 -0.00000000000E+00 -0.14145730320E+03  0.14145730322E+03  0.25500000000E-02 0.  1.
    5000001    1    1    2    0    0 -0.39530894760E+02 -0.63613146494E+02 -0.67338845305E+00  0.20609167256E+03  0.19200000000E+03 0.  0.
   -5000001    1    1    2    0    0  0.39530894760E+02  0.63613146494E+02  0.24080623579E+03  0.31695578121E+03  0.19200000000E+03 0.  0.
<mgrwt>
<rscale>  0 0.46466639E+03</rscale>
<asrwt>0</asrwt>
<pdfrwt beam="1">  1        2 0.20208186E-01 0.46466639E+03</pdfrwt>
<pdfrwt beam="2">  1       -2 0.54512878E-01 0.46466639E+03</pdfrwt>
<totfact> 0.89158903E+02</totfact>
</mgrwt>
</event>
<event>
 4    1  0.5900026E-005  0.8701247E+03  0.7818608E-02  0.9463717E-01
          2   -1    0    0  501    0  0.00000000000E+00  0.00000000000E+00  0.11211363438E+04  0.11211363438E+04  0.25500000000E-02 0.  1.
         -2   -1    0    0    0  501 -0.00000000000E+00 -0.00000000000E+00 -0.16882805188E+03  0.16882805190E+03  0.25500000000E-02 0. -1.
    5000001    1    1    2    0    0 -0.29748243543E+02 -0.29568464380E+03  0.85149709798E+03  0.92207682675E+03  0.19200000000E+03 0.  0.
   -5000001    1    1    2    0    0  0.29748243543E+02  0.29568464380E+03  0.10081119397E+03  0.36788756897E+03  0.19200000000E+03 0.  0.
<mgrwt>
<rscale>  0 0.87012474E+03</rscale>
<asrwt>0</asrwt>
<pdfrwt beam="1">  1        2 0.16016234E+00 0.87012474E+03</pdfrwt>
<pdfrwt beam="2">  1       -2 0.24118293E-01 0.87012474E+03</pdfrwt>
<totfact> 0.36341552E+02</totfact>
</mgrwt>
</event>
<event>
 4    1  0.5900026E-005  0.6229455E+03  0.7818608E-02  0.9858913E-01
         -2   -1    0    0    0  501 -0.00000000000E+00  0.00000000000E+00  0.13100929970E+03  0.13100929972E+03  0.25500000000E-02 0. -1.
          2   -1    0    0  501    0  0.00000000000E+00 -0.00000000000E+00 -0.74052199908E+03  0.74052199909E+03  0.25500000000E-02 0.  1.
    5000001    1    1    2    0    0  0.19003060656E+03 -0.15284611933E+03 -0.34117735914E+03  0.46123698682E+03  0.19200000000E+03 0.  0.
   -5000001    1    1    2    0    0 -0.19003060656E+03  0.15284611933E+03 -0.26833534024E+03  0.41029431198E+03  0.19200000000E+03 0.  0.
<mgrwt>
<rscale>  0 0.62294548E+03</rscale>
<asrwt>0</asrwt>
<pdfrwt beam="1">  1        2 0.10578885E+00 0.62294548E+03</pdfrwt>
<pdfrwt beam="2">  1       -2 0.18715615E-01 0.62294548E+03</pdfrwt>
<totfact> 0.10079013E+03</totfact>
</mgrwt>
</event>
<event>
 4    1  0.5900026E-005  0.9730988E+03  0.7818608E-02  0.9338552E-01
         -2   -1    0    0    0  501 -0.00000000000E+00  0.00000000000E+00  0.93499799481E+03  0.93499799481E+03  0.25500000000E-02 0. -1.
          2   -1    0    0  501    0  0.00000000000E+00 -0.00000000000E+00 -0.25318806224E+03  0.25318806225E+03  0.25500000000E-02 0.  1.
    5000001    1    1    2    0    0 -0.41864779425E+03  0.62819464506E+02  0.16542387615E+03  0.49339772957E+03  0.19200000000E+03 0.  0.
   -5000001    1    1    2    0    0  0.41864779425E+03 -0.62819464506E+02  0.51638605642E+03  0.69478832749E+03  0.19200000000E+03 0.  0.
<mgrwt>
<rscale>  0 0.97309882E+03</rscale>
<asrwt>0</asrwt>
<pdfrwt beam="1">  1        2 0.36169723E-01 0.97309882E+03</pdfrwt>
<pdfrwt beam="2">  1       -2 0.13357114E+00 0.97309882E+03</pdfrwt>
<totfact> 0.58419120E+01</totfact>
</mgrwt>
</event>
<event>
 4    1  0.5900026E-005  0.6980217E+03  0.7818608E-02  0.9720621E-01
         -2   -1    0    0    0  501 -0.00000000000E+00  0.00000000000E+00  0.74888096323E+02  0.74888096367E+02  0.25500000000E-02 0. -1.
          2   -1    0    0  501    0  0.00000000000E+00 -0.00000000000E+00 -0.16265412651E+04  0.16265412651E+04  0.25500000000E-02 0.  1.
    5000001    1    1    2    0    0  0.11811614494E+03  0.20279132532E+03 -0.11970903652E+04  0.12348947679E+04  0.19200000000E+03 0.  0.
   -5000001    1    1    2    0    0 -0.11811614494E+03 -0.20279132532E+03 -0.35456280358E+03  0.46653459358E+03  0.19200000000E+03 0.  0.
<mgrwt>
<rscale>  0 0.69802172E+03</rscale>
<asrwt>0</asrwt>
<pdfrwt beam="1">  1        2 0.23236302E+00 0.69802172E+03</pdfrwt>
<pdfrwt beam="2">  1       -2 0.10698300E-01 0.69802172E+03</pdfrwt>
<totfact> 0.78144968E+02</totfact>
</mgrwt>
</event>
<event>
 4    1  0.5900026E-005  0.4456841E+03  0.7818608E-02  0.1029017E+00
          2   -1    0    0  501    0  0.00000000000E+00  0.00000000000E+00  0.31612514501E+04  0.31612514501E+04  0.25500000000E-02 0. -1.
         -2   -1    0    0    0  501 -0.00000000000E+00 -0.00000000000E+00 -0.15708520761E+02  0.15708520968E+02  0.25500000000E-02 0.  1.
    5000001    1    1    2    0    0 -0.76712820860E+02 -0.70871583056E+02  0.12631262746E+04  0.12818968850E+04  0.19200000000E+03 0.  0.
   -5000001    1    1    2    0    0  0.76712820860E+02  0.70871583056E+02  0.18824166547E+04  0.18950630861E+04  0.19200000000E+03 0.  0.
<mgrwt>
<rscale>  0 0.44568412E+03</rscale>
<asrwt>0</asrwt>
<pdfrwt beam="1">  1        2 0.45160744E+00 0.44568412E+03</pdfrwt>
<pdfrwt beam="2">  1       -2 0.22440740E-02 0.44568412E+03</pdfrwt>
<totfact> 0.14520285E+03</totfact>
</mgrwt>
</event>
<event>
 4    1  0.5900026E-005  0.9448189E+03  0.7818608E-02  0.9371227E-01
         -2   -1    0    0    0  501 -0.00000000000E+00  0.00000000000E+00  0.74155433097E+02  0.74155433141E+02  0.25500000000E-02 0. -1.
          2   -1    0    0  501    0  0.00000000000E+00 -0.00000000000E+00 -0.30094990214E+04  0.30094990214E+04  0.25500000000E-02 0.  1.
    5000001    1    1    2    0    0 -0.92620651073E+02 -0.33572236541E+03 -0.22998876112E+04  0.23340169485E+04  0.19200000000E+03 0.  0.
   -5000001    1    1    2    0    0  0.92620651073E+02  0.33572236541E+03 -0.63545597703E+03  0.74963750599E+03  0.19200000000E+03 0.  0.
<mgrwt>
<rscale>  0 0.94481893E+03</rscale>
<asrwt>0</asrwt>
<pdfrwt beam="1">  1        2 0.42992836E+00 0.94481893E+03</pdfrwt>
<pdfrwt beam="2">  1       -2 0.10593635E-01 0.94481893E+03</pdfrwt>
<totfact> 0.14952621E+02</totfact>
</mgrwt>
</event>
<event>
 4    1  0.5900026E-005  0.5780076E+03  0.7818608E-02  0.9952114E-01
          2   -1    0    0  501    0  0.00000000000E+00  0.00000000000E+00  0.77634195966E+03  0.77634195966E+03  0.25500000000E-02 0.  1.
         -2   -1    0    0    0  501 -0.00000000000E+00 -0.00000000000E+00 -0.10758557963E+03  0.10758557966E+03  0.25500000000E-02 0. -1.
    5000001    1    1    2    0    0  0.57706906647E+02 -0.19411328671E+03  0.21943732735E+03  0.35500252927E+03  0.19200000000E+03 0.  0.
   -5000001    1    1    2    0    0 -0.57706906647E+02  0.19411328671E+03  0.44931905269E+03  0.52892501005E+03  0.19200000000E+03 0.  0.
<mgrwt>
<rscale>  0 0.57800761E+03</rscale>
<asrwt>0</asrwt>
<pdfrwt beam="1">  1        2 0.11090599E+00 0.57800761E+03</pdfrwt>
<pdfrwt beam="2">  1       -2 0.15369369E-01 0.57800761E+03</pdfrwt>
<totfact> 0.13303849E+03</totfact>
</mgrwt>
</event>
<event>
 4    1  0.5900026E-005  0.1008073E+04  0.7818608E-02  0.9299735E-01
         -2   -1    0    0    0  501 -0.00000000000E+00  0.00000000000E+00  0.12422907697E+03  0.12422907700E+03  0.25500000000E-02 0.  1.
          2   -1    0    0  501    0  0.00000000000E+00 -0.00000000000E+00 -0.20450349786E+04  0.20450349786E+04  0.25500000000E-02 0. -1.
    5000001    1    1    2    0    0  0.25573149081E+03  0.83068510121E+01 -0.17985950672E+04  0.18268212323E+04  0.19200000000E+03 0.  0.
   -5000001    1    1    2    0    0 -0.25573149081E+03 -0.83068510121E+01 -0.12221083446E+03  0.34244282330E+03  0.19200000000E+03 0.  0.
<mgrwt>
<rscale>  0 0.10080730E+04</rscale>
<asrwt>0</asrwt>
<pdfrwt beam="1">  1        2 0.29214783E+00 0.10080730E+04</pdfrwt>
<pdfrwt beam="2">  1       -2 0.17747012E-01 0.10080730E+04</pdfrwt>
<totfact> 0.20027961E+02</totfact>
</mgrwt>
</event>
<event>
 4    1  0.5900026E-005  0.7241611E+03  0.7818608E-02  0.9676783E-01
          2   -1    0    0  501    0  0.00000000000E+00  0.00000000000E+00  0.21606700802E+03  0.21606700804E+03  0.25500000000E-02 0.  1.
         -2   -1    0    0    0  501 -0.00000000000E+00 -0.00000000000E+00 -0.60676695891E+03  0.60676695891E+03  0.25500000000E-02 0. -1.
    5000001    1    1    2    0    0  0.34983282979E+02 -0.28480602640E+03 -0.31930120675E+03  0.47027179736E+03  0.19200000000E+03 0.  0.
   -5000001    1    1    2    0    0 -0.34983282979E+02  0.28480602640E+03 -0.71398744141E+02  0.35256216959E+03  0.19200000000E+03 0.  0.
<mgrwt>
<rscale>  0 0.72416109E+03</rscale>
<asrwt>0</asrwt>
<pdfrwt beam="1">  1        2 0.30866716E-01 0.72416109E+03</pdfrwt>
<pdfrwt beam="2">  1       -2 0.86680993E-01 0.72416109E+03</pdfrwt>
<totfact> 0.20037701E+02</totfact>
</mgrwt>
</event>
<event>
 4    1  0.5900026E-005  0.7672319E+03  0.7818608E-02  0.9608698E-01
         -2   -1    0    0    0  501 -0.00000000000E+00  0.00000000000E+00  0.43137027840E+03  0.43137027840E+03  0.25500000000E-02 0. -1.
          2   -1    0    0  501    0  0.00000000000E+00 -0.00000000000E+00 -0.34114817718E+03  0.34114817719E+03  0.25500000000E-02 0.  1.
    5000001    1    1    2    0    0  0.14009267537E+03 -0.30110078293E+03  0.48221836133E+02  0.38662253511E+03  0.19200000000E+03 0.  0.
   -5000001    1    1    2    0    0 -0.14009267537E+03  0.30110078293E+03  0.42000265083E+02  0.38589592048E+03  0.19200000000E+03 0.  0.
<mgrwt>
<rscale>  0 0.76723187E+03</rscale>
<asrwt>0</asrwt>
<pdfrwt beam="1">  1        2 0.48735454E-01 0.76723187E+03</pdfrwt>
<pdfrwt beam="2">  1       -2 0.61624326E-01 0.76723187E+03</pdfrwt>
<totfact> 0.25488345E+02</totfact>
</mgrwt>
</event>
<event>
 4    1  0.5900026E-005  0.8776090E+03  0.7818608E-02  0.9454012E-01
         -2   -1    0    0    0  501 -0.00000000000E+00  0.00000000000E+00  0.38350627743E+03  0.38350627744E+03  0.25500000000E-02 0.  1.
          2   -1    0    0  501    0  0.00000000000E+00 -0.00000000000E+00 -0.50207623603E+03  0.50207623604E+03  0.25500000000E-02 0. -1.
    5000001    1    1    2    0    0 -0.81553586300E+02  0.32537212470E+03 -0.26894026544E+03  0.47086184104E+03  0.19200000000E+03 0.  0.
   -5000001    1    1    2    0    0  0.81553586300E+02 -0.32537212470E+03  0.15037030685E+03  0.41472067244E+03  0.19200000000E+03 0.  0.
<mgrwt>
<rscale>  0 0.87760900E+03</rscale>
<asrwt>0</asrwt>
<pdfrwt beam="1">  1        2 0.71725176E-01 0.87760900E+03</pdfrwt>
<pdfrwt beam="2">  1       -2 0.54786611E-01 0.87760900E+03</pdfrwt>
<totfact> 0.21030448E+02</totfact>
</mgrwt>
</event>
<event>
 4    1  0.5900026E-005  0.5822626E+03  0.7818608E-02  0.9942905E-01
         -2   -1    0    0    0  501 -0.00000000000E+00  0.00000000000E+00  0.26457755371E+03  0.26457755372E+03  0.25500000000E-02 0. -1.
          2   -1    0    0  501    0  0.00000000000E+00 -0.00000000000E+00 -0.32035000602E+03  0.32035000603E+03  0.25500000000E-02 0.  1.
    5000001    1    1    2    0    0 -0.10951723715E+03  0.18505476731E+03  0.12970906314E+02  0.28856807957E+03  0.19200000000E+03 0.  0.
   -5000001    1    1    2    0    0  0.10951723715E+03 -0.18505476731E+03 -0.68743358623E+02  0.29635948018E+03  0.19200000000E+03 0.  0.
<mgrwt>
<rscale>  0 0.58226256E+03</rscale>
<asrwt>0</asrwt>
<pdfrwt beam="1">  1        2 0.45764286E-01 0.58226256E+03</pdfrwt>
<pdfrwt beam="2">  1       -2 0.37796794E-01 0.58226256E+03</pdfrwt>
<totfact> 0.73580697E+02</totfact>
</mgrwt>
</event>
<event>
 4    1  0.5900026E-005  0.7043132E+03  0.7818608E-02  0.9709884E-01
          2   -1    0    0  501    0  0.00000000000E+00  0.00000000000E+00  0.29459049518E+03  0.29459049519E+03  0.25500000000E-02 0. -1.
         -2   -1    0    0    0  501 -0.00000000000E+00 -0.00000000000E+00 -0.42097178704E+03  0.42097178705E+03  0.25500000000E-02 0.  1.
    5000001    1    1    2    0    0  0.21508547289E+03 -0.20077919623E+03 -0.87579064036E+02  0.36208857859E+03  0.19200000000E+03 0.  0.
   -5000001    1    1    2    0    0 -0.21508547289E+03  0.20077919623E+03 -0.38802227826E+02  0.35347370365E+03  0.19200000000E+03 0.  0.
<mgrwt>
<rscale>  0 0.70431325E+03</rscale>
<asrwt>0</asrwt>
<pdfrwt beam="1">  1        2 0.42084357E-01 0.70431325E+03</pdfrwt>
<pdfrwt beam="2">  1       -2 0.60138827E-01 0.70431325E+03</pdfrwt>
<totfact> 0.31643994E+02</totfact>
</mgrwt>
</event>
<event>
 4    1  0.5900026E-005  0.4619138E+03  0.7818608E-02  0.1024228E+00
         -2   -1    0    0    0  501 -0.00000000000E+00  0.00000000000E+00  0.12235767905E+03  0.12235767908E+03  0.25500000000E-02 0. -1.
          2   -1    0    0  501    0  0.00000000000E+00 -0.00000000000E+00 -0.43594402796E+03  0.43594402797E+03  0.25500000000E-02 0.  1.
    5000001    1    1    2    0    0  0.52841558867E+02  0.71707154324E+02 -0.45078045638E+02  0.21640281080E+03  0.19200000000E+03 0.  0.
   -5000001    1    1    2    0    0 -0.52841558867E+02 -0.71707154324E+02 -0.26850830327E+03  0.34189889624E+03  0.19200000000E+03 0.  0.
<mgrwt>
<rscale>  0 0.46191384E+03</rscale>
<asrwt>0</asrwt>
<pdfrwt beam="1">  1        2 0.62277718E-01 0.46191384E+03</pdfrwt>
<pdfrwt beam="2">  1       -2 0.17479669E-01 0.46191384E+03</pdfrwt>
<totfact> 0.21016394E+03</totfact>
</mgrwt>
</event>
<event>
 4    1  0.5900026E-005  0.7161785E+03  0.7818608E-02  0.9689958E-01
          2   -1    0    0  501    0  0.00000000000E+00  0.00000000000E+00  0.84932834936E+03  0.84932834936E+03  0.25500000000E-02 0.  1.
         -2   -1    0    0    0  501 -0.00000000000E+00 -0.00000000000E+00 -0.15097566608E+03  0.15097566610E+03  0.25500000000E-02 0. -1.
    5000001    1    1    2    0    0 -0.27548630018E+03 -0.99197576328E+02  0.45398701692E+03  0.57332457846E+03  0.19200000000E+03 0.  0.
   -5000001    1    1    2    0    0  0.27548630018E+03  0.99197576328E+02  0.24436566636E+03  0.42697943701E+03  0.19200000000E+03 0.  0.
<mgrwt>
<rscale>  0 0.71617851E+03</rscale>
<asrwt>0</asrwt>
<pdfrwt beam="1">  1        2 0.12133262E+00 0.71617851E+03</pdfrwt>
<pdfrwt beam="2">  1       -2 0.21567953E-01 0.71617851E+03</pdfrwt>
<totfact> 0.65868269E+02</totfact>
</mgrwt>
</event>
<event>
 4    1  0.5900026E-005  0.6373151E+03  0.7818608E-02  0.9830877E-01
          2   -1    0    0  501    0  0.00000000000E+00  0.00000000000E+00  0.26951530052E+04  0.26951530052E+04  0.25500000000E-02 0.  1.
         -2   -1    0    0    0  501 -0.00000000000E+00 -0.00000000000E+00 -0.37676020919E+02  0.37676021005E+02  0.25500000000E-02 0. -1.
    5000001    1    1    2    0    0 -0.22340173312E+03  0.10768782717E+03  0.10871718424E+04  0.11315085582E+04  0.19200000000E+03 0.  0.
   -5000001    1    1    2    0    0  0.22340173312E+03 -0.10768782717E+03  0.15703051418E+04  0.16013204679E+04  0.19200000000E+03 0.  0.
<mgrwt>
<rscale>  0 0.63731512E+03</rscale>
<asrwt>0</asrwt>
<pdfrwt beam="1">  1        2 0.38502184E+00 0.63731512E+03</pdfrwt>
<pdfrwt beam="2">  1       -2 0.53822890E-02 0.63731512E+03</pdfrwt>
<totfact> 0.66898738E+02</totfact>
</mgrwt>
</event>
<event>
 4    1  0.5900026E-005  0.6469551E+03  0.7818608E-02  0.9812510E-01
          2   -1    0    0  501    0  0.00000000000E+00  0.00000000000E+00  0.85215117133E+03  0.85215117134E+03  0.25500000000E-02 0.  1.
         -2   -1    0    0    0  501 -0.00000000000E+00 -0.00000000000E+00 -0.12279245135E+03  0.12279245137E+03  0.25500000000E-02 0. -1.
    5000001    1    1    2    0    0  0.10726661533E+03 -0.21181919680E+03  0.52558164123E+03  0.60784336839E+03  0.19200000000E+03 0.  0.
   -5000001    1    1    2    0    0 -0.10726661533E+03  0.21181919680E+03  0.20377707876E+03  0.36710025432E+03  0.19200000000E+03 0.  0.
<mgrwt>
<rscale>  0 0.64695512E+03</rscale>
<asrwt>0</asrwt>
<pdfrwt beam="1">  1        2 0.12173588E+00 0.64695512E+03</pdfrwt>
<pdfrwt beam="2">  1       -2 0.17541778E-01 0.64695512E+03</pdfrwt>
<totfact> 0.94127669E+02</totfact>
</mgrwt>
</event>
<event>
 4    1  0.5900026E-005  0.7982374E+03  0.7818608E-02  0.9562572E-01
         -2   -1    0    0    0  501 -0.00000000000E+00  0.00000000000E+00  0.32862205296E+03  0.32862205297E+03  0.25500000000E-02 0. -1.
          2   -1    0    0  501    0  0.00000000000E+00 -0.00000000000E+00 -0.48473844169E+03  0.48473844169E+03  0.25500000000E-02 0.  1.
    5000001    1    1    2    0    0  0.12282568159E+03  0.30318705100E+03  0.48484863269E+02  0.38239157668E+03  0.19200000000E+03 0.  0.
   -5000001    1    1    2    0    0 -0.12282568159E+03 -0.30318705100E+03 -0.20460125199E+03  0.43096891798E+03  0.19200000000E+03 0.  0.
<mgrwt>
<rscale>  0 0.79823741E+03</rscale>
<asrwt>0</asrwt>
<pdfrwt beam="1">  1        2 0.69248348E-01 0.79823741E+03</pdfrwt>
<pdfrwt beam="2">  1       -2 0.46946008E-01 0.79823741E+03</pdfrwt>
<totfact> 0.30101488E+02</totfact>
</mgrwt>
</event>
<event>
 4    1  0.5900026E-005  0.9032965E+03  0.7818608E-02  0.9421470E-01
          2   -1    0    0  501    0  0.00000000000E+00  0.00000000000E+00  0.13581788077E+04  0.13581788077E+04  0.25500000000E-02 0.  1.
         -2   -1    0    0    0  501 -0.00000000000E+00 -0.00000000000E+00 -0.15019092361E+03  0.15019092363E+03  0.25500000000E-02 0. -1.
    5000001    1    1    2    0    0  0.58040947640E+02 -0.40201532720E+03  0.68118825572E+03  0.81600644276E+03  0.19200000000E+03 0.  0.
   -5000001    1    1    2    0    0 -0.58040947640E+02  0.40201532720E+03  0.52679962841E+03  0.69236328860E+03  0.19200000000E+03 0.  0.
<mgrwt>
<rscale>  0 0.90329647E+03</rscale>
<asrwt>0</asrwt>
<pdfrwt beam="1">  1        2 0.19402555E+00 0.90329647E+03</pdfrwt>
<pdfrwt beam="2">  1       -2 0.21455845E-01 0.90329647E+03</pdfrwt>
<totfact> 0.32899312E+02</totfact>
</mgrwt>
</event>
<event>
 4    1  0.5900026E-005  0.8134534E+03  0.7818608E-02  0.9540745E-01
         -2   -1    0    0    0  501 -0.00000000000E+00  0.00000000000E+00  0.11720346639E+03  0.11720346642E+03  0.25500000000E-02 0. -1.
          2   -1    0    0  501    0  0.00000000000E+00 -0.00000000000E+00 -0.14114480070E+04  0.14114480070E+04  0.25500000000E-02 0.  1.
    5000001    1    1    2    0    0  0.25656818417E+03 -0.23955858510E+03 -0.50970764893E+03  0.64798258943E+03  0.19200000000E+03 0.  0.
   -5000001    1    1    2    0    0 -0.25656818417E+03  0.23955858510E+03 -0.78453689168E+03  0.88066888399E+03  0.19200000000E+03 0.  0.
<mgrwt>
<rscale>  0 0.81345338E+03</rscale>
<asrwt>0</asrwt>
<pdfrwt beam="1">  1        2 0.20163542E+00 0.81345338E+03</pdfrwt>
<pdfrwt beam="2">  1       -2 0.16743353E-01 0.81345338E+03</pdfrwt>
<totfact> 0.47636680E+02</totfact>
</mgrwt>
</event>
<event>
 4    1  0.5900026E-005  0.8376082E+03  0.7818608E-02  0.9507121E-01
          2   -1    0    0  501    0  0.00000000000E+00  0.00000000000E+00  0.36449957831E+03  0.36449957831E+03  0.25500000000E-02 0.  1.
         -2   -1    0    0    0  501 -0.00000000000E+00 -0.00000000000E+00 -0.48119911756E+03  0.48119911757E+03  0.25500000000E-02 0. -1.
    5000001    1    1    2    0    0 -0.24868898757E+03 -0.25431490833E+03  0.52301630949E+02  0.40758035494E+03  0.19200000000E+03 0.  0.
   -5000001    1    1    2    0    0  0.24868898757E+03  0.25431490833E+03 -0.16900117021E+03  0.43811834094E+03  0.19200000000E+03 0.  0.
<mgrwt>
<rscale>  0 0.83760820E+03</rscale>
<asrwt>0</asrwt>
<pdfrwt beam="1">  1        2 0.52071368E-01 0.83760820E+03</pdfrwt>
<pdfrwt beam="2">  1       -2 0.68742731E-01 0.83760820E+03</pdfrwt>
<totfact> 0.18674706E+02</totfact>
</mgrwt>
</event>
<event>
 4    1  0.5900026E-005  0.6613034E+03  0.7818608E-02  0.9785797E-01
          2   -1    0    0  501    0  0.00000000000E+00  0.00000000000E+00  0.64571821058E+03  0.64571821059E+03  0.25500000000E-02 0.  1.
         -2   -1    0    0    0  501 -0.00000000000E+00 -0.00000000000E+00 -0.16931619276E+03  0.16931619278E+03  0.25500000000E-02 0. -1.
    5000001    1    1    2    0    0 -0.99604381043E+02 -0.17646049207E+03  0.45661973375E+03  0.53518680780E+03  0.19200000000E+03 0.  0.
   -5000001    1    1    2    0    0  0.99604381043E+02  0.17646049207E+03  0.19782284066E+02  0.27984759557E+03  0.19200000000E+03 0.  0.
<mgrwt>
<rscale>  0 0.66130341E+03</rscale>
<asrwt>0</asrwt>
<pdfrwt beam="1">  1        2 0.92245458E-01 0.66130341E+03</pdfrwt>
<pdfrwt beam="2">  1       -2 0.24188028E-01 0.66130341E+03</pdfrwt>
<totfact> 0.75845988E+02</totfact>
</mgrwt>
</event>
<event>
 4    1  0.5900026E-005  0.4185401E+03  0.7818608E-02  0.1037542E+00
          2   -1    0    0  501    0  0.00000000000E+00  0.00000000000E+00  0.11886967155E+04  0.11886967155E+04  0.25500000000E-02 0.  1.
         -2   -1    0    0    0  501 -0.00000000000E+00 -0.00000000000E+00 -0.36841994082E+02  0.36841994170E+02  0.25500000000E-02 0. -1.
    5000001    1    1    2    0    0 -0.72511005611E+02 -0.24414538637E+02  0.67197893978E+03  0.70304595236E+03  0.19200000000E+03 0.  0.
   -5000001    1    1    2    0    0  0.72511005611E+02  0.24414538637E+02  0.47987578160E+03  0.52249275727E+03  0.19200000000E+03 0.  0.
<mgrwt>
<rscale>  0 0.41854012E+03</rscale>
<asrwt>0</asrwt>
<pdfrwt beam="1">  1        2 0.16981384E+00 0.41854012E+03</pdfrwt>
<pdfrwt beam="2">  1       -2 0.52631414E-02 0.41854012E+03</pdfrwt>
<totfact> 0.41347991E+03</totfact>
</mgrwt>
</event>
<event>
 4    1  0.5900026E-005  0.5823204E+03  0.7818608E-02  0.9942780E-01
          2   -1    0    0  501    0  0.00000000000E+00  0.00000000000E+00  0.14620671486E+04  0.14620671486E+04  0.25500000000E-02 0.  1.
         -2   -1    0    0    0  501 -0.00000000000E+00 -0.00000000000E+00 -0.57982462644E+02  0.57982462700E+02  0.25500000000E-02 0. -1.
    5000001    1    1    2    0    0  0.10275813487E+03  0.15170896991E+03  0.38950579677E+03  0.47133174256E+03  0.19200000000E+03 0.  0.
   -5000001    1    1    2    0    0 -0.10275813487E+03 -0.15170896991E+03  0.10145788892E+04  0.10487178688E+04  0.19200000000E+03 0.  0.
<mgrwt>
<rscale>  0 0.58232037E+03</rscale>
<asrwt>0</asrwt>
<pdfrwt beam="1">  1        2 0.20886673E+00 0.58232037E+03</pdfrwt>
<pdfrwt beam="2">  1       -2 0.82832091E-02 0.58232037E+03</pdfrwt>
<totfact> 0.14449836E+03</totfact>
</mgrwt>
</event>
<event>
 4    1  0.5900026E-005  0.5290491E+03  0.7818608E-02  0.1006463E+00
          2   -1    0    0  501    0  0.00000000000E+00  0.00000000000E+00  0.99331538380E+03  0.99331538380E+03  0.25500000000E-02 0.  1.
         -2   -1    0    0    0  501 -0.00000000000E+00 -0.00000000000E+00 -0.70444142353E+02  0.70444142399E+02  0.25500000000E-02 0. -1.
    5000001    1    1    2    0    0  0.16800534696E+03 -0.44164359066E+02  0.35254242519E+03  0.43740878909E+03  0.19200000000E+03 0.  0.
   -5000001    1    1    2    0    0 -0.16800534696E+03  0.44164359066E+02  0.57032881626E+03  0.62635073711E+03  0.19200000000E+03 0.  0.
<mgrwt>
<rscale>  0 0.52904915E+03</rscale>
<asrwt>0</asrwt>
<pdfrwt beam="1">  1        2 0.14190219E+00 0.52904915E+03</pdfrwt>
<pdfrwt beam="2">  1       -2 0.10063449E-01 0.52904915E+03</pdfrwt>
<totfact> 0.19321879E+03</totfact>
</mgrwt>
</event>
<event>
 4    1  0.5900026E-005  0.5416941E+03  0.7818608E-02  0.1003435E+00
          2   -1    0    0  501    0  0.00000000000E+00  0.00000000000E+00  0.17615776801E+03  0.17615776803E+03  0.25500000000E-02 0.  1.
         -2   -1    0    0    0  501 -0.00000000000E+00 -0.00000000000E+00 -0.41643425498E+03  0.41643425499E+03  0.25500000000E-02 0. -1.
    5000001    1    1    2    0    0  0.13463194008E+03 -0.12737181472E+03 -0.17080161791E+03  0.31683833599E+03  0.19200000000E+03 0.  0.
   -5000001    1    1    2    0    0 -0.13463194008E+03  0.12737181472E+03 -0.69474869062E+02  0.27575368702E+03  0.19200000000E+03 0.  0.
<mgrwt>
<rscale>  0 0.54169412E+03</rscale>
<asrwt>0</asrwt>
<pdfrwt beam="1">  1        2 0.25165395E-01 0.54169412E+03</pdfrwt>
<pdfrwt beam="2">  1       -2 0.59490608E-01 0.54169412E+03</pdfrwt>
<totfact> 0.57778625E+02</totfact>
</mgrwt>
</event>
<event>
 4    1  0.5900026E-005  0.4823321E+03  0.7818608E-02  0.1018496E+00
         -2   -1    0    0    0  501 -0.00000000000E+00  0.00000000000E+00  0.97577772200E+02  0.97577772233E+02  0.25500000000E-02 0. -1.
          2   -1    0    0  501    0  0.00000000000E+00 -0.00000000000E+00 -0.59604837288E+03  0.59604837288E+03  0.25500000000E-02 0.  1.
    5000001    1    1    2    0    0 -0.15251096940E+02  0.14500919180E+03 -0.25796031740E+03  0.35308325791E+03  0.19200000000E+03 0.  0.
   -5000001    1    1    2    0    0  0.15251096940E+02 -0.14500919180E+03 -0.24051028328E+03  0.34054288721E+03  0.19200000000E+03 0.  0.
<mgrwt>
<rscale>  0 0.48233214E+03</rscale>
<asrwt>0</asrwt>
<pdfrwt beam="1">  1        2 0.85149765E-01 0.48233214E+03</pdfrwt>
<pdfrwt beam="2">  1       -2 0.13939682E-01 0.48233214E+03</pdfrwt>
<totfact> 0.21574307E+03</totfact>
</mgrwt>
</event>
<event>
 4    1  0.5900026E-005  0.5898189E+03  0.7818608E-02  0.9926757E-01
         -2   -1    0    0    0  501 -0.00000000000E+00  0.00000000000E+00  0.17742584815E+03  0.17742584817E+03  0.25500000000E-02 0. -1.
          2   -1    0    0  501    0  0.00000000000E+00 -0.00000000000E+00 -0.49018545732E+03  0.49018545732E+03  0.25500000000E-02 0.  1.
    5000001    1    1    2    0    0 -0.11102100310E+02 -0.21297543378E+03 -0.79396340895E+02  0.29774077815E+03  0.19200000000E+03 0.  0.
   -5000001    1    1    2    0    0  0.11102100310E+02  0.21297543378E+03 -0.23336326827E+03  0.36987052735E+03  0.19200000000E+03 0.  0.
<mgrwt>
<rscale>  0 0.58981886E+03</rscale>
<asrwt>0</asrwt>
<pdfrwt beam="1">  1        2 0.70026493E-01 0.58981886E+03</pdfrwt>
<pdfrwt beam="2">  1       -2 0.25346550E-01 0.58981886E+03</pdfrwt>
<totfact> 0.96237695E+02</totfact>
</mgrwt>
</event>
<event>
 4    1  0.5900026E-005  0.4704423E+03  0.7818608E-02  0.1021795E+00
         -2   -1    0    0    0  501 -0.00000000000E+00  0.00000000000E+00  0.22015609479E+02  0.22015609627E+02  0.25500000000E-02 0. -1.
          2   -1    0    0  501    0  0.00000000000E+00 -0.00000000000E+00 -0.25131713677E+04  0.25131713677E+04  0.25500000000E-02 0.  1.
    5000001    1    1    2    0    0  0.50327915589E+02  0.80918903771E+02 -0.72353888130E+03  0.75462128305E+03  0.19200000000E+03 0.  0.
   -5000001    1    1    2    0    0 -0.50327915589E+02 -0.80918903771E+02 -0.17676168769E+04  0.17805656943E+04  0.19200000000E+03 0.  0.
<mgrwt>
<rscale>  0 0.47044234E+03</rscale>
<asrwt>0</asrwt>
<pdfrwt beam="1">  1        2 0.35902430E+00 0.47044234E+03</pdfrwt>
<pdfrwt beam="2">  1       -2 0.31450887E-02 0.47044234E+03</pdfrwt>
<totfact> 0.19191992E+03</totfact>
</mgrwt>
</event>
<event>
 4    1  0.5900026E-005  0.6381771E+03  0.7818608E-02  0.9829220E-01
         -2   -1    0    0    0  501 -0.00000000000E+00  0.00000000000E+00  0.25612077926E+03  0.25612077928E+03  0.25500000000E-02 0. -1.
          2   -1    0    0  501    0  0.00000000000E+00 -0.00000000000E+00 -0.39753709713E+03  0.39753709714E+03  0.25500000000E-02 0.  1.
    5000001    1    1    2    0    0  0.80921973703E+02  0.23472790142E+03 -0.12961818709E+03  0.33957389175E+03  0.19200000000E+03 0.  0.
   -5000001    1    1    2    0    0 -0.80921973703E+02 -0.23472790142E+03 -0.11798130782E+02  0.31408398467E+03  0.19200000000E+03 0.  0.
<mgrwt>
<rscale>  0 0.63817713E+03</rscale>
<asrwt>0</asrwt>
<pdfrwt beam="1">  1        2 0.56791014E-01 0.63817713E+03</pdfrwt>
<pdfrwt beam="2">  1       -2 0.36588683E-01 0.63817713E+03</pdfrwt>
<totfact> 0.61605827E+02</totfact>
</mgrwt>
</event>
<event>
 4    1  0.5900026E-005  0.4751738E+03  0.7818608E-02  0.1020470E+00
          2   -1    0    0  501    0  0.00000000000E+00  0.00000000000E+00  0.77416365347E+03  0.77416365348E+03  0.25500000000E-02 0.  1.
         -2   -1    0    0    0  501 -0.00000000000E+00 -0.00000000000E+00 -0.72914217743E+02  0.72914217787E+02  0.25500000000E-02 0. -1.
    5000001    1    1    2    0    0  0.33682561620E+02  0.12913231005E+03  0.27554345231E+03  0.36138326271E+03  0.19200000000E+03 0.  0.
   -5000001    1    1    2    0    0 -0.33682561620E+02 -0.12913231005E+03  0.42570598342E+03  0.48569460856E+03  0.19200000000E+03 0.  0.
<mgrwt>
<rscale>  0 0.47517381E+03</rscale>
<asrwt>0</asrwt>
<pdfrwt beam="1">  1        2 0.11059481E+00 0.47517381E+03</pdfrwt>
<pdfrwt beam="2">  1       -2 0.10416316E-01 0.47517381E+03</pdfrwt>
<totfact> 0.25375146E+03</totfact>
</mgrwt>
</event>
<event>
 4    1  0.5900026E-005  0.6048402E+03  0.7818608E-02  0.9895415E-01
          2   -1    0    0  501    0  0.00000000000E+00  0.00000000000E+00  0.17814382655E+04  0.17814382655E+04  0.25500000000E-02 0.  1.
         -2   -1    0    0    0  501 -0.00000000000E+00 -0.00000000000E+00 -0.51339369006E+02  0.51339369070E+02  0.25500000000E-02 0. -1.
    5000001    1    1    2    0    0  0.44109798700E+02  0.19834155743E+03  0.12146239125E+04  0.12463788736E+04  0.19200000000E+03 0.  0.
   -5000001    1    1    2    0    0 -0.44109798700E+02 -0.19834155743E+03  0.51547498401E+03  0.58639876099E+03  0.19200000000E+03 0.  0.
<mgrwt>
<rscale>  0 0.60484020E+03</rscale>
<asrwt>0</asrwt>
<pdfrwt beam="1">  1        2 0.25449119E+00 0.60484020E+03</pdfrwt>
<pdfrwt beam="2">  1       -2 0.73341952E-02 0.60484020E+03</pdfrwt>
<totfact> 0.12012236E+03</totfact>
</mgrwt>
</event>
<event>
 4    1  0.5900026E-005  0.6967548E+03  0.7818608E-02  0.9722798E-01
          2   -1    0    0  501    0  0.00000000000E+00  0.00000000000E+00  0.14394915569E+04  0.14394915569E+04  0.25500000000E-02 0.  1.
         -2   -1    0    0    0  501 -0.00000000000E+00 -0.00000000000E+00 -0.84312290293E+02  0.84312290332E+02  0.25500000000E-02 0. -1.
    5000001    1    1    2    0    0  0.83334803461E+01 -0.12295922763E+03  0.12533752817E+04  0.12739709633E+04  0.19200000000E+03 0.  0.
   -5000001    1    1    2    0    0 -0.83334803461E+01  0.12295922763E+03  0.10180398491E+03  0.24983288394E+03  0.19200000000E+03 0.  0.
<mgrwt>
<rscale>  0 0.69675485E+03</rscale>
<asrwt>0</asrwt>
<pdfrwt beam="1">  1        2 0.20564165E+00 0.69675485E+03</pdfrwt>
<pdfrwt beam="2">  1       -2 0.12044613E-01 0.69675485E+03</pdfrwt>
<totfact> 0.80523669E+02</totfact>
</mgrwt>
</event>
<event>
 4    1  0.5900026E-005  0.8264853E+03  0.7818608E-02  0.9522453E-01
          2   -1    0    0  501    0  0.00000000000E+00  0.00000000000E+00  0.30526017703E+04  0.30526017703E+04  0.25500000000E-02 0.  1.
         -2   -1    0    0    0  501 -0.00000000000E+00 -0.00000000000E+00 -0.55942277849E+02  0.55942277908E+02  0.25500000000E-02 0. -1.
    5000001    1    1    2    0    0  0.14779306994E+03  0.25664331913E+03  0.23067335586E+04  0.23335792884E+04  0.19200000000E+03 0.  0.
   -5000001    1    1    2    0    0 -0.14779306994E+03 -0.25664331913E+03  0.68992593383E+03  0.77496475981E+03  0.19200000000E+03 0.  0.
<mgrwt>
<rscale>  0 0.82648532E+03</rscale>
<asrwt>0</asrwt>
<pdfrwt beam="1">  1        2 0.43608609E+00 0.82648532E+03</pdfrwt>
<pdfrwt beam="2">  1       -2 0.79917518E-02 0.82648532E+03</pdfrwt>
<totfact> 0.22609830E+02</totfact>
</mgrwt>
</event>
<event>
 4    1  0.5900026E-005  0.4467399E+03  0.7818608E-02  0.1028699E+00
          2   -1    0    0  501    0  0.00000000000E+00  0.00000000000E+00  0.88187418736E+03  0.88187418737E+03  0.25500000000E-02 0.  1.
         -2   -1    0    0    0  501 -0.00000000000E+00 -0.00000000000E+00 -0.56577391569E+02  0.56577391627E+02  0.25500000000E-02 0. -1.
    5000001    1    1    2    0    0  0.27069325311E+02  0.92772092710E+02  0.28502998650E+03  0.35699510187E+03  0.19200000000E+03 0.  0.
   -5000001    1    1    2    0    0 -0.27069325311E+02 -0.92772092710E+02  0.54026680930E+03  0.58145647712E+03  0.19200000000E+03 0.  0.
<mgrwt>
<rscale>  0 0.44673993E+03</rscale>
<asrwt>0</asrwt>
<pdfrwt beam="1">  1        2 0.12598201E+00 0.44673993E+03</pdfrwt>
<pdfrwt beam="2">  1       -2 0.80824854E-02 0.44673993E+03</pdfrwt>
<totfact> 0.32215353E+03</totfact>
</mgrwt>
</event>
<event>
 4    1  0.5900026E-005  0.9072110E+03  0.7818608E-02  0.9416612E-01
         -2   -1    0    0    0  501 -0.00000000000E+00  0.00000000000E+00  0.59303848986E+02  0.59303849040E+02  0.25500000000E-02 0. -1.
          2   -1    0    0  501    0  0.00000000000E+00 -0.00000000000E+00 -0.34695544529E+04  0.34695544529E+04  0.25500000000E-02 0.  1.
    5000001    1    1    2    0    0  0.28937670784E+03  0.25703348013E+03 -0.11677029201E+04  0.12450699573E+04  0.19200000000E+03 0.  0.
   -5000001    1    1    2    0    0 -0.28937670784E+03 -0.25703348013E+03 -0.22425476839E+04  0.22837883447E+04  0.19200000000E+03 0.  0.
<mgrwt>
<rscale>  0 0.90721096E+03</rscale>
<asrwt>0</asrwt>
<pdfrwt beam="1">  1        2 0.49565051E+00 0.90721096E+03</pdfrwt>
<pdfrwt beam="2">  1       -2 0.84719807E-02 0.90721096E+03</pdfrwt>
<totfact> 0.11766716E+02</totfact>
</mgrwt>
</event>
<event>
 4    1  0.5900026E-005  0.4238525E+03  0.7818608E-02  0.1035820E+00
          2   -1    0    0  501    0  0.00000000000E+00  0.00000000000E+00  0.21497439473E+03  0.21497439474E+03  0.25500000000E-02 0.  1.
         -2   -1    0    0    0  501 -0.00000000000E+00 -0.00000000000E+00 -0.20892134876E+03  0.20892134878E+03  0.25500000000E-02 0. -1.
    5000001    1    1    2    0    0  0.86400318629E+02  0.22072460684E+02 -0.67995448767E+01  0.21180755980E+03  0.19200000000E+03 0.  0.
   -5000001    1    1    2    0    0 -0.86400318629E+02 -0.22072460684E+02  0.12852590844E+02  0.21208818371E+03  0.19200000000E+03 0.  0.
<mgrwt>
<rscale>  0 0.42385252E+03</rscale>
<asrwt>0</asrwt>
<pdfrwt beam="1">  1        2 0.30710628E-01 0.42385252E+03</pdfrwt>
<pdfrwt beam="2">  1       -2 0.29845907E-01 0.42385252E+03</pdfrwt>
<totfact> 0.17785451E+03</totfact>
</mgrwt>
</event>
<event>
 4    1  0.5900026E-005  0.7175502E+03  0.7818608E-02  0.9687681E-01
          2   -1    0    0  501    0  0.00000000000E+00  0.00000000000E+00  0.18264672475E+04  0.18264672475E+04  0.25500000000E-02 0.  1.
         -2   -1    0    0    0  501 -0.00000000000E+00 -0.00000000000E+00 -0.70474619366E+02  0.70474619412E+02  0.25500000000E-02 0. -1.
    5000001    1    1    2    0    0 -0.83047548355E+02  0.12570853353E+03  0.15732075984E+04  0.15920256526E+04  0.19200000000E+03 0.  0.
   -5000001    1    1    2    0    0  0.83047548355E+02 -0.12570853353E+03  0.18278502973E+03  0.30491621437E+03  0.19200000000E+03 0.  0.
<mgrwt>
<rscale>  0 0.71755023E+03</rscale>
<asrwt>0</asrwt>
<pdfrwt beam="1">  1        2 0.26092389E+00 0.71755023E+03</pdfrwt>
<pdfrwt beam="2">  1       -2 0.10067803E-01 0.71755023E+03</pdfrwt>
<totfact> 0.68136001E+02</totfact>
</mgrwt>
</event>
<event>
 4    1  0.5900026E-005  0.9055508E+03  0.7818608E-02  0.9418669E-01
         -2   -1    0    0    0  501 -0.00000000000E+00  0.00000000000E+00  0.97603328037E+02  0.97603328070E+02  0.25500000000E-02 0. -1.
          2   -1    0    0  501    0  0.00000000000E+00 -0.00000000000E+00 -0.21003950148E+04  0.21003950148E+04  0.25500000000E-02 0.  1.
    5000001    1    1    2    0    0  0.20305461857E+03 -0.22325288583E+03 -0.32756163264E+03  0.48500891985E+03  0.19200000000E+03 0.  0.
   -5000001    1    1    2    0    0 -0.20305461857E+03  0.22325288583E+03 -0.16752300541E+04  0.17129894230E+04  0.19200000000E+03 0.  0.
<mgrwt>
<rscale>  0 0.90555076E+03</rscale>
<asrwt>0</asrwt>
<pdfrwt beam="1">  1        2 0.30005640E+00 0.90555076E+03</pdfrwt>
<pdfrwt beam="2">  1       -2 0.13943334E-01 0.90555076E+03</pdfrwt>
<totfact> 0.28523332E+02</totfact>
</mgrwt>
</event>
<event>
 4    1  0.5900026E-005  0.9871796E+03  0.7818608E-02  0.9322719E-01
          2   -1    0    0  501    0  0.00000000000E+00  0.00000000000E+00  0.31069911218E+04  0.31069911218E+04  0.25500000000E-02 0.  1.
         -2   -1    0    0    0  501 -0.00000000000E+00 -0.00000000000E+00 -0.78413775109E+02  0.78413775151E+02  0.25500000000E-02 0. -1.
    5000001    1    1    2    0    0  0.21455431636E+03  0.32207963865E+03  0.74392024215E+03  0.86026168983E+03  0.19200000000E+03 0.  0.
   -5000001    1    1    2    0    0 -0.21455431636E+03 -0.32207963865E+03  0.22846571045E+04  0.23251432071E+04  0.19200000000E+03 0.  0.
<mgrwt>
<rscale>  0 0.98717963E+03</rscale>
<asrwt>0</asrwt>
<pdfrwt beam="1">  1        2 0.44385586E+00 0.98717963E+03</pdfrwt>
<pdfrwt beam="2">  1       -2 0.11201968E-01 0.98717963E+03</pdfrwt>
<totfact> 0.11990636E+02</totfact>
</mgrwt>
</event>
<event>
 4    1  0.5900026E-005  0.5745452E+03  0.7818608E-02  0.9959671E-01
         -2   -1    0    0    0  501 -0.00000000000E+00  0.00000000000E+00  0.98735628743E+03  0.98735628743E+03  0.25500000000E-02 0. -1.
          2   -1    0    0  501    0  0.00000000000E+00 -0.00000000000E+00 -0.83582336033E+02  0.83582336072E+02  0.25500000000E-02 0.  1.
    5000001    1    1    2    0    0 -0.16843286902E+03 -0.10292293194E+03  0.29932778924E+03  0.40672335401E+03  0.19200000000E+03 0.  0.
   -5000001    1    1    2    0    0  0.16843286902E+03  0.10292293194E+03  0.60444616215E+03  0.66421526949E+03  0.19200000000E+03 0.  0.
<mgrwt>
<rscale>  0 0.57454519E+03</rscale>
<asrwt>0</asrwt>
<pdfrwt beam="1">  1        2 0.11940334E-01 0.57454519E+03</pdfrwt>
<pdfrwt beam="2">  1       -2 0.14105090E+00 0.57454519E+03</pdfrwt>
<totfact> 0.19007207E+02</totfact>
</mgrwt>
</event>
<event>
 4    1  0.5900026E-005  0.7816144E+03  0.7818608E-02  0.9587018E-01
         -2   -1    0    0    0  501 -0.00000000000E+00  0.00000000000E+00  0.74141658234E+02  0.74141658278E+02  0.25500000000E-02 0. -1.
          2   -1    0    0  501    0  0.00000000000E+00 -0.00000000000E+00 -0.20599789783E+04  0.20599789783E+04  0.25500000000E-02 0.  1.
    5000001    1    1    2    0    0 -0.28435393901E+03 -0.14866965460E+03 -0.68272746254E+03  0.77842187594E+03  0.19200000000E+03 0.  0.
   -5000001    1    1    2    0    0  0.28435393901E+03  0.14866965460E+03 -0.13031098576E+04  0.13556987607E+04  0.19200000000E+03 0.  0.
<mgrwt>
<rscale>  0 0.78161437E+03</rscale>
<asrwt>0</asrwt>
<pdfrwt beam="1">  1        2 0.29428268E+00 0.78161437E+03</pdfrwt>
<pdfrwt beam="2">  1       -2 0.10591667E-01 0.78161437E+03</pdfrwt>
<totfact> 0.47583539E+02</totfact>
</mgrwt>
</event>
<event>
 4    1  0.5900026E-005  0.5397166E+03  0.7818608E-02  0.1003903E+00
          2   -1    0    0  501    0  0.00000000000E+00  0.00000000000E+00  0.15459116508E+04  0.15459116508E+04  0.25500000000E-02 0.  1.
         -2   -1    0    0    0  501 -0.00000000000E+00 -0.00000000000E+00 -0.47107148912E+02  0.47107148981E+02  0.25500000000E-02 0. -1.
    5000001    1    1    2    0    0  0.18195265007E+03 -0.35229384948E+02  0.63091116733E+03  0.68502611446E+03  0.19200000000E+03 0.  0.
   -5000001    1    1    2    0    0 -0.18195265007E+03  0.35229384948E+02  0.86789333458E+03  0.90799268534E+03  0.19200000000E+03 0.  0.
<mgrwt>
<rscale>  0 0.53971656E+03</rscale>
<asrwt>0</asrwt>
<pdfrwt beam="1">  1        2 0.22084453E+00 0.53971656E+03</pdfrwt>
<pdfrwt beam="2">  1       -2 0.67295924E-02 0.53971656E+03</pdfrwt>
<totfact> 0.18188363E+03</totfact>
</mgrwt>
</event>
<event>
 4    1  0.5900026E-005  0.9064121E+03  0.7818608E-02  0.9417601E-01
          2   -1    0    0  501    0  0.00000000000E+00  0.00000000000E+00  0.23606867155E+04  0.23606867155E+04  0.25500000000E-02 0.  1.
         -2   -1    0    0    0  501 -0.00000000000E+00 -0.00000000000E+00 -0.87006761192E+02  0.87006761229E+02  0.25500000000E-02 0. -1.
    5000001    1    1    2    0    0  0.40974895752E+03  0.20357432039E+01  0.12048001134E+04  0.12869753944E+04  0.19200000000E+03 0.  0.
   -5000001    1    1    2    0    0 -0.40974895752E+03 -0.20357432039E+01  0.10688798409E+04  0.11607180824E+04  0.19200000000E+03 0.  0.
<mgrwt>
<rscale>  0 0.90641206E+03</rscale>
<asrwt>0</asrwt>
<pdfrwt beam="1">  1        2 0.33724091E+00 0.90641206E+03</pdfrwt>
<pdfrwt beam="2">  1       -2 0.12429539E-01 0.90641206E+03</pdfrwt>
<totfact> 0.25446413E+02</totfact>
</mgrwt>
</event>
<event>
 4    1  0.5900026E-005  0.1002509E+04  0.7818608E-02  0.9305797E-01
          2   -1    0    0  501    0  0.00000000000E+00  0.00000000000E+00  0.45297533181E+03  0.45297533182E+03  0.25500000000E-02 0.  1.
         -2   -1    0    0    0  501 -0.00000000000E+00 -0.00000000000E+00 -0.55467919224E+03  0.55467919224E+03  0.25500000000E-02 0. -1.
    5000001    1    1    2    0    0 -0.20218794549E+03  0.14668822201E+03  0.34101400982E+03  0.46427573130E+03  0.19200000000E+03 0.  0.
   -5000001    1    1    2    0    0  0.20218794549E+03 -0.14668822201E+03 -0.44271787025E+03  0.54337879276E+03  0.19200000000E+03 0.  0.
<mgrwt>
<rscale>  0 0.10025088E+04</rscale>
<asrwt>0</asrwt>
<pdfrwt beam="1">  1        2 0.64710762E-01 0.10025088E+04</pdfrwt>
<pdfrwt beam="2">  1       -2 0.79239884E-01 0.10025088E+04</pdfrwt>
<totfact> 0.10606736E+02</totfact>
</mgrwt>
</event>
<event>
 4    1  0.5900026E-005  0.6327080E+03  0.7818608E-02  0.9839779E-01
         -2   -1    0    0    0  501 -0.00000000000E+00  0.00000000000E+00  0.41605628661E+02  0.41605628739E+02  0.25500000000E-02 0. -1.
          2   -1    0    0  501    0  0.00000000000E+00 -0.00000000000E+00 -0.24054403701E+04  0.24054403701E+04  0.25500000000E-02 0.  1.
    5000001    1    1    2    0    0  0.78923794453E+02 -0.23855284775E+03 -0.11474476590E+04  0.11902254226E+04  0.19200000000E+03 0.  0.
   -5000001    1    1    2    0    0 -0.78923794453E+02  0.23855284775E+03 -0.12163870824E+04  0.12568205762E+04  0.19200000000E+03 0.  0.
<mgrwt>
<rscale>  0 0.63270802E+03</rscale>
<asrwt>0</asrwt>
<pdfrwt beam="1">  1        2 0.34363425E+00 0.63270802E+03</pdfrwt>
<pdfrwt beam="2">  1       -2 0.59436628E-02 0.63270802E+03</pdfrwt>
<totfact> 0.80891868E+02</totfact>
</mgrwt>
</event>
<event>
 4    1  0.5900026E-005  0.6108760E+03  0.7818608E-02  0.9883095E-01
         -2   -1    0    0    0  501 -0.00000000000E+00  0.00000000000E+00  0.75439578978E+03  0.75439578978E+03  0.25500000000E-02 0. -1.
          2   -1    0    0  501    0  0.00000000000E+00 -0.00000000000E+00 -0.12366501411E+03  0.12366501413E+03  0.25500000000E-02 0.  1.
    5000001    1    1    2    0    0 -0.22472229346E+03 -0.42203543449E+02  0.22280083139E+03  0.37253920428E+03  0.19200000000E+03 0.  0.
   -5000001    1    1    2    0    0  0.22472229346E+03  0.42203543449E+02  0.40792994428E+03  0.50552159964E+03  0.19200000000E+03 0.  0.
<mgrwt>
<rscale>  0 0.61087598E+03</rscale>
<asrwt>0</asrwt>
<pdfrwt beam="1">  1        2 0.17666431E-01 0.61087598E+03</pdfrwt>
<pdfrwt beam="2">  1       -2 0.10777082E+00 0.61087598E+03</pdfrwt>
<totfact> 0.23001609E+02</totfact>
</mgrwt>
</event>
<event>
 4    1  0.5900026E-005  0.5601333E+03  0.7818608E-02  0.9991753E-01
          2   -1    0    0  501    0  0.00000000000E+00  0.00000000000E+00  0.24581067547E+04  0.24581067547E+04  0.25500000000E-02 0.  1.
         -2   -1    0    0    0  501 -0.00000000000E+00 -0.00000000000E+00 -0.31909654419E+02  0.31909654521E+02  0.25500000000E-02 0. -1.
    5000001    1    1    2    0    0  0.10238294427E+02 -0.20307420113E+03  0.12804259350E+04  0.13106099835E+04  0.19200000000E+03 0.  0.
   -5000001    1    1    2    0    0 -0.10238294427E+02  0.20307420113E+03  0.11457711653E+04  0.11794064257E+04  0.19200000000E+03 0.  0.
<mgrwt>
<rscale>  0 0.56013333E+03</rscale>
<asrwt>0</asrwt>
<pdfrwt beam="1">  1        2 0.35115809E+00 0.56013333E+03</pdfrwt>
<pdfrwt beam="2">  1       -2 0.45585224E-02 0.56013333E+03</pdfrwt>
<totfact> 0.11544456E+03</totfact>
</mgrwt>
</event>
<event>
 4    1  0.5900026E-005  0.4527369E+03  0.7818608E-02  0.1026909E+00
         -2   -1    0    0    0  501 -0.00000000000E+00  0.00000000000E+00  0.48285131100E+02  0.48285131168E+02  0.25500000000E-02 0. -1.
          2   -1    0    0  501    0  0.00000000000E+00 -0.00000000000E+00 -0.10612516932E+04  0.10612516932E+04  0.25500000000E-02 0.  1.
    5000001    1    1    2    0    0 -0.63109535619E+02 -0.94823738397E+02 -0.41464384264E+03  0.47092236206E+03  0.19200000000E+03 0.  0.
   -5000001    1    1    2    0    0  0.63109535619E+02  0.94823738397E+02 -0.59832271946E+03  0.63861446231E+03  0.19200000000E+03 0.  0.
<mgrwt>
<rscale>  0 0.45273691E+03</rscale>
<asrwt>0</asrwt>
<pdfrwt beam="1">  1        2 0.15160737E+00 0.45273691E+03</pdfrwt>
<pdfrwt beam="2">  1       -2 0.68978765E-02 0.45273691E+03</pdfrwt>
<totfact> 0.32105565E+03</totfact>
</mgrwt>
</event>
<event>
 4    1  0.5900026E-005  0.4082425E+03  0.7818608E-02  0.1040962E+00
          2   -1    0    0  501    0  0.00000000000E+00  0.00000000000E+00  0.97938055998E+03  0.97938055998E+03  0.25500000000E-02 0.  1.
         -2   -1    0    0    0  501 -0.00000000000E+00 -0.00000000000E+00 -0.42542687021E+02  0.42542687098E+02  0.25500000000E-02 0. -1.
    5000001    1    1    2    0    0  0.42660225687E+02  0.54323051913E+02  0.48226425602E+03  0.52365418117E+03  0.19200000000E+03 0.  0.
   -5000001    1    1    2    0    0 -0.42660225687E+02 -0.54323051913E+02  0.45457361694E+03  0.49826906591E+03  0.19200000000E+03 0.  0.
<mgrwt>
<rscale>  0 0.40824248E+03</rscale>
<asrwt>0</asrwt>
<pdfrwt beam="1">  1        2 0.13991151E+00 0.40824248E+03</pdfrwt>
<pdfrwt beam="2">  1       -2 0.60775268E-02 0.40824248E+03</pdfrwt>
<totfact> 0.43731740E+03</totfact>
</mgrwt>
</event>
<event>
 4    1  0.5900026E-005  0.1142981E+04  0.7818608E-02  0.9164283E-01
         -2   -1    0    0    0  501 -0.00000000000E+00  0.00000000000E+00  0.62866164102E+03  0.62866164102E+03  0.25500000000E-02 0. -1.
          2   -1    0    0  501    0  0.00000000000E+00 -0.00000000000E+00 -0.51951847588E+03  0.51951847588E+03  0.25500000000E-02 0.  1.
    5000001    1    1    2    0    0  0.17990746862E+03  0.47507654650E+03 -0.12420682572E+03  0.55709582466E+03  0.19200000000E+03 0.  0.
   -5000001    1    1    2    0    0 -0.17990746862E+03 -0.47507654650E+03  0.23334999086E+03  0.59108429224E+03  0.19200000000E+03 0.  0.
<mgrwt>
<rscale>  0 0.11429809E+04</rscale>
<asrwt>0</asrwt>
<pdfrwt beam="1">  1        2 0.74216925E-01 0.11429809E+04</pdfrwt>
<pdfrwt beam="2">  1       -2 0.89808806E-01 0.11429809E+04</pdfrwt>
<totfact> 0.67646650E+01</totfact>
</mgrwt>
</event>
<event>
 4    1  0.5900026E-005  0.5020323E+03  0.7818608E-02  0.1013250E+00
         -2   -1    0    0    0  501 -0.00000000000E+00  0.00000000000E+00  0.47852803583E+02  0.47852803651E+02  0.25500000000E-02 0. -1.
          2   -1    0    0  501    0  0.00000000000E+00 -0.00000000000E+00 -0.13167273976E+04  0.13167273976E+04  0.25500000000E-02 0.  1.
    5000001    1    1    2    0    0 -0.14863743628E+03  0.42121835896E+02 -0.76416165249E+03  0.80291616478E+03  0.19200000000E+03 0.  0.
   -5000001    1    1    2    0    0  0.14863743628E+03 -0.42121835896E+02 -0.50471294148E+03  0.56166403643E+03  0.19200000000E+03 0.  0.
<mgrwt>
<rscale>  0 0.50203226E+03</rscale>
<asrwt>0</asrwt>
<pdfrwt beam="1">  1        2 0.18810389E+00 0.50203226E+03</pdfrwt>
<pdfrwt beam="2">  1       -2 0.68361156E-02 0.50203226E+03</pdfrwt>
<totfact> 0.23435171E+03</totfact>
</mgrwt>
</event>
<event>
 4    1  0.5900026E-005  0.7090069E+03  0.7818608E-02  0.9701952E-01
          2   -1    0    0  501    0  0.00000000000E+00  0.00000000000E+00  0.10431163227E+04  0.10431163227E+04  0.25500000000E-02 0.  1.
         -2   -1    0    0    0  501 -0.00000000000E+00 -0.00000000000E+00 -0.12047810783E+03  0.12047810786E+03  0.25500000000E-02 0. -1.
    5000001    1    1    2    0    0 -0.25853649423E+03 -0.91238905482E+02  0.26962598941E+03  0.42979975674E+03  0.19200000000E+03 0.  0.
   -5000001    1    1    2    0    0  0.25853649423E+03  0.91238905482E+02  0.65301222542E+03  0.73379467378E+03  0.19200000000E+03 0.  0.
<mgrwt>
<rscale>  0 0.70900686E+03</rscale>
<asrwt>0</asrwt>
<pdfrwt beam="1">  1        2 0.14901662E+00 0.70900686E+03</pdfrwt>
<pdfrwt beam="2">  1       -2 0.17211158E-01 0.70900686E+03</pdfrwt>
<totfact> 0.73546806E+02</totfact>
</mgrwt>
</event>
<event>
 4    1  0.5900026E-005  0.5757631E+03  0.7818608E-02  0.9957006E-01
         -2   -1    0    0    0  501 -0.00000000000E+00  0.00000000000E+00  0.34306018291E+03  0.34306018292E+03  0.25500000000E-02 0. -1.
          2   -1    0    0  501    0  0.00000000000E+00 -0.00000000000E+00 -0.24157800784E+03  0.24157800785E+03  0.25500000000E-02 0.  1.
    5000001    1    1    2    0    0 -0.21140705811E+03 -0.25136129282E+02  0.24125869557E+02  0.28769919499E+03  0.19200000000E+03 0.  0.
   -5000001    1    1    2    0    0  0.21140705811E+03  0.25136129282E+02  0.77356305513E+02  0.29693899578E+03  0.19200000000E+03 0.  0.
<mgrwt>
<rscale>  0 0.57576313E+03</rscale>
<asrwt>0</asrwt>
<pdfrwt beam="1">  1        2 0.34511144E-01 0.57576313E+03</pdfrwt>
<pdfrwt beam="2">  1       -2 0.49008598E-01 0.57576313E+03</pdfrwt>
<totfact> 0.60312105E+02</totfact>
</mgrwt>
</event>
<event>
 4    1  0.5900026E-005  0.4685425E+03  0.7818608E-02  0.1022332E+00
          2   -1    0    0  501    0  0.00000000000E+00  0.00000000000E+00  0.13696657746E+04  0.13696657746E+04  0.25500000000E-02 0.  1.
         -2   -1    0    0    0  501 -0.00000000000E+00 -0.00000000000E+00 -0.40070371772E+02  0.40070371853E+02  0.25500000000E-02 0. -1.
    5000001    1    1    2    0    0  0.12712186407E+03 -0.10636324896E+02  0.79051662771E+03  0.82344012437E+03  0.19200000000E+03 0.  0.
   -5000001    1    1    2    0    0 -0.12712186407E+03  0.10636324896E+02  0.53907877511E+03  0.58629602208E+03  0.19200000000E+03 0.  0.
<mgrwt>
<rscale>  0 0.46854249E+03</rscale>
<asrwt>0</asrwt>
<pdfrwt beam="1">  1        2 0.19566651E+00 0.46854249E+03</pdfrwt>
<pdfrwt beam="2">  1       -2 0.57243396E-02 0.46854249E+03</pdfrwt>
<totfact> 0.28984910E+03</totfact>
</mgrwt>
</event>
<event>
 4    1  0.5900026E-005  0.6241751E+03  0.7818608E-02  0.9856482E-01
         -2   -1    0    0    0  501 -0.00000000000E+00  0.00000000000E+00  0.86652646150E+02  0.86652646187E+02  0.25500000000E-02 0. -1.
          2   -1    0    0  501    0  0.00000000000E+00 -0.00000000000E+00 -0.11240123999E+04  0.11240123999E+04  0.25500000000E-02 0.  1.
    5000001    1    1    2    0    0 -0.11244696033E+03  0.21787721509E+03 -0.55842319480E+03  0.63938663126E+03  0.19200000000E+03 0.  0.
   -5000001    1    1    2    0    0  0.11244696033E+03 -0.21787721509E+03 -0.47893655892E+03  0.57127841480E+03  0.19200000000E+03 0.  0.
<mgrwt>
<rscale>  0 0.62417513E+03</rscale>
<asrwt>0</asrwt>
<pdfrwt beam="1">  1        2 0.16057319E+00 0.62417513E+03</pdfrwt>
<pdfrwt beam="2">  1       -2 0.12378950E-01 0.62417513E+03</pdfrwt>
<totfact> 0.11506453E+03</totfact>
</mgrwt>
</event>
<event>
 4    1  0.5900026E-005  0.4620480E+03  0.7818608E-02  0.1024189E+00
          2   -1    0    0  501    0  0.00000000000E+00  0.00000000000E+00  0.13839994692E+04  0.13839994692E+04  0.25500000000E-02 0.  1.
         -2   -1    0    0    0  501 -0.00000000000E+00 -0.00000000000E+00 -0.38563657815E+02  0.38563657899E+02  0.25500000000E-02 0. -1.
    5000001    1    1    2    0    0 -0.11203841354E+03  0.43211089556E+02  0.53202292673E+03  0.57821466510E+03  0.19200000000E+03 0.  0.
   -5000001    1    1    2    0    0  0.11203841354E+03 -0.43211089556E+02  0.81341288470E+03  0.84434846205E+03  0.19200000000E+03 0.  0.
<mgrwt>
<rscale>  0 0.46204797E+03</rscale>
<asrwt>0</asrwt>
<pdfrwt beam="1">  1        2 0.19771420E+00 0.46204797E+03</pdfrwt>
<pdfrwt beam="2">  1       -2 0.55090942E-02 0.46204797E+03</pdfrwt>
<totfact> 0.30229358E+03</totfact>
</mgrwt>
</event>
<event>
 4    1  0.5900026E-005  0.4519192E+03  0.7818608E-02  0.1027151E+00
         -2   -1    0    0    0  501 -0.00000000000E+00  0.00000000000E+00  0.35547554487E+02  0.35547554578E+02  0.25500000000E-02 0. -1.
          2   -1    0    0  501    0  0.00000000000E+00 -0.00000000000E+00 -0.14363224422E+04  0.14363224422E+04  0.25500000000E-02 0.  1.
    5000001    1    1    2    0    0 -0.11777470796E+03 -0.86810136381E+01 -0.75162680316E+03  0.78469936476E+03  0.19200000000E+03 0.  0.
   -5000001    1    1    2    0    0  0.11777470796E+03  0.86810136381E+01 -0.64914808460E+03  0.68717063207E+03  0.19200000000E+03 0.  0.
<mgrwt>
<rscale>  0 0.45191924E+03</rscale>
<asrwt>0</asrwt>
<pdfrwt beam="1">  1        2 0.20518888E+00 0.45191924E+03</pdfrwt>
<pdfrwt beam="2">  1       -2 0.50782230E-02 0.45191924E+03</pdfrwt>
<totfact> 0.32186510E+03</totfact>
</mgrwt>
</event>
<event>
 4    1  0.5900026E-005  0.5879194E+03  0.7818608E-02  0.9930791E-01
         -2   -1    0    0    0  501 -0.00000000000E+00  0.00000000000E+00  0.13445155456E+03  0.13445155459E+03  0.25500000000E-02 0. -1.
          2   -1    0    0  501    0  0.00000000000E+00 -0.00000000000E+00 -0.64270225424E+03  0.64270225424E+03  0.25500000000E-02 0.  1.
    5000001    1    1    2    0    0  0.15865416854E+03  0.92650624844E+02 -0.42024535659E+03  0.49721770203E+03  0.19200000000E+03 0.  0.
   -5000001    1    1    2    0    0 -0.15865416854E+03 -0.92650624844E+02 -0.88005343091E+02  0.27993610680E+03  0.19200000000E+03 0.  0.
<mgrwt>
<rscale>  0 0.58791944E+03</rscale>
<asrwt>0</asrwt>
<pdfrwt beam="1">  1        2 0.91814607E-01 0.58791944E+03</pdfrwt>
<pdfrwt beam="2">  1       -2 0.19207365E-01 0.58791944E+03</pdfrwt>
<totfact> 0.11460529E+03</totfact>
</mgrwt>
</event>
<event>
 4    1  0.5900026E-005  0.5168453E+03  0.7818608E-02  0.1009473E+00
          2   -1    0    0  501    0  0.00000000000E+00  0.00000000000E+00  0.81391861104E+03  0.81391861104E+03  0.25500000000E-02 0.  1.
         -2   -1    0    0    0  501 -0.00000000000E+00 -0.00000000000E+00 -0.82050287371E+02  0.82050287411E+02  0.25500000000E-02 0. -1.
    5000001    1    1    2    0    0 -0.10845161921E+02  0.88521529890E+02  0.62285173994E+03  0.65784646289E+03  0.19200000000E+03 0.  0.
   -5000001    1    1    2    0    0  0.10845161921E+02 -0.88521529890E+02  0.10901658373E+03  0.23812243556E+03  0.19200000000E+03 0.  0.
<mgrwt>
<rscale>  0 0.51684526E+03</rscale>
<asrwt>0</asrwt>
<pdfrwt beam="1">  1        2 0.11627408E+00 0.51684526E+03</pdfrwt>
<pdfrwt beam="2">  1       -2 0.11721470E-01 0.51684526E+03</pdfrwt>
<totfact> 0.19658648E+03</totfact>
</mgrwt>
</event>
<event>
 4    1  0.5900026E-005  0.8171539E+03  0.7818608E-02  0.9535514E-01
          2   -1    0    0  501    0  0.00000000000E+00  0.00000000000E+00  0.72907731448E+03  0.72907731449E+03  0.25500000000E-02 0.  1.
         -2   -1    0    0    0  501 -0.00000000000E+00 -0.00000000000E+00 -0.22896765727E+03  0.22896765728E+03  0.25500000000E-02 0. -1.
    5000001    1    1    2    0    0 -0.21471621259E+03  0.27072952384E+03  0.37118084967E+03  0.54225155619E+03  0.19200000000E+03 0.  0.
   -5000001    1    1    2    0    0  0.21471621259E+03 -0.27072952384E+03  0.12892880754E+03  0.41579341558E+03  0.19200000000E+03 0.  0.
<mgrwt>
<rscale>  0 0.81715390E+03</rscale>
<asrwt>0</asrwt>
<pdfrwt beam="1">  1        2 0.10415390E+00 0.81715390E+03</pdfrwt>
<pdfrwt beam="2">  1       -2 0.32709665E-01 0.81715390E+03</pdfrwt>
<totfact> 0.37386710E+02</totfact>
</mgrwt>
</event>
<event>
 4    1  0.5900026E-005  0.4717381E+03  0.7818608E-02  0.1021431E+00
          2   -1    0    0  501    0  0.00000000000E+00  0.00000000000E+00  0.18414055547E+04  0.18414055547E+04  0.25500000000E-02 0.  1.
         -2   -1    0    0    0  501 -0.00000000000E+00 -0.00000000000E+00 -0.30212902328E+02  0.30212902436E+02  0.25500000000E-02 0. -1.
    5000001    1    1    2    0    0  0.62631237963E+02 -0.12185045655E+03  0.90568879313E+03  0.93589871019E+03  0.19200000000E+03 0.  0.
   -5000001    1    1    2    0    0 -0.62631237963E+02  0.12185045655E+03  0.90550385929E+03  0.93571974699E+03  0.19200000000E+03 0.  0.
<mgrwt>
<rscale>  0 0.47173809E+03</rscale>
<asrwt>0</asrwt>
<pdfrwt beam="1">  1        2 0.26305788E+00 0.47173809E+03</pdfrwt>
<pdfrwt beam="2">  1       -2 0.43161299E-02 0.47173809E+03</pdfrwt>
<totfact> 0.25722354E+03</totfact>
</mgrwt>
</event>
<event>
 4    1  0.5900026E-005  0.7428126E+03  0.7818608E-02  0.9646694E-01
         -2   -1    0    0    0  501 -0.00000000000E+00  0.00000000000E+00  0.27091502428E+03  0.27091502429E+03  0.25500000000E-02 0. -1.
          2   -1    0    0  501    0  0.00000000000E+00 -0.00000000000E+00 -0.50917303334E+03  0.50917303335E+03  0.25500000000E-02 0.  1.
    5000001    1    1    2    0    0 -0.93028757061E+02  0.19874077482E+03  0.12247297273E+03  0.31625286444E+03  0.19200000000E+03 0.  0.
   -5000001    1    1    2    0    0  0.93028757061E+02 -0.19874077482E+03 -0.36073098180E+03  0.46383519319E+03  0.19200000000E+03 0.  0.
<mgrwt>
<rscale>  0 0.74281256E+03</rscale>
<asrwt>0</asrwt>
<pdfrwt beam="1">  1        2 0.72739005E-01 0.74281256E+03</pdfrwt>
<pdfrwt beam="2">  1       -2 0.38702146E-01 0.74281256E+03</pdfrwt>
<totfact> 0.41717911E+02</totfact>
</mgrwt>
</event>
<event>
 4    1  0.5900026E-005  0.7030836E+03  0.7818608E-02  0.9711973E-01
         -2   -1    0    0    0  501 -0.00000000000E+00  0.00000000000E+00  0.86147572332E+02  0.86147572369E+02  0.25500000000E-02 0. -1.
          2   -1    0    0  501    0  0.00000000000E+00 -0.00000000000E+00 -0.14345340445E+04  0.14345340445E+04  0.25500000000E-02 0.  1.
    5000001    1    1    2    0    0  0.93771146408E+02  0.18402415400E+03 -0.11281893728E+04  0.11628986104E+04  0.19200000000E+03 0.  0.
   -5000001    1    1    2    0    0 -0.93771146408E+02 -0.18402415400E+03 -0.22019709937E+03  0.35778300648E+03  0.19200000000E+03 0.  0.
<mgrwt>
<rscale>  0 0.70308357E+03</rscale>
<asrwt>0</asrwt>
<pdfrwt beam="1">  1        2 0.20493342E+00 0.70308357E+03</pdfrwt>
<pdfrwt beam="2">  1       -2 0.12306797E-01 0.70308357E+03</pdfrwt>
<totfact> 0.78157144E+02</totfact>
</mgrwt>
</event>
<event>
 4    1  0.5900026E-005  0.5272052E+03  0.7818608E-02  0.1006912E+00
         -2   -1    0    0    0  501 -0.00000000000E+00  0.00000000000E+00  0.12529422601E+03  0.12529422604E+03  0.25500000000E-02 0. -1.
          2   -1    0    0  501    0  0.00000000000E+00 -0.00000000000E+00 -0.55458518518E+03  0.55458518519E+03  0.25500000000E-02 0.  1.
    5000001    1    1    2    0    0 -0.12710034465E+02 -0.17260861594E+03 -0.28124439905E+03  0.38199174241E+03  0.19200000000E+03 0.  0.
   -5000001    1    1    2    0    0  0.12710034465E+02  0.17260861594E+03 -0.14804656012E+03  0.29788766882E+03  0.19200000000E+03 0.  0.
<mgrwt>
<rscale>  0 0.52720517E+03</rscale>
<asrwt>0</asrwt>
<pdfrwt beam="1">  1        2 0.79226454E-01 0.52720517E+03</pdfrwt>
<pdfrwt beam="2">  1       -2 0.17899175E-01 0.52720517E+03</pdfrwt>
<totfact> 0.15389066E+03</totfact>
</mgrwt>
</event>
<event>
 4    1  0.5900026E-005  0.5521802E+03  0.7818608E-02  0.1000991E+00
         -2   -1    0    0    0  501 -0.00000000000E+00  0.00000000000E+00  0.35142209620E+02  0.35142209712E+02  0.25500000000E-02 0. -1.
          2   -1    0    0  501    0  0.00000000000E+00 -0.00000000000E+00 -0.21690647931E+04  0.21690647931E+04  0.25500000000E-02 0.  1.
    5000001    1    1    2    0    0  0.14621773283E+03  0.12147749477E+03 -0.12936647617E+04  0.13215781940E+04  0.19200000000E+03 0.  0.
   -5000001    1    1    2    0    0 -0.14621773283E+03 -0.12147749477E+03 -0.84025782184E+03  0.88262880890E+03  0.19200000000E+03 0.  0.
<mgrwt>
<rscale>  0 0.55218015E+03</rscale>
<asrwt>0</asrwt>
<pdfrwt beam="1">  1        2 0.30986631E+00 0.55218015E+03</pdfrwt>
<pdfrwt beam="2">  1       -2 0.50203170E-02 0.55218015E+03</pdfrwt>
<totfact> 0.13928826E+03</totfact>
</mgrwt>
</event>
<event>
 4    1  0.5900026E-005  0.4338456E+03  0.7818608E-02  0.1032652E+00
          2   -1    0    0  501    0  0.00000000000E+00  0.00000000000E+00  0.14779583571E+04  0.14779583571E+04  0.25500000000E-02 0.  1.
         -2   -1    0    0    0  501 -0.00000000000E+00 -0.00000000000E+00 -0.31838178457E+02  0.31838178559E+02  0.25500000000E-02 0. -1.
    5000001    1    1    2    0    0 -0.72614261327E+02  0.56372321193E+02  0.57786172923E+03  0.61582371475E+03  0.19200000000E+03 0.  0.
   -5000001    1    1    2    0    0  0.72614261327E+02 -0.56372321193E+02  0.86825844941E+03  0.89397282091E+03  0.19200000000E+03 0.  0.
<mgrwt>
<rscale>  0 0.43384560E+03</rscale>
<asrwt>0</asrwt>
<pdfrwt beam="1">  1        2 0.21113697E+00 0.43384560E+03</pdfrwt>
<pdfrwt beam="2">  1       -2 0.45483098E-02 0.43384560E+03</pdfrwt>
<totfact> 0.36279694E+03</totfact>
</mgrwt>
</event>
<event>
 4    1  0.5900026E-005  0.1180123E+04  0.7818608E-02  0.9130435E-01
          2   -1    0    0  501    0  0.00000000000E+00  0.00000000000E+00  0.25564290857E+04  0.25564290857E+04  0.25500000000E-02 0.  1.
         -2   -1    0    0    0  501 -0.00000000000E+00 -0.00000000000E+00 -0.13619486713E+03  0.13619486715E+03  0.25500000000E-02 0. -1.
    5000001    1    1    2    0    0 -0.44798035457E+03  0.32974382127E+03  0.13093394817E+04  0.14354968701E+04  0.19200000000E+03 0.  0.
   -5000001    1    1    2    0    0  0.44798035457E+03 -0.32974382127E+03  0.11108947368E+04  0.12571270827E+04  0.19200000000E+03 0.  0.
<mgrwt>
<rscale>  0 0.11801229E+04</rscale>
<asrwt>0</asrwt>
<pdfrwt beam="1">  1        2 0.36520417E+00 0.11801229E+04</pdfrwt>
<pdfrwt beam="2">  1       -2 0.19456409E-01 0.11801229E+04</pdfrwt>
<totfact> 0.91734648E+01</totfact>
</mgrwt>
</event>
<event>
 4    1  0.5900026E-005  0.7332306E+03  0.7818608E-02  0.9662032E-01
         -2   -1    0    0    0  501 -0.00000000000E+00  0.00000000000E+00  0.13146393634E+03  0.13146393636E+03  0.25500000000E-02 0. -1.
          2   -1    0    0  501    0  0.00000000000E+00 -0.00000000000E+00 -0.10223852736E+04  0.10223852736E+04  0.25500000000E-02 0.  1.
    5000001    1    1    2    0    0  0.39118564876E+02 -0.26526560541E+03 -0.69747434243E+03  0.77151186762E+03  0.19200000000E+03 0.  0.
   -5000001    1    1    2    0    0 -0.39118564876E+02  0.26526560541E+03 -0.19344699480E+03  0.38233734231E+03  0.19200000000E+03 0.  0.
<mgrwt>
<rscale>  0 0.73323064E+03</rscale>
<asrwt>0</asrwt>
<pdfrwt beam="1">  1        2 0.14605503E+00 0.73323064E+03</pdfrwt>
<pdfrwt beam="2">  1       -2 0.18780563E-01 0.73323064E+03</pdfrwt>
<totfact> 0.65067763E+02</totfact>
</mgrwt>
</event>
<event>
 4    1  0.5900026E-005  0.5822735E+03  0.7818608E-02  0.9942881E-01
          2   -1    0    0  501    0  0.00000000000E+00  0.00000000000E+00  0.27278807642E+04  0.27278807642E+04  0.25500000000E-02 0.  1.
         -2   -1    0    0    0  501 -0.00000000000E+00 -0.00000000000E+00 -0.31071963882E+02  0.31071963987E+02  0.25500000000E-02 0. -1.
    5000001    1    1    2    0    0 -0.20498188598E+03 -0.31632027712E+02  0.16793513065E+04  0.17029688692E+04  0.19200000000E+03 0.  0.
   -5000001    1    1    2    0    0  0.20498188598E+03  0.31632027712E+02  0.10174574938E+04  0.10559838590E+04  0.19200000000E+03 0.  0.
<mgrwt>
<rscale>  0 0.58227352E+03</rscale>
<asrwt>0</asrwt>
<pdfrwt beam="1">  1        2 0.38969720E+00 0.58227352E+03</pdfrwt>
<pdfrwt beam="2">  1       -2 0.44388525E-02 0.58227352E+03</pdfrwt>
<totfact> 0.87096437E+02</totfact>
</mgrwt>
</event>
<event>
 4    1  0.5900026E-005  0.4191699E+03  0.7818608E-02  0.1037337E+00
         -2   -1    0    0    0  501 -0.00000000000E+00  0.00000000000E+00  0.29904987463E+03  0.29904987464E+03  0.25500000000E-02 0. -1.
          2   -1    0    0  501    0  0.00000000000E+00 -0.00000000000E+00 -0.14688468592E+03  0.14688468594E+03  0.25500000000E-02 0.  1.
    5000001    1    1    2    0    0  0.52071922701E+02  0.96029627969E+01  0.66615277695E+01  0.19927889497E+03  0.19200000000E+03 0.  0.
   -5000001    1    1    2    0    0 -0.52071922701E+02 -0.96029627969E+01  0.14550366094E+03  0.24665566561E+03  0.19200000000E+03 0.  0.
<mgrwt>
<rscale>  0 0.41916988E+03</rscale>
<asrwt>0</asrwt>
<pdfrwt beam="1">  1        2 0.20983527E-01 0.41916988E+03</pdfrwt>
<pdfrwt beam="2">  1       -2 0.42721411E-01 0.41916988E+03</pdfrwt>
<totfact> 0.13892139E+03</totfact>
</mgrwt>
</event>
<event>
 4    1  0.5900026E-005  0.7529065E+03  0.7818608E-02  0.9630802E-01
          2   -1    0    0  501    0  0.00000000000E+00  0.00000000000E+00  0.32368488309E+04  0.32368488309E+04  0.25500000000E-02 0.  1.
         -2   -1    0    0    0  501 -0.00000000000E+00 -0.00000000000E+00 -0.43782407167E+02  0.43782407241E+02  0.25500000000E-02 0. -1.
    5000001    1    1    2    0    0 -0.18533173666E+03 -0.40290703070E+02  0.45294738514E+03  0.52725375966E+03  0.19200000000E+03 0.  0.
   -5000001    1    1    2    0    0  0.18533173666E+03  0.40290703070E+02  0.27401190386E+04  0.27533774785E+04  0.19200000000E+03 0.  0.
<mgrwt>
<rscale>  0 0.75290646E+03</rscale>
<asrwt>0</asrwt>
<pdfrwt beam="1">  1        2 0.46240693E+00 0.75290646E+03</pdfrwt>
<pdfrwt beam="2">  1       -2 0.62546302E-02 0.75290646E+03</pdfrwt>
<totfact> 0.26508356E+02</totfact>
</mgrwt>
</event>
<event>
 4    1  0.5900026E-005  0.5144335E+03  0.7818608E-02  0.1010079E+00
          2   -1    0    0  501    0  0.00000000000E+00  0.00000000000E+00  0.95418093144E+03  0.95418093145E+03  0.25500000000E-02 0.  1.
         -2   -1    0    0    0  501 -0.00000000000E+00 -0.00000000000E+00 -0.69337435860E+02  0.69337435907E+02  0.25500000000E-02 0. -1.
    5000001    1    1    2    0    0  0.59640123270E+02 -0.13572814940E+03  0.27222771770E+03  0.36462447138E+03  0.19200000000E+03 0.  0.
   -5000001    1    1    2    0    0 -0.59640123270E+02  0.13572814940E+03  0.61261577788E+03  0.65889389597E+03  0.19200000000E+03 0.  0.
<mgrwt>
<rscale>  0 0.51443351E+03</rscale>
<asrwt>0</asrwt>
<pdfrwt beam="1">  1        2 0.13631157E+00 0.51443351E+03</pdfrwt>
<pdfrwt beam="2">  1       -2 0.99053472E-02 0.51443351E+03</pdfrwt>
<totfact> 0.20953793E+03</totfact>
</mgrwt>
</event>
<event>
 4    1  0.5900026E-005  0.9784055E+03  0.7818608E-02  0.9332552E-01
         -2   -1    0    0    0  501 -0.00000000000E+00  0.00000000000E+00  0.25012852905E+03  0.25012852907E+03  0.25500000000E-02 0. -1.
          2   -1    0    0  501    0  0.00000000000E+00 -0.00000000000E+00 -0.95678538663E+03  0.95678538663E+03  0.25500000000E-02 0.  1.
    5000001    1    1    2    0    0  0.24241579551E+03  0.41585071702E+02 -0.81810187573E+03  0.87558518442E+03  0.19200000000E+03 0.  0.
   -5000001    1    1    2    0    0 -0.24241579551E+03 -0.41585071702E+02  0.11144501815E+03  0.33132873128E+03  0.19200000000E+03 0.  0.
<mgrwt>
<rscale>  0 0.97840548E+03</rscale>
<asrwt>0</asrwt>
<pdfrwt beam="1">  1        2 0.13668362E+00 0.97840548E+03</pdfrwt>
<pdfrwt beam="2">  1       -2 0.35732647E-01 0.97840548E+03</pdfrwt>
<totfact> 0.21945605E+02</totfact>
</mgrwt>
</event>
<event>
 4    1  0.5900026E-005  0.7977177E+03  0.7818608E-02  0.9563327E-01
          2   -1    0    0  501    0  0.00000000000E+00  0.00000000000E+00  0.12712630907E+04  0.12712630907E+04  0.25500000000E-02 0.  1.
         -2   -1    0    0    0  501 -0.00000000000E+00 -0.00000000000E+00 -0.12514196694E+03  0.12514196696E+03  0.25500000000E-02 0. -1.
    5000001    1    1    2    0    0 -0.22030886884E+03 -0.51805435405E+02  0.10661030238E+03  0.31535623888E+03  0.19200000000E+03 0.  0.
   -5000001    1    1    2    0    0  0.22030886884E+03  0.51805435405E+02  0.10395108214E+04  0.10810488188E+04  0.19200000000E+03 0.  0.
<mgrwt>
<rscale>  0 0.79771765E+03</rscale>
<asrwt>0</asrwt>
<pdfrwt beam="1">  1        2 0.18160901E+00 0.79771765E+03</pdfrwt>
<pdfrwt beam="2">  1       -2 0.17877424E-01 0.79771765E+03</pdfrwt>
<totfact> 0.50765455E+02</totfact>
</mgrwt>
</event>
<event>
 4    1  0.5900026E-005  0.4732433E+03  0.7818608E-02  0.1021009E+00
          2   -1    0    0  501    0  0.00000000000E+00  0.00000000000E+00  0.96763104657E+03  0.96763104657E+03  0.25500000000E-02 0. -1.
         -2   -1    0    0    0  501 -0.00000000000E+00 -0.00000000000E+00 -0.57862760834E+02  0.57862760890E+02  0.25500000000E-02 0.  1.
    5000001    1    1    2    0    0  0.10499672783E+03 -0.89950420892E+02  0.44789165141E+03  0.50654350502E+03  0.19200000000E+03 0.  0.
   -5000001    1    1    2    0    0 -0.10499672783E+03  0.89950420892E+02  0.46187663433E+03  0.51895030245E+03  0.19200000000E+03 0.  0.
<mgrwt>
<rscale>  0 0.47324329E+03</rscale>
<asrwt>0</asrwt>
<pdfrwt beam="1">  1        2 0.13823301E+00 0.47324329E+03</pdfrwt>
<pdfrwt beam="2">  1       -2 0.82661084E-02 0.47324329E+03</pdfrwt>
<totfact> 0.27462031E+03</totfact>
</mgrwt>
</event>
<event>
 4    1  0.5900026E-005  0.9303321E+03  0.7818608E-02  0.9388439E-01
          2   -1    0    0  501    0  0.00000000000E+00  0.00000000000E+00  0.25662159334E+03  0.25662159335E+03  0.25500000000E-02 0.  1.
         -2   -1    0    0    0  501 -0.00000000000E+00 -0.00000000000E+00 -0.84318486445E+03  0.84318486445E+03  0.25500000000E-02 0. -1.
    5000001    1    1    2    0    0 -0.65592102160E+02 -0.21058546274E+03  0.13437296501E+03  0.32182084256E+03  0.19200000000E+03 0.  0.
   -5000001    1    1    2    0    0  0.65592102160E+02  0.21058546274E+03 -0.72093623612E+03  0.77798561524E+03  0.19200000000E+03 0.  0.
<mgrwt>
<rscale>  0 0.93033208E+03</rscale>
<asrwt>0</asrwt>
<pdfrwt beam="1">  1        2 0.36660228E-01 0.93033208E+03</pdfrwt>
<pdfrwt beam="2">  1       -2 0.12045498E+00 0.93033208E+03</pdfrwt>
<totfact> 0.74830670E+01</totfact>
</mgrwt>
</event>
<event>
 4    1  0.5900026E-005  0.9549596E+03  0.7818608E-02  0.9359372E-01
         -2   -1    0    0    0  501 -0.00000000000E+00  0.00000000000E+00  0.19124476598E+03  0.19124476599E+03  0.25500000000E-02 0. -1.
          2   -1    0    0  501    0  0.00000000000E+00 -0.00000000000E+00 -0.11921212802E+04  0.11921212802E+04  0.25500000000E-02 0.  1.
    5000001    1    1    2    0    0  0.38433039135E+03 -0.20804729332E+03 -0.51691868213E+03  0.70360674379E+03  0.19200000000E+03 0.  0.
   -5000001    1    1    2    0    0 -0.38433039135E+03  0.20804729332E+03 -0.48395783211E+03  0.67975930243E+03  0.19200000000E+03 0.  0.
<mgrwt>
<rscale>  0 0.95495959E+03</rscale>
<asrwt>0</asrwt>
<pdfrwt beam="1">  1        2 0.17030304E+00 0.95495959E+03</pdfrwt>
<pdfrwt beam="2">  1       -2 0.27320682E-01 0.95495959E+03</pdfrwt>
<totfact> 0.26266115E+02</totfact>
</mgrwt>
</event>
<event>
 4    1  0.5900026E-005  0.4703528E+03  0.7818608E-02  0.1021821E+00
         -2   -1    0    0    0  501 -0.00000000000E+00  0.00000000000E+00  0.62062024318E+02  0.62062024370E+02  0.25500000000E-02 0.  1.
          2   -1    0    0  501    0  0.00000000000E+00 -0.00000000000E+00 -0.89117197437E+03  0.89117197437E+03  0.25500000000E-02 0. -1.
    5000001    1    1    2    0    0 -0.48403031391E+02 -0.99946013401E+02 -0.57299435274E+03  0.61442541233E+03  0.19200000000E+03 0.  0.
   -5000001    1    1    2    0    0  0.48403031391E+02  0.99946013401E+02 -0.25611559731E+03  0.33880858642E+03  0.19200000000E+03 0.  0.
<mgrwt>
<rscale>  0 0.47035279E+03</rscale>
<asrwt>0</asrwt>
<pdfrwt beam="1">  1        2 0.12731027E+00 0.47035279E+03</pdfrwt>
<pdfrwt beam="2">  1       -2 0.88660040E-02 0.47035279E+03</pdfrwt>
<totfact> 0.27435729E+03</totfact>
</mgrwt>
</event>
<event>
 4    1  0.5900026E-005  0.9565034E+03  0.7818608E-02  0.9357581E-01
          2   -1    0    0  501    0  0.00000000000E+00  0.00000000000E+00  0.92951593521E+03  0.92951593521E+03  0.25500000000E-02 0.  1.
         -2   -1    0    0    0  501 -0.00000000000E+00 -0.00000000000E+00 -0.24606860990E+03  0.24606860992E+03  0.25500000000E-02 0. -1.
    5000001    1    1    2    0    0 -0.98197284918E+02  0.40932785187E+03  0.19286877018E+03  0.50125279011E+03  0.19200000000E+03 0.  0.
   -5000001    1    1    2    0    0  0.98197284918E+02 -0.40932785187E+03  0.49057855512E+03  0.67433175502E+03  0.19200000000E+03 0.  0.
<mgrwt>
<rscale>  0 0.95650341E+03</rscale>
<asrwt>0</asrwt>
<pdfrwt beam="1">  1        2 0.13278799E+00 0.95650341E+03</pdfrwt>
<pdfrwt beam="2">  1       -2 0.35152659E-01 0.95650341E+03</pdfrwt>
<totfact> 0.23593357E+02</totfact>
</mgrwt>
</event>
<event>
 4    1  0.5900026E-005  0.7609045E+03  0.7818608E-02  0.9618397E-01
          2   -1    0    0  501    0  0.00000000000E+00  0.00000000000E+00  0.89553378835E+03  0.89553378835E+03  0.25500000000E-02 0.  1.
         -2   -1    0    0    0  501 -0.00000000000E+00 -0.00000000000E+00 -0.16162862899E+03  0.16162862901E+03  0.25500000000E-02 0. -1.
    5000001    1    1    2    0    0 -0.28477971397E+02 -0.24683228198E+03  0.68508326128E+02  0.32139471220E+03  0.19200000000E+03 0.  0.
   -5000001    1    1    2    0    0  0.28477971397E+02  0.24683228198E+03  0.66539683323E+03  0.73576770516E+03  0.19200000000E+03 0.  0.
<mgrwt>
<rscale>  0 0.76090446E+03</rscale>
<asrwt>0</asrwt>
<pdfrwt beam="1">  1        2 0.12793340E+00 0.76090446E+03</pdfrwt>
<pdfrwt beam="2">  1       -2 0.23089803E-01 0.76090446E+03</pdfrwt>
<totfact> 0.54313635E+02</totfact>
</mgrwt>
</event>
<event>
 4    1  0.5900026E-005  0.4471199E+03  0.7818608E-02  0.1028584E+00
         -2   -1    0    0    0  501 -0.00000000000E+00  0.00000000000E+00  0.18230095778E+02  0.18230095956E+02  0.25500000000E-02 0. -1.
          2   -1    0    0  501    0  0.00000000000E+00 -0.00000000000E+00 -0.27415679941E+04  0.27415679941E+04  0.25500000000E-02 0.  1.
    5000001    1    1    2    0    0  0.66200483868E+02  0.77411856480E+02 -0.10385782400E+04  0.10610767456E+04  0.19200000000E+03 0.  0.
   -5000001    1    1    2    0    0 -0.66200483868E+02 -0.77411856480E+02 -0.16847596583E+04  0.16987213444E+04  0.19200000000E+03 0.  0.
<mgrwt>
<rscale>  0 0.44711988E+03</rscale>
<asrwt>0</asrwt>
<pdfrwt beam="1">  1        2 0.39165231E+00 0.44711988E+03</pdfrwt>
<pdfrwt beam="2">  1       -2 0.26043012E-02 0.44711988E+03</pdfrwt>
<totfact> 0.19489426E+03</totfact>
</mgrwt>
</event>
<event>
 4    1  0.5900026E-005  0.4672922E+03  0.7818608E-02  0.1022687E+00
          2   -1    0    0  501    0  0.00000000000E+00  0.00000000000E+00  0.53427200092E+03  0.53427200093E+03  0.25500000000E-02 0.  1.
         -2   -1    0    0    0  501 -0.00000000000E+00 -0.00000000000E+00 -0.10217736202E+03  0.10217736205E+03  0.25500000000E-02 0. -1.
    5000001    1    1    2    0    0  0.19674897169E+02 -0.36033693792E+02  0.43546687345E+02  0.20111151793E+03  0.19200000000E+03 0.  0.
   -5000001    1    1    2    0    0 -0.19674897169E+02  0.36033693792E+02  0.38854795156E+03  0.43533784504E+03  0.19200000000E+03 0.  0.
<mgrwt>
<rscale>  0 0.46729222E+03</rscale>
<asrwt>0</asrwt>
<pdfrwt beam="1">  1        2 0.76324572E-01 0.46729222E+03</pdfrwt>
<pdfrwt beam="2">  1       -2 0.14596766E-01 0.46729222E+03</pdfrwt>
<totfact> 0.22661586E+03</totfact>
</mgrwt>
</event>
<event>
 4    1  0.5900026E-005  0.8484416E+03  0.7818608E-02  0.9492431E-01
         -2   -1    0    0    0  501 -0.00000000000E+00  0.00000000000E+00  0.21093290740E+03  0.21093290741E+03  0.25500000000E-02 0. -1.
          2   -1    0    0  501    0  0.00000000000E+00 -0.00000000000E+00 -0.85317788800E+03  0.85317788800E+03  0.25500000000E-02 0.  1.
    5000001    1    1    2    0    0  0.32289853576E+03  0.17047590801E+03 -0.44511528635E+03  0.60689135581E+03  0.19200000000E+03 0.  0.
   -5000001    1    1    2    0    0 -0.32289853576E+03 -0.17047590801E+03 -0.19712969425E+03  0.45721943961E+03  0.19200000000E+03 0.  0.
<mgrwt>
<rscale>  0 0.84844161E+03</rscale>
<asrwt>0</asrwt>
<pdfrwt beam="1">  1        2 0.12188255E+00 0.84844161E+03</pdfrwt>
<pdfrwt beam="2">  1       -2 0.30133273E-01 0.84844161E+03</pdfrwt>
<totfact> 0.35573809E+02</totfact>
</mgrwt>
</event>
<event>
 4    1  0.5900026E-005  0.4248793E+03  0.7818608E-02  0.1035490E+00
         -2   -1    0    0    0  501 -0.00000000000E+00  0.00000000000E+00  0.63935262167E+02  0.63935262218E+02  0.25500000000E-02 0. -1.
          2   -1    0    0  501    0  0.00000000000E+00 -0.00000000000E+00 -0.70587968810E+03  0.70587968811E+03  0.25500000000E-02 0.  1.
    5000001    1    1    2    0    0 -0.54242691277E+02 -0.14733168483E+02 -0.45045590210E+03  0.49288320680E+03  0.19200000000E+03 0.  0.
   -5000001    1    1    2    0    0  0.54242691277E+02  0.14733168483E+02 -0.19148852384E+03  0.27693174352E+03  0.19200000000E+03 0.  0.
<mgrwt>
<rscale>  0 0.42487929E+03</rscale>
<asrwt>0</asrwt>
<pdfrwt beam="1">  1        2 0.10083995E+00 0.42487929E+03</pdfrwt>
<pdfrwt beam="2">  1       -2 0.91336093E-02 0.42487929E+03</pdfrwt>
<totfact> 0.35078957E+03</totfact>
</mgrwt>
</event>
<event>
 4    1  0.5900026E-005  0.1018241E+04  0.7818608E-02  0.9288761E-01
          2   -1    0    0  501    0  0.00000000000E+00  0.00000000000E+00  0.72599935297E+03  0.72599935297E+03  0.25500000000E-02 0.  1.
         -2   -1    0    0    0  501 -0.00000000000E+00 -0.00000000000E+00 -0.35703029807E+03  0.35703029808E+03  0.25500000000E-02 0. -1.
    5000001    1    1    2    0    0  0.13276538116E+03  0.41809065193E+03  0.36844395444E+03  0.60418655003E+03  0.19200000000E+03 0.  0.
   -5000001    1    1    2    0    0 -0.13276538116E+03 -0.41809065193E+03  0.52510045579E+00  0.47884310103E+03  0.19200000000E+03 0.  0.
<mgrwt>
<rscale>  0 0.10182412E+04</rscale>
<asrwt>0</asrwt>
<pdfrwt beam="1">  1        2 0.10371419E+00 0.10182412E+04</pdfrwt>
<pdfrwt beam="2">  1       -2 0.51004329E-01 0.10182412E+04</pdfrwt>
<totfact> 0.15584377E+02</totfact>
</mgrwt>
</event>
<event>
 4    1  0.5900026E-005  0.6936929E+03  0.7818608E-02  0.9728079E-01
          2   -1    0    0  501    0  0.00000000000E+00  0.00000000000E+00  0.29862722065E+03  0.29862722066E+03  0.25500000000E-02 0.  1.
         -2   -1    0    0    0  501 -0.00000000000E+00 -0.00000000000E+00 -0.40285161123E+03  0.40285161124E+03  0.25500000000E-02 0. -1.
    5000001    1    1    2    0    0 -0.60415762716E+02 -0.26028188485E+03  0.58854288122E+02  0.33425222691E+03  0.19200000000E+03 0.  0.
   -5000001    1    1    2    0    0  0.60415762716E+02  0.26028188485E+03 -0.16307867870E+03  0.36722660499E+03  0.19200000000E+03 0.  0.
<mgrwt>
<rscale>  0 0.69369289E+03</rscale>
<asrwt>0</asrwt>
<pdfrwt beam="1">  1        2 0.42661032E-01 0.69369289E+03</pdfrwt>
<pdfrwt beam="2">  1       -2 0.57550230E-01 0.69369289E+03</pdfrwt>
<totfact> 0.34195353E+02</totfact>
</mgrwt>
</event>
<event>
 4    1  0.5900026E-005  0.6957274E+03  0.7818608E-02  0.9724567E-01
         -2   -1    0    0    0  501 -0.00000000000E+00  0.00000000000E+00  0.19374777482E+03  0.19374777483E+03  0.25500000000E-02 0. -1.
          2   -1    0    0  501    0  0.00000000000E+00 -0.00000000000E+00 -0.62457055862E+03  0.62457055863E+03  0.25500000000E-02 0.  1.
    5000001    1    1    2    0    0 -0.63217650983E+02  0.25568340363E+03 -0.35838050922E+03  0.48442859503E+03  0.19200000000E+03 0.  0.
   -5000001    1    1    2    0    0  0.63217650983E+02 -0.25568340363E+03 -0.72442274582E+02  0.33388973844E+03  0.19200000000E+03 0.  0.
<mgrwt>
<rscale>  0 0.69572741E+03</rscale>
<asrwt>0</asrwt>
<pdfrwt beam="1">  1        2 0.89224365E-01 0.69572741E+03</pdfrwt>
<pdfrwt beam="2">  1       -2 0.27678254E-01 0.69572741E+03</pdfrwt>
<totfact> 0.61801661E+02</totfact>
</mgrwt>
</event>
<event>
 4    1  0.5900026E-005  0.5623077E+03  0.7818608E-02  0.9986847E-01
          2   -1    0    0  501    0  0.00000000000E+00  0.00000000000E+00  0.87351444402E+03  0.87351444403E+03  0.25500000000E-02 0.  1.
         -2   -1    0    0    0  501 -0.00000000000E+00 -0.00000000000E+00 -0.90493609036E+02  0.90493609072E+02  0.25500000000E-02 0. -1.
    5000001    1    1    2    0    0 -0.18039903449E+03  0.97322264306E+02  0.36928690080E+03  0.46395285308E+03  0.19200000000E+03 0.  0.
   -5000001    1    1    2    0    0  0.18039903449E+03 -0.97322264306E+02  0.41373393418E+03  0.50005520002E+03  0.19200000000E+03 0.  0.
<mgrwt>
<rscale>  0 0.56230765E+03</rscale>
<asrwt>0</asrwt>
<pdfrwt beam="1">  1        2 0.12478777E+00 0.56230765E+03</pdfrwt>
<pdfrwt beam="2">  1       -2 0.12927659E-01 0.56230765E+03</pdfrwt>
<totfact> 0.15260281E+03</totfact>
</mgrwt>
</event>
<event>
 4    1  0.5900026E-005  0.8890784E+03  0.7818608E-02  0.9439338E-01
         -2   -1    0    0    0  501 -0.00000000000E+00  0.00000000000E+00  0.10183804719E+03  0.10183804722E+03  0.25500000000E-02 0.  1.
          2   -1    0    0  501    0  0.00000000000E+00 -0.00000000000E+00 -0.19404841458E+04  0.19404841459E+04  0.25500000000E-02 0. -1.
    5000001    1    1    2    0    0 -0.16545344185E+03 -0.29149607399E+03 -0.14247229877E+04  0.14761586616E+04  0.19200000000E+03 0.  0.
   -5000001    1    1    2    0    0  0.16545344185E+03  0.29149607399E+03 -0.41392311096E+03  0.56616353146E+03  0.19200000000E+03 0.  0.
<mgrwt>
<rscale>  0 0.88907844E+03</rscale>
<asrwt>0</asrwt>
<pdfrwt beam="1">  1        2 0.27721200E+00 0.88907844E+03</pdfrwt>
<pdfrwt beam="2">  1       -2 0.14548294E-01 0.88907844E+03</pdfrwt>
<totfact> 0.32057446E+02</totfact>
</mgrwt>
</event>
<event>
 4    1  0.5900026E-005  0.4389749E+03  0.7818608E-02  0.1031062E+00
         -2   -1    0    0    0  501 -0.00000000000E+00  0.00000000000E+00  0.33783917905E+02  0.33783918001E+02  0.25500000000E-02 0. -1.
          2   -1    0    0  501    0  0.00000000000E+00 -0.00000000000E+00 -0.14259666335E+04  0.14259666335E+04  0.25500000000E-02 0.  1.
    5000001    1    1    2    0    0  0.10461871233E+03  0.18990593299E+02 -0.68863916960E+03  0.72276802884E+03  0.19200000000E+03 0.  0.
   -5000001    1    1    2    0    0 -0.10461871233E+03 -0.18990593299E+02 -0.70354354604E+03  0.73698252271E+03  0.19200000000E+03 0.  0.
<mgrwt>
<rscale>  0 0.43897490E+03</rscale>
<asrwt>0</asrwt>
<pdfrwt beam="1">  1        2 0.20370948E+00 0.43897490E+03</pdfrwt>
<pdfrwt beam="2">  1       -2 0.48262749E-02 0.43897490E+03</pdfrwt>
<totfact> 0.35246748E+03</totfact>
</mgrwt>
</event>
<event>
 4    1  0.5900026E-005  0.5027910E+03  0.7818608E-02  0.1013053E+00
         -2   -1    0    0    0  501 -0.00000000000E+00  0.00000000000E+00  0.62830454729E+02  0.62830454781E+02  0.25500000000E-02 0. -1.
          2   -1    0    0  501    0  0.00000000000E+00 -0.00000000000E+00 -0.10058769926E+04  0.10058769926E+04  0.25500000000E-02 0.  1.
    5000001    1    1    2    0    0 -0.13225128894E+03  0.91961549434E+02 -0.42963435482E+03  0.49739019777E+03  0.19200000000E+03 0.  0.
   -5000001    1    1    2    0    0  0.13225128894E+03 -0.91961549434E+02 -0.51341218307E+03  0.57131724963E+03  0.19200000000E+03 0.  0.
<mgrwt>
<rscale>  0 0.50279105E+03</rscale>
<asrwt>0</asrwt>
<pdfrwt beam="1">  1        2 0.14369670E+00 0.50279105E+03</pdfrwt>
<pdfrwt beam="2">  1       -2 0.89757799E-02 0.50279105E+03</pdfrwt>
<totfact> 0.22826063E+03</totfact>
</mgrwt>
</event>
<event>
 4    1  0.5900026E-005  0.9815708E+03  0.7818608E-02  0.9328992E-01
         -2   -1    0    0    0  501 -0.00000000000E+00  0.00000000000E+00  0.24159669757E+03  0.24159669759E+03  0.25500000000E-02 0. -1.
          2   -1    0    0  501    0  0.00000000000E+00 -0.00000000000E+00 -0.99699335744E+03  0.99699335744E+03  0.25500000000E-02 0.  1.
    5000001    1    1    2    0    0  0.41419342470E+03  0.16525275271E+03 -0.46817918246E+03  0.67447788120E+03  0.19200000000E+03 0.  0.
   -5000001    1    1    2    0    0 -0.41419342470E+03 -0.16525275271E+03 -0.28721747741E+03  0.56411217383E+03  0.19200000000E+03 0.  0.
<mgrwt>
<rscale>  0 0.98157079E+03</rscale>
<asrwt>0</asrwt>
<pdfrwt beam="1">  1        2 0.14242762E+00 0.98157079E+03</pdfrwt>
<pdfrwt beam="2">  1       -2 0.34513815E-01 0.98157079E+03</pdfrwt>
<totfact> 0.22125378E+02</totfact>
</mgrwt>
</event>
<event>
 4    1  0.5900026E-005  0.5691717E+03  0.7818608E-02  0.9971513E-01
          2   -1    0    0  501    0  0.00000000000E+00  0.00000000000E+00  0.23795769796E+04  0.23795769796E+04  0.25500000000E-02 0.  1.
         -2   -1    0    0    0  501 -0.00000000000E+00 -0.00000000000E+00 -0.34035091336E+02  0.34035091431E+02  0.25500000000E-02 0. -1.
    5000001    1    1    2    0    0  0.13989774651E+03 -0.36993823243E+02  0.18184690816E+04  0.18342937941E+04  0.19200000000E+03 0.  0.
   -5000001    1    1    2    0    0 -0.13989774651E+03  0.36993823243E+02  0.52707280670E+03  0.57931827694E+03  0.19200000000E+03 0.  0.
<mgrwt>
<rscale>  0 0.56917175E+03</rscale>
<asrwt>0</asrwt>
<pdfrwt beam="1">  1        2 0.33993959E+00 0.56917175E+03</pdfrwt>
<pdfrwt beam="2">  1       -2 0.48621556E-02 0.56917175E+03</pdfrwt>
<totfact> 0.11449748E+03</totfact>
</mgrwt>
</event>
<event>
 4    1  0.5900026E-005  0.7646725E+03  0.7818608E-02  0.9612609E-01
          2   -1    0    0  501    0  0.00000000000E+00  0.00000000000E+00  0.13823304242E+04  0.13823304242E+04  0.25500000000E-02 0.  1.
         -2   -1    0    0    0  501 -0.00000000000E+00 -0.00000000000E+00 -0.10574967308E+03  0.10574967311E+03  0.25500000000E-02 0. -1.
    5000001    1    1    2    0    0  0.30620498085E+03  0.60018305706E+02  0.85105275047E+03  0.92656271854E+03  0.19200000000E+03 0.  0.
   -5000001    1    1    2    0    0 -0.30620498085E+03 -0.60018305706E+02  0.42552800062E+03  0.56151737874E+03  0.19200000000E+03 0.  0.
<mgrwt>
<rscale>  0 0.76467245E+03</rscale>
<asrwt>0</asrwt>
<pdfrwt beam="1">  1        2 0.19747578E+00 0.76467245E+03</pdfrwt>
<pdfrwt beam="2">  1       -2 0.15107096E-01 0.76467245E+03</pdfrwt>
<totfact> 0.58969132E+02</totfact>
</mgrwt>
</event>
<event>
 4    1  0.5900026E-005  0.8687575E+03  0.7818608E-02  0.9465501E-01
          2   -1    0    0  501    0  0.00000000000E+00  0.00000000000E+00  0.16520455474E+04  0.16520455475E+04  0.25500000000E-02 0. -1.
         -2   -1    0    0    0  501 -0.00000000000E+00 -0.00000000000E+00 -0.11421288399E+03  0.11421288402E+03  0.25500000000E-02 0.  1.
    5000001    1    1    2    0    0  0.36073740252E+03  0.11152867547E+03  0.96446036880E+03  0.10533840335E+04  0.19200000000E+03 0.  0.
   -5000001    1    1    2    0    0 -0.36073740252E+03 -0.11152867547E+03  0.57337229465E+03  0.71287439798E+03  0.19200000000E+03 0.  0.
<mgrwt>
<rscale>  0 0.86875747E+03</rscale>
<asrwt>0</asrwt>
<pdfrwt beam="1">  1        2 0.23600648E+00 0.86875747E+03</pdfrwt>
<pdfrwt beam="2">  1       -2 0.16316128E-01 0.86875747E+03</pdfrwt>
<totfact> 0.37111430E+02</totfact>
</mgrwt>
</event>
<event>
 4    1  0.5900026E-005  0.7504308E+03  0.7818608E-02  0.9634675E-01
         -2   -1    0    0    0  501 -0.00000000000E+00  0.00000000000E+00  0.92123049065E+02  0.92123049101E+02  0.25500000000E-02 0. -1.
          2   -1    0    0  501    0  0.00000000000E+00 -0.00000000000E+00 -0.15282452426E+04  0.15282452426E+04  0.25500000000E-02 0.  1.
    5000001    1    1    2    0    0 -0.32209501145E+03 -0.28129374082E+01 -0.74617305451E+03  0.83509959663E+03  0.19200000000E+03 0.  0.
   -5000001    1    1    2    0    0  0.32209501145E+03  0.28129374082E+01 -0.68994913900E+03  0.78526869505E+03  0.19200000000E+03 0.  0.
<mgrwt>
<rscale>  0 0.75043084E+03</rscale>
<asrwt>0</asrwt>
<pdfrwt beam="1">  1        2 0.21832073E+00 0.75043084E+03</pdfrwt>
<pdfrwt beam="2">  1       -2 0.13160436E-01 0.75043084E+03</pdfrwt>
<totfact> 0.62270112E+02</totfact>
</mgrwt>
</event>
<event>
 4    1  0.5900026E-005  0.5573514E+03  0.7818608E-02  0.9998065E-01
         -2   -1    0    0    0  501 -0.00000000000E+00  0.00000000000E+00  0.55541187481E+02  0.55541187539E+02  0.25500000000E-02 0. -1.
          2   -1    0    0  501    0  0.00000000000E+00 -0.00000000000E+00 -0.13982442862E+04  0.13982442862E+04  0.25500000000E-02 0.  1.
    5000001    1    1    2    0    0 -0.15346623146E+03 -0.12852917740E+03 -0.74156086631E+03  0.79173742622E+03  0.19200000000E+03 0.  0.
   -5000001    1    1    2    0    0  0.15346623146E+03  0.12852917740E+03 -0.60114223245E+03  0.66204804755E+03  0.19200000000E+03 0.  0.
<mgrwt>
<rscale>  0 0.55735141E+03</rscale>
<asrwt>0</asrwt>
<pdfrwt beam="1">  1        2 0.19974916E+00 0.55735141E+03</pdfrwt>
<pdfrwt beam="2">  1       -2 0.79344562E-02 0.55735141E+03</pdfrwt>
<totfact> 0.16733201E+03</totfact>
</mgrwt>
</event>
<event>
 4    1  0.5900026E-005  0.9664887E+03  0.7818608E-02  0.9346083E-01
         -2   -1    0    0    0  501 -0.00000000000E+00  0.00000000000E+00  0.31738518742E+03  0.31738518743E+03  0.25500000000E-02 0. -1.
          2   -1    0    0  501    0  0.00000000000E+00 -0.00000000000E+00 -0.73577818463E+03  0.73577818464E+03  0.25500000000E-02 0.  1.
    5000001    1    1    2    0    0  0.19974650736E+03  0.37597332846E+03 -0.34445070130E+03  0.58031448072E+03  0.19200000000E+03 0.  0.
   -5000001    1    1    2    0    0 -0.19974650736E+03 -0.37597332846E+03 -0.73942295919E+02  0.47284889134E+03  0.19200000000E+03 0.  0.
<mgrwt>
<rscale>  0 0.96648869E+03</rscale>
<asrwt>0</asrwt>
<pdfrwt beam="1">  1        2 0.10511117E+00 0.96648869E+03</pdfrwt>
<pdfrwt beam="2">  1       -2 0.45340741E-01 0.96648869E+03</pdfrwt>
<totfact> 0.19494433E+02</totfact>
</mgrwt>
</event>
<event>
 4    1  0.5900026E-005  0.8070906E+03  0.7818608E-02  0.9549810E-01
          2   -1    0    0  501    0  0.00000000000E+00  0.00000000000E+00  0.37482632293E+03  0.37482632294E+03  0.25500000000E-02 0.  1.
         -2   -1    0    0    0  501 -0.00000000000E+00 -0.00000000000E+00 -0.43446470729E+03  0.43446470730E+03  0.25500000000E-02 0. -1.
    5000001    1    1    2    0    0 -0.25958132664E+03  0.24089147106E+03 -0.53835330646E+02  0.40641531565E+03  0.19200000000E+03 0.  0.
   -5000001    1    1    2    0    0  0.25958132664E+03 -0.24089147106E+03 -0.58030537136E+01  0.40287571459E+03  0.19200000000E+03 0.  0.
<mgrwt>
<rscale>  0 0.80709060E+03</rscale>
<asrwt>0</asrwt>
<pdfrwt beam="1">  1        2 0.53546618E-01 0.80709060E+03</pdfrwt>
<pdfrwt beam="2">  1       -2 0.62066386E-01 0.80709060E+03</pdfrwt>
<totfact> 0.22574392E+02</totfact>
</mgrwt>
</event>
<event>
 4    1  0.5900026E-005  0.9039384E+03  0.7818608E-02  0.9420672E-01
         -2   -1    0    0    0  501 -0.00000000000E+00  0.00000000000E+00  0.10819460075E+03  0.10819460078E+03  0.25500000000E-02 0.  1.
          2   -1    0    0  501    0  0.00000000000E+00 -0.00000000000E+00 -0.18880440433E+04  0.18880440433E+04  0.25500000000E-02 0. -1.
    5000001    1    1    2    0    0 -0.40273649739E+03 -0.27712806297E+02 -0.74264909443E+03  0.86680814683E+03  0.19200000000E+03 0.  0.
   -5000001    1    1    2    0    0  0.40273649739E+03  0.27712806297E+02 -0.10372003481E+04  0.11294304973E+04  0.19200000000E+03 0.  0.
<mgrwt>
<rscale>  0 0.90393843E+03</rscale>
<asrwt>0</asrwt>
<pdfrwt beam="1">  1        2 0.26972056E+00 0.90393843E+03</pdfrwt>
<pdfrwt beam="2">  1       -2 0.15456373E-01 0.90393843E+03</pdfrwt>
<totfact> 0.30735847E+02</totfact>
</mgrwt>
</event>
<event>
 4    1  0.5900026E-005  0.8724093E+03  0.7818608E-02  0.9460744E-01
         -2   -1    0    0    0  501 -0.00000000000E+00  0.00000000000E+00  0.15897157478E+03  0.15897157480E+03  0.25500000000E-02 0. -1.
          2   -1    0    0  501    0  0.00000000000E+00 -0.00000000000E+00 -0.11969090465E+04  0.11969090465E+04  0.25500000000E-02 0.  1.
    5000001    1    1    2    0    0  0.32839563318E+03  0.93643607620E+02 -0.22083475741E+03  0.44971636307E+03  0.19200000000E+03 0.  0.
   -5000001    1    1    2    0    0 -0.32839563318E+03 -0.93643607620E+02 -0.81710271432E+03  0.90616425823E+03  0.19200000000E+03 0.  0.
<mgrwt>
<rscale>  0 0.87240934E+03</rscale>
<asrwt>0</asrwt>
<pdfrwt beam="1">  1        2 0.17098700E+00 0.87240934E+03</pdfrwt>
<pdfrwt beam="2">  1       -2 0.22710226E-01 0.87240934E+03</pdfrwt>
<totfact> 0.36601440E+02</totfact>
</mgrwt>
</event>
<event>
 4    1  0.5900026E-005  0.6596762E+03  0.7818608E-02  0.9788790E-01
          2   -1    0    0  501    0  0.00000000000E+00  0.00000000000E+00  0.10728165572E+04  0.10728165572E+04  0.25500000000E-02 0.  1.
         -2   -1    0    0    0  501 -0.00000000000E+00 -0.00000000000E+00 -0.10140890905E+03  0.10140890908E+03  0.25500000000E-02 0. -1.
    5000001    1    1    2    0    0 -0.12427694072E+03 -0.22814758073E+03  0.36718877521E+03  0.48906816828E+03  0.19200000000E+03 0.  0.
   -5000001    1    1    2    0    0  0.12427694072E+03  0.22814758073E+03  0.60421887294E+03  0.68515729800E+03  0.19200000000E+03 0.  0.
<mgrwt>
<rscale>  0 0.65967615E+03</rscale>
<asrwt>0</asrwt>
<pdfrwt beam="1">  1        2 0.15325949E+00 0.65967615E+03</pdfrwt>
<pdfrwt beam="2">  1       -2 0.14486988E-01 0.65967615E+03</pdfrwt>
<totfact> 0.94749803E+02</totfact>
</mgrwt>
</event>
<event>
 4    1  0.5900026E-005  0.6303378E+03  0.7818608E-02  0.9844390E-01
         -2   -1    0    0    0  501 -0.00000000000E+00  0.00000000000E+00  0.31776313688E+02  0.31776313790E+02  0.25500000000E-02 0. -1.
          2   -1    0    0  501    0  0.00000000000E+00 -0.00000000000E+00 -0.31259586402E+04  0.31259586402E+04  0.25500000000E-02 0.  1.
    5000001    1    1    2    0    0 -0.48254620696E+02 -0.23474747391E+03 -0.19024741912E+04  0.19270980601E+04  0.19200000000E+03 0.  0.
   -5000001    1    1    2    0    0  0.48254620696E+02  0.23474747391E+03 -0.11917081353E+04  0.12306368939E+04  0.19200000000E+03 0.  0.
<mgrwt>
<rscale>  0 0.63033782E+03</rscale>
<asrwt>0</asrwt>
<pdfrwt beam="1">  1        2 0.44656532E+00 0.63033782E+03</pdfrwt>
<pdfrwt beam="2">  1       -2 0.45394754E-02 0.63033782E+03</pdfrwt>
<totfact> 0.51106407E+02</totfact>
</mgrwt>
</event>
<event>
 4    1  0.5900026E-005  0.5714477E+03  0.7818608E-02  0.9966480E-01
          2   -1    0    0  501    0  0.00000000000E+00  0.00000000000E+00  0.10037587950E+04  0.10037587950E+04  0.25500000000E-02 0.  1.
         -2   -1    0    0    0  501 -0.00000000000E+00 -0.00000000000E+00 -0.81332399896E+02  0.81332399936E+02  0.25500000000E-02 0. -1.
    5000001    1    1    2    0    0  0.20118727781E+03 -0.55791393324E+00  0.58569236811E+03  0.64836423566E+03  0.19200000000E+03 0.  0.
   -5000001    1    1    2    0    0 -0.20118727781E+03  0.55791393324E+00  0.33673402696E+03  0.43672695925E+03  0.19200000000E+03 0.  0.
<mgrwt>
<rscale>  0 0.57144768E+03</rscale>
<asrwt>0</asrwt>
<pdfrwt beam="1">  1        2 0.14339411E+00 0.57144768E+03</pdfrwt>
<pdfrwt beam="2">  1       -2 0.11618915E-01 0.57144768E+03</pdfrwt>
<totfact> 0.15060528E+03</totfact>
</mgrwt>
</event>
<event>
 4    1  0.5900026E-005  0.8007471E+03  0.7818608E-02  0.9558936E-01
          2   -1    0    0  501    0  0.00000000000E+00  0.00000000000E+00  0.19446225799E+03  0.19446225801E+03  0.25500000000E-02 0.  1.
         -2   -1    0    0    0  501 -0.00000000000E+00 -0.00000000000E+00 -0.82431932039E+03  0.82431932040E+03  0.25500000000E-02 0. -1.
    5000001    1    1    2    0    0 -0.28408887732E+03  0.13672854191E+03 -0.51216944947E+03  0.63133408696E+03  0.19200000000E+03 0.  0.
   -5000001    1    1    2    0    0  0.28408887732E+03 -0.13672854191E+03 -0.11768761293E+03  0.38744749144E+03  0.19200000000E+03 0.  0.
<mgrwt>
<rscale>  0 0.80074714E+03</rscale>
<asrwt>0</asrwt>
<pdfrwt beam="1">  1        2 0.27780323E-01 0.80074714E+03</pdfrwt>
<pdfrwt beam="2">  1       -2 0.11775990E+00 0.80074714E+03</pdfrwt>
<totfact> 0.10884724E+02</totfact>
</mgrwt>
</event>
<event>
 4    1  0.5900026E-005  0.8593025E+03  0.7818608E-02  0.9477936E-01
         -2   -1    0    0    0  501 -0.00000000000E+00  0.00000000000E+00  0.46735331136E+03  0.46735331137E+03  0.25500000000E-02 0. -1.
          2   -1    0    0  501    0  0.00000000000E+00 -0.00000000000E+00 -0.39499070039E+03  0.39499070040E+03  0.25500000000E-02 0.  1.
    5000001    1    1    2    0    0 -0.27880656937E+03 -0.70315366699E+02  0.29215048491E+03  0.45265136667E+03  0.19200000000E+03 0.  0.
   -5000001    1    1    2    0    0  0.27880656937E+03  0.70315366699E+02 -0.21978787394E+03  0.40969264510E+03  0.19200000000E+03 0.  0.
<mgrwt>
<rscale>  0 0.85930254E+03</rscale>
<asrwt>0</asrwt>
<pdfrwt beam="1">  1        2 0.56427243E-01 0.85930254E+03</pdfrwt>
<pdfrwt beam="2">  1       -2 0.66764759E-01 0.85930254E+03</pdfrwt>
<totfact> 0.18170410E+02</totfact>
</mgrwt>
</event>
<event>
 4    1  0.5900026E-005  0.4304912E+03  0.7818608E-02  0.1033705E+00
          2   -1    0    0  501    0  0.00000000000E+00  0.00000000000E+00  0.26546890476E+04  0.26546890476E+04  0.25500000000E-02 0.  1.
         -2   -1    0    0    0  501 -0.00000000000E+00 -0.00000000000E+00 -0.17452392138E+02  0.17452392324E+02  0.25500000000E-02 0. -1.
    5000001    1    1    2    0    0 -0.86303731561E+02 -0.37915095024E+02  0.14682085491E+04  0.14837069226E+04  0.19200000000E+03 0.  0.
   -5000001    1    1    2    0    0  0.86303731561E+02  0.37915095024E+02  0.11690281063E+04  0.11884345173E+04  0.19200000000E+03 0.  0.
<mgrwt>
<rscale>  0 0.43049123E+03</rscale>
<asrwt>0</asrwt>
<pdfrwt beam="1">  1        2 0.37924132E+00 0.43049123E+03</pdfrwt>
<pdfrwt beam="2">  1       -2 0.24931987E-02 0.43049123E+03</pdfrwt>
<totfact> 0.23104444E+03</totfact>
</mgrwt>
</event>
<event>
 4    1  0.5900026E-005  0.5844810E+03  0.7818608E-02  0.9938136E-01
          2   -1    0    0  501    0  0.00000000000E+00  0.00000000000E+00  0.21620673348E+04  0.21620673348E+04  0.25500000000E-02 0.  1.
         -2   -1    0    0    0  501 -0.00000000000E+00 -0.00000000000E+00 -0.39501323357E+02  0.39501323439E+02  0.25500000000E-02 0. -1.
    5000001    1    1    2    0    0  0.48948633612E+02  0.20156156809E+03  0.13410731737E+04  0.13705343088E+04  0.19200000000E+03 0.  0.
   -5000001    1    1    2    0    0 -0.48948633612E+02 -0.20156156809E+03  0.78149283779E+03  0.83103434945E+03  0.19200000000E+03 0.  0.
<mgrwt>
<rscale>  0 0.58448104E+03</rscale>
<asrwt>0</asrwt>
<pdfrwt beam="1">  1        2 0.30886683E+00 0.58448104E+03</pdfrwt>
<pdfrwt beam="2">  1       -2 0.56430449E-02 0.58448104E+03</pdfrwt>
<totfact> 0.11686415E+03</totfact>
</mgrwt>
</event>
<event>
 4    1  0.5900026E-005  0.1209052E+04  0.7818608E-02  0.9104970E-01
         -2   -1    0    0    0  501 -0.00000000000E+00  0.00000000000E+00  0.73071121776E+03  0.73071121776E+03  0.25500000000E-02 0. -1.
          2   -1    0    0  501    0  0.00000000000E+00 -0.00000000000E+00 -0.50013166165E+03  0.50013166166E+03  0.25500000000E-02 0.  1.
    5000001    1    1    2    0    0  0.49988969611E+03 -0.27827513784E+03  0.15144113145E+03  0.62219384191E+03  0.19200000000E+03 0.  0.
   -5000001    1    1    2    0    0 -0.49988969611E+03  0.27827513784E+03  0.79138424650E+02  0.60864903751E+03  0.19200000000E+03 0.  0.
<mgrwt>
<rscale>  0 0.12090522E+04</rscale>
<asrwt>0</asrwt>
<pdfrwt beam="1">  1        2 0.71447381E-01 0.12090522E+04</pdfrwt>
<pdfrwt beam="2">  1       -2 0.10438732E+00 0.12090522E+04</pdfrwt>
<totfact> 0.49404734E+01</totfact>
</mgrwt>
</event>
<event>
 4    1  0.5900026E-005  0.6031521E+03  0.7818608E-02  0.9898888E-01
          2   -1    0    0  501    0  0.00000000000E+00  0.00000000000E+00  0.80253485530E+03  0.80253485530E+03  0.25500000000E-02 0.  1.
         -2   -1    0    0    0  501 -0.00000000000E+00 -0.00000000000E+00 -0.11332605195E+03  0.11332605198E+03  0.25500000000E-02 0. -1.
    5000001    1    1    2    0    0  0.17933071481E+03  0.24470324383E+02  0.56635020454E+03  0.62479985294E+03  0.19200000000E+03 0.  0.
   -5000001    1    1    2    0    0 -0.17933071481E+03 -0.24470324383E+02  0.12285859881E+03  0.29106105434E+03  0.19200000000E+03 0.  0.
<mgrwt>
<rscale>  0 0.60315208E+03</rscale>
<asrwt>0</asrwt>
<pdfrwt beam="1">  1        2 0.11464784E+00 0.60315208E+03</pdfrwt>
<pdfrwt beam="2">  1       -2 0.16189435E-01 0.60315208E+03</pdfrwt>
<totfact> 0.11676473E+03</totfact>
</mgrwt>
</event>
<event>
 4    1  0.5900026E-005  0.5805520E+03  0.7818608E-02  0.9946597E-01
          2   -1    0    0  501    0  0.00000000000E+00  0.00000000000E+00  0.25844922765E+02  0.25844922891E+02  0.25500000000E-02 0.  1.
         -2   -1    0    0    0  501 -0.00000000000E+00 -0.00000000000E+00 -0.32602212611E+04  0.32602212611E+04  0.25500000000E-02 0. -1.
    5000001    1    1    2    0    0 -0.14219343198E+03  0.13488834695E+03 -0.21536386314E+04  0.21710451845E+04  0.19200000000E+03 0.  0.
   -5000001    1    1    2    0    0  0.14219343198E+03 -0.13488834695E+03 -0.10807377069E+04  0.11150209996E+04  0.19200000000E+03 0.  0.
<mgrwt>
<rscale>  0 0.58055204E+03</rscale>
<asrwt>0</asrwt>
<pdfrwt beam="1">  1        2 0.36921339E-02 0.58055204E+03</pdfrwt>
<pdfrwt beam="2">  1       -2 0.46574563E+00 0.58055204E+03</pdfrwt>
<totfact> 0.74842465E+00</totfact>
</mgrwt>
</event>
<event>
 4    1  0.5900026E-005  0.9035417E+03  0.7818608E-02  0.9421165E-01
          2   -1    0    0  501    0  0.00000000000E+00  0.00000000000E+00  0.78198607301E+02  0.78198607342E+02  0.25500000000E-02 0.  1.
         -2   -1    0    0    0  501 -0.00000000000E+00 -0.00000000000E+00 -0.26099814326E+04  0.26099814326E+04  0.25500000000E-02 0. -1.
    5000001    1    1    2    0    0 -0.30764650622E+03  0.14206878191E+03 -0.19469558757E+04  0.19855304312E+04  0.19200000000E+03 0.  0.
   -5000001    1    1    2    0    0  0.30764650622E+03 -0.14206878191E+03 -0.58482694959E+03  0.70264960866E+03  0.19200000000E+03 0.  0.
<mgrwt>
<rscale>  0 0.90354173E+03</rscale>
<asrwt>0</asrwt>
<pdfrwt beam="1">  1        2 0.11171231E-01 0.90354173E+03</pdfrwt>
<pdfrwt beam="2">  1       -2 0.37285444E+00 0.90354173E+03</pdfrwt>
<totfact> 0.66926524E+00</totfact>
</mgrwt>
</event>
<event>
 4    1  0.5900026E-005  0.4771337E+03  0.7818608E-02  0.1019926E+00
         -2   -1    0    0    0  501 -0.00000000000E+00  0.00000000000E+00  0.39500762521E+03  0.39500762522E+03  0.25500000000E-02 0. -1.
          2   -1    0    0  501    0  0.00000000000E+00 -0.00000000000E+00 -0.14408363788E+03  0.14408363790E+03  0.25500000000E-02 0.  1.
    5000001    1    1    2    0    0 -0.13422999855E+03  0.35477100200E+02  0.15689180517E+03  0.28417486813E+03  0.19200000000E+03 0.  0.
   -5000001    1    1    2    0    0  0.13422999855E+03 -0.35477100200E+02  0.94032182159E+02  0.25491639498E+03  0.19200000000E+03 0.  0.
<mgrwt>
<rscale>  0 0.47713367E+03</rscale>
<asrwt>0</asrwt>
<pdfrwt beam="1">  1        2 0.20583377E-01 0.47713367E+03</pdfrwt>
<pdfrwt beam="2">  1       -2 0.56429661E-01 0.47713367E+03</pdfrwt>
<totfact> 0.81282172E+02</totfact>
</mgrwt>
</event>
<event>
 4    1  0.5900026E-005  0.6202349E+03  0.7818608E-02  0.9864292E-01
          2   -1    0    0  501    0  0.00000000000E+00  0.00000000000E+00  0.16593469694E+04  0.16593469694E+04  0.25500000000E-02 0. -1.
         -2   -1    0    0    0  501 -0.00000000000E+00 -0.00000000000E+00 -0.57958246641E+02  0.57958246697E+02  0.25500000000E-02 0.  1.
    5000001    1    1    2    0    0 -0.16765920670E+03  0.16786403167E+03  0.64851375191E+03  0.71674404716E+03  0.19200000000E+03 0.  0.
   -5000001    1    1    2    0    0  0.16765920670E+03 -0.16786403167E+03  0.95287497086E+03  0.10005611690E+04  0.19200000000E+03 0.  0.
<mgrwt>
<rscale>  0 0.62023493E+03</rscale>
<asrwt>0</asrwt>
<pdfrwt beam="1">  1        2 0.23704954E+00 0.62023493E+03</pdfrwt>
<pdfrwt beam="2">  1       -2 0.82797503E-02 0.62023493E+03</pdfrwt>
<totfact> 0.11416741E+03</totfact>
</mgrwt>
</event>
<event>
 4    1  0.5900026E-005  0.4480108E+03  0.7818608E-02  0.1028317E+00
          2   -1    0    0  501    0  0.00000000000E+00  0.00000000000E+00  0.56063523118E+02  0.56063523176E+02  0.25500000000E-02 0.  1.
         -2   -1    0    0    0  501 -0.00000000000E+00 -0.00000000000E+00 -0.89502786559E+03  0.89502786559E+03  0.25500000000E-02 0. -1.
    5000001    1    1    2    0    0 -0.84782060930E+02  0.71653414341E+02 -0.48635268619E+03  0.53453264167E+03  0.19200000000E+03 0.  0.
   -5000001    1    1    2    0    0  0.84782060930E+02 -0.71653414341E+02 -0.35261165628E+03  0.41655874710E+03  0.19200000000E+03 0.  0.
<mgrwt>
<rscale>  0 0.44801078E+03</rscale>
<asrwt>0</asrwt>
<pdfrwt beam="1">  1        2 0.80090753E-02 0.44801078E+03</pdfrwt>
<pdfrwt beam="2">  1       -2 0.12786111E+00 0.44801078E+03</pdfrwt>
<totfact> 0.40537281E+02</totfact>
</mgrwt>
</event>
<event>
 4    1  0.5900026E-005  0.4507015E+03  0.7818608E-02  0.1027513E+00
         -2   -1    0    0    0  501 -0.00000000000E+00  0.00000000000E+00  0.67213259485E+02  0.67213259533E+02  0.25500000000E-02 0. -1.
          2   -1    0    0  501    0  0.00000000000E+00 -0.00000000000E+00 -0.75554965250E+03  0.75554965251E+03  0.25500000000E-02 0.  1.
    5000001    1    1    2    0    0  0.58202451162E+02  0.65813468489E+01 -0.53112206513E+03  0.56779000300E+03  0.19200000000E+03 0.  0.
   -5000001    1    1    2    0    0 -0.58202451162E+02 -0.65813468489E+01 -0.15721432789E+03  0.25497290903E+03  0.19200000000E+03 0.  0.
<mgrwt>
<rscale>  0 0.45070147E+03</rscale>
<asrwt>0</asrwt>
<pdfrwt beam="1">  1        2 0.10793566E+00 0.45070147E+03</pdfrwt>
<pdfrwt beam="2">  1       -2 0.96018947E-02 0.45070147E+03</pdfrwt>
<totfact> 0.29811083E+03</totfact>
</mgrwt>
</event>
<event>
 4    1  0.5900026E-005  0.4582333E+03  0.7818608E-02  0.1025295E+00
         -2   -1    0    0    0  501 -0.00000000000E+00  0.00000000000E+00  0.55406217419E+02  0.55406217478E+02  0.25500000000E-02 0. -1.
          2   -1    0    0  501    0  0.00000000000E+00 -0.00000000000E+00 -0.94744667861E+03  0.94744667861E+03  0.25500000000E-02 0.  1.
    5000001    1    1    2    0    0  0.92624072908E+02 -0.52906905276E+02 -0.30331129483E+03  0.37448644980E+03  0.19200000000E+03 0.  0.
   -5000001    1    1    2    0    0 -0.92624072908E+02  0.52906905276E+02 -0.58872916635E+03  0.62836644629E+03  0.19200000000E+03 0.  0.
<mgrwt>
<rscale>  0 0.45823329E+03</rscale>
<asrwt>0</asrwt>
<pdfrwt beam="1">  1        2 0.13534952E+00 0.45823329E+03</pdfrwt>
<pdfrwt beam="2">  1       -2 0.79151745E-02 0.45823329E+03</pdfrwt>
<totfact> 0.30269931E+03</totfact>
</mgrwt>
</event>
<event>
 4    1  0.5900026E-005  0.4656144E+03  0.7818608E-02  0.1023165E+00
         -2   -1    0    0    0  501 -0.00000000000E+00  0.00000000000E+00  0.25770650542E+02  0.25770650668E+02  0.25500000000E-02 0. -1.
          2   -1    0    0  501    0  0.00000000000E+00 -0.00000000000E+00 -0.21031364728E+04  0.21031364728E+04  0.25500000000E-02 0.  1.
    5000001    1    1    2    0    0  0.63770001309E+02  0.11273705286E+03 -0.11467796353E+04  0.11699332408E+04  0.19200000000E+03 0.  0.
   -5000001    1    1    2    0    0 -0.63770001309E+02 -0.11273705286E+03 -0.93058618702E+03  0.95897388266E+03  0.19200000000E+03 0.  0.
<mgrwt>
<rscale>  0 0.46561441E+03</rscale>
<asrwt>0</asrwt>
<pdfrwt beam="1">  1        2 0.30044796E+00 0.46561441E+03</pdfrwt>
<pdfrwt beam="2">  1       -2 0.36815229E-02 0.46561441E+03</pdfrwt>
<totfact> 0.24293478E+03</totfact>
</mgrwt>
</event>
<event>
 4    1  0.5900026E-005  0.5569869E+03  0.7818608E-02  0.9998896E-01
          2   -1    0    0  501    0  0.00000000000E+00  0.00000000000E+00  0.70986813432E+03  0.70986813433E+03  0.25500000000E-02 0.  1.
         -2   -1    0    0    0  501 -0.00000000000E+00 -0.00000000000E+00 -0.10925775998E+03  0.10925776001E+03  0.25500000000E-02 0. -1.
    5000001    1    1    2    0    0  0.42602573583E+01  0.19832861827E+03  0.24642660337E+03  0.37005737591E+03  0.19200000000E+03 0.  0.
   -5000001    1    1    2    0    0 -0.42602573583E+01 -0.19832861827E+03  0.35418377098E+03  0.44906851843E+03  0.19200000000E+03 0.  0.
<mgrwt>
<rscale>  0 0.55698690E+03</rscale>
<asrwt>0</asrwt>
<pdfrwt beam="1">  1        2 0.10140973E+00 0.55698690E+03</pdfrwt>
<pdfrwt beam="2">  1       -2 0.15608252E-01 0.55698690E+03</pdfrwt>
<totfact> 0.14491318E+03</totfact>
</mgrwt>
</event>
<event>
 4    1  0.5900026E-005  0.6650391E+03  0.7818608E-02  0.9778962E-01
         -2   -1    0    0    0  501 -0.00000000000E+00  0.00000000000E+00  0.75102016170E+03  0.75102016170E+03  0.25500000000E-02 0. -1.
          2   -1    0    0  501    0  0.00000000000E+00 -0.00000000000E+00 -0.14722540376E+03  0.14722540378E+03  0.25500000000E-02 0.  1.
    5000001    1    1    2    0    0  0.21563247725E+03 -0.41794053440E+02  0.86377755380E+02  0.30425191005E+03  0.19200000000E+03 0.  0.
   -5000001    1    1    2    0    0 -0.21563247725E+03  0.41794053440E+02  0.51741700256E+03  0.59399365543E+03  0.19200000000E+03 0.  0.
<mgrwt>
<rscale>  0 0.66503909E+03</rscale>
<asrwt>0</asrwt>
<pdfrwt beam="1">  1        2 0.21032201E-01 0.66503909E+03</pdfrwt>
<pdfrwt beam="2">  1       -2 0.10728859E+00 0.66503909E+03</pdfrwt>
<totfact> 0.18901820E+02</totfact>
</mgrwt>
</event>
<event>
 4    1  0.5900026E-005  0.4922502E+03  0.7818608E-02  0.1015822E+00
         -2   -1    0    0    0  501 -0.00000000000E+00  0.00000000000E+00  0.12962761261E+03  0.12962761263E+03  0.25500000000E-02 0. -1.
          2   -1    0    0  501    0  0.00000000000E+00 -0.00000000000E+00 -0.46731997745E+03  0.46731997746E+03  0.25500000000E-02 0.  1.
    5000001    1    1    2    0    0 -0.11748445440E+03  0.52373536622E+02 -0.27151745078E+03  0.35655477902E+03  0.19200000000E+03 0.  0.
   -5000001    1    1    2    0    0  0.11748445440E+03 -0.52373536622E+02 -0.66174914059E+02  0.24039281107E+03  0.19200000000E+03 0.  0.
<mgrwt>
<rscale>  0 0.49225023E+03</rscale>
<asrwt>0</asrwt>
<pdfrwt beam="1">  1        2 0.66759996E-01 0.49225023E+03</pdfrwt>
<pdfrwt beam="2">  1       -2 0.18518231E-01 0.49225023E+03</pdfrwt>
<totfact> 0.17630542E+03</totfact>
</mgrwt>
</event>
<event>
 4    1  0.5900026E-005  0.5231297E+03  0.7818608E-02  0.1007912E+00
         -2   -1    0    0    0  501 -0.00000000000E+00  0.00000000000E+00  0.43632185615E+02  0.43632185690E+02  0.25500000000E-02 0. -1.
          2   -1    0    0  501    0  0.00000000000E+00 -0.00000000000E+00 -0.15680204361E+04  0.15680204361E+04  0.25500000000E-02 0.  1.
    5000001    1    1    2    0    0  0.16952411875E+03  0.31634050959E+02 -0.89337280306E+03  0.92990220199E+03  0.19200000000E+03 0.  0.
   -5000001    1    1    2    0    0 -0.16952411875E+03 -0.31634050959E+02 -0.63101544745E+03  0.68175041983E+03  0.19200000000E+03 0.  0.
<mgrwt>
<rscale>  0 0.52312965E+03</rscale>
<asrwt>0</asrwt>
<pdfrwt beam="1">  1        2 0.22400288E+00 0.52312965E+03</pdfrwt>
<pdfrwt beam="2">  1       -2 0.62331703E-02 0.52312965E+03</pdfrwt>
<totfact> 0.19990754E+03</totfact>
</mgrwt>
</event>
<event>
 4    1  0.5900026E-005  0.7126650E+03  0.7818608E-02  0.9695815E-01
          2   -1    0    0  501    0  0.00000000000E+00  0.00000000000E+00  0.11248132255E+04  0.11248132255E+04  0.25500000000E-02 0.  1.
         -2   -1    0    0    0  501 -0.00000000000E+00 -0.00000000000E+00 -0.11288350500E+03  0.11288350503E+03  0.25500000000E-02 0. -1.
    5000001    1    1    2    0    0  0.16309347984E+03 -0.25022019440E+03  0.45388565813E+03  0.57626887779E+03  0.19200000000E+03 0.  0.
   -5000001    1    1    2    0    0 -0.16309347984E+03  0.25022019440E+03  0.55804406240E+03  0.66142785278E+03  0.19200000000E+03 0.  0.
<mgrwt>
<rscale>  0 0.71266502E+03</rscale>
<asrwt>0</asrwt>
<pdfrwt beam="1">  1        2 0.16068760E+00 0.71266502E+03</pdfrwt>
<pdfrwt beam="2">  1       -2 0.16126215E-01 0.71266502E+03</pdfrwt>
<totfact> 0.73564575E+02</totfact>
</mgrwt>
</event>
<event>
 4    1  0.5900026E-005  0.5055947E+03  0.7818608E-02  0.1012329E+00
          2   -1    0    0  501    0  0.00000000000E+00  0.00000000000E+00  0.10530606523E+04  0.10530606523E+04  0.25500000000E-02 0.  1.
         -2   -1    0    0    0  501 -0.00000000000E+00 -0.00000000000E+00 -0.60686437420E+02  0.60686437474E+02  0.25500000000E-02 0. -1.
    5000001    1    1    2    0    0 -0.12880374938E+03 -0.16007285888E+02  0.71861846439E+03  0.75506498821E+03  0.19200000000E+03 0.  0.
   -5000001    1    1    2    0    0  0.12880374938E+03  0.16007285888E+02  0.27375575046E+03  0.35868210154E+03  0.19200000000E+03 0.  0.
<mgrwt>
<rscale>  0 0.50559470E+03</rscale>
<asrwt>0</asrwt>
<pdfrwt beam="1">  1        2 0.15043723E+00 0.50559470E+03</pdfrwt>
<pdfrwt beam="2">  1       -2 0.86694913E-02 0.50559470E+03</pdfrwt>
<totfact> 0.22613983E+03</totfact>
</mgrwt>
</event>
<event>
 4    1  0.5900026E-005  0.6041210E+03  0.7818608E-02  0.9896893E-01
          2   -1    0    0  501    0  0.00000000000E+00  0.00000000000E+00  0.48678180896E+02  0.48678180963E+02  0.25500000000E-02 0.  1.
         -2   -1    0    0    0  501 -0.00000000000E+00 -0.00000000000E+00 -0.18743621533E+04  0.18743621533E+04  0.25500000000E-02 0. -1.
    5000001    1    1    2    0    0  0.21128878458E+03  0.97306133791E+02 -0.86101282929E+03  0.91231492718E+03  0.19200000000E+03 0.  0.
   -5000001    1    1    2    0    0 -0.21128878458E+03 -0.97306133791E+02 -0.96467114314E+03  0.10107254071E+04  0.19200000000E+03 0.  0.
<mgrwt>
<rscale>  0 0.60412098E+03</rscale>
<asrwt>0</asrwt>
<pdfrwt beam="1">  1        2 0.69540270E-02 0.60412098E+03</pdfrwt>
<pdfrwt beam="2">  1       -2 0.26776598E+00 0.60412098E+03</pdfrwt>
<totfact> 0.55639163E+01</totfact>
</mgrwt>
</event>
<event>
 4    1  0.5900026E-005  0.7775365E+03  0.7818608E-02  0.9593114E-01
          2   -1    0    0  501    0  0.00000000000E+00  0.00000000000E+00  0.13442531914E+04  0.13442531914E+04  0.25500000000E-02 0.  1.
         -2   -1    0    0    0  501 -0.00000000000E+00 -0.00000000000E+00 -0.11243474498E+03  0.11243474500E+03  0.25500000000E-02 0. -1.
    5000001    1    1    2    0    0  0.23213858087E+03  0.35816132223E+02  0.16043876445E+03  0.34318466340E+03  0.19200000000E+03 0.  0.
   -5000001    1    1    2    0    0 -0.23213858087E+03 -0.35816132223E+02  0.10713796820E+04  0.11135032730E+04  0.19200000000E+03 0.  0.
<mgrwt>
<rscale>  0 0.77753653E+03</rscale>
<asrwt>0</asrwt>
<pdfrwt beam="1">  1        2 0.19203617E+00 0.77753653E+03</pdfrwt>
<pdfrwt beam="2">  1       -2 0.16062106E-01 0.77753653E+03</pdfrwt>
<totfact> 0.55682570E+02</totfact>
</mgrwt>
</event>
<event>
 4    1  0.5900026E-005  0.9814637E+03  0.7818608E-02  0.9329112E-01
         -2   -1    0    0    0  501 -0.00000000000E+00  0.00000000000E+00  0.17869883183E+04  0.17869883183E+04  0.25500000000E-02 0. -1.
          2   -1    0    0  501    0  0.00000000000E+00 -0.00000000000E+00 -0.13476179670E+03  0.13476179672E+03  0.25500000000E-02 0.  1.
    5000001    1    1    2    0    0 -0.36166161054E+03 -0.26079746907E+03  0.68574292753E+03  0.84019152761E+03  0.19200000000E+03 0.  0.
   -5000001    1    1    2    0    0  0.36166161054E+03  0.26079746907E+03  0.96648359408E+03  0.10815585874E+04  0.19200000000E+03 0.  0.
<mgrwt>
<rscale>  0 0.98146372E+03</rscale>
<asrwt>0</asrwt>
<pdfrwt beam="1">  1        2 0.19251687E-01 0.98146372E+03</pdfrwt>
<pdfrwt beam="2">  1       -2 0.25528402E+00 0.98146372E+03</pdfrwt>
<totfact> 0.17902019E+01</totfact>
</mgrwt>
</event>
<event>
 4    1  0.5900026E-005  0.6130474E+03  0.7818608E-02  0.9878701E-01
         -2   -1    0    0    0  501 -0.00000000000E+00  0.00000000000E+00  0.10761727371E+03  0.10761727374E+03  0.25500000000E-02 0. -1.
          2   -1    0    0  501    0  0.00000000000E+00 -0.00000000000E+00 -0.87306399634E+03  0.87306399635E+03  0.25500000000E-02 0.  1.
    5000001    1    1    2    0    0 -0.15040157238E+03 -0.53062679350E+02 -0.66734322493E+03  0.71249369174E+03  0.19200000000E+03 0.  0.
   -5000001    1    1    2    0    0  0.15040157238E+03  0.53062679350E+02 -0.98103497705E+02  0.26818757834E+03  0.19200000000E+03 0.  0.
<mgrwt>
<rscale>  0 0.61304736E+03</rscale>
<asrwt>0</asrwt>
<pdfrwt beam="1">  1        2 0.12472342E+00 0.61304736E+03</pdfrwt>
<pdfrwt beam="2">  1       -2 0.15373897E-01 0.61304736E+03</pdfrwt>
<totfact> 0.11420174E+03</totfact>
</mgrwt>
</event>
<event>
 4    1  0.5900026E-005  0.9067211E+03  0.7818608E-02  0.9417219E-01
          2   -1    0    0  501    0  0.00000000000E+00  0.00000000000E+00  0.30465093653E+03  0.30465093654E+03  0.25500000000E-02 0.  1.
         -2   -1    0    0    0  501 -0.00000000000E+00 -0.00000000000E+00 -0.67465994798E+03  0.67465994798E+03  0.25500000000E-02 0. -1.
    5000001    1    1    2    0    0 -0.10384144335E+03  0.33004523291E+03  0.53976077722E+02  0.39936238942E+03  0.19200000000E+03 0.  0.
   -5000001    1    1    2    0    0  0.10384144335E+03 -0.33004523291E+03 -0.42398508917E+03  0.57994849509E+03  0.19200000000E+03 0.  0.
<mgrwt>
<rscale>  0 0.90672109E+03</rscale>
<asrwt>0</asrwt>
<pdfrwt beam="1">  1        2 0.43521563E-01 0.90672109E+03</pdfrwt>
<pdfrwt beam="2">  1       -2 0.96379992E-01 0.90672109E+03</pdfrwt>
<totfact> 0.10598420E+02</totfact>
</mgrwt>
</event>
<event>
 4    1  0.5900026E-005  0.1350691E+04  0.7818608E-02  0.8990305E-01
          2   -1    0    0  501    0  0.00000000000E+00  0.00000000000E+00  0.19978534018E+04  0.19978534018E+04  0.25500000000E-02 0.  1.
         -2   -1    0    0    0  501 -0.00000000000E+00 -0.00000000000E+00 -0.22829091857E+03  0.22829091859E+03  0.25500000000E-02 0. -1.
    5000001    1    1    2    0    0 -0.51684732158E+03  0.32326429588E+03  0.12443535235E+04  0.13988962257E+04  0.19200000000E+03 0.  0.
   -5000001    1    1    2    0    0  0.51684732158E+03 -0.32326429588E+03  0.52520895975E+03  0.82724809472E+03  0.19200000000E+03 0.  0.
<mgrwt>
<rscale>  0 0.13506914E+04</rscale>
<asrwt>0</asrwt>
<pdfrwt beam="1">  1        2 0.28540761E+00 0.13506914E+04</pdfrwt>
<pdfrwt beam="2">  1       -2 0.32612990E-01 0.13506914E+04</pdfrwt>
<totfact> 0.68909139E+01</totfact>
</mgrwt>
</event>
<event>
 4    1  0.5900026E-005  0.6221208E+03  0.7818608E-02  0.9860546E-01
         -2   -1    0    0    0  501 -0.00000000000E+00  0.00000000000E+00  0.76333679154E+02  0.76333679197E+02  0.25500000000E-02 0. -1.
          2   -1    0    0  501    0  0.00000000000E+00 -0.00000000000E+00 -0.12675738513E+04  0.12675738513E+04  0.25500000000E-02 0.  1.
    5000001    1    1    2    0    0  0.23018291604E+03  0.73562261304E+02 -0.67925636243E+03  0.74608899404E+03  0.19200000000E+03 0.  0.
   -5000001    1    1    2    0    0 -0.23018291604E+03 -0.73562261304E+02 -0.51198380971E+03  0.59781853645E+03  0.19200000000E+03 0.  0.
<mgrwt>
<rscale>  0 0.62212081E+03</rscale>
<asrwt>0</asrwt>
<pdfrwt beam="1">  1        2 0.18108197E+00 0.62212081E+03</pdfrwt>
<pdfrwt beam="2">  1       -2 0.10904812E-01 0.62212081E+03</pdfrwt>
<totfact> 0.11767629E+03</totfact>
</mgrwt>
</event>
<event>
 4    1  0.5900026E-005  0.4647241E+03  0.7818608E-02  0.1023420E+00
         -2   -1    0    0    0  501 -0.00000000000E+00  0.00000000000E+00  0.78088508767E+02  0.78088508809E+02  0.25500000000E-02 0.  1.
          2   -1    0    0  501    0  0.00000000000E+00 -0.00000000000E+00 -0.69142205965E+03  0.69142205965E+03  0.25500000000E-02 0. -1.
    5000001    1    1    2    0    0 -0.49203544543E+01 -0.12895126370E+03 -0.27056029024E+03  0.35597683766E+03  0.19200000000E+03 0.  0.
   -5000001    1    1    2    0    0  0.49203544543E+01  0.12895126370E+03 -0.34277326064E+03  0.41353373080E+03  0.19200000000E+03 0.  0.
<mgrwt>
<rscale>  0 0.46472408E+03</rscale>
<asrwt>0</asrwt>
<pdfrwt beam="1">  1        2 0.98774576E-01 0.46472408E+03</pdfrwt>
<pdfrwt beam="2">  1       -2 0.11155502E-01 0.46472408E+03</pdfrwt>
<totfact> 0.26086459E+03</totfact>
</mgrwt>
</event>
<event>
 4    1  0.5900026E-005  0.5195365E+03  0.7818608E-02  0.1008802E+00
          2   -1    0    0  501    0  0.00000000000E+00  0.00000000000E+00  0.11410022827E+04  0.11410022827E+04  0.25500000000E-02 0.  1.
         -2   -1    0    0    0  501 -0.00000000000E+00 -0.00000000000E+00 -0.59140585593E+02  0.59140585648E+02  0.25500000000E-02 0. -1.
    5000001    1    1    2    0    0  0.14453274525E+03  0.84438306998E+02  0.65862891238E+03  0.70616965835E+03  0.19200000000E+03 0.  0.
   -5000001    1    1    2    0    0 -0.14453274525E+03 -0.84438306998E+02  0.42323278473E+03  0.49397321001E+03  0.19200000000E+03 0.  0.
<mgrwt>
<rscale>  0 0.51953650E+03</rscale>
<asrwt>0</asrwt>
<pdfrwt beam="1">  1        2 0.16300031E+00 0.51953650E+03</pdfrwt>
<pdfrwt beam="2">  1       -2 0.84486558E-02 0.51953650E+03</pdfrwt>
<totfact> 0.20953898E+03</totfact>
</mgrwt>
</event>
<event>
 4    1  0.5900026E-005  0.9127356E+03  0.7818608E-02  0.9409800E-01
         -2   -1    0    0    0  501 -0.00000000000E+00  0.00000000000E+00  0.14588110907E+03  0.14588110909E+03  0.25500000000E-02 0. -1.
          2   -1    0    0  501    0  0.00000000000E+00 -0.00000000000E+00 -0.14276802812E+04  0.14276802813E+04  0.25500000000E-02 0.  1.
    5000001    1    1    2    0    0  0.10647330154E+03  0.38866090454E+03 -0.80457774175E+03  0.92011043097E+03  0.19200000000E+03 0.  0.
   -5000001    1    1    2    0    0 -0.10647330154E+03 -0.38866090454E+03 -0.47722143043E+03  0.65345095938E+03  0.19200000000E+03 0.  0.
<mgrwt>
<rscale>  0 0.91273563E+03</rscale>
<asrwt>0</asrwt>
<pdfrwt beam="1">  1        2 0.20395432E+00 0.91273563E+03</pdfrwt>
<pdfrwt beam="2">  1       -2 0.20840159E-01 0.91273563E+03</pdfrwt>
<totfact> 0.31756403E+02</totfact>
</mgrwt>
</event>
<event>
 4    1  0.5900026E-005  0.7237611E+03  0.7818608E-02  0.9677439E-01
          2   -1    0    0  501    0  0.00000000000E+00  0.00000000000E+00  0.27064390635E+04  0.27064390635E+04  0.25500000000E-02 0.  1.
         -2   -1    0    0    0  501 -0.00000000000E+00 -0.00000000000E+00 -0.48387398568E+02  0.48387398635E+02  0.25500000000E-02 0. -1.
    5000001    1    1    2    0    0  0.19120691516E+03  0.58714331552E+02  0.22142265848E+04  0.22315176060E+04  0.19200000000E+03 0.  0.
   -5000001    1    1    2    0    0 -0.19120691516E+03 -0.58714331552E+02  0.44382508012E+03  0.52330885611E+03  0.19200000000E+03 0.  0.
<mgrwt>
<rscale>  0 0.72376114E+03</rscale>
<asrwt>0</asrwt>
<pdfrwt beam="1">  1        2 0.38663415E+00 0.72376114E+03</pdfrwt>
<pdfrwt beam="2">  1       -2 0.69124855E-02 0.72376114E+03</pdfrwt>
<totfact> 0.44208332E+02</totfact>
</mgrwt>
</event>
<event>
 4    1  0.5900026E-005  0.5165153E+03  0.7818608E-02  0.1009556E+00
          2   -1    0    0  501    0  0.00000000000E+00  0.00000000000E+00  0.14185000416E+04  0.14185000416E+04  0.25500000000E-02 0.  1.
         -2   -1    0    0    0  501 -0.00000000000E+00 -0.00000000000E+00 -0.47019395652E+02  0.47019395721E+02  0.25500000000E-02 0. -1.
    5000001    1    1    2    0    0 -0.10942218316E+03  0.10212826378E+03  0.44117682314E+03  0.50388925937E+03  0.19200000000E+03 0.  0.
   -5000001    1    1    2    0    0  0.10942218316E+03 -0.10212826378E+03  0.93030382283E+03  0.96163017798E+03  0.19200000000E+03 0.  0.
<mgrwt>
<rscale>  0 0.51651530E+03</rscale>
<asrwt>0</asrwt>
<pdfrwt beam="1">  1        2 0.20264287E+00 0.51651530E+03</pdfrwt>
<pdfrwt beam="2">  1       -2 0.67170562E-02 0.51651530E+03</pdfrwt>
<totfact> 0.21263587E+03</totfact>
</mgrwt>
</event>
<event>
 4    1  0.5900026E-005  0.7510926E+03  0.7818608E-02  0.9633638E-01
          2   -1    0    0  501    0  0.00000000000E+00  0.00000000000E+00  0.71148907719E+03  0.71148907720E+03  0.25500000000E-02 0.  1.
         -2   -1    0    0    0  501 -0.00000000000E+00 -0.00000000000E+00 -0.19822514724E+03  0.19822514726E+03  0.25500000000E-02 0. -1.
    5000001    1    1    2    0    0  0.26247927672E+03 -0.40553679951E+02  0.34514992600E+02  0.32953794376E+03  0.19200000000E+03 0.  0.
   -5000001    1    1    2    0    0 -0.26247927672E+03  0.40553679951E+02  0.47874893735E+03  0.58017628069E+03  0.19200000000E+03 0.  0.
<mgrwt>
<rscale>  0 0.75109261E+03</rscale>
<asrwt>0</asrwt>
<pdfrwt beam="1">  1        2 0.10164130E+00 0.75109261E+03</pdfrwt>
<pdfrwt beam="2">  1       -2 0.28317877E-01 0.75109261E+03</pdfrwt>
<totfact> 0.50509887E+02</totfact>
</mgrwt>
</event>
<event>
 4    1  0.5900026E-005  0.7462785E+03  0.7818608E-02  0.9641207E-01
          2   -1    0    0  501    0  0.00000000000E+00  0.00000000000E+00  0.14194117661E+04  0.14194117661E+04  0.25500000000E-02 0.  1.
         -2   -1    0    0    0  501 -0.00000000000E+00 -0.00000000000E+00 -0.98091970091E+02  0.98091970124E+02  0.25500000000E-02 0. -1.
    5000001    1    1    2    0    0  0.22582252326E+03 -0.18707632047E+03  0.40044833521E+03  0.53218063744E+03  0.19200000000E+03 0.  0.
   -5000001    1    1    2    0    0 -0.22582252326E+03  0.18707632047E+03  0.92087146077E+03  0.98532309876E+03  0.19200000000E+03 0.  0.
<mgrwt>
<rscale>  0 0.74627849E+03</rscale>
<asrwt>0</asrwt>
<pdfrwt beam="1">  1        2 0.20277312E+00 0.74627849E+03</pdfrwt>
<pdfrwt beam="2">  1       -2 0.14013138E-01 0.74627849E+03</pdfrwt>
<totfact> 0.63998711E+02</totfact>
</mgrwt>
</event>
<event>
 4    1  0.5900026E-005  0.6375553E+03  0.7818608E-02  0.9830415E-01
         -2   -1    0    0    0  501 -0.00000000000E+00  0.00000000000E+00  0.40386094476E+03  0.40386094477E+03  0.25500000000E-02 0. -1.
          2   -1    0    0  501    0  0.00000000000E+00 -0.00000000000E+00 -0.25161927672E+03  0.25161927674E+03  0.25500000000E-02 0.  1.
    5000001    1    1    2    0    0 -0.29798334535E+02 -0.24738001505E+03  0.22992187345E+02  0.31540046491E+03  0.19200000000E+03 0.  0.
   -5000001    1    1    2    0    0  0.29798334535E+02  0.24738001505E+03  0.12924948069E+03  0.34007975660E+03  0.19200000000E+03 0.  0.
<mgrwt>
<rscale>  0 0.63755533E+03</rscale>
<asrwt>0</asrwt>
<pdfrwt beam="1">  1        2 0.35945611E-01 0.63755533E+03</pdfrwt>
<pdfrwt beam="2">  1       -2 0.57694421E-01 0.63755533E+03</pdfrwt>
<totfact> 0.41195152E+02</totfact>
</mgrwt>
</event>
<event>
 4    1  0.5900026E-005  0.5449599E+03  0.7818608E-02  0.1002667E+00
         -2   -1    0    0    0  501 -0.00000000000E+00  0.00000000000E+00  0.51868052250E+02  0.51868052313E+02  0.25500000000E-02 0. -1.
          2   -1    0    0  501    0  0.00000000000E+00 -0.00000000000E+00 -0.14314270428E+04  0.14314270428E+04  0.25500000000E-02 0.  1.
    5000001    1    1    2    0    0 -0.12455490177E+03 -0.14130655317E+03 -0.80841771078E+03  0.85198865053E+03  0.19200000000E+03 0.  0.
   -5000001    1    1    2    0    0  0.12455490177E+03  0.14130655317E+03 -0.57114127980E+03  0.63130644462E+03  0.19200000000E+03 0.  0.
<mgrwt>
<rscale>  0 0.54495994E+03</rscale>
<asrwt>0</asrwt>
<pdfrwt beam="1">  1        2 0.20448955E+00 0.54495994E+03</pdfrwt>
<pdfrwt beam="2">  1       -2 0.74097227E-02 0.54495994E+03</pdfrwt>
<totfact> 0.17920397E+03</totfact>
</mgrwt>
</event>
<event>
 4    1  0.5900026E-005  0.6782828E+03  0.7818608E-02  0.9755110E-01
          2   -1    0    0  501    0  0.00000000000E+00  0.00000000000E+00  0.32527653175E+04  0.32527653175E+04  0.25500000000E-02 0.  1.
         -2   -1    0    0    0  501 -0.00000000000E+00 -0.00000000000E+00 -0.35359728811E+02  0.35359728903E+02  0.25500000000E-02 0. -1.
    5000001    1    1    2    0    0 -0.21091113102E+03  0.10806196098E+03  0.23276051959E+04  0.23475031077E+04  0.19200000000E+03 0.  0.
   -5000001    1    1    2    0    0  0.21091113102E+03 -0.10806196098E+03  0.88980039285E+03  0.94062193878E+03  0.19200000000E+03 0.  0.
<mgrwt>
<rscale>  0 0.67828283E+03</rscale>
<asrwt>0</asrwt>
<pdfrwt beam="1">  1        2 0.46468036E+00 0.67828283E+03</pdfrwt>
<pdfrwt beam="2">  1       -2 0.50513942E-02 0.67828283E+03</pdfrwt>
<totfact> 0.36565257E+02</totfact>
</mgrwt>
</event>
<event>
 4    1  0.5900026E-005  0.7925810E+03  0.7818608E-02  0.9570818E-01
         -2   -1    0    0    0  501 -0.00000000000E+00  0.00000000000E+00  0.71513618810E+02  0.71513618855E+02  0.25500000000E-02 0. -1.
          2   -1    0    0  501    0  0.00000000000E+00 -0.00000000000E+00 -0.21960314195E+04  0.21960314195E+04  0.25500000000E-02 0.  1.
    5000001    1    1    2    0    0  0.28378047400E+03  0.66397900358E+02 -0.15993441899E+04  0.16369807197E+04  0.19200000000E+03 0.  0.
   -5000001    1    1    2    0    0 -0.28378047400E+03 -0.66397900358E+02 -0.52517361071E+03  0.63056431867E+03  0.19200000000E+03 0.  0.
<mgrwt>
<rscale>  0 0.79258098E+03</rscale>
<asrwt>0</asrwt>
<pdfrwt beam="1">  1        2 0.31371873E+00 0.79258098E+03</pdfrwt>
<pdfrwt beam="2">  1       -2 0.10216233E-01 0.79258098E+03</pdfrwt>
<totfact> 0.43026697E+02</totfact>
</mgrwt>
</event>
<event>
 4    1  0.5900026E-005  0.4511364E+03  0.7818608E-02  0.1027384E+00
         -2   -1    0    0    0  501 -0.00000000000E+00  0.00000000000E+00  0.81057948676E+02  0.81057948716E+02  0.25500000000E-02 0. -1.
          2   -1    0    0  501    0  0.00000000000E+00 -0.00000000000E+00 -0.62771153262E+03  0.62771153263E+03  0.25500000000E-02 0.  1.
    5000001    1    1    2    0    0  0.10326576875E+03 -0.45610669787E+02 -0.32937825664E+03  0.39761562865E+03  0.19200000000E+03 0.  0.
   -5000001    1    1    2    0    0 -0.10326576875E+03  0.45610669787E+02 -0.21727532731E+03  0.31115385270E+03  0.19200000000E+03 0.  0.
<mgrwt>
<rscale>  0 0.45113638E+03</rscale>
<asrwt>0</asrwt>
<pdfrwt beam="1">  1        2 0.89673073E-01 0.45113638E+03</pdfrwt>
<pdfrwt beam="2">  1       -2 0.11579707E-01 0.45113638E+03</pdfrwt>
<totfact> 0.27539624E+03</totfact>
</mgrwt>
</event>
<event>
 4    1  0.5900026E-005  0.5790480E+03  0.7818608E-02  0.9949854E-01
         -2   -1    0    0    0  501 -0.00000000000E+00  0.00000000000E+00  0.40258533334E+02  0.40258533415E+02  0.25500000000E-02 0. -1.
          2   -1    0    0  501    0  0.00000000000E+00 -0.00000000000E+00 -0.20821457777E+04  0.20821457777E+04  0.25500000000E-02 0.  1.
    5000001    1    1    2    0    0 -0.10726804294E+03 -0.18623247492E+03 -0.91915764475E+03  0.96327760467E+03  0.19200000000E+03 0.  0.
   -5000001    1    1    2    0    0  0.10726804294E+03  0.18623247492E+03 -0.11227295996E+04  0.11591267065E+04  0.19200000000E+03 0.  0.
<mgrwt>
<rscale>  0 0.57904796E+03</rscale>
<asrwt>0</asrwt>
<pdfrwt beam="1">  1        2 0.29744933E+00 0.57904796E+03</pdfrwt>
<pdfrwt beam="2">  1       -2 0.57512203E-02 0.57904796E+03</pdfrwt>
<totfact> 0.12447568E+03</totfact>
</mgrwt>
</event>
<event>
 4    1  0.5900026E-005  0.4769599E+03  0.7818608E-02  0.1019974E+00
         -2   -1    0    0    0  501 -0.00000000000E+00  0.00000000000E+00  0.43871379107E+02  0.43871379181E+02  0.25500000000E-02 0. -1.
          2   -1    0    0  501    0  0.00000000000E+00 -0.00000000000E+00 -0.12963503220E+04  0.12963503220E+04  0.25500000000E-02 0.  1.
    5000001    1    1    2    0    0 -0.88891985074E+02 -0.10318897540E+03 -0.51891183344E+03  0.56980982840E+03  0.19200000000E+03 0.  0.
   -5000001    1    1    2    0    0  0.88891985074E+02  0.10318897540E+03 -0.73356710942E+03  0.77041187275E+03  0.19200000000E+03 0.  0.
<mgrwt>
<rscale>  0 0.47695986E+03</rscale>
<asrwt>0</asrwt>
<pdfrwt beam="1">  1        2 0.18519288E+00 0.47695986E+03</pdfrwt>
<pdfrwt beam="2">  1       -2 0.62673407E-02 0.47695986E+03</pdfrwt>
<totfact> 0.27545659E+03</totfact>
</mgrwt>
</event>
<event>
 4    1  0.5900026E-005  0.5289191E+03  0.7818608E-02  0.1006495E+00
          2   -1    0    0  501    0  0.00000000000E+00  0.00000000000E+00  0.62463803525E+03  0.62463803525E+03  0.25500000000E-02 0.  1.
         -2   -1    0    0    0  501 -0.00000000000E+00 -0.00000000000E+00 -0.11196701117E+03  0.11196701120E+03  0.25500000000E-02 0. -1.
    5000001    1    1    2    0    0 -0.15530731511E+02 -0.17304453653E+03  0.18147769717E+03  0.31620210280E+03  0.19200000000E+03 0.  0.
   -5000001    1    1    2    0    0  0.15530731511E+02  0.17304453653E+03  0.33119332690E+03  0.42040294365E+03  0.19200000000E+03 0.  0.
<mgrwt>
<rscale>  0 0.52891910E+03</rscale>
<asrwt>0</asrwt>
<pdfrwt beam="1">  1        2 0.89234006E-01 0.52891910E+03</pdfrwt>
<pdfrwt beam="2">  1       -2 0.15995287E-01 0.52891910E+03</pdfrwt>
<totfact> 0.16218678E+03</totfact>
</mgrwt>
</event>
<event>
 4    1  0.5900026E-005  0.7671908E+03  0.7818608E-02  0.9608760E-01
          2   -1    0    0  501    0  0.00000000000E+00  0.00000000000E+00  0.32426349568E+04  0.32426349568E+04  0.25500000000E-02 0.  1.
         -2   -1    0    0    0  501 -0.00000000000E+00 -0.00000000000E+00 -0.45378353708E+02  0.45378353780E+02  0.25500000000E-02 0. -1.
    5000001    1    1    2    0    0  0.17956414885E+03  0.27227948382E+03  0.18663451898E+04  0.19043339435E+04  0.19200000000E+03 0.  0.
   -5000001    1    1    2    0    0 -0.17956414885E+03 -0.27227948382E+03  0.13309114133E+04  0.13836793671E+04  0.19200000000E+03 0.  0.
<mgrwt>
<rscale>  0 0.76719081E+03</rscale>
<asrwt>0</asrwt>
<pdfrwt beam="1">  1        2 0.46323360E+00 0.76719081E+03</pdfrwt>
<pdfrwt beam="2">  1       -2 0.64826214E-02 0.76719081E+03</pdfrwt>
<totfact> 0.24825583E+02</totfact>
</mgrwt>
</event>
<event>
 4    1  0.5900026E-005  0.8375820E+03  0.7818608E-02  0.9507157E-01
          2   -1    0    0  501    0  0.00000000000E+00  0.00000000000E+00  0.10235605289E+04  0.10235605290E+04  0.25500000000E-02 0.  1.
         -2   -1    0    0    0  501 -0.00000000000E+00 -0.00000000000E+00 -0.17134881797E+03  0.17134881799E+03  0.25500000000E-02 0. -1.
    5000001    1    1    2    0    0  0.12705294628E+03 -0.25664733064E+03  0.86967914794E+02  0.35558082300E+03  0.19200000000E+03 0.  0.
   -5000001    1    1    2    0    0 -0.12705294628E+03  0.25664733064E+03  0.76524379619E+03  0.83932852393E+03  0.19200000000E+03 0.  0.
<mgrwt>
<rscale>  0 0.83758196E+03</rscale>
<asrwt>0</asrwt>
<pdfrwt beam="1">  1        2 0.14622293E+00 0.83758196E+03</pdfrwt>
<pdfrwt beam="2">  1       -2 0.24478403E-01 0.83758196E+03</pdfrwt>
<totfact> 0.40512505E+02</totfact>
</mgrwt>
</event>
<event>
 4    1  0.5900026E-005  0.4919692E+03  0.7818608E-02  0.1015897E+00
          2   -1    0    0  501    0  0.00000000000E+00  0.00000000000E+00  0.14740930403E+03  0.14740930405E+03  0.25500000000E-02 0.  1.
         -2   -1    0    0    0  501 -0.00000000000E+00 -0.00000000000E+00 -0.41047893794E+03  0.41047893794E+03  0.25500000000E-02 0. -1.
    5000001    1    1    2    0    0  0.36352444575E+02 -0.14904171235E+03 -0.14340018810E+03  0.28453918218E+03  0.19200000000E+03 0.  0.
   -5000001    1    1    2    0    0 -0.36352444575E+02  0.14904171235E+03 -0.11966944580E+03  0.27334905982E+03  0.19200000000E+03 0.  0.
<mgrwt>
<rscale>  0 0.49196916E+03</rscale>
<asrwt>0</asrwt>
<pdfrwt beam="1">  1        2 0.21058472E-01 0.49196916E+03</pdfrwt>
<pdfrwt beam="2">  1       -2 0.58639848E-01 0.49196916E+03</pdfrwt>
<totfact> 0.73092964E+02</totfact>
</mgrwt>
</event>
<event>
 4    1  0.5900026E-005  0.5892180E+03  0.7818608E-02  0.9928031E-01
          2   -1    0    0  501    0  0.00000000000E+00  0.00000000000E+00  0.18794454410E+03  0.18794454412E+03  0.25500000000E-02 0.  1.
         -2   -1    0    0    0  501 -0.00000000000E+00 -0.00000000000E+00 -0.46180883939E+03  0.46180883939E+03  0.25500000000E-02 0. -1.
    5000001    1    1    2    0    0  0.66415477006E+02  0.21075142494E+03 -0.17356022176E+03  0.34031504415E+03  0.19200000000E+03 0.  0.
   -5000001    1    1    2    0    0 -0.66415477006E+02 -0.21075142494E+03 -0.10030407353E+03  0.30943833936E+03  0.19200000000E+03 0.  0.
<mgrwt>
<rscale>  0 0.58921796E+03</rscale>
<asrwt>0</asrwt>
<pdfrwt beam="1">  1        2 0.26849221E-01 0.58921796E+03</pdfrwt>
<pdfrwt beam="2">  1       -2 0.65972691E-01 0.58921796E+03</pdfrwt>
<totfact> 0.43081458E+02</totfact>
</mgrwt>
</event>
<event>
 4    1  0.5900026E-005  0.5417566E+03  0.7818608E-02  0.1003420E+00
         -2   -1    0    0    0  501 -0.00000000000E+00  0.00000000000E+00  0.97709751027E+02  0.97709751060E+02  0.25500000000E-02 0. -1.
          2   -1    0    0  501    0  0.00000000000E+00 -0.00000000000E+00 -0.75094927370E+03  0.75094927371E+03  0.25500000000E-02 0.  1.
    5000001    1    1    2    0    0 -0.10409130865E+02 -0.11325719989E+03 -0.86095076446E+02  0.23919010331E+03  0.19200000000E+03 0.  0.
   -5000001    1    1    2    0    0  0.10409130865E+02  0.11325719989E+03 -0.56714444623E+03  0.60946892146E+03  0.19200000000E+03 0.  0.
<mgrwt>
<rscale>  0 0.54175665E+03</rscale>
<asrwt>0</asrwt>
<pdfrwt beam="1">  1        2 0.10727846E+00 0.54175665E+03</pdfrwt>
<pdfrwt beam="2">  1       -2 0.13958536E-01 0.54175665E+03</pdfrwt>
<totfact> 0.16305623E+03</totfact>
</mgrwt>
</event>
<event>
 4    1  0.5900026E-005  0.9573518E+03  0.7818608E-02  0.9356598E-01
         -2   -1    0    0    0  501 -0.00000000000E+00  0.00000000000E+00  0.27477809881E+03  0.27477809882E+03  0.25500000000E-02 0. -1.
          2   -1    0    0  501    0  0.00000000000E+00 -0.00000000000E+00 -0.83387512639E+03  0.83387512640E+03  0.25500000000E-02 0.  1.
    5000001    1    1    2    0    0 -0.34819692261E+03 -0.26633346543E+03 -0.29065667193E+03  0.55992848888E+03  0.19200000000E+03 0.  0.
   -5000001    1    1    2    0    0  0.34819692261E+03  0.26633346543E+03 -0.26844035565E+03  0.54872473634E+03  0.19200000000E+03 0.  0.
<mgrwt>
<rscale>  0 0.95735181E+03</rscale>
<asrwt>0</asrwt>
<pdfrwt beam="1">  1        2 0.11912502E+00 0.95735181E+03</pdfrwt>
<pdfrwt beam="2">  1       -2 0.39254014E-01 0.95735181E+03</pdfrwt>
<totfact> 0.22067978E+02</totfact>
</mgrwt>
</event>
<event>
 4    1  0.5900026E-005  0.8972343E+03  0.7818608E-02  0.9429045E-01
         -2   -1    0    0    0  501 -0.00000000000E+00  0.00000000000E+00  0.21609615515E+03  0.21609615517E+03  0.25500000000E-02 0. -1.
          2   -1    0    0  501    0  0.00000000000E+00 -0.00000000000E+00 -0.93133245531E+03  0.93133245532E+03  0.25500000000E-02 0.  1.
    5000001    1    1    2    0    0 -0.13210038168E+03  0.37322999877E+03 -0.24582130273E+03  0.50402703866E+03  0.19200000000E+03 0.  0.
   -5000001    1    1    2    0    0  0.13210038168E+03 -0.37322999877E+03 -0.46941499743E+03  0.64340157183E+03  0.19200000000E+03 0.  0.
<mgrwt>
<rscale>  0 0.89723433E+03</rscale>
<asrwt>0</asrwt>
<pdfrwt beam="1">  1        2 0.13304749E+00 0.89723433E+03</pdfrwt>
<pdfrwt beam="2">  1       -2 0.30870880E-01 0.89723433E+03</pdfrwt>
<totfact> 0.30152985E+02</totfact>
</mgrwt>
</event>
<event>
 4    1  0.5900026E-005  0.4244469E+03  0.7818608E-02  0.1035629E+00
          2   -1    0    0  501    0  0.00000000000E+00  0.00000000000E+00  0.82255151760E+03  0.82255151760E+03  0.25500000000E-02 0.  1.
         -2   -1    0    0    0  501 -0.00000000000E+00 -0.00000000000E+00 -0.54754977143E+02  0.54754977202E+02  0.25500000000E-02 0. -1.
    5000001    1    1    2    0    0  0.15582967876E+02  0.88940515598E+02  0.39349238639E+03  0.44704977614E+03  0.19200000000E+03 0.  0.
   -5000001    1    1    2    0    0 -0.15582967876E+02 -0.88940515598E+02  0.37430415407E+03  0.43025671866E+03  0.19200000000E+03 0.  0.
<mgrwt>
<rscale>  0 0.42444689E+03</rscale>
<asrwt>0</asrwt>
<pdfrwt beam="1">  1        2 0.11750735E+00 0.42444689E+03</pdfrwt>
<pdfrwt beam="2">  1       -2 0.78221402E-02 0.42444689E+03</pdfrwt>
<totfact> 0.37104264E+03</totfact>
</mgrwt>
</event>
<event>
 4    1  0.5900026E-005  0.4212676E+03  0.7818608E-02  0.1036655E+00
          2   -1    0    0  501    0  0.00000000000E+00  0.00000000000E+00  0.59349939333E+03  0.59349939334E+03  0.25500000000E-02 0.  1.
         -2   -1    0    0    0  501 -0.00000000000E+00 -0.00000000000E+00 -0.74754230799E+02  0.74754230842E+02  0.25500000000E-02 0. -1.
    5000001    1    1    2    0    0 -0.24205537644E+02  0.80674310999E+02  0.29142739593E+03  0.35900999931E+03  0.19200000000E+03 0.  0.
   -5000001    1    1    2    0    0  0.24205537644E+02 -0.80674310999E+02  0.22731776660E+03  0.30924362487E+03  0.19200000000E+03 0.  0.
<mgrwt>
<rscale>  0 0.42126757E+03</rscale>
<asrwt>0</asrwt>
<pdfrwt beam="1">  1        2 0.84785627E-01 0.42126757E+03</pdfrwt>
<pdfrwt beam="2">  1       -2 0.10679176E-01 0.42126757E+03</pdfrwt>
<totfact> 0.33503734E+03</totfact>
</mgrwt>
</event>
<event>
 4    1  0.5900026E-005  0.6191303E+03  0.7818608E-02  0.9866493E-01
          2   -1    0    0  501    0  0.00000000000E+00  0.00000000000E+00  0.11522185648E+04  0.11522185648E+04  0.25500000000E-02 0.  1.
         -2   -1    0    0    0  501 -0.00000000000E+00 -0.00000000000E+00 -0.83170494427E+02  0.83170494466E+02  0.25500000000E-02 0. -1.
    5000001    1    1    2    0    0  0.21206095132E+03  0.11178771631E+03  0.61181043653E+03  0.68457457654E+03  0.19200000000E+03 0.  0.
   -5000001    1    1    2    0    0 -0.21206095132E+03 -0.11178771631E+03  0.45723763388E+03  0.55081448277E+03  0.19200000000E+03 0.  0.
<mgrwt>
<rscale>  0 0.61913032E+03</rscale>
<asrwt>0</asrwt>
<pdfrwt beam="1">  1        2 0.16460264E+00 0.61913032E+03</pdfrwt>
<pdfrwt beam="2">  1       -2 0.11881500E-01 0.61913032E+03</pdfrwt>
<totfact> 0.11862911E+03</totfact>
</mgrwt>
</event>
<event>
 4    1  0.5900026E-005  0.4371343E+03  0.7818608E-02  0.1031630E+00
          2   -1    0    0  501    0  0.00000000000E+00  0.00000000000E+00  0.18271005713E+04  0.18271005713E+04  0.25500000000E-02 0.  1.
         -2   -1    0    0    0  501 -0.00000000000E+00 -0.00000000000E+00 -0.26146126136E+02  0.26146126261E+02  0.25500000000E-02 0. -1.
    5000001    1    1    2    0    0 -0.49451842763E+02  0.75321211809E+02  0.11243645670E+04  0.11441933618E+04  0.19200000000E+03 0.  0.
   -5000001    1    1    2    0    0  0.49451842763E+02 -0.75321211809E+02  0.67658987821E+03  0.70905333579E+03  0.19200000000E+03 0.  0.
<mgrwt>
<rscale>  0 0.43713431E+03</rscale>
<asrwt>0</asrwt>
<pdfrwt beam="1">  1        2 0.26101445E+00 0.43713431E+03</pdfrwt>
<pdfrwt beam="2">  1       -2 0.37351598E-02 0.43713431E+03</pdfrwt>
<totfact> 0.32631292E+03</totfact>
</mgrwt>
</event>
<event>
 4    1  0.5900026E-005  0.8903005E+03  0.7818608E-02  0.9437788E-01
          2   -1    0    0  501    0  0.00000000000E+00  0.00000000000E+00  0.24764938111E+04  0.24764938111E+04  0.25500000000E-02 0.  1.
         -2   -1    0    0    0  501 -0.00000000000E+00 -0.00000000000E+00 -0.80015838571E+02  0.80015838612E+02  0.25500000000E-02 0. -1.
    5000001    1    1    2    0    0 -0.99499779950E+01  0.38902230760E+03  0.91314281035E+03  0.10110050198E+04  0.19200000000E+03 0.  0.
   -5000001    1    1    2    0    0  0.99499779950E+01 -0.38902230760E+03  0.14833351622E+04  0.15455046300E+04  0.19200000000E+03 0.  0.
<mgrwt>
<rscale>  0 0.89030046E+03</rscale>
<asrwt>0</asrwt>
<pdfrwt beam="1">  1        2 0.35378478E+00 0.89030046E+03</pdfrwt>
<pdfrwt beam="2">  1       -2 0.11430836E-01 0.89030046E+03</pdfrwt>
<totfact> 0.25506813E+02</totfact>
</mgrwt>
</event>
<event>
 4    1  0.5900026E-005  0.4877500E+03  0.7818608E-02  0.1017027E+00
          2   -1    0    0  501    0  0.00000000000E+00  0.00000000000E+00  0.36549614083E+03  0.36549614084E+03  0.25500000000E-02 0.  1.
         -2   -1    0    0    0  501 -0.00000000000E+00 -0.00000000000E+00 -0.16272409182E+03  0.16272409184E+03  0.25500000000E-02 0. -1.
    5000001    1    1    2    0    0  0.61839403818E+02  0.10973508073E+03  0.12442814132E+02  0.22996678767E+03  0.19200000000E+03 0.  0.
   -5000001    1    1    2    0    0 -0.61839403818E+02 -0.10973508073E+03  0.19032923489E+03  0.29825344501E+03  0.19200000000E+03 0.  0.
<mgrwt>
<rscale>  0 0.48775005E+03</rscale>
<asrwt>0</asrwt>
<pdfrwt beam="1">  1        2 0.52213735E-01 0.48775005E+03</pdfrwt>
<pdfrwt beam="2">  1       -2 0.23246299E-01 0.48775005E+03</pdfrwt>
<totfact> 0.15574501E+03</totfact>
</mgrwt>
</event>
<event>
 4    1  0.5900026E-005  0.4273943E+03  0.7818608E-02  0.1034686E+00
         -2   -1    0    0    0  501 -0.00000000000E+00  0.00000000000E+00  0.23670655156E+02  0.23670655293E+02  0.25500000000E-02 0. -1.
          2   -1    0    0  501    0  0.00000000000E+00 -0.00000000000E+00 -0.19292445444E+04  0.19292445444E+04  0.25500000000E-02 0.  1.
    5000001    1    1    2    0    0  0.76973942703E+02 -0.15174297751E+02 -0.71768789066E+03  0.74705766549E+03  0.19200000000E+03 0.  0.
   -5000001    1    1    2    0    0 -0.76973942703E+02  0.15174297751E+02 -0.11878859986E+04  0.12058575342E+04  0.19200000000E+03 0.  0.
<mgrwt>
<rscale>  0 0.42739435E+03</rscale>
<asrwt>0</asrwt>
<pdfrwt beam="1">  1        2 0.27560626E+00 0.42739435E+03</pdfrwt>
<pdfrwt beam="2">  1       -2 0.33815234E-02 0.42739435E+03</pdfrwt>
<totfact> 0.33763972E+03</totfact>
</mgrwt>
</event>
<event>
 4    1  0.5900026E-005  0.6665375E+03  0.7818608E-02  0.9776233E-01
         -2   -1    0    0    0  501 -0.00000000000E+00  0.00000000000E+00  0.69572800671E+02  0.69572800718E+02  0.25500000000E-02 0. -1.
          2   -1    0    0  501    0  0.00000000000E+00 -0.00000000000E+00 -0.15964291655E+04  0.15964291656E+04  0.25500000000E-02 0.  1.
    5000001    1    1    2    0    0  0.11792912519E+03 -0.18974196047E+03 -0.11530176730E+04  0.11900516982E+04  0.19200000000E+03 0.  0.
   -5000001    1    1    2    0    0 -0.11792912519E+03  0.18974196047E+03 -0.37383869188E+03  0.47595026808E+03  0.19200000000E+03 0.  0.
<mgrwt>
<rscale>  0 0.66653747E+03</rscale>
<asrwt>0</asrwt>
<pdfrwt beam="1">  1        2 0.22806129E+00 0.66653747E+03</pdfrwt>
<pdfrwt beam="2">  1       -2 0.99389726E-02 0.66653747E+03</pdfrwt>
<totfact> 0.91445674E+02</totfact>
</mgrwt>
</event>
<event>
 4    1  0.5900026E-005  0.8676195E+03  0.7818608E-02  0.9466989E-01
         -2   -1    0    0    0  501 -0.00000000000E+00  0.00000000000E+00  0.11690960433E+03  0.11690960436E+03  0.25500000000E-02 0. -1.
          2   -1    0    0  501    0  0.00000000000E+00 -0.00000000000E+00 -0.16097129021E+04  0.16097129021E+04  0.25500000000E-02 0.  1.
    5000001    1    1    2    0    0 -0.20805902644E+03 -0.21799495926E+03 -0.25684254543E+03  0.44004824041E+03  0.19200000000E+03 0.  0.
   -5000001    1    1    2    0    0  0.20805902644E+03  0.21799495926E+03 -0.12359607523E+04  0.12865742661E+04  0.19200000000E+03 0.  0.
<mgrwt>
<rscale>  0 0.86761950E+03</rscale>
<asrwt>0</asrwt>
<pdfrwt beam="1">  1        2 0.22995897E+00 0.86761950E+03</pdfrwt>
<pdfrwt beam="2">  1       -2 0.16701373E-01 0.86761950E+03</pdfrwt>
<totfact> 0.37508420E+02</totfact>
</mgrwt>
</event>
<event>
 4    1  0.5900026E-005  0.1578712E+04  0.7818608E-02  0.8833734E-01
          2   -1    0    0  501    0  0.00000000000E+00  0.00000000000E+00  0.42626819399E+03  0.42626819400E+03  0.25500000000E-02 0.  1.
         -2   -1    0    0    0  501 -0.00000000000E+00 -0.00000000000E+00 -0.14617152428E+04  0.14617152428E+04  0.25500000000E-02 0. -1.
    5000001    1    1    2    0    0  0.49761575410E+03  0.11583526625E+03  0.16423331714E+03  0.56997879793E+03  0.19200000000E+03 0.  0.
   -5000001    1    1    2    0    0 -0.49761575410E+03 -0.11583526625E+03 -0.11996803659E+04  0.13180046388E+04  0.19200000000E+03 0.  0.
<mgrwt>
<rscale>  0 0.15787118E+04</rscale>
<asrwt>0</asrwt>
<pdfrwt beam="1">  1        2 0.60895457E-01 0.15787118E+04</pdfrwt>
<pdfrwt beam="2">  1       -2 0.20881646E+00 0.15787118E+04</pdfrwt>
<totfact> 0.90236591E+00</totfact>
</mgrwt>
</event>
<event>
 4    1  0.5900026E-005  0.6860614E+03  0.7818608E-02  0.9741371E-01
         -2   -1    0    0    0  501 -0.00000000000E+00  0.00000000000E+00  0.67491383069E+02  0.67491383117E+02  0.25500000000E-02 0. -1.
          2   -1    0    0  501    0  0.00000000000E+00 -0.00000000000E+00 -0.17434825114E+04  0.17434825114E+04  0.25500000000E-02 0.  1.
    5000001    1    1    2    0    0 -0.43241396483E+02  0.19415718894E+03 -0.30194665009E+03  0.40939297977E+03  0.19200000000E+03 0.  0.
   -5000001    1    1    2    0    0  0.43241396483E+02 -0.19415718894E+03 -0.13740444782E+04  0.14015809147E+04  0.19200000000E+03 0.  0.
<mgrwt>
<rscale>  0 0.68606136E+03</rscale>
<asrwt>0</asrwt>
<pdfrwt beam="1">  1        2 0.24906890E+00 0.68606136E+03</pdfrwt>
<pdfrwt beam="2">  1       -2 0.96416273E-02 0.68606136E+03</pdfrwt>
<totfact> 0.80687591E+02</totfact>
</mgrwt>
</event>
<event>
 4    1  0.5900026E-005  0.4086709E+03  0.7818608E-02  0.1040818E+00
          2   -1    0    0  501    0  0.00000000000E+00  0.00000000000E+00  0.10343558960E+04  0.10343558960E+04  0.25500000000E-02 0.  1.
         -2   -1    0    0    0  501 -0.00000000000E+00 -0.00000000000E+00 -0.40366160236E+02  0.40366160316E+02  0.25500000000E-02 0. -1.
    5000001    1    1    2    0    0  0.50604598283E+02 -0.17626856739E+02  0.61511481402E+03  0.64660789190E+03  0.19200000000E+03 0.  0.
   -5000001    1    1    2    0    0 -0.50604598283E+02  0.17626856739E+02  0.37887492174E+03  0.42811416441E+03  0.19200000000E+03 0.  0.
<mgrwt>
<rscale>  0 0.40867090E+03</rscale>
<asrwt>0</asrwt>
<pdfrwt beam="1">  1        2 0.14776515E+00 0.40867090E+03</pdfrwt>
<pdfrwt beam="2">  1       -2 0.57665935E-02 0.40867090E+03</pdfrwt>
<totfact> 0.43980159E+03</totfact>
</mgrwt>
</event>
<event>
 4    1  0.5900026E-005  0.5122458E+03  0.7818608E-02  0.1010631E+00
         -2   -1    0    0    0  501 -0.00000000000E+00  0.00000000000E+00  0.50458308760E+02  0.50458308825E+02  0.25500000000E-02 0. -1.
          2   -1    0    0  501    0  0.00000000000E+00 -0.00000000000E+00 -0.13000623324E+04  0.13000623324E+04  0.25500000000E-02 0.  1.
    5000001    1    1    2    0    0 -0.72915633163E+02  0.14646199542E+03 -0.74173593985E+03  0.78345645069E+03  0.19200000000E+03 0.  0.
   -5000001    1    1    2    0    0  0.72915633163E+02 -0.14646199542E+03 -0.50786808382E+03  0.56706419057E+03  0.19200000000E+03 0.  0.
<mgrwt>
<rscale>  0 0.51224583E+03</rscale>
<asrwt>0</asrwt>
<pdfrwt beam="1">  1        2 0.18572317E+00 0.51224583E+03</pdfrwt>
<pdfrwt beam="2">  1       -2 0.72083306E-02 0.51224583E+03</pdfrwt>
<totfact> 0.22005811E+03</totfact>
</mgrwt>
</event>
<event>
 4    1  0.5900026E-005  0.7012212E+03  0.7818608E-02  0.9715146E-01
          2   -1    0    0  501    0  0.00000000000E+00  0.00000000000E+00  0.32585384820E+04  0.32585384820E+04  0.25500000000E-02 0.  1.
         -2   -1    0    0    0  501 -0.00000000000E+00 -0.00000000000E+00 -0.37724824751E+02  0.37724824837E+02  0.25500000000E-02 0. -1.
    5000001    1    1    2    0    0  0.91015101499E+02  0.26969018346E+03  0.12764469864E+04  0.13218159678E+04  0.19200000000E+03 0.  0.
   -5000001    1    1    2    0    0 -0.91015101499E+02 -0.26969018346E+03  0.19443666709E+04  0.19744473390E+04  0.19200000000E+03 0.  0.
<mgrwt>
<rscale>  0 0.70122120E+03</rscale>
<asrwt>0</asrwt>
<pdfrwt beam="1">  1        2 0.46550563E+00 0.70122120E+03</pdfrwt>
<pdfrwt beam="2">  1       -2 0.53892591E-02 0.70122120E+03</pdfrwt>
<totfact> 0.32724274E+02</totfact>
</mgrwt>
</event>
<event>
 4    1  0.5900026E-005  0.5541958E+03  0.7818608E-02  0.1000527E+00
          2   -1    0    0  501    0  0.00000000000E+00  0.00000000000E+00  0.18748632734E+04  0.18748632734E+04  0.25500000000E-02 0.  1.
         -2   -1    0    0    0  501 -0.00000000000E+00 -0.00000000000E+00 -0.40954052269E+02  0.40954052348E+02  0.25500000000E-02 0. -1.
    5000001    1    1    2    0    0  0.18856870877E+03 -0.34997324001E+02  0.72335782926E+03  0.77258884263E+03  0.19200000000E+03 0.  0.
   -5000001    1    1    2    0    0 -0.18856870877E+03  0.34997324001E+02  0.11105513919E+04  0.11432284831E+04  0.19200000000E+03 0.  0.
<mgrwt>
<rscale>  0 0.55419581E+03</rscale>
<asrwt>0</asrwt>
<pdfrwt beam="1">  1        2 0.26783764E+00 0.55419581E+03</pdfrwt>
<pdfrwt beam="2">  1       -2 0.58505783E-02 0.55419581E+03</pdfrwt>
<totfact> 0.15415206E+03</totfact>
</mgrwt>
</event>
<event>
 4    1  0.5900026E-005  0.4042351E+03  0.7818608E-02  0.1042323E+00
          2   -1    0    0  501    0  0.00000000000E+00  0.00000000000E+00  0.24133038910E+04  0.24133038910E+04  0.25500000000E-02 0. -1.
         -2   -1    0    0    0  501 -0.00000000000E+00 -0.00000000000E+00 -0.16927625028E+02  0.16927625220E+02  0.25500000000E-02 0.  1.
    5000001    1    1    2    0    0 -0.62826740001E+02  0.56226977538E+01  0.12159101565E+04  0.12325908983E+04  0.19200000000E+03 0.  0.
   -5000001    1    1    2    0    0  0.62826740001E+02 -0.56226977538E+01  0.11804661095E+04  0.11976406179E+04  0.19200000000E+03 0.  0.
<mgrwt>
<rscale>  0 0.40423510E+03</rscale>
<asrwt>0</asrwt>
<pdfrwt beam="1">  1        2 0.34475767E+00 0.40423510E+03</pdfrwt>
<pdfrwt beam="2">  1       -2 0.24182324E-02 0.40423510E+03</pdfrwt>
<totfact> 0.32129919E+03</totfact>
</mgrwt>
</event>
<event>
 4    1  0.5900026E-005  0.4711352E+03  0.7818608E-02  0.1021600E+00
         -2   -1    0    0    0  501 -0.00000000000E+00  0.00000000000E+00  0.33826325740E+02  0.33826325836E+02  0.25500000000E-02 0. -1.
          2   -1    0    0  501    0  0.00000000000E+00 -0.00000000000E+00 -0.16405000125E+04  0.16405000125E+04  0.25500000000E-02 0.  1.
    5000001    1    1    2    0    0  0.12512585376E+03 -0.26060340480E+02 -0.97349240604E+03  0.10004434443E+04  0.19200000000E+03 0.  0.
   -5000001    1    1    2    0    0 -0.12512585376E+03  0.26060340480E+02 -0.63318128073E+03  0.67388289405E+03  0.19200000000E+03 0.  0.
<mgrwt>
<rscale>  0 0.47113517E+03</rscale>
<asrwt>0</asrwt>
<pdfrwt beam="1">  1        2 0.23435709E+00 0.47113517E+03</pdfrwt>
<pdfrwt beam="2">  1       -2 0.48323333E-02 0.47113517E+03</pdfrwt>
<totfact> 0.27286701E+03</totfact>
</mgrwt>
</event>
<event>
 4    1  0.5900026E-005  0.5893417E+03  0.7818608E-02  0.9927769E-01
         -2   -1    0    0    0  501 -0.00000000000E+00  0.00000000000E+00  0.43258734168E+03  0.43258734169E+03  0.25500000000E-02 0. -1.
          2   -1    0    0  501    0  0.00000000000E+00 -0.00000000000E+00 -0.20072460352E+03  0.20072460354E+03  0.25500000000E-02 0.  1.
    5000001    1    1    2    0    0 -0.10243160331E+03 -0.18987860105E+03  0.17878273331E+03  0.33966657508E+03  0.19200000000E+03 0.  0.
   -5000001    1    1    2    0    0  0.10243160331E+03  0.18987860105E+03  0.53080004845E+02  0.29364537015E+03  0.19200000000E+03 0.  0.
<mgrwt>
<rscale>  0 0.58934174E+03</rscale>
<asrwt>0</asrwt>
<pdfrwt beam="1">  1        2 0.28674944E-01 0.58934174E+03</pdfrwt>
<pdfrwt beam="2">  1       -2 0.61798191E-01 0.58934174E+03</pdfrwt>
<totfact> 0.45965729E+02</totfact>
</mgrwt>
</event>
<event>
 4    1  0.5900026E-005  0.8802847E+03  0.7818608E-02  0.9450568E-01
         -2   -1    0    0    0  501 -0.00000000000E+00  0.00000000000E+00  0.14677749884E+03  0.14677749886E+03  0.25500000000E-02 0. -1.
          2   -1    0    0  501    0  0.00000000000E+00 -0.00000000000E+00 -0.13198568680E+04  0.13198568680E+04  0.25500000000E-02 0.  1.
    5000001    1    1    2    0    0  0.35177016525E+03  0.17250456674E+03 -0.68313295333E+03  0.81057677405E+03  0.19200000000E+03 0.  0.
   -5000001    1    1    2    0    0 -0.35177016525E+03 -0.17250456674E+03 -0.48994641584E+03  0.65605759282E+03  0.19200000000E+03 0.  0.
<mgrwt>
<rscale>  0 0.88028470E+03</rscale>
<asrwt>0</asrwt>
<pdfrwt beam="1">  1        2 0.18855097E+00 0.88028470E+03</pdfrwt>
<pdfrwt beam="2">  1       -2 0.20968215E-01 0.88028470E+03</pdfrwt>
<totfact> 0.35995561E+02</totfact>
</mgrwt>
</event>
<event>
 4    1  0.5900026E-005  0.7959293E+03  0.7818608E-02  0.9565928E-01
         -2   -1    0    0    0  501 -0.00000000000E+00  0.00000000000E+00  0.98958787006E+02  0.98958787039E+02  0.25500000000E-02 0. -1.
          2   -1    0    0  501    0  0.00000000000E+00 -0.00000000000E+00 -0.16004222562E+04  0.16004222562E+04  0.25500000000E-02 0.  1.
    5000001    1    1    2    0    0 -0.60867811380E+02  0.32076396948E+03 -0.48995831972E+03  0.61928795373E+03  0.19200000000E+03 0.  0.
   -5000001    1    1    2    0    0  0.60867811380E+02 -0.32076396948E+03 -0.10115051495E+04  0.10800930895E+04  0.19200000000E+03 0.  0.
<mgrwt>
<rscale>  0 0.79592926E+03</rscale>
<asrwt>0</asrwt>
<pdfrwt beam="1">  1        2 0.22863174E+00 0.79592926E+03</pdfrwt>
<pdfrwt beam="2">  1       -2 0.14136971E-01 0.79592926E+03</pdfrwt>
<totfact> 0.50535361E+02</totfact>
</mgrwt>
</event>
<event>
 4    1  0.5900026E-005  0.4202473E+03  0.7818608E-02  0.1036986E+00
          2   -1    0    0  501    0  0.00000000000E+00  0.00000000000E+00  0.41163759118E+04  0.41163759118E+04  0.25500000000E-02 0.  1.
         -2   -1    0    0    0  501 -0.00000000000E+00 -0.00000000000E+00 -0.10725925934E+02  0.10725926238E+02  0.25500000000E-02 0. -1.
    5000001    1    1    2    0    0 -0.76893961316E+02 -0.28367289460E+02  0.22874048404E+04  0.22969114672E+04  0.19200000000E+03 0.  0.
   -5000001    1    1    2    0    0  0.76893961316E+02  0.28367289460E+02  0.18182451455E+04  0.18301903708E+04  0.19200000000E+03 0.  0.
<mgrwt>
<rscale>  0 0.42024728E+03</rscale>
<asrwt>0</asrwt>
<pdfrwt beam="1">  1        2 0.58805384E+00 0.42024728E+03</pdfrwt>
<pdfrwt beam="2">  1       -2 0.15322748E-02 0.42024728E+03</pdfrwt>
<totfact> 0.67285081E+02</totfact>
</mgrwt>
</event>
<event>
 4    1  0.5900026E-005  0.7675573E+03  0.7818608E-02  0.9608201E-01
          2   -1    0    0  501    0  0.00000000000E+00  0.00000000000E+00  0.92254982604E+03  0.92254982604E+03  0.25500000000E-02 0. -1.
         -2   -1    0    0    0  501 -0.00000000000E+00 -0.00000000000E+00 -0.15965104065E+03  0.15965104067E+03  0.25500000000E-02 0.  1.
    5000001    1    1    2    0    0 -0.31518699191E+03 -0.95586676649E+02  0.44358849707E+03  0.58490546873E+03  0.19200000000E+03 0.  0.
   -5000001    1    1    2    0    0  0.31518699191E+03  0.95586676649E+02  0.31931028833E+03  0.49729539798E+03  0.19200000000E+03 0.  0.
<mgrwt>
<rscale>  0 0.76755727E+03</rscale>
<asrwt>0</asrwt>
<pdfrwt beam="1">  1        2 0.13179283E+00 0.76755727E+03</pdfrwt>
<pdfrwt beam="2">  1       -2 0.22807291E-01 0.76755727E+03</pdfrwt>
<totfact> 0.53315001E+02</totfact>
</mgrwt>
</event>
<event>
 4    1  0.5900026E-005  0.7513975E+03  0.7818608E-02  0.9633161E-01
          2   -1    0    0  501    0  0.00000000000E+00  0.00000000000E+00  0.72841764986E+03  0.72841764987E+03  0.25500000000E-02 0.  1.
         -2   -1    0    0    0  501 -0.00000000000E+00 -0.00000000000E+00 -0.19377555703E+03  0.19377555705E+03  0.25500000000E-02 0. -1.
    5000001    1    1    2    0    0 -0.17111811806E+03 -0.18204283909E+03  0.16204513107E+02  0.31551163503E+03  0.19200000000E+03 0.  0.
   -5000001    1    1    2    0    0  0.17111811806E+03  0.18204283909E+03  0.51843757973E+03  0.60668157189E+03  0.19200000000E+03 0.  0.
<mgrwt>
<rscale>  0 0.75139746E+03</rscale>
<asrwt>0</asrwt>
<pdfrwt beam="1">  1        2 0.10405967E+00 0.75139746E+03</pdfrwt>
<pdfrwt beam="2">  1       -2 0.27682222E-01 0.75139746E+03</pdfrwt>
<totfact> 0.51140654E+02</totfact>
</mgrwt>
</event>
<event>
 4    1  0.5900026E-005  0.6151333E+03  0.7818608E-02  0.9874497E-01
         -2   -1    0    0    0  501 -0.00000000000E+00  0.00000000000E+00  0.48834675595E+02  0.48834675662E+02  0.25500000000E-02 0. -1.
          2   -1    0    0  501    0  0.00000000000E+00 -0.00000000000E+00 -0.19370915762E+04  0.19370915762E+04  0.25500000000E-02 0.  1.
    5000001    1    1    2    0    0  0.12595880463E+03  0.19324408228E+03 -0.72697254113E+03  0.78648710820E+03  0.19200000000E+03 0.  0.
   -5000001    1    1    2    0    0 -0.12595880463E+03 -0.19324408228E+03 -0.11612843595E+04  0.11994391436E+04  0.19200000000E+03 0.  0.
<mgrwt>
<rscale>  0 0.61513328E+03</rscale>
<asrwt>0</asrwt>
<pdfrwt beam="1">  1        2 0.27672732E+00 0.61513328E+03</pdfrwt>
<pdfrwt beam="2">  1       -2 0.69763835E-02 0.61513328E+03</pdfrwt>
<totfact> 0.10847420E+03</totfact>
</mgrwt>
</event>
<event>
 4    1  0.5900026E-005  0.6238395E+03  0.7818608E-02  0.9857145E-01
         -2   -1    0    0    0  501 -0.00000000000E+00  0.00000000000E+00  0.47232853057E+02  0.47232853126E+02  0.25500000000E-02 0. -1.
          2   -1    0    0  501    0  0.00000000000E+00 -0.00000000000E+00 -0.20598784748E+04  0.20598784748E+04  0.25500000000E-02 0.  1.
    5000001    1    1    2    0    0 -0.13298582961E+02 -0.14766378214E+03 -0.16686220484E+04  0.16861627991E+04  0.19200000000E+03 0.  0.
   -5000001    1    1    2    0    0  0.13298582961E+02  0.14766378214E+03 -0.34402357340E+03  0.42094852882E+03  0.19200000000E+03 0.  0.
<mgrwt>
<rscale>  0 0.62383952E+03</rscale>
<asrwt>0</asrwt>
<pdfrwt beam="1">  1        2 0.29426830E+00 0.62383952E+03</pdfrwt>
<pdfrwt beam="2">  1       -2 0.67475517E-02 0.62383952E+03</pdfrwt>
<totfact> 0.99142855E+02</totfact>
</mgrwt>
</event>
<event>
 4    1  0.5900026E-005  0.1326107E+04  0.7818608E-02  0.9009115E-01
          2   -1    0    0  501    0  0.00000000000E+00  0.00000000000E+00  0.19252500993E+04  0.19252500993E+04  0.25500000000E-02 0.  1.
         -2   -1    0    0    0  501 -0.00000000000E+00 -0.00000000000E+00 -0.22835464971E+03  0.22835464972E+03  0.25500000000E-02 0. -1.
    5000001    1    1    2    0    0  0.31796855058E+03  0.52971053116E+03  0.61266714601E+03  0.89102316344E+03  0.19200000000E+03 0.  0.
   -5000001    1    1    2    0    0 -0.31796855058E+03 -0.52971053116E+03  0.10842283036E+04  0.12625815856E+04  0.19200000000E+03 0.  0.
<mgrwt>
<rscale>  0 0.13261068E+04</rscale>
<asrwt>0</asrwt>
<pdfrwt beam="1">  1        2 0.27503573E+00 0.13261068E+04</pdfrwt>
<pdfrwt beam="2">  1       -2 0.32622093E-01 0.13261068E+04</pdfrwt>
<totfact> 0.75182002E+01</totfact>
</mgrwt>
</event>
<event>
 4    1  0.5900026E-005  0.2080343E+04  0.7818608E-02  0.8569952E-01
         -2   -1    0    0    0  501 -0.00000000000E+00  0.00000000000E+00  0.34625616547E+03  0.34625616548E+03  0.25500000000E-02 0.  1.
          2   -1    0    0  501    0  0.00000000000E+00 -0.00000000000E+00 -0.31247280594E+04  0.31247280594E+04  0.25500000000E-02 0. -1.
    5000001    1    1    2    0    0  0.56768367058E+03 -0.82194830006E+03 -0.17518296859E+04  0.20257430751E+04  0.19200000000E+03 0.  0.
   -5000001    1    1    2    0    0 -0.56768367058E+03  0.82194830006E+03 -0.10266422081E+04  0.14452411499E+04  0.19200000000E+03 0.  0.
<mgrwt>
<rscale>  0 0.20803426E+04</rscale>
<asrwt>0</asrwt>
<pdfrwt beam="1">  1        2 0.44638971E+00 0.20803426E+04</pdfrwt>
<pdfrwt beam="2">  1       -2 0.49465168E-01 0.20803426E+04</pdfrwt>
<totfact> 0.71924616E+00</totfact>
</mgrwt>
</event>
<event>
 4    1  0.5900026E-005  0.5353389E+03  0.7818608E-02  0.1004946E+00
          2   -1    0    0  501    0  0.00000000000E+00  0.00000000000E+00  0.20398472404E+03  0.20398472406E+03  0.25500000000E-02 0. -1.
         -2   -1    0    0    0  501 -0.00000000000E+00 -0.00000000000E+00 -0.35123671485E+03  0.35123671486E+03  0.25500000000E-02 0.  1.
    5000001    1    1    2    0    0 -0.11705085113E+03 -0.12042274587E+03 -0.15775836166E+03  0.29992372388E+03  0.19200000000E+03 0.  0.
   -5000001    1    1    2    0    0  0.11705085113E+03  0.12042274587E+03  0.10506370848E+02  0.25529771504E+03  0.19200000000E+03 0.  0.
<mgrwt>
<rscale>  0 0.53533886E+03</rscale>
<asrwt>0</asrwt>
<pdfrwt beam="1">  1        2 0.29140675E-01 0.53533886E+03</pdfrwt>
<pdfrwt beam="2">  1       -2 0.50176673E-01 0.53533886E+03</pdfrwt>
<totfact> 0.69500566E+02</totfact>
</mgrwt>
</event>
<event>
 4    1  0.5900026E-005  0.5645569E+03  0.7818608E-02  0.9981796E-01
         -2   -1    0    0    0  501 -0.00000000000E+00  0.00000000000E+00  0.30762780917E+02  0.30762781023E+02  0.25500000000E-02 0. -1.
          2   -1    0    0  501    0  0.00000000000E+00 -0.00000000000E+00 -0.25901793999E+04  0.25901793999E+04  0.25500000000E-02 0.  1.
    5000001    1    1    2    0    0  0.13850353138E+02 -0.75963956169E+02 -0.21709521846E+04  0.21807933746E+04  0.19200000000E+03 0.  0.
   -5000001    1    1    2    0    0 -0.13850353138E+02  0.75963956169E+02 -0.38846443437E+03  0.44014880630E+03  0.19200000000E+03 0.  0.
<mgrwt>
<rscale>  0 0.56455689E+03</rscale>
<asrwt>0</asrwt>
<pdfrwt beam="1">  1        2 0.37002549E+00 0.56455689E+03</pdfrwt>
<pdfrwt beam="2">  1       -2 0.43946846E-02 0.56455689E+03</pdfrwt>
<totfact> 0.10446216E+03</totfact>
</mgrwt>
</event>
<event>
 4    1  0.5900026E-005  0.5745565E+03  0.7818608E-02  0.9959646E-01
          2   -1    0    0  501    0  0.00000000000E+00  0.00000000000E+00  0.42892947386E+03  0.42892947387E+03  0.25500000000E-02 0.  1.
         -2   -1    0    0    0  501 -0.00000000000E+00 -0.00000000000E+00 -0.19240642654E+03  0.19240642655E+03  0.25500000000E-02 0. -1.
    5000001    1    1    2    0    0 -0.18983755153E+02 -0.21150794105E+03  0.14405273202E+03  0.32048585256E+03  0.19200000000E+03 0.  0.
   -5000001    1    1    2    0    0  0.18983755153E+02  0.21150794105E+03  0.92470315303E+02  0.30085004787E+03  0.19200000000E+03 0.  0.
<mgrwt>
<rscale>  0 0.57455648E+03</rscale>
<asrwt>0</asrwt>
<pdfrwt beam="1">  1        2 0.61275639E-01 0.57455648E+03</pdfrwt>
<pdfrwt beam="2">  1       -2 0.27486633E-01 0.57455648E+03</pdfrwt>
<totfact> 0.96584064E+02</totfact>
</mgrwt>
</event>
<event>
 4    1  0.5900026E-005  0.5907252E+03  0.7818608E-02  0.9924837E-01
         -2   -1    0    0    0  501 -0.00000000000E+00  0.00000000000E+00  0.21062337462E+03  0.21062337463E+03  0.25500000000E-02 0. -1.
          2   -1    0    0  501    0  0.00000000000E+00 -0.00000000000E+00 -0.41419457123E+03  0.41419457124E+03  0.25500000000E-02 0.  1.
    5000001    1    1    2    0    0  0.19161439747E+03 -0.11357104710E+03 -0.13095622014E+03  0.32191301876E+03  0.19200000000E+03 0.  0.
   -5000001    1    1    2    0    0 -0.19161439747E+03  0.11357104710E+03 -0.72614976472E+02  0.30290492711E+03  0.19200000000E+03 0.  0.
<mgrwt>
<rscale>  0 0.59072518E+03</rscale>
<asrwt>0</asrwt>
<pdfrwt beam="1">  1        2 0.59170653E-01 0.59072518E+03</pdfrwt>
<pdfrwt beam="2">  1       -2 0.30089053E-01 0.59072518E+03</pdfrwt>
<totfact> 0.85058023E+02</totfact>
</mgrwt>
</event>
<event>
 4    1  0.5900026E-005  0.6621106E+03  0.7818608E-02  0.9784316E-01
         -2   -1    0    0    0  501 -0.00000000000E+00  0.00000000000E+00  0.27063076737E+03  0.27063076739E+03  0.25500000000E-02 0. -1.
          2   -1    0    0  501    0  0.00000000000E+00 -0.00000000000E+00 -0.40497097877E+03  0.40497097878E+03  0.25500000000E-02 0.  1.
    5000001    1    1    2    0    0  0.17454147124E+03 -0.15002413477E+03 -0.21061058582E+03  0.36632333403E+03  0.19200000000E+03 0.  0.
   -5000001    1    1    2    0    0 -0.17454147124E+03  0.15002413477E+03  0.76270374419E+02  0.30927841213E+03  0.19200000000E+03 0.  0.
<mgrwt>
<rscale>  0 0.66211059E+03</rscale>
<asrwt>0</asrwt>
<pdfrwt beam="1">  1        2 0.57852997E-01 0.66211059E+03</pdfrwt>
<pdfrwt beam="2">  1       -2 0.38661538E-01 0.66211059E+03</pdfrwt>
<totfact> 0.54255612E+02</totfact>
</mgrwt>
</event>
<event>
 4    1  0.5900026E-005  0.9797530E+03  0.7818608E-02  0.9331034E-01
         -2   -1    0    0    0  501 -0.00000000000E+00  0.00000000000E+00  0.33435116153E+03  0.33435116154E+03  0.25500000000E-02 0. -1.
          2   -1    0    0  501    0  0.00000000000E+00 -0.00000000000E+00 -0.71774533554E+03  0.71774533555E+03  0.25500000000E-02 0.  1.
    5000001    1    1    2    0    0  0.44514603160E+03  0.33289407234E+01 -0.26724004449E+03  0.55357683538E+03  0.19200000000E+03 0.  0.
   -5000001    1    1    2    0    0 -0.44514603160E+03 -0.33289407234E+01 -0.11615412953E+03  0.49851966170E+03  0.19200000000E+03 0.  0.
<mgrwt>
<rscale>  0 0.97975300E+03</rscale>
<asrwt>0</asrwt>
<pdfrwt beam="1">  1        2 0.10253505E+00 0.97975300E+03</pdfrwt>
<pdfrwt beam="2">  1       -2 0.47764452E-01 0.97975300E+03</pdfrwt>
<totfact> 0.18100264E+02</totfact>
</mgrwt>
</event>
<event>
 4    1  0.5900026E-005  0.5039778E+03  0.7818608E-02  0.1012746E+00
         -2   -1    0    0    0  501 -0.00000000000E+00  0.00000000000E+00  0.93956435289E+02  0.93956435324E+02  0.25500000000E-02 0. -1.
          2   -1    0    0  501    0  0.00000000000E+00 -0.00000000000E+00 -0.67582803836E+03  0.67582803836E+03  0.25500000000E-02 0.  1.
    5000001    1    1    2    0    0 -0.13585567340E+03 -0.27464989856E+02 -0.42253595556E+03  0.48436734346E+03  0.19200000000E+03 0.  0.
   -5000001    1    1    2    0    0  0.13585567340E+03  0.27464989856E+02 -0.15933564750E+03  0.28541713023E+03  0.19200000000E+03 0.  0.
<mgrwt>
<rscale>  0 0.50397775E+03</rscale>
<asrwt>0</asrwt>
<pdfrwt beam="1">  1        2 0.96546860E-01 0.50397775E+03</pdfrwt>
<pdfrwt beam="2">  1       -2 0.13422348E-01 0.50397775E+03</pdfrwt>
<totfact> 0.19800706E+03</totfact>
</mgrwt>
</event>
<event>
 4    1  0.5900026E-005  0.5984379E+03  0.7818608E-02  0.9908652E-01
         -2   -1    0    0    0  501 -0.00000000000E+00  0.00000000000E+00  0.85334752369E+02  0.85334752407E+02  0.25500000000E-02 0. -1.
          2   -1    0    0  501    0  0.00000000000E+00 -0.00000000000E+00 -0.10491854478E+04  0.10491854478E+04  0.25500000000E-02 0.  1.
    5000001    1    1    2    0    0  0.20492151431E+03  0.86838479011E+02 -0.37579032740E+03  0.47709131059E+03  0.19200000000E+03 0.  0.
   -5000001    1    1    2    0    0 -0.20492151431E+03 -0.86838479011E+02 -0.58806036798E+03  0.65742888958E+03  0.19200000000E+03 0.  0.
<mgrwt>
<rscale>  0 0.59843790E+03</rscale>
<asrwt>0</asrwt>
<pdfrwt beam="1">  1        2 0.14988363E+00 0.59843790E+03</pdfrwt>
<pdfrwt beam="2">  1       -2 0.12190679E-01 0.59843790E+03</pdfrwt>
<totfact> 0.13062496E+03</totfact>
</mgrwt>
</event>
<event>
 4    1  0.5900026E-005  0.5191992E+03  0.7818608E-02  0.1008886E+00
         -2   -1    0    0    0  501 -0.00000000000E+00  0.00000000000E+00  0.11405940772E+03  0.11405940775E+03  0.25500000000E-02 0. -1.
          2   -1    0    0  501    0  0.00000000000E+00 -0.00000000000E+00 -0.59084966197E+03  0.59084966198E+03  0.25500000000E-02 0.  1.
    5000001    1    1    2    0    0  0.68151414161E+02 -0.16073247922E+03 -0.22894800137E+03  0.34606463625E+03  0.19200000000E+03 0.  0.
   -5000001    1    1    2    0    0 -0.68151414161E+02  0.16073247922E+03 -0.24784225288E+03  0.35884443348E+03  0.19200000000E+03 0.  0.
<mgrwt>
<rscale>  0 0.51919924E+03</rscale>
<asrwt>0</asrwt>
<pdfrwt beam="1">  1        2 0.84407093E-01 0.51919924E+03</pdfrwt>
<pdfrwt beam="2">  1       -2 0.16294201E-01 0.51919924E+03</pdfrwt>
<totfact> 0.16779201E+03</totfact>
</mgrwt>
</event>
<event>
 4    1  0.5900026E-005  0.5342541E+03  0.7818608E-02  0.1005206E+00
         -2   -1    0    0    0  501 -0.00000000000E+00  0.00000000000E+00  0.26446289869E+03  0.26446289870E+03  0.25500000000E-02 0. -1.
          2   -1    0    0  501    0  0.00000000000E+00 -0.00000000000E+00 -0.26981799074E+03  0.26981799076E+03  0.25500000000E-02 0.  1.
    5000001    1    1    2    0    0 -0.13357491312E+03 -0.41806895183E+02  0.11940550499E+03  0.26591680752E+03  0.19200000000E+03 0.  0.
   -5000001    1    1    2    0    0  0.13357491312E+03  0.41806895183E+02 -0.12476059704E+03  0.26836408194E+03  0.19200000000E+03 0.  0.
<mgrwt>
<rscale>  0 0.53425405E+03</rscale>
<asrwt>0</asrwt>
<pdfrwt beam="1">  1        2 0.38545427E-01 0.53425405E+03</pdfrwt>
<pdfrwt beam="2">  1       -2 0.37780414E-01 0.53425405E+03</pdfrwt>
<totfact> 0.89013239E+02</totfact>
</mgrwt>
</event>
<event>
 4    1  0.5900026E-005  0.4775942E+03  0.7818608E-02  0.1019798E+00
          2   -1    0    0  501    0  0.00000000000E+00  0.00000000000E+00  0.15219525413E+04  0.15219525413E+04  0.25500000000E-02 0.  1.
         -2   -1    0    0    0  501 -0.00000000000E+00 -0.00000000000E+00 -0.37467701582E+02  0.37467701668E+02  0.25500000000E-02 0. -1.
    5000001    1    1    2    0    0 -0.10511158193E+03 -0.90876776077E+02  0.83760684617E+03  0.87049196541E+03  0.19200000000E+03 0.  0.
   -5000001    1    1    2    0    0  0.10511158193E+03  0.90876776077E+02  0.64687799350E+03  0.68892827751E+03  0.19200000000E+03 0.  0.
<mgrwt>
<rscale>  0 0.47759424E+03</rscale>
<asrwt>0</asrwt>
<pdfrwt beam="1">  1        2 0.21742180E+00 0.47759424E+03</pdfrwt>
<pdfrwt beam="2">  1       -2 0.53525287E-02 0.47759424E+03</pdfrwt>
<totfact> 0.26784763E+03</totfact>
</mgrwt>
</event>
<event>
 4    1  0.5900026E-005  0.5306110E+03  0.7818608E-02  0.1006084E+00
         -2   -1    0    0    0  501 -0.00000000000E+00  0.00000000000E+00  0.74831690078E+02  0.74831690121E+02  0.25500000000E-02 0. -1.
          2   -1    0    0  501    0  0.00000000000E+00 -0.00000000000E+00 -0.94060414424E+03  0.94060414424E+03  0.25500000000E-02 0.  1.
    5000001    1    1    2    0    0 -0.99633756654E+01 -0.18227896918E+03 -0.40595069927E+03  0.48475237152E+03  0.19200000000E+03 0.  0.
   -5000001    1    1    2    0    0  0.99633756654E+01  0.18227896918E+03 -0.45982175489E+03  0.53068346284E+03  0.19200000000E+03 0.  0.
<mgrwt>
<rscale>  0 0.53061096E+03</rscale>
<asrwt>0</asrwt>
<pdfrwt beam="1">  1        2 0.13437201E+00 0.53061096E+03</pdfrwt>
<pdfrwt beam="2">  1       -2 0.10690242E-01 0.53061096E+03</pdfrwt>
<totfact> 0.18882272E+03</totfact>
</mgrwt>
</event>
<event>
 4    1  0.5900026E-005  0.7385749E+03  0.7818608E-02  0.9653447E-01
         -2   -1    0    0    0  501 -0.00000000000E+00  0.00000000000E+00  0.18617030744E+03  0.18617030746E+03  0.25500000000E-02 0. -1.
          2   -1    0    0  501    0  0.00000000000E+00 -0.00000000000E+00 -0.73251856375E+03  0.73251856375E+03  0.25500000000E-02 0.  1.
    5000001    1    1    2    0    0  0.17231005071E+03  0.22058825011E+03 -0.92238396152E+02  0.35174117101E+03  0.19200000000E+03 0.  0.
   -5000001    1    1    2    0    0 -0.17231005071E+03 -0.22058825011E+03 -0.45410986016E+03  0.56694770019E+03  0.19200000000E+03 0.  0.
<mgrwt>
<rscale>  0 0.73857486E+03</rscale>
<asrwt>0</asrwt>
<pdfrwt beam="1">  1        2 0.10464551E+00 0.73857486E+03</pdfrwt>
<pdfrwt beam="2">  1       -2 0.26595758E-01 0.73857486E+03</pdfrwt>
<totfact> 0.54655309E+02</totfact>
</mgrwt>
</event>
<event>
 4    1  0.5900026E-005  0.4142237E+03  0.7818608E-02  0.1038963E+00
          2   -1    0    0  501    0  0.00000000000E+00  0.00000000000E+00  0.62790058291E+03  0.62790058291E+03  0.25500000000E-02 0.  1.
         -2   -1    0    0    0  501 -0.00000000000E+00 -0.00000000000E+00 -0.68315453416E+02  0.68315453464E+02  0.25500000000E-02 0. -1.
    5000001    1    1    2    0    0  0.42862733582E+02 -0.60224589148E+02  0.31981819258E+03  0.38027870224E+03  0.19200000000E+03 0.  0.
   -5000001    1    1    2    0    0 -0.42862733582E+02  0.60224589148E+02  0.23976693690E+03  0.31593733414E+03  0.19200000000E+03 0.  0.
<mgrwt>
<rscale>  0 0.41422367E+03</rscale>
<asrwt>0</asrwt>
<pdfrwt beam="1">  1        2 0.89700082E-01 0.41422367E+03</pdfrwt>
<pdfrwt beam="2">  1       -2 0.97593507E-02 0.41422367E+03</pdfrwt>
<totfact> 0.36260035E+03</totfact>
</mgrwt>
</event>
<event>
 4    1  0.5900026E-005  0.7692533E+03  0.7818608E-02  0.9605620E-01
          2   -1    0    0  501    0  0.00000000000E+00  0.00000000000E+00  0.39415007106E+03  0.39415007107E+03  0.25500000000E-02 0.  1.
         -2   -1    0    0    0  501 -0.00000000000E+00 -0.00000000000E+00 -0.37533328713E+03  0.37533328714E+03  0.25500000000E-02 0. -1.
    5000001    1    1    2    0    0  0.30829416259E+03 -0.12195089826E+03  0.43423409443E+02  0.38557347518E+03  0.19200000000E+03 0.  0.
   -5000001    1    1    2    0    0 -0.30829416259E+03  0.12195089826E+03 -0.24606625512E+02  0.38390988303E+03  0.19200000000E+03 0.  0.
<mgrwt>
<rscale>  0 0.76925325E+03</rscale>
<asrwt>0</asrwt>
<pdfrwt beam="1">  1        2 0.56307153E-01 0.76925325E+03</pdfrwt>
<pdfrwt beam="2">  1       -2 0.53619041E-01 0.76925325E+03</pdfrwt>
<totfact> 0.29029705E+02</totfact>
</mgrwt>
</event>
<event>
 4    1  0.5900026E-005  0.4490812E+03  0.7818608E-02  0.1027996E+00
          2   -1    0    0  501    0  0.00000000000E+00  0.00000000000E+00  0.23299761834E+03  0.23299761835E+03  0.25500000000E-02 0.  1.
         -2   -1    0    0    0  501 -0.00000000000E+00 -0.00000000000E+00 -0.21639057788E+03  0.21639057790E+03  0.25500000000E-02 0. -1.
    5000001    1    1    2    0    0  0.23995399485E+02 -0.11376831388E+03  0.23428688979E+01  0.22447382358E+03  0.19200000000E+03 0.  0.
   -5000001    1    1    2    0    0 -0.23995399485E+02  0.11376831388E+03  0.14264171557E+02  0.22491437266E+03  0.19200000000E+03 0.  0.
<mgrwt>
<rscale>  0 0.44908124E+03</rscale>
<asrwt>0</asrwt>
<pdfrwt beam="1">  1        2 0.33285374E-01 0.44908124E+03</pdfrwt>
<pdfrwt beam="2">  1       -2 0.30912940E-01 0.44908124E+03</pdfrwt>
<totfact> 0.15257343E+03</totfact>
</mgrwt>
</event>
<event>
 4    1  0.5900026E-005  0.5450419E+03  0.7818608E-02  0.1002648E+00
         -2   -1    0    0    0  501 -0.00000000000E+00  0.00000000000E+00  0.25727602949E+03  0.25727602950E+03  0.25500000000E-02 0. -1.
          2   -1    0    0  501    0  0.00000000000E+00 -0.00000000000E+00 -0.28866919521E+03  0.28866919522E+03  0.25500000000E-02 0.  1.
    5000001    1    1    2    0    0  0.16080851385E+03 -0.10541992787E+03  0.50965568439E+01  0.27177695673E+03  0.19200000000E+03 0.  0.
   -5000001    1    1    2    0    0 -0.16080851385E+03  0.10541992787E+03 -0.36489722565E+02  0.27416826799E+03  0.19200000000E+03 0.  0.
<mgrwt>
<rscale>  0 0.54504189E+03</rscale>
<asrwt>0</asrwt>
<pdfrwt beam="1">  1        2 0.41238456E-01 0.54504189E+03</pdfrwt>
<pdfrwt beam="2">  1       -2 0.36753719E-01 0.54504189E+03</pdfrwt>
<totfact> 0.87091990E+02</totfact>
</mgrwt>
</event>
<event>
 4    1  0.5900026E-005  0.5754582E+03  0.7818608E-02  0.9957673E-01
         -2   -1    0    0    0  501 -0.00000000000E+00  0.00000000000E+00  0.70335570515E+02  0.70335570561E+02  0.25500000000E-02 0. -1.
          2   -1    0    0  501    0  0.00000000000E+00 -0.00000000000E+00 -0.11770436939E+04  0.11770436939E+04  0.25500000000E-02 0.  1.
    5000001    1    1    2    0    0 -0.16414189075E+03  0.12417855634E+03 -0.42399977956E+03  0.50892306611E+03  0.19200000000E+03 0.  0.
   -5000001    1    1    2    0    0  0.16414189075E+03 -0.12417855634E+03 -0.68270834378E+03  0.73845619831E+03  0.19200000000E+03 0.  0.
<mgrwt>
<rscale>  0 0.57545822E+03</rscale>
<asrwt>0</asrwt>
<pdfrwt beam="1">  1        2 0.16814909E+00 0.57545822E+03</pdfrwt>
<pdfrwt beam="2">  1       -2 0.10047939E-01 0.57545822E+03</pdfrwt>
<totfact> 0.15115710E+03</totfact>
</mgrwt>
</event>
<event>
 4    1  0.5900026E-005  0.5534055E+03  0.7818608E-02  0.1000709E+00
         -2   -1    0    0    0  501 -0.00000000000E+00  0.00000000000E+00  0.32989335626E+02  0.32989335724E+02  0.25500000000E-02 0. -1.
          2   -1    0    0  501    0  0.00000000000E+00 -0.00000000000E+00 -0.23208841305E+04  0.23208841305E+04  0.25500000000E-02 0.  1.
    5000001    1    1    2    0    0  0.18777146915E+03 -0.64124452957E+02 -0.10666383345E+04  0.11017946300E+04  0.19200000000E+03 0.  0.
   -5000001    1    1    2    0    0 -0.18777146915E+03  0.64124452957E+02 -0.12212564603E+04  0.12520788362E+04  0.19200000000E+03 0.  0.
<mgrwt>
<rscale>  0 0.55340555E+03</rscale>
<asrwt>0</asrwt>
<pdfrwt beam="1">  1        2 0.33155477E+00 0.55340555E+03</pdfrwt>
<pdfrwt beam="2">  1       -2 0.47127637E-02 0.55340555E+03</pdfrwt>
<totfact> 0.12880172E+03</totfact>
</mgrwt>
</event>
<event>
 4    1  0.5900026E-005  0.6442769E+03  0.7818608E-02  0.9817578E-01
         -2   -1    0    0    0  501 -0.00000000000E+00  0.00000000000E+00  0.69150709123E+02  0.69150709170E+02  0.25500000000E-02 0. -1.
          2   -1    0    0  501    0  0.00000000000E+00 -0.00000000000E+00 -0.15006815248E+04  0.15006815248E+04  0.25500000000E-02 0.  1.
    5000001    1    1    2    0    0 -0.10829768029E+03 -0.21864553711E+03 -0.50651818394E+03  0.59410346668E+03  0.19200000000E+03 0.  0.
   -5000001    1    1    2    0    0  0.10829768029E+03  0.21864553711E+03 -0.92501263174E+03  0.97572876729E+03  0.19200000000E+03 0.  0.
<mgrwt>
<rscale>  0 0.64427693E+03</rscale>
<asrwt>0</asrwt>
<pdfrwt beam="1">  1        2 0.21438306E+00 0.64427693E+03</pdfrwt>
<pdfrwt beam="2">  1       -2 0.98786736E-02 0.64427693E+03</pdfrwt>
<totfact> 0.10365153E+03</totfact>
</mgrwt>
</event>
<event>
 4    1  0.5900026E-005  0.4355004E+03  0.7818608E-02  0.1032136E+00
         -2   -1    0    0    0  501 -0.00000000000E+00  0.00000000000E+00  0.14375393806E+04  0.14375393806E+04  0.25500000000E-02 0. -1.
          2   -1    0    0  501    0  0.00000000000E+00 -0.00000000000E+00 -0.32983547255E+02  0.32983547353E+02  0.25500000000E-02 0.  1.
    5000001    1    1    2    0    0  0.76569087363E+02 -0.10095274563E+02  0.47360242931E+03  0.51684427128E+03  0.19200000000E+03 0.  0.
   -5000001    1    1    2    0    0 -0.76569087363E+02  0.10095274563E+02  0.93095340400E+03  0.95367865664E+03  0.19200000000E+03 0.  0.
<mgrwt>
<rscale>  0 0.43550039E+03</rscale>
<asrwt>0</asrwt>
<pdfrwt beam="1">  1        2 0.47119349E-02 0.43550039E+03</pdfrwt>
<pdfrwt beam="2">  1       -2 0.20536279E+00 0.43550039E+03</pdfrwt>
<totfact> 0.22649673E+02</totfact>
</mgrwt>
</event>
<event>
 4    1  0.5900026E-005  0.5286893E+03  0.7818608E-02  0.1006550E+00
          2   -1    0    0  501    0  0.00000000000E+00  0.00000000000E+00  0.39748437625E+03  0.39748437626E+03  0.25500000000E-02 0.  1.
         -2   -1    0    0    0  501 -0.00000000000E+00 -0.00000000000E+00 -0.17580088808E+03  0.17580088810E+03  0.25500000000E-02 0. -1.
    5000001    1    1    2    0    0  0.11963886213E+03  0.13670589748E+03  0.11462092619E+03  0.28810400285E+03  0.19200000000E+03 0.  0.
   -5000001    1    1    2    0    0 -0.11963886213E+03 -0.13670589748E+03  0.10706256199E+03  0.28518126151E+03  0.19200000000E+03 0.  0.
<mgrwt>
<rscale>  0 0.52868935E+03</rscale>
<asrwt>0</asrwt>
<pdfrwt beam="1">  1        2 0.56783482E-01 0.52868935E+03</pdfrwt>
<pdfrwt beam="2">  1       -2 0.25114413E-01 0.52868935E+03</pdfrwt>
<totfact> 0.12373750E+03</totfact>
</mgrwt>
</event>
<event>
 4    1  0.5900026E-005  0.5769112E+03  0.7818608E-02  0.9954501E-01
         -2   -1    0    0    0  501 -0.00000000000E+00  0.00000000000E+00  0.59413387354E+02  0.59413387409E+02  0.25500000000E-02 0. -1.
          2   -1    0    0  501    0  0.00000000000E+00 -0.00000000000E+00 -0.14004692429E+04  0.14004692429E+04  0.25500000000E-02 0.  1.
    5000001    1    1    2    0    0  0.10311069123E+03 -0.64198718836E+02 -0.11202862610E+04  0.11430916835E+04  0.19200000000E+03 0.  0.
   -5000001    1    1    2    0    0 -0.10311069123E+03  0.64198718836E+02 -0.22076959452E+03  0.31679094686E+03  0.19200000000E+03 0.  0.
<mgrwt>
<rscale>  0 0.57691116E+03</rscale>
<asrwt>0</asrwt>
<pdfrwt beam="1">  1        2 0.20006701E+00 0.57691116E+03</pdfrwt>
<pdfrwt beam="2">  1       -2 0.84876276E-02 0.57691116E+03</pdfrwt>
<totfact> 0.14979120E+03</totfact>
</mgrwt>
</event>
<event>
 4    1  0.5900026E-005  0.7735612E+03  0.7818608E-02  0.9599095E-01
         -2   -1    0    0    0  501 -0.00000000000E+00  0.00000000000E+00  0.10085790257E+03  0.10085790260E+03  0.25500000000E-02 0. -1.
          2   -1    0    0  501    0  0.00000000000E+00 -0.00000000000E+00 -0.14832674710E+04  0.14832674710E+04  0.25500000000E-02 0.  1.
    5000001    1    1    2    0    0  0.17854211979E+03  0.27946777566E+03 -0.58370381228E+03  0.69825043261E+03  0.19200000000E+03 0.  0.
   -5000001    1    1    2    0    0 -0.17854211979E+03 -0.27946777566E+03 -0.79870575615E+03  0.88587494099E+03  0.19200000000E+03 0.  0.
<mgrwt>
<rscale>  0 0.77356124E+03</rscale>
<asrwt>0</asrwt>
<pdfrwt beam="1">  1        2 0.21189534E+00 0.77356124E+03</pdfrwt>
<pdfrwt beam="2">  1       -2 0.14408273E-01 0.77356124E+03</pdfrwt>
<totfact> 0.56422286E+02</totfact>
</mgrwt>
</event>
<event>
 4    1  0.5900026E-005  0.5548509E+03  0.7818608E-02  0.1000377E+00
          2   -1    0    0  501    0  0.00000000000E+00  0.00000000000E+00  0.44892589687E+03  0.44892589688E+03  0.25500000000E-02 0.  1.
         -2   -1    0    0    0  501 -0.00000000000E+00 -0.00000000000E+00 -0.17144228909E+03  0.17144228911E+03  0.25500000000E-02 0. -1.
    5000001    1    1    2    0    0  0.13568642552E+03  0.78353712132E+02 -0.68594228031E+00  0.24781965376E+03  0.19200000000E+03 0.  0.
   -5000001    1    1    2    0    0 -0.13568642552E+03 -0.78353712132E+02  0.27816955007E+03  0.37254853222E+03  0.19200000000E+03 0.  0.
<mgrwt>
<rscale>  0 0.55485091E+03</rscale>
<asrwt>0</asrwt>
<pdfrwt beam="1">  1        2 0.64132271E-01 0.55485091E+03</pdfrwt>
<pdfrwt beam="2">  1       -2 0.24491756E-01 0.55485091E+03</pdfrwt>
<totfact> 0.11302828E+03</totfact>
</mgrwt>
</event>
<event>
 4    1  0.5900026E-005  0.4610904E+03  0.7818608E-02  0.1024465E+00
         -2   -1    0    0    0  501 -0.00000000000E+00  0.00000000000E+00  0.23015100786E+02  0.23015100927E+02  0.25500000000E-02 0. -1.
          2   -1    0    0  501    0  0.00000000000E+00 -0.00000000000E+00 -0.23094009956E+04  0.23094009956E+04  0.25500000000E-02 0.  1.
    5000001    1    1    2    0    0  0.69688932474E+02  0.10472771941E+03 -0.10343881045E+04  0.10595504676E+04  0.19200000000E+03 0.  0.
   -5000001    1    1    2    0    0 -0.69688932474E+02 -0.10472771941E+03 -0.12519977903E+04  0.12728656290E+04  0.19200000000E+03 0.  0.
<mgrwt>
<rscale>  0 0.46109043E+03</rscale>
<asrwt>0</asrwt>
<pdfrwt beam="1">  1        2 0.32991428E+00 0.46109043E+03</pdfrwt>
<pdfrwt beam="2">  1       -2 0.32878730E-02 0.46109043E+03</pdfrwt>
<totfact> 0.22757612E+03</totfact>
</mgrwt>
</event>
<event>
 4    1  0.5900026E-005  0.4172080E+03  0.7818608E-02  0.1037979E+00
          2   -1    0    0  501    0  0.00000000000E+00  0.00000000000E+00  0.86563143767E+02  0.86563143805E+02  0.25500000000E-02 0.  1.
         -2   -1    0    0    0  501 -0.00000000000E+00 -0.00000000000E+00 -0.50270377105E+03  0.50270377106E+03  0.25500000000E-02 0. -1.
    5000001    1    1    2    0    0  0.46060272009E+02 -0.44816781147E+02 -0.13714663875E+03  0.24454711826E+03  0.19200000000E+03 0.  0.
   -5000001    1    1    2    0    0 -0.46060272009E+02  0.44816781147E+02 -0.27899398853E+03  0.34471979660E+03  0.19200000000E+03 0.  0.
<mgrwt>
<rscale>  0 0.41720795E+03</rscale>
<asrwt>0</asrwt>
<pdfrwt beam="1">  1        2 0.12366164E-01 0.41720795E+03</pdfrwt>
<pdfrwt beam="2">  1       -2 0.71814823E-01 0.41720795E+03</pdfrwt>
<totfact> 0.89574054E+02</totfact>
</mgrwt>
</event>
<event>
 4    1  0.5900026E-005  0.4542510E+03  0.7818608E-02  0.1026462E+00
         -2   -1    0    0    0  501 -0.00000000000E+00  0.00000000000E+00  0.27965248355E+02  0.27965248471E+02  0.25500000000E-02 0. -1.
          2   -1    0    0  501    0  0.00000000000E+00 -0.00000000000E+00 -0.18446461328E+04  0.18446461328E+04  0.25500000000E-02 0.  1.
    5000001    1    1    2    0    0  0.26709701949E+02 -0.94593847177E+02 -0.61508095176E+03  0.65180517129E+03  0.19200000000E+03 0.  0.
   -5000001    1    1    2    0    0 -0.26709701949E+02  0.94593847177E+02 -0.12015999327E+04  0.12208062099E+04  0.19200000000E+03 0.  0.
<mgrwt>
<rscale>  0 0.45425098E+03</rscale>
<asrwt>0</asrwt>
<pdfrwt beam="1">  1        2 0.26352080E+00 0.45425098E+03</pdfrwt>
<pdfrwt beam="2">  1       -2 0.39950366E-02 0.45425098E+03</pdfrwt>
<totfact> 0.28855752E+03</totfact>
</mgrwt>
</event>
<event>
 4    1  0.5900026E-005  0.7624176E+03  0.7818608E-02  0.9616068E-01
          2   -1    0    0  501    0  0.00000000000E+00  0.00000000000E+00  0.59601813453E+03  0.59601813453E+03  0.25500000000E-02 0.  1.
         -2   -1    0    0    0  501 -0.00000000000E+00 -0.00000000000E+00 -0.24381833666E+03  0.24381833668E+03  0.25500000000E-02 0. -1.
    5000001    1    1    2    0    0  0.21683053963E+03 -0.20488037337E+03  0.32978284309E+03  0.48436780850E+03  0.19200000000E+03 0.  0.
   -5000001    1    1    2    0    0 -0.21683053963E+03  0.20488037337E+03  0.22416954773E+02  0.35546866272E+03  0.19200000000E+03 0.  0.
<mgrwt>
<rscale>  0 0.76241760E+03</rscale>
<asrwt>0</asrwt>
<pdfrwt beam="1">  1        2 0.85145446E-01 0.76241760E+03</pdfrwt>
<pdfrwt beam="2">  1       -2 0.34831191E-01 0.76241760E+03</pdfrwt>
<totfact> 0.42481477E+02</totfact>
</mgrwt>
</event>
<event>
 4    1  0.5900026E-005  0.4347648E+03  0.7818608E-02  0.1032365E+00
         -2   -1    0    0    0  501 -0.00000000000E+00  0.00000000000E+00  0.40817595531E+02  0.40817595611E+02  0.25500000000E-02 0. -1.
          2   -1    0    0  501    0  0.00000000000E+00 -0.00000000000E+00 -0.11577142998E+04  0.11577142998E+04  0.25500000000E-02 0.  1.
    5000001    1    1    2    0    0  0.98209113603E+02  0.17007631243E+02 -0.61736932615E+03  0.65417365767E+03  0.19200000000E+03 0.  0.
   -5000001    1    1    2    0    0 -0.98209113603E+02 -0.17007631243E+02 -0.49952737815E+03  0.54435823778E+03  0.19200000000E+03 0.  0.
<mgrwt>
<rscale>  0 0.43476483E+03</rscale>
<asrwt>0</asrwt>
<pdfrwt beam="1">  1        2 0.16538774E+00 0.43476483E+03</pdfrwt>
<pdfrwt beam="2">  1       -2 0.58310858E-02 0.43476483E+03</pdfrwt>
<totfact> 0.36730534E+03</totfact>
</mgrwt>
</event>
<event>
 4    1  0.5900026E-005  0.5188195E+03  0.7818608E-02  0.1008980E+00
          2   -1    0    0  501    0  0.00000000000E+00  0.00000000000E+00  0.22836683892E+03  0.22836683893E+03  0.25500000000E-02 0.  1.
         -2   -1    0    0    0  501 -0.00000000000E+00 -0.00000000000E+00 -0.29467250447E+03  0.29467250448E+03  0.25500000000E-02 0. -1.
    5000001    1    1    2    0    0 -0.10141536167E+03  0.13512921985E+03  0.10610457644E+02  0.25597180206E+03  0.19200000000E+03 0.  0.
   -5000001    1    1    2    0    0  0.10141536167E+03 -0.13512921985E+03 -0.76916123201E+02  0.26706754136E+03  0.19200000000E+03 0.  0.
<mgrwt>
<rscale>  0 0.51881954E+03</rscale>
<asrwt>0</asrwt>
<pdfrwt beam="1">  1        2 0.32623834E-01 0.51881954E+03</pdfrwt>
<pdfrwt beam="2">  1       -2 0.42096072E-01 0.51881954E+03</pdfrwt>
<totfact> 0.86864561E+02</totfact>
</mgrwt>
</event>
<event>
 4    1  0.5900026E-005  0.6507055E+03  0.7818608E-02  0.9805456E-01
          2   -1    0    0  501    0  0.00000000000E+00  0.00000000000E+00  0.44079685096E+02  0.44079685169E+02  0.25500000000E-02 0. -1.
         -2   -1    0    0    0  501 -0.00000000000E+00 -0.00000000000E+00 -0.24014331271E+04  0.24014331271E+04  0.25500000000E-02 0.  1.
    5000001    1    1    2    0    0  0.14197126510E+03  0.19501803234E+03 -0.15692913097E+04  0.15992895572E+04  0.19200000000E+03 0.  0.
   -5000001    1    1    2    0    0 -0.14197126510E+03 -0.19501803234E+03 -0.78806213226E+03  0.84622325503E+03  0.19200000000E+03 0.  0.
<mgrwt>
<rscale>  0 0.65070551E+03</rscale>
<asrwt>0</asrwt>
<pdfrwt beam="1">  1        2 0.62970994E-02 0.65070551E+03</pdfrwt>
<pdfrwt beam="2">  1       -2 0.34306179E+00 0.65070551E+03</pdfrwt>
<totfact> 0.22246622E+01</totfact>
</mgrwt>
</event>
<event>
 4    1  0.5900026E-005  0.4276423E+03  0.7818608E-02  0.1034607E+00
         -2   -1    0    0    0  501 -0.00000000000E+00  0.00000000000E+00  0.23643771937E+02  0.23643772074E+02  0.25500000000E-02 0. -1.
          2   -1    0    0  501    0  0.00000000000E+00 -0.00000000000E+00 -0.19336796592E+04  0.19336796592E+04  0.25500000000E-02 0.  1.
    5000001    1    1    2    0    0  0.30831910205E+02  0.64592482065E+02 -0.12346536709E+04  0.12515416423E+04  0.19200000000E+03 0.  0.
   -5000001    1    1    2    0    0 -0.30831910205E+02 -0.64592482065E+02 -0.67538221641E+03  0.70578178899E+03  0.19200000000E+03 0.  0.
<mgrwt>
<rscale>  0 0.42764229E+03</rscale>
<asrwt>0</asrwt>
<pdfrwt beam="1">  1        2 0.27623985E+00 0.42764229E+03</pdfrwt>
<pdfrwt beam="2">  1       -2 0.33776829E-02 0.42764229E+03</pdfrwt>
<totfact> 0.33650912E+03</totfact>
</mgrwt>
</event>
<event>
 4    1  0.5900026E-005  0.1346585E+04  0.7818608E-02  0.8993417E-01
         -2   -1    0    0    0  501 -0.00000000000E+00  0.00000000000E+00  0.18215923047E+03  0.18215923049E+03  0.25500000000E-02 0. -1.
          2   -1    0    0  501    0  0.00000000000E+00 -0.00000000000E+00 -0.24886090165E+04  0.24886090165E+04  0.25500000000E-02 0.  1.
    5000001    1    1    2    0    0  0.14064385268E+03  0.59314446322E+03 -0.15732957044E+04  0.16981532384E+04  0.19200000000E+03 0.  0.
   -5000001    1    1    2    0    0 -0.14064385268E+03 -0.59314446322E+03 -0.73315408160E+03  0.97261500858E+03  0.19200000000E+03 0.  0.
<mgrwt>
<rscale>  0 0.13465855E+04</rscale>
<asrwt>0</asrwt>
<pdfrwt beam="1">  1        2 0.35551555E+00 0.13465855E+04</pdfrwt>
<pdfrwt beam="2">  1       -2 0.26022749E-01 0.13465855E+04</pdfrwt>
<totfact> 0.58432247E+01</totfact>
</mgrwt>
</event>
<event>
 4    1  0.5900026E-005  0.5374402E+03  0.7818608E-02  0.1004444E+00
          2   -1    0    0  501    0  0.00000000000E+00  0.00000000000E+00  0.20866058733E+04  0.20866058733E+04  0.25500000000E-02 0.  1.
         -2   -1    0    0    0  501 -0.00000000000E+00 -0.00000000000E+00 -0.34606679664E+02  0.34606679758E+02  0.25500000000E-02 0. -1.
    5000001    1    1    2    0    0 -0.18293721425E+03  0.41402212992E+01  0.11963721082E+04  0.12254196779E+04  0.19200000000E+03 0.  0.
   -5000001    1    1    2    0    0  0.18293721425E+03 -0.41402212992E+01  0.85562708545E+03  0.89579287514E+03  0.19200000000E+03 0.  0.
<mgrwt>
<rscale>  0 0.53744023E+03</rscale>
<asrwt>0</asrwt>
<pdfrwt beam="1">  1        2 0.29808655E+00 0.53744023E+03</pdfrwt>
<pdfrwt beam="2">  1       -2 0.49438115E-02 0.53744023E+03</pdfrwt>
<totfact> 0.15699989E+03</totfact>
</mgrwt>
</event>
<event>
 4    1  0.5900026E-005  0.6753298E+03  0.7818608E-02  0.9760377E-01
          2   -1    0    0  501    0  0.00000000000E+00  0.00000000000E+00  0.13935413032E+04  0.13935413032E+04  0.25500000000E-02 0.  1.
         -2   -1    0    0    0  501 -0.00000000000E+00 -0.00000000000E+00 -0.81818582239E+02  0.81818582279E+02  0.25500000000E-02 0. -1.
    5000001    1    1    2    0    0  0.14971812853E+03  0.20595141848E+03  0.41335457477E+03  0.52207040643E+03  0.19200000000E+03 0.  0.
   -5000001    1    1    2    0    0 -0.14971812853E+03 -0.20595141848E+03  0.89836814621E+03  0.95328947907E+03  0.19200000000E+03 0.  0.
<mgrwt>
<rscale>  0 0.67532977E+03</rscale>
<asrwt>0</asrwt>
<pdfrwt beam="1">  1        2 0.19907733E+00 0.67532977E+03</pdfrwt>
<pdfrwt beam="2">  1       -2 0.11688369E-01 0.67532977E+03</pdfrwt>
<totfact> 0.89587784E+02</totfact>
</mgrwt>
</event>
<event>
 4    1  0.5900026E-005  0.6060553E+03  0.7818608E-02  0.9892922E-01
         -2   -1    0    0    0  501 -0.00000000000E+00  0.00000000000E+00  0.81407796412E+02  0.81407796452E+02  0.25500000000E-02 0. -1.
          2   -1    0    0  501    0  0.00000000000E+00 -0.00000000000E+00 -0.11279725729E+04  0.11279725729E+04  0.25500000000E-02 0.  1.
    5000001    1    1    2    0    0 -0.11125477193E+03  0.19141507271E+03 -0.36942975717E+03  0.47155031526E+03  0.19200000000E+03 0.  0.
   -5000001    1    1    2    0    0  0.11125477193E+03 -0.19141507271E+03 -0.67713501931E+03  0.73783005408E+03  0.19200000000E+03 0.  0.
<mgrwt>
<rscale>  0 0.60605532E+03</rscale>
<asrwt>0</asrwt>
<pdfrwt beam="1">  1        2 0.16113893E+00 0.60605532E+03</pdfrwt>
<pdfrwt beam="2">  1       -2 0.11629686E-01 0.60605532E+03</pdfrwt>
<totfact> 0.12691966E+03</totfact>
</mgrwt>
</event>
<event>
 4    1  0.5900026E-005  0.5311901E+03  0.7818608E-02  0.1005944E+00
         -2   -1    0    0    0  501 -0.00000000000E+00  0.00000000000E+00  0.86715247140E+02  0.86715247177E+02  0.25500000000E-02 0.  1.
          2   -1    0    0  501    0  0.00000000000E+00 -0.00000000000E+00 -0.81347548384E+03  0.81347548385E+03  0.25500000000E-02 0. -1.
    5000001    1    1    2    0    0 -0.89707357213E+02 -0.15965514437E+03 -0.38339963136E+03  0.46625792475E+03  0.19200000000E+03 0.  0.
   -5000001    1    1    2    0    0  0.89707357213E+02  0.15965514437E+03 -0.34336060534E+03  0.43393280627E+03  0.19200000000E+03 0.  0.
<mgrwt>
<rscale>  0 0.53119009E+03</rscale>
<asrwt>0</asrwt>
<pdfrwt beam="1">  1        2 0.11621078E+00 0.53119009E+03</pdfrwt>
<pdfrwt beam="2">  1       -2 0.12387893E-01 0.53119009E+03</pdfrwt>
<totfact> 0.17964218E+03</totfact>
</mgrwt>
</event>
<event>
 4    1  0.5900026E-005  0.5421183E+03  0.7818608E-02  0.1003335E+00
         -2   -1    0    0    0  501 -0.00000000000E+00  0.00000000000E+00  0.62495967463E+02  0.62495967515E+02  0.25500000000E-02 0. -1.
          2   -1    0    0  501    0  0.00000000000E+00 -0.00000000000E+00 -0.11756448598E+04  0.11756448598E+04  0.25500000000E-02 0.  1.
    5000001    1    1    2    0    0 -0.13186198774E+03  0.12479049119E+03 -0.41861490343E+03  0.49503806710E+03  0.19200000000E+03 0.  0.
   -5000001    1    1    2    0    0  0.13186198774E+03 -0.12479049119E+03 -0.69453398895E+03  0.74310276026E+03  0.19200000000E+03 0.  0.
<mgrwt>
<rscale>  0 0.54211830E+03</rscale>
<asrwt>0</asrwt>
<pdfrwt beam="1">  1        2 0.16794925E+00 0.54211830E+03</pdfrwt>
<pdfrwt beam="2">  1       -2 0.89279960E-02 0.54211830E+03</pdfrwt>
<totfact> 0.18331718E+03</totfact>
</mgrwt>
</event>
<event>
 4    1  0.5900026E-005  0.8765885E+03  0.7818608E-02  0.9455330E-01
         -2   -1    0    0    0  501 -0.00000000000E+00  0.00000000000E+00  0.13339487620E+03  0.13339487623E+03  0.25500000000E-02 0. -1.
          2   -1    0    0  501    0  0.00000000000E+00 -0.00000000000E+00 -0.14400990632E+04  0.14400990632E+04  0.25500000000E-02 0.  1.
    5000001    1    1    2    0    0 -0.17816255205E+02  0.38571604755E+03 -0.79404718558E+03  0.90358686423E+03  0.19200000000E+03 0.  0.
   -5000001    1    1    2    0    0  0.17816255205E+02 -0.38571604755E+03 -0.51265700137E+03  0.66990707515E+03  0.19200000000E+03 0.  0.
<mgrwt>
<rscale>  0 0.87658847E+03</rscale>
<asrwt>0</asrwt>
<pdfrwt beam="1">  1        2 0.20572843E+00 0.87658847E+03</pdfrwt>
<pdfrwt beam="2">  1       -2 0.19056412E-01 0.87658847E+03</pdfrwt>
<totfact> 0.36656247E+02</totfact>
</mgrwt>
</event>
<event>
 4    1  0.5900026E-005  0.4154841E+03  0.7818608E-02  0.1038546E+00
         -2   -1    0    0    0  501 -0.00000000000E+00  0.00000000000E+00  0.22063460925E+03  0.22063460927E+03  0.25500000000E-02 0. -1.
          2   -1    0    0  501    0  0.00000000000E+00 -0.00000000000E+00 -0.19560285810E+03  0.19560285811E+03  0.25500000000E-02 0.  1.
    5000001    1    1    2    0    0 -0.75967809767E+01 -0.45829587306E+02  0.76934085985E+02  0.21199272568E+03  0.19200000000E+03 0.  0.
   -5000001    1    1    2    0    0  0.75967809767E+01  0.45829587306E+02 -0.51902334828E+02  0.20424474171E+03  0.19200000000E+03 0.  0.
<mgrwt>
<rscale>  0 0.41548410E+03</rscale>
<asrwt>0</asrwt>
<pdfrwt beam="1">  1        2 0.27943265E-01 0.41548410E+03</pdfrwt>
<pdfrwt beam="2">  1       -2 0.31519230E-01 0.41548410E+03</pdfrwt>
<totfact> 0.17868736E+03</totfact>
</mgrwt>
</event>
<event>
 4    1  0.5900026E-005  0.5627762E+03  0.7818608E-02  0.9985792E-01
         -2   -1    0    0    0  501 -0.00000000000E+00  0.00000000000E+00  0.31646961846E+03  0.31646961847E+03  0.25500000000E-02 0. -1.
          2   -1    0    0  501    0  0.00000000000E+00 -0.00000000000E+00 -0.25019546528E+03  0.25019546529E+03  0.25500000000E-02 0.  1.
    5000001    1    1    2    0    0  0.12623119123E+03 -0.14592939146E+03  0.10494299275E+03  0.29173058231E+03  0.19200000000E+03 0.  0.
   -5000001    1    1    2    0    0 -0.12623119123E+03  0.14592939146E+03 -0.38668839568E+02  0.27493450144E+03  0.19200000000E+03 0.  0.
<mgrwt>
<rscale>  0 0.56277620E+03</rscale>
<asrwt>0</asrwt>
<pdfrwt beam="1">  1        2 0.35742209E-01 0.56277620E+03</pdfrwt>
<pdfrwt beam="2">  1       -2 0.45209945E-01 0.56277620E+03</pdfrwt>
<totfact> 0.68177267E+02</totfact>
</mgrwt>
</event>
<event>
 4    1  0.5900026E-005  0.1040255E+04  0.7818608E-02  0.9265464E-01
          2   -1    0    0  501    0  0.00000000000E+00  0.00000000000E+00  0.92654203674E+03  0.92654203675E+03  0.25500000000E-02 0.  1.
         -2   -1    0    0    0  501 -0.00000000000E+00 -0.00000000000E+00 -0.29198080218E+03  0.29198080219E+03  0.25500000000E-02 0. -1.
    5000001    1    1    2    0    0 -0.45266894867E+03 -0.16947339892E+03  0.31005248596E+03  0.60549727834E+03  0.19200000000E+03 0.  0.
   -5000001    1    1    2    0    0  0.45266894867E+03  0.16947339892E+03  0.32450874860E+03  0.61302556060E+03  0.19200000000E+03 0.  0.
<mgrwt>
<rscale>  0 0.10402548E+04</rscale>
<asrwt>0</asrwt>
<pdfrwt beam="1">  1        2 0.13236315E+00 0.10402548E+04</pdfrwt>
<pdfrwt beam="2">  1       -2 0.41711543E-01 0.10402548E+04</pdfrwt>
<totfact> 0.16935874E+02</totfact>
</mgrwt>
</event>
<event>
 4    1  0.5900026E-005  0.6806755E+03  0.7818608E-02  0.9750862E-01
          2   -1    0    0  501    0  0.00000000000E+00  0.00000000000E+00  0.17213726075E+04  0.17213726075E+04  0.25500000000E-02 0.  1.
         -2   -1    0    0    0  501 -0.00000000000E+00 -0.00000000000E+00 -0.67289202343E+02  0.67289202391E+02  0.25500000000E-02 0. -1.
    5000001    1    1    2    0    0  0.27901616626E+03  0.27465848003E+02  0.87699678898E+03  0.94052738489E+03  0.19200000000E+03 0.  0.
   -5000001    1    1    2    0    0 -0.27901616626E+03 -0.27465848003E+02  0.77708661620E+03  0.84813442503E+03  0.19200000000E+03 0.  0.
<mgrwt>
<rscale>  0 0.68067552E+03</rscale>
<asrwt>0</asrwt>
<pdfrwt beam="1">  1        2 0.24591037E+00 0.68067552E+03</pdfrwt>
<pdfrwt beam="2">  1       -2 0.96127433E-02 0.68067552E+03</pdfrwt>
<totfact> 0.83234864E+02</totfact>
</mgrwt>
</event>
<event>
 4    1  0.5900026E-005  0.5435800E+03  0.7818608E-02  0.1002991E+00
         -2   -1    0    0    0  501 -0.00000000000E+00  0.00000000000E+00  0.32967396081E+02  0.32967396180E+02  0.25500000000E-02 0. -1.
          2   -1    0    0  501    0  0.00000000000E+00 -0.00000000000E+00 -0.22406928563E+04  0.22406928563E+04  0.25500000000E-02 0.  1.
    5000001    1    1    2    0    0 -0.16010064468E+03 -0.23539005488E+02 -0.15389394423E+04  0.15592898731E+04  0.19200000000E+03 0.  0.
   -5000001    1    1    2    0    0  0.16010064468E+03  0.23539005488E+02 -0.66878601786E+03  0.71437037935E+03  0.19200000000E+03 0.  0.
<mgrwt>
<rscale>  0 0.54358002E+03</rscale>
<asrwt>0</asrwt>
<pdfrwt beam="1">  1        2 0.32009888E+00 0.54358002E+03</pdfrwt>
<pdfrwt beam="2">  1       -2 0.47096294E-02 0.54358002E+03</pdfrwt>
<totfact> 0.14159477E+03</totfact>
</mgrwt>
</event>
<event>
 4    1  0.5900026E-005  0.6374316E+03  0.7818608E-02  0.9830653E-01
         -2   -1    0    0    0  501 -0.00000000000E+00  0.00000000000E+00  0.10972866457E+03  0.10972866460E+03  0.25500000000E-02 0. -1.
          2   -1    0    0  501    0  0.00000000000E+00 -0.00000000000E+00 -0.92573599798E+03  0.92573599798E+03  0.25500000000E-02 0.  1.
    5000001    1    1    2    0    0 -0.24746520525E+03  0.66990263786E+01 -0.50316643810E+03  0.59272621774E+03  0.19200000000E+03 0.  0.
   -5000001    1    1    2    0    0  0.24746520525E+03 -0.66990263786E+01 -0.31284089531E+03  0.44273844484E+03  0.19200000000E+03 0.  0.
<mgrwt>
<rscale>  0 0.63743164E+03</rscale>
<asrwt>0</asrwt>
<pdfrwt beam="1">  1        2 0.13224799E+00 0.63743164E+03</pdfrwt>
<pdfrwt beam="2">  1       -2 0.15675524E-01 0.63743164E+03</pdfrwt>
<totfact> 0.10211662E+03</totfact>
</mgrwt>
</event>
<event>
 4    1  0.5900026E-005  0.4516849E+03  0.7818608E-02  0.1027221E+00
         -2   -1    0    0    0  501 -0.00000000000E+00  0.00000000000E+00  0.41624291022E+02  0.41624291100E+02  0.25500000000E-02 0. -1.
          2   -1    0    0  501    0  0.00000000000E+00 -0.00000000000E+00 -0.12253616932E+04  0.12253616932E+04  0.25500000000E-02 0.  1.
    5000001    1    1    2    0    0  0.84621418793E+02 -0.75145325402E+02 -0.48944862688E+03  0.53780253142E+03  0.19200000000E+03 0.  0.
   -5000001    1    1    2    0    0 -0.84621418793E+02  0.75145325402E+02 -0.69428877525E+03  0.72918345284E+03  0.19200000000E+03 0.  0.
<mgrwt>
<rscale>  0 0.45168490E+03</rscale>
<asrwt>0</asrwt>
<pdfrwt beam="1">  1        2 0.17505165E+00 0.45168490E+03</pdfrwt>
<pdfrwt beam="2">  1       -2 0.59463280E-02 0.45168490E+03</pdfrwt>
<totfact> 0.32681347E+03</totfact>
</mgrwt>
</event>
<event>
 4    1  0.5900026E-005  0.4278628E+03  0.7818608E-02  0.1034537E+00
         -2   -1    0    0    0  501 -0.00000000000E+00  0.00000000000E+00  0.48221346701E+02  0.48221346769E+02  0.25500000000E-02 0. -1.
          2   -1    0    0  501    0  0.00000000000E+00 -0.00000000000E+00 -0.94909489693E+03  0.94909489693E+03  0.25500000000E-02 0.  1.
    5000001    1    1    2    0    0  0.75172326215E+02  0.53258318394E+02 -0.49793890018E+03  0.54156668603E+03  0.19200000000E+03 0.  0.
   -5000001    1    1    2    0    0 -0.75172326215E+02 -0.53258318394E+02 -0.40293465005E+03  0.45574955767E+03  0.19200000000E+03 0.  0.
<mgrwt>
<rscale>  0 0.42786275E+03</rscale>
<asrwt>0</asrwt>
<pdfrwt beam="1">  1        2 0.13558497E+00 0.42786275E+03</pdfrwt>
<pdfrwt beam="2">  1       -2 0.68887644E-02 0.42786275E+03</pdfrwt>
<totfact> 0.37559831E+03</totfact>
</mgrwt>
</event>
<event>
 4    1  0.5900026E-005  0.1432260E+04  0.7818608E-02  0.8930793E-01
         -2   -1    0    0    0  501 -0.00000000000E+00  0.00000000000E+00  0.60794822293E+03  0.60794822294E+03  0.25500000000E-02 0. -1.
          2   -1    0    0  501    0  0.00000000000E+00 -0.00000000000E+00 -0.84356213194E+03  0.84356213195E+03  0.25500000000E-02 0.  1.
    5000001    1    1    2    0    0  0.63579033975E+03 -0.23166896140E+03  0.18455536827E+02  0.70363660411E+03  0.19200000000E+03 0.  0.
   -5000001    1    1    2    0    0 -0.63579033975E+03  0.23166896140E+03 -0.25406944584E+03  0.74787375078E+03  0.19200000000E+03 0.  0.
<mgrwt>
<rscale>  0 0.14322599E+04</rscale>
<asrwt>0</asrwt>
<pdfrwt beam="1">  1        2 0.12050888E+00 0.14322599E+04</pdfrwt>
<pdfrwt beam="2">  1       -2 0.86849747E-01 0.14322599E+04</pdfrwt>
<totfact> 0.39579480E+01</totfact>
</mgrwt>
</event>
<event>
 4    1  0.5900026E-005  0.8464659E+03  0.7818608E-02  0.9495093E-01
         -2   -1    0    0    0  501 -0.00000000000E+00  0.00000000000E+00  0.42740472107E+03  0.42740472108E+03  0.25500000000E-02 0. -1.
          2   -1    0    0  501    0  0.00000000000E+00 -0.00000000000E+00 -0.41910193245E+03  0.41910193246E+03  0.25500000000E-02 0.  1.
    5000001    1    1    2    0    0 -0.10945763033E+03  0.36023642826E+03  0.26755301349E+02  0.42347503260E+03  0.19200000000E+03 0.  0.
   -5000001    1    1    2    0    0  0.10945763033E+03 -0.36023642826E+03 -0.18452512728E+02  0.42303162094E+03  0.19200000000E+03 0.  0.
<mgrwt>
<rscale>  0 0.84646593E+03</rscale>
<asrwt>0</asrwt>
<pdfrwt beam="1">  1        2 0.59871705E-01 0.84646593E+03</pdfrwt>
<pdfrwt beam="2">  1       -2 0.61057817E-01 0.84646593E+03</pdfrwt>
<totfact> 0.20595603E+02</totfact>
</mgrwt>
</event>
<event>
 4    1  0.5900026E-005  0.5963319E+03  0.7818608E-02  0.9913046E-01
          2   -1    0    0  501    0  0.00000000000E+00  0.00000000000E+00  0.16634640214E+04  0.16634640214E+04  0.25500000000E-02 0.  1.
         -2   -1    0    0    0  501 -0.00000000000E+00 -0.00000000000E+00 -0.53444460378E+02  0.53444460439E+02  0.25500000000E-02 0. -1.
    5000001    1    1    2    0    0  0.39879259244E+02  0.22115682028E+03  0.69208961444E+03  0.75256410285E+03  0.19200000000E+03 0.  0.
   -5000001    1    1    2    0    0 -0.39879259244E+02 -0.22115682028E+03  0.91792994658E+03  0.96434437900E+03  0.19200000000E+03 0.  0.
<mgrwt>
<rscale>  0 0.59633191E+03</rscale>
<asrwt>0</asrwt>
<pdfrwt beam="1">  1        2 0.23763768E+00 0.59633191E+03</pdfrwt>
<pdfrwt beam="2">  1       -2 0.76349242E-02 0.59633191E+03</pdfrwt>
<totfact> 0.12941930E+03</totfact>
</mgrwt>
</event>
<event>
 4    1  0.5900026E-005  0.7310893E+03  0.7818608E-02  0.9665494E-01
          2   -1    0    0  501    0  0.00000000000E+00  0.00000000000E+00  0.66553811815E+03  0.66553811816E+03  0.25500000000E-02 0.  1.
         -2   -1    0    0    0  501 -0.00000000000E+00 -0.00000000000E+00 -0.20077422651E+03  0.20077422652E+03  0.25500000000E-02 0. -1.
    5000001    1    1    2    0    0 -0.12440080827E+03  0.27893845457E+03  0.30225123364E+03  0.47064002249E+03  0.19200000000E+03 0.  0.
   -5000001    1    1    2    0    0  0.12440080827E+03 -0.27893845457E+03  0.16251265801E+03  0.39567232219E+03  0.19200000000E+03 0.  0.
<mgrwt>
<rscale>  0 0.73108933E+03</rscale>
<asrwt>0</asrwt>
<pdfrwt beam="1">  1        2 0.95076875E-01 0.73108933E+03</pdfrwt>
<pdfrwt beam="2">  1       -2 0.28682032E-01 0.73108933E+03</pdfrwt>
<totfact> 0.53578583E+02</totfact>
</mgrwt>
</event>
<event>
 4    1  0.5900026E-005  0.6078297E+03  0.7818608E-02  0.9889294E-01
          2   -1    0    0  501    0  0.00000000000E+00  0.00000000000E+00  0.17055396154E+03  0.17055396156E+03  0.25500000000E-02 0.  1.
         -2   -1    0    0    0  501 -0.00000000000E+00 -0.00000000000E+00 -0.54155427726E+03  0.54155427726E+03  0.25500000000E-02 0. -1.
    5000001    1    1    2    0    0 -0.18144231494E+03  0.12427562298E+03 -0.28445689697E+03  0.40760945812E+03  0.19200000000E+03 0.  0.
   -5000001    1    1    2    0    0  0.18144231494E+03 -0.12427562298E+03 -0.86543418747E+02  0.30449878070E+03  0.19200000000E+03 0.  0.
<mgrwt>
<rscale>  0 0.60782967E+03</rscale>
<asrwt>0</asrwt>
<pdfrwt beam="1">  1        2 0.24364852E-01 0.60782967E+03</pdfrwt>
<pdfrwt beam="2">  1       -2 0.77364896E-01 0.60782967E+03</pdfrwt>
<totfact> 0.33979006E+02</totfact>
</mgrwt>
</event>
<event>
 4    1  0.5900026E-005  0.6319939E+03  0.7818608E-02  0.9841166E-01
          2   -1    0    0  501    0  0.00000000000E+00  0.00000000000E+00  0.81455542155E+03  0.81455542155E+03  0.25500000000E-02 0.  1.
         -2   -1    0    0    0  501 -0.00000000000E+00 -0.00000000000E+00 -0.12258720048E+03  0.12258720050E+03  0.25500000000E-02 0. -1.
    5000001    1    1    2    0    0 -0.19437773898E+03 -0.71672556344E+00  0.11055937161E+03  0.29473817832E+03  0.19200000000E+03 0.  0.
   -5000001    1    1    2    0    0  0.19437773898E+03  0.71672556344E+00  0.58140884946E+03  0.64240444374E+03  0.19200000000E+03 0.  0.
<mgrwt>
<rscale>  0 0.63199389E+03</rscale>
<asrwt>0</asrwt>
<pdfrwt beam="1">  1        2 0.11636506E+00 0.63199389E+03</pdfrwt>
<pdfrwt beam="2">  1       -2 0.17512457E-01 0.63199389E+03</pdfrwt>
<totfact> 0.10013408E+03</totfact>
</mgrwt>
</event>
<event>
 4    1  0.5900026E-005  0.8016580E+03  0.7818608E-02  0.9557620E-01
         -2   -1    0    0    0  501 -0.00000000000E+00  0.00000000000E+00  0.83033842959E+02  0.83033842998E+02  0.25500000000E-02 0. -1.
          2   -1    0    0  501    0  0.00000000000E+00 -0.00000000000E+00 -0.19349205992E+04  0.19349205992E+04  0.25500000000E-02 0.  1.
    5000001    1    1    2    0    0 -0.38876820095E+01 -0.35136323438E+03 -0.97157789340E+03  0.10508562411E+04  0.19200000000E+03 0.  0.
   -5000001    1    1    2    0    0  0.38876820095E+01  0.35136323438E+03 -0.88030886283E+03  0.96709820108E+03  0.19200000000E+03 0.  0.
<mgrwt>
<rscale>  0 0.80165801E+03</rscale>
<asrwt>0</asrwt>
<pdfrwt beam="1">  1        2 0.27641720E+00 0.80165801E+03</pdfrwt>
<pdfrwt beam="2">  1       -2 0.11861979E-01 0.80165801E+03</pdfrwt>
<totfact> 0.45641294E+02</totfact>
</mgrwt>
</event>
<event>
 4    1  0.5900026E-005  0.6068360E+03  0.7818608E-02  0.9891324E-01
         -2   -1    0    0    0  501 -0.00000000000E+00  0.00000000000E+00  0.14928563994E+03  0.14928563996E+03  0.25500000000E-02 0. -1.
          2   -1    0    0  501    0  0.00000000000E+00 -0.00000000000E+00 -0.61668687826E+03  0.61668687826E+03  0.25500000000E-02 0.  1.
    5000001    1    1    2    0    0  0.17289404364E+03 -0.13125078203E+03 -0.34715747990E+03  0.45221834766E+03  0.19200000000E+03 0.  0.
   -5000001    1    1    2    0    0 -0.17289404364E+03  0.13125078203E+03 -0.12024375842E+03  0.31375417056E+03  0.19200000000E+03 0.  0.
<mgrwt>
<rscale>  0 0.60683604E+03</rscale>
<asrwt>0</asrwt>
<pdfrwt beam="1">  1        2 0.88098124E-01 0.60683604E+03</pdfrwt>
<pdfrwt beam="2">  1       -2 0.21326520E-01 0.60683604E+03</pdfrwt>
<totfact> 0.10026815E+03</totfact>
</mgrwt>
</event>
<event>
 4    1  0.5900026E-005  0.5165719E+03  0.7818608E-02  0.1009542E+00
         -2   -1    0    0    0  501 -0.00000000000E+00  0.00000000000E+00  0.58507325701E+02  0.58507325757E+02  0.25500000000E-02 0. -1.
          2   -1    0    0  501    0  0.00000000000E+00 -0.00000000000E+00 -0.11402269432E+04  0.11402269432E+04  0.25500000000E-02 0.  1.
    5000001    1    1    2    0    0  0.13902390278E+03 -0.80436928488E+02 -0.39318260759E+03  0.46610546867E+03  0.19200000000E+03 0.  0.
   -5000001    1    1    2    0    0 -0.13902390278E+03  0.80436928488E+02 -0.68853700991E+03  0.73262880029E+03  0.19200000000E+03 0.  0.
<mgrwt>
<rscale>  0 0.51657189E+03</rscale>
<asrwt>0</asrwt>
<pdfrwt beam="1">  1        2 0.16288955E+00 0.51657189E+03</pdfrwt>
<pdfrwt beam="2">  1       -2 0.83581901E-02 0.51657189E+03</pdfrwt>
<totfact> 0.21338933E+03</totfact>
</mgrwt>
</event>
<event>
 4    1  0.5900026E-005  0.7252065E+03  0.7818608E-02  0.9675071E-01
         -2   -1    0    0    0  501 -0.00000000000E+00  0.00000000000E+00  0.12496624346E+04  0.12496624346E+04  0.25500000000E-02 0. -1.
          2   -1    0    0  501    0  0.00000000000E+00 -0.00000000000E+00 -0.10521332073E+03  0.10521332076E+03  0.25500000000E-02 0.  1.
    5000001    1    1    2    0    0  0.78887323920E+02  0.20829037356E+03  0.17586653425E+03  0.34263847925E+03  0.19200000000E+03 0.  0.
   -5000001    1    1    2    0    0 -0.78887323920E+02 -0.20829037356E+03  0.96858257959E+03  0.10122372761E+04  0.19200000000E+03 0.  0.
<mgrwt>
<rscale>  0 0.72520655E+03</rscale>
<asrwt>0</asrwt>
<pdfrwt beam="1">  1        2 0.15030474E-01 0.72520655E+03</pdfrwt>
<pdfrwt beam="2">  1       -2 0.17852321E+00 0.72520655E+03</pdfrwt>
<totfact> 0.75425167E+01</totfact>
</mgrwt>
</event>
<event>
 4    1  0.5900026E-005  0.5218614E+03  0.7818608E-02  0.1008225E+00
          2   -1    0    0  501    0  0.00000000000E+00  0.00000000000E+00  0.13831991723E+04  0.13831991723E+04  0.25500000000E-02 0.  1.
         -2   -1    0    0    0  501 -0.00000000000E+00 -0.00000000000E+00 -0.49222725538E+02  0.49222725604E+02  0.25500000000E-02 0. -1.
    5000001    1    1    2    0    0  0.65793100042E+02  0.13238113335E+03  0.93264679569E+03  0.96361171744E+03  0.19200000000E+03 0.  0.
   -5000001    1    1    2    0    0 -0.65793100042E+02 -0.13238113335E+03  0.40132965111E+03  0.46881018050E+03  0.19200000000E+03 0.  0.
<mgrwt>
<rscale>  0 0.52186141E+03</rscale>
<asrwt>0</asrwt>
<pdfrwt beam="1">  1        2 0.19759991E+00 0.52186141E+03</pdfrwt>
<pdfrwt beam="2">  1       -2 0.70318171E-02 0.52186141E+03</pdfrwt>
<totfact> 0.20650981E+03</totfact>
</mgrwt>
</event>
<event>
 4    1  0.5900026E-005  0.6401731E+03  0.7818608E-02  0.9825395E-01
         -2   -1    0    0    0  501 -0.00000000000E+00  0.00000000000E+00  0.81251456756E+03  0.81251456757E+03  0.25500000000E-02 0. -1.
          2   -1    0    0  501    0  0.00000000000E+00 -0.00000000000E+00 -0.12609668216E+03  0.12609668218E+03  0.25500000000E-02 0.  1.
    5000001    1    1    2    0    0 -0.14357369922E+03 -0.17295085319E+03  0.16324432094E+03  0.33769529616E+03  0.19200000000E+03 0.  0.
   -5000001    1    1    2    0    0  0.14357369922E+03  0.17295085319E+03  0.52317356446E+03  0.60091595359E+03  0.19200000000E+03 0.  0.
<mgrwt>
<rscale>  0 0.64017307E+03</rscale>
<asrwt>0</asrwt>
<pdfrwt beam="1">  1        2 0.18013812E-01 0.64017307E+03</pdfrwt>
<pdfrwt beam="2">  1       -2 0.11607351E+00 0.64017307E+03</pdfrwt>
<totfact> 0.18764706E+02</totfact>
</mgrwt>
</event>
<event>
 4    1  0.5900026E-005  0.6737961E+03  0.7818608E-02  0.9763124E-01
         -2   -1    0    0    0  501 -0.00000000000E+00  0.00000000000E+00  0.40390212871E+02  0.40390212951E+02  0.25500000000E-02 0. -1.
          2   -1    0    0  501    0  0.00000000000E+00 -0.00000000000E+00 -0.28100941636E+04  0.28100941636E+04  0.25500000000E-02 0.  1.
    5000001    1    1    2    0    0 -0.20371046246E+03 -0.18596979453E+03 -0.14843884266E+04  0.15219578569E+04  0.19200000000E+03 0.  0.
   -5000001    1    1    2    0    0  0.20371046246E+03  0.18596979453E+03 -0.12853155241E+04  0.13285265197E+04  0.19200000000E+03 0.  0.
<mgrwt>
<rscale>  0 0.67379612E+03</rscale>
<asrwt>0</asrwt>
<pdfrwt beam="1">  1        2 0.40144190E+00 0.67379612E+03</pdfrwt>
<pdfrwt beam="2">  1       -2 0.57700322E-02 0.67379612E+03</pdfrwt>
<totfact> 0.52018936E+02</totfact>
</mgrwt>
</event>
<event>
 4    1  0.5900026E-005  0.4731861E+03  0.7818608E-02  0.1021025E+00
         -2   -1    0    0    0  501 -0.00000000000E+00  0.00000000000E+00  0.40718325103E+02  0.40718325183E+02  0.25500000000E-02 0. -1.
          2   -1    0    0  501    0  0.00000000000E+00 -0.00000000000E+00 -0.13747191947E+04  0.13747191947E+04  0.25500000000E-02 0.  1.
    5000001    1    1    2    0    0 -0.79230529623E+02  0.62304462420E+02 -0.38396448519E+03  0.44096717423E+03  0.19200000000E+03 0.  0.
   -5000001    1    1    2    0    0  0.79230529623E+02 -0.62304462420E+02 -0.95003638437E+03  0.97447034562E+03  0.19200000000E+03 0.  0.
<mgrwt>
<rscale>  0 0.47318607E+03</rscale>
<asrwt>0</asrwt>
<pdfrwt beam="1">  1        2 0.19638843E+00 0.47318607E+03</pdfrwt>
<pdfrwt beam="2">  1       -2 0.58169045E-02 0.47318607E+03</pdfrwt>
<totfact> 0.28096887E+03</totfact>
</mgrwt>
</event>
<event>
 4    1  0.5900026E-005  0.5402527E+03  0.7818608E-02  0.1003776E+00
          2   -1    0    0  501    0  0.00000000000E+00  0.00000000000E+00  0.25334911666E+03  0.25334911667E+03  0.25500000000E-02 0.  1.
         -2   -1    0    0    0  501 -0.00000000000E+00 -0.00000000000E+00 -0.28801461308E+03  0.28801461309E+03  0.25500000000E-02 0. -1.
    5000001    1    1    2    0    0 -0.15989449119E+03  0.98662253640E+02  0.11076201771E+02  0.26886273608E+03  0.19200000000E+03 0.  0.
   -5000001    1    1    2    0    0  0.15989449119E+03 -0.98662253640E+02 -0.45741698194E+02  0.27250099368E+03  0.19200000000E+03 0.  0.
<mgrwt>
<rscale>  0 0.54025271E+03</rscale>
<asrwt>0</asrwt>
<pdfrwt beam="1">  1        2 0.36192731E-01 0.54025271E+03</pdfrwt>
<pdfrwt beam="2">  1       -2 0.41144944E-01 0.54025271E+03</pdfrwt>
<totfact> 0.80930809E+02</totfact>
</mgrwt>
</event>
<event>
 4    1  0.5900026E-005  0.5055083E+03  0.7818608E-02  0.1012351E+00
          2   -1    0    0  501    0  0.00000000000E+00  0.00000000000E+00  0.19442466093E+04  0.19442466093E+04  0.25500000000E-02 0.  1.
         -2   -1    0    0    0  501 -0.00000000000E+00 -0.00000000000E+00 -0.32858305875E+02  0.32858305974E+02  0.25500000000E-02 0. -1.
    5000001    1    1    2    0    0 -0.29925541401E+02  0.10290278851E+03  0.14431921711E+04  0.14598466237E+04  0.19200000000E+03 0.  0.
   -5000001    1    1    2    0    0  0.29925541401E+02 -0.10290278851E+03  0.46819613232E+03  0.51725829160E+03  0.19200000000E+03 0.  0.
<mgrwt>
<rscale>  0 0.50550826E+03</rscale>
<asrwt>0</asrwt>
<pdfrwt beam="1">  1        2 0.27774951E+00 0.50550826E+03</pdfrwt>
<pdfrwt beam="2">  1       -2 0.46940437E-02 0.50550826E+03</pdfrwt>
<totfact> 0.20064491E+03</totfact>
</mgrwt>
</event>
<event>
 4    1  0.5900026E-005  0.7771591E+03  0.7818608E-02  0.9593680E-01
          2   -1    0    0  501    0  0.00000000000E+00  0.00000000000E+00  0.10678357938E+04  0.10678357938E+04  0.25500000000E-02 0.  1.
         -2   -1    0    0    0  501 -0.00000000000E+00 -0.00000000000E+00 -0.14140196073E+03  0.14140196075E+03  0.25500000000E-02 0. -1.
    5000001    1    1    2    0    0  0.27673196970E+03  0.19543943730E+02  0.16324294178E+03  0.37479968894E+03  0.19200000000E+03 0.  0.
   -5000001    1    1    2    0    0 -0.27673196970E+03 -0.19543943730E+02  0.76319089130E+03  0.83443806561E+03  0.19200000000E+03 0.  0.
<mgrwt>
<rscale>  0 0.77715912E+03</rscale>
<asrwt>0</asrwt>
<pdfrwt beam="1">  1        2 0.15254798E+00 0.77715912E+03</pdfrwt>
<pdfrwt beam="2">  1       -2 0.20200279E-01 0.77715912E+03</pdfrwt>
<totfact> 0.53723343E+02</totfact>
</mgrwt>
</event>
<event>
 4    1  0.5900026E-005  0.8183150E+03  0.7818608E-02  0.9533879E-01
         -2   -1    0    0    0  501 -0.00000000000E+00  0.00000000000E+00  0.16566380412E+03  0.16566380414E+03  0.25500000000E-02 0. -1.
          2   -1    0    0  501    0  0.00000000000E+00 -0.00000000000E+00 -0.10105397042E+04  0.10105397042E+04  0.25500000000E-02 0.  1.
    5000001    1    1    2    0    0 -0.24385995016E+03 -0.20502715761E+03 -0.17748902608E+03  0.41215308446E+03  0.19200000000E+03 0.  0.
   -5000001    1    1    2    0    0  0.24385995016E+03  0.20502715761E+03 -0.66738687405E+03  0.76405042392E+03  0.19200000000E+03 0.  0.
<mgrwt>
<rscale>  0 0.81831498E+03</rscale>
<asrwt>0</asrwt>
<pdfrwt beam="1">  1        2 0.14436281E+00 0.81831498E+03</pdfrwt>
<pdfrwt beam="2">  1       -2 0.23666258E-01 0.81831498E+03</pdfrwt>
<totfact> 0.43873485E+02</totfact>
</mgrwt>
</event>
<event>
 4    1  0.5900026E-005  0.1049038E+04  0.7818608E-02  0.9256338E-01
         -2   -1    0    0    0  501 -0.00000000000E+00  0.00000000000E+00  0.12507020025E+03  0.12507020028E+03  0.25500000000E-02 0. -1.
          2   -1    0    0  501    0  0.00000000000E+00 -0.00000000000E+00 -0.21997269637E+04  0.21997269637E+04  0.25500000000E-02 0.  1.
    5000001    1    1    2    0    0  0.46406106951E+03  0.11495527149E+03 -0.81919053424E+03  0.96773163742E+03  0.19200000000E+03 0.  0.
   -5000001    1    1    2    0    0 -0.46406106951E+03 -0.11495527149E+03 -0.12554662292E+04  0.13570655266E+04  0.19200000000E+03 0.  0.
<mgrwt>
<rscale>  0 0.10490382E+04</rscale>
<asrwt>0</asrwt>
<pdfrwt beam="1">  1        2 0.31424669E+00 0.10490382E+04</pdfrwt>
<pdfrwt beam="2">  1       -2 0.17867173E-01 0.10490382E+04</pdfrwt>
<totfact> 0.16451814E+02</totfact>
</mgrwt>
</event>
<event>
 4    1  0.5900026E-005  0.4222744E+03  0.7818608E-02  0.1036329E+00
         -2   -1    0    0    0  501 -0.00000000000E+00  0.00000000000E+00  0.33633334448E+03  0.33633334449E+03  0.25500000000E-02 0. -1.
          2   -1    0    0  501    0  0.00000000000E+00 -0.00000000000E+00 -0.13254382489E+03  0.13254382492E+03  0.25500000000E-02 0.  1.
    5000001    1    1    2    0    0 -0.46924209789E+02  0.58204133675E+02  0.50705949112E+02  0.21219023521E+03  0.19200000000E+03 0.  0.
   -5000001    1    1    2    0    0  0.46924209789E+02 -0.58204133675E+02  0.15308357047E+03  0.25668693420E+03  0.19200000000E+03 0.  0.
<mgrwt>
<rscale>  0 0.42227436E+03</rscale>
<asrwt>0</asrwt>
<pdfrwt beam="1">  1        2 0.18934832E-01 0.42227436E+03</pdfrwt>
<pdfrwt beam="2">  1       -2 0.48047621E-01 0.42227436E+03</pdfrwt>
<totfact> 0.12412157E+03</totfact>
</mgrwt>
</event>
<event>
 4    1  0.5900026E-005  0.4390492E+03  0.7818608E-02  0.1031039E+00
          2   -1    0    0  501    0  0.00000000000E+00  0.00000000000E+00  0.12965370168E+03  0.12965370170E+03  0.25500000000E-02 0.  1.
         -2   -1    0    0    0  501 -0.00000000000E+00 -0.00000000000E+00 -0.37169049780E+03  0.37169049781E+03  0.25500000000E-02 0. -1.
    5000001    1    1    2    0    0 -0.54118958916E+02 -0.81715098064E+02 -0.16838713327E+03  0.27354057399E+03  0.19200000000E+03 0.  0.
   -5000001    1    1    2    0    0  0.54118958916E+02  0.81715098064E+02 -0.73649662852E+02  0.22780362553E+03  0.19200000000E+03 0.  0.
<mgrwt>
<rscale>  0 0.43904920E+03</rscale>
<asrwt>0</asrwt>
<pdfrwt beam="1">  1        2 0.18521958E-01 0.43904920E+03</pdfrwt>
<pdfrwt beam="2">  1       -2 0.53098642E-01 0.43904920E+03</pdfrwt>
<totfact> 0.10412754E+03</totfact>
</mgrwt>
</event>
<event>
 4    1  0.5900026E-005  0.5865601E+03  0.7818608E-02  0.9933689E-01
         -2   -1    0    0    0  501 -0.00000000000E+00  0.00000000000E+00  0.40714007219E+02  0.40714007299E+02  0.25500000000E-02 0. -1.
          2   -1    0    0  501    0  0.00000000000E+00 -0.00000000000E+00 -0.21126192494E+04  0.21126192494E+04  0.25500000000E-02 0.  1.
    5000001    1    1    2    0    0 -0.14435126741E+03 -0.75872628870E+02 -0.15872964850E+04  0.16071614964E+04  0.19200000000E+03 0.  0.
   -5000001    1    1    2    0    0  0.14435126741E+03  0.75872628870E+02 -0.48460875719E+03  0.54617176031E+03  0.19200000000E+03 0.  0.
<mgrwt>
<rscale>  0 0.58656013E+03</rscale>
<asrwt>0</asrwt>
<pdfrwt beam="1">  1        2 0.30180268E+00 0.58656013E+03</pdfrwt>
<pdfrwt beam="2">  1       -2 0.58162881E-02 0.58656013E+03</pdfrwt>
<totfact> 0.11802423E+03</totfact>
</mgrwt>
</event>
<event>
 4    1  0.5900026E-005  0.6470219E+03  0.7818608E-02  0.9812383E-01
          2   -1    0    0  501    0  0.00000000000E+00  0.00000000000E+00  0.10737390304E+04  0.10737390304E+04  0.25500000000E-02 0. -1.
         -2   -1    0    0    0  501 -0.00000000000E+00 -0.00000000000E+00 -0.97471852031E+02  0.97471852064E+02  0.25500000000E-02 0.  1.
    5000001    1    1    2    0    0  0.25150911124E+03  0.19725429246E+02  0.37153075517E+03  0.48841071613E+03  0.19200000000E+03 0.  0.
   -5000001    1    1    2    0    0 -0.25150911124E+03 -0.19725429246E+02  0.60473642317E+03  0.68280016631E+03  0.19200000000E+03 0.  0.
<mgrwt>
<rscale>  0 0.64702189E+03</rscale>
<asrwt>0</asrwt>
<pdfrwt beam="1">  1        2 0.15339129E+00 0.64702189E+03</pdfrwt>
<pdfrwt beam="2">  1       -2 0.13924550E-01 0.64702189E+03</pdfrwt>
<totfact> 0.10116520E+03</totfact>
</mgrwt>
</event>
<event>
 4    1  0.5900026E-005  0.4944057E+03  0.7818608E-02  0.1015250E+00
         -2   -1    0    0    0  501 -0.00000000000E+00  0.00000000000E+00  0.88788167371E+02  0.88788167407E+02  0.25500000000E-02 0. -1.
          2   -1    0    0  501    0  0.00000000000E+00 -0.00000000000E+00 -0.68825897550E+03  0.68825897550E+03  0.25500000000E-02 0.  1.
    5000001    1    1    2    0    0  0.71105902047E+02  0.71110223041E+02 -0.48657718405E+03  0.53266694019E+03  0.19200000000E+03 0.  0.
   -5000001    1    1    2    0    0 -0.71105902047E+02 -0.71110223041E+02 -0.11289362407E+03  0.24438020272E+03  0.19200000000E+03 0.  0.
<mgrwt>
<rscale>  0 0.49440572E+03</rscale>
<asrwt>0</asrwt>
<pdfrwt beam="1">  1        2 0.98322708E-01 0.49440572E+03</pdfrwt>
<pdfrwt beam="2">  1       -2 0.12684024E-01 0.49440572E+03</pdfrwt>
<totfact> 0.21267648E+03</totfact>
</mgrwt>
</event>
<event>
 4    1  0.5900026E-005  0.7044708E+03  0.7818608E-02  0.9709617E-01
          2   -1    0    0  501    0  0.00000000000E+00  0.00000000000E+00  0.50988097950E+03  0.50988097950E+03  0.25500000000E-02 0.  1.
         -2   -1    0    0    0  501 -0.00000000000E+00 -0.00000000000E+00 -0.24333083899E+03  0.24333083900E+03  0.25500000000E-02 0. -1.
    5000001    1    1    2    0    0 -0.23235247414E+03  0.73050308795E+02 -0.45256134715E+02  0.31342644685E+03  0.19200000000E+03 0.  0.
   -5000001    1    1    2    0    0  0.23235247414E+03 -0.73050308795E+02  0.31180627523E+03  0.43978537166E+03  0.19200000000E+03 0.  0.
<mgrwt>
<rscale>  0 0.70447077E+03</rscale>
<asrwt>0</asrwt>
<pdfrwt beam="1">  1        2 0.72840140E-01 0.70447077E+03</pdfrwt>
<pdfrwt beam="2">  1       -2 0.34761548E-01 0.70447077E+03</pdfrwt>
<totfact> 0.51226820E+02</totfact>
</mgrwt>
</event>
<event>
 4    1  0.5900026E-005  0.4815682E+03  0.7818608E-02  0.1018705E+00
         -2   -1    0    0    0  501 -0.00000000000E+00  0.00000000000E+00  0.33409931362E+03  0.33409931363E+03  0.25500000000E-02 0. -1.
          2   -1    0    0  501    0  0.00000000000E+00 -0.00000000000E+00 -0.17353220211E+03  0.17353220213E+03  0.25500000000E-02 0.  1.
    5000001    1    1    2    0    0 -0.17062377087E+02  0.10903374660E+03 -0.19349108074E+02  0.22230130587E+03  0.19200000000E+03 0.  0.
   -5000001    1    1    2    0    0  0.17062377087E+02 -0.10903374660E+03  0.17991621958E+03  0.28533020989E+03  0.19200000000E+03 0.  0.
<mgrwt>
<rscale>  0 0.48156823E+03</rscale>
<asrwt>0</asrwt>
<pdfrwt beam="1">  1        2 0.24790315E-01 0.48156823E+03</pdfrwt>
<pdfrwt beam="2">  1       -2 0.47728473E-01 0.48156823E+03</pdfrwt>
<totfact> 0.92279168E+02</totfact>
</mgrwt>
</event>
<event>
 4    1  0.5900026E-005  0.7648729E+03  0.7818608E-02  0.9612302E-01
         -2   -1    0    0    0  501 -0.00000000000E+00  0.00000000000E+00  0.61697919240E+02  0.61697919292E+02  0.25500000000E-02 0. -1.
          2   -1    0    0  501    0  0.00000000000E+00 -0.00000000000E+00 -0.23705442873E+04  0.23705442873E+04  0.25500000000E-02 0.  1.
    5000001    1    1    2    0    0 -0.26341417410E+02 -0.21444718622E+03 -0.19507539455E+04  0.19720513233E+04  0.19200000000E+03 0.  0.
   -5000001    1    1    2    0    0  0.26341417410E+02  0.21444718622E+03 -0.35809242257E+03  0.46019088328E+03  0.19200000000E+03 0.  0.
<mgrwt>
<rscale>  0 0.76487293E+03</rscale>
<asrwt>0</asrwt>
<pdfrwt beam="1">  1        2 0.33864913E+00 0.76487293E+03</pdfrwt>
<pdfrwt beam="2">  1       -2 0.88139900E-02 0.76487293E+03</pdfrwt>
<totfact> 0.44631292E+02</totfact>
</mgrwt>
</event>
<event>
 4    1  0.5900026E-005  0.4772381E+03  0.7818608E-02  0.1019897E+00
          2   -1    0    0  501    0  0.00000000000E+00  0.00000000000E+00  0.19785669632E+04  0.19785669632E+04  0.25500000000E-02 0.  1.
         -2   -1    0    0    0  501 -0.00000000000E+00 -0.00000000000E+00 -0.28777928984E+02  0.28777929097E+02  0.25500000000E-02 0. -1.
    5000001    1    1    2    0    0 -0.13534439027E+03 -0.58291760485E+01  0.80030164033E+03  0.83408560639E+03  0.19200000000E+03 0.  0.
   -5000001    1    1    2    0    0  0.13534439027E+03  0.58291760485E+01  0.11494873939E+04  0.11732592859E+04  0.19200000000E+03 0.  0.
<mgrwt>
<rscale>  0 0.47723814E+03</rscale>
<asrwt>0</asrwt>
<pdfrwt beam="1">  1        2 0.28265246E+00 0.47723814E+03</pdfrwt>
<pdfrwt beam="2">  1       -2 0.41111323E-02 0.47723814E+03</pdfrwt>
<totfact> 0.23669384E+03</totfact>
</mgrwt>
</event>
<event>
 4    1  0.5900026E-005  0.5873828E+03  0.7818608E-02  0.9931934E-01
          2   -1    0    0  501    0  0.00000000000E+00  0.00000000000E+00  0.68827802952E+03  0.68827802953E+03  0.25500000000E-02 0.  1.
         -2   -1    0    0    0  501 -0.00000000000E+00 -0.00000000000E+00 -0.12531946484E+03  0.12531946486E+03  0.25500000000E-02 0. -1.
    5000001    1    1    2    0    0 -0.17084117760E+03 -0.83471354444E+02  0.44083744094E+03  0.51706462296E+03  0.19200000000E+03 0.  0.
   -5000001    1    1    2    0    0  0.17084117760E+03  0.83471354444E+02  0.12212112375E+03  0.29653287144E+03  0.19200000000E+03 0.  0.
<mgrwt>
<rscale>  0 0.58738279E+03</rscale>
<asrwt>0</asrwt>
<pdfrwt beam="1">  1        2 0.98325433E-01 0.58738279E+03</pdfrwt>
<pdfrwt beam="2">  1       -2 0.17902781E-01 0.58738279E+03</pdfrwt>
<totfact> 0.11912277E+03</totfact>
</mgrwt>
</event>
<event>
 4    1  0.5900026E-005  0.6101008E+03  0.7818608E-02  0.9884669E-01
          2   -1    0    0  501    0  0.00000000000E+00  0.00000000000E+00  0.11292040669E+04  0.11292040669E+04  0.25500000000E-02 0.  1.
         -2   -1    0    0    0  501 -0.00000000000E+00 -0.00000000000E+00 -0.82408252439E+02  0.82408252478E+02  0.25500000000E-02 0. -1.
    5000001    1    1    2    0    0  0.12942086429E+03 -0.10336024290E+03  0.86017786784E+03  0.89677369734E+03  0.19200000000E+03 0.  0.
   -5000001    1    1    2    0    0 -0.12942086429E+03  0.10336024290E+03  0.18661794663E+03  0.31483862205E+03  0.19200000000E+03 0.  0.
<mgrwt>
<rscale>  0 0.61010076E+03</rscale>
<asrwt>0</asrwt>
<pdfrwt beam="1">  1        2 0.16131487E+00 0.61010076E+03</pdfrwt>
<pdfrwt beam="2">  1       -2 0.11772607E-01 0.61010076E+03</pdfrwt>
<totfact> 0.12418234E+03</totfact>
</mgrwt>
</event>
<event>
 4    1  0.5900026E-005  0.5640570E+03  0.7818608E-02  0.9982916E-01
         -2   -1    0    0    0  501 -0.00000000000E+00  0.00000000000E+00  0.53673546785E+02  0.53673546846E+02  0.25500000000E-02 0. -1.
          2   -1    0    0  501    0  0.00000000000E+00 -0.00000000000E+00 -0.14819233216E+04  0.14819233216E+04  0.25500000000E-02 0.  1.
    5000001    1    1    2    0    0  0.29752192814E+02  0.19701527371E+03 -0.86263675727E+03  0.90592846629E+03  0.19200000000E+03 0.  0.
   -5000001    1    1    2    0    0 -0.29752192814E+02 -0.19701527371E+03 -0.56561301754E+03  0.62966840215E+03  0.19200000000E+03 0.  0.
<mgrwt>
<rscale>  0 0.56405702E+03</rscale>
<asrwt>0</asrwt>
<pdfrwt beam="1">  1        2 0.21170331E+00 0.56405702E+03</pdfrwt>
<pdfrwt beam="2">  1       -2 0.76676505E-02 0.56405702E+03</pdfrwt>
<totfact> 0.15963102E+03</totfact>
</mgrwt>
</event>
<event>
 4    1  0.5900026E-005  0.6046701E+03  0.7818608E-02  0.9895764E-01
         -2   -1    0    0    0  501 -0.00000000000E+00  0.00000000000E+00  0.30174156465E+02  0.30174156573E+02  0.25500000000E-02 0. -1.
          2   -1    0    0  501    0  0.00000000000E+00 -0.00000000000E+00 -0.30292970173E+04  0.30292970173E+04  0.25500000000E-02 0.  1.
    5000001    1    1    2    0    0 -0.55924636771E+02  0.18908774027E+03 -0.86637140512E+03  0.90903528542E+03  0.19200000000E+03 0.  0.
   -5000001    1    1    2    0    0  0.55924636771E+02 -0.18908774027E+03 -0.21327514557E+04  0.21504358885E+04  0.19200000000E+03 0.  0.
<mgrwt>
<rscale>  0 0.60467010E+03</rscale>
<asrwt>0</asrwt>
<pdfrwt beam="1">  1        2 0.43275652E+00 0.60467010E+03</pdfrwt>
<pdfrwt beam="2">  1       -2 0.43105957E-02 0.60467010E+03</pdfrwt>
<totfact> 0.62734521E+02</totfact>
</mgrwt>
</event>
<event>
 4    1  0.5900026E-005  0.6576013E+03  0.7818608E-02  0.9792619E-01
          2   -1    0    0  501    0  0.00000000000E+00  0.00000000000E+00  0.15225766100E+04  0.15225766100E+04  0.25500000000E-02 0. -1.
         -2   -1    0    0    0  501 -0.00000000000E+00 -0.00000000000E+00 -0.71004558974E+02  0.71004559020E+02  0.25500000000E-02 0.  1.
    5000001    1    1    2    0    0 -0.24206892623E+03 -0.20548073995E+02  0.45783286285E+03  0.55271558572E+03  0.19200000000E+03 0.  0.
   -5000001    1    1    2    0    0  0.24206892623E+03  0.20548073995E+02  0.99373918813E+03  0.10408655833E+04  0.19200000000E+03 0.  0.
<mgrwt>
<rscale>  0 0.65760134E+03</rscale>
<asrwt>0</asrwt>
<pdfrwt beam="1">  1        2 0.21751093E+00 0.65760134E+03</pdfrwt>
<pdfrwt beam="2">  1       -2 0.10143509E-01 0.65760134E+03</pdfrwt>
<totfact> 0.96661416E+02</totfact>
</mgrwt>
</event>
<event>
 4    1  0.5900026E-005  0.7934921E+03  0.7818608E-02  0.9569485E-01
         -2   -1    0    0    0  501 -0.00000000000E+00  0.00000000000E+00  0.35914391454E+03  0.35914391455E+03  0.25500000000E-02 0. -1.
          2   -1    0    0  501    0  0.00000000000E+00 -0.00000000000E+00 -0.43828514981E+03  0.43828514982E+03  0.25500000000E-02 0.  1.
    5000001    1    1    2    0    0  0.13460962656E+03  0.29457682987E+03 -0.16528396916E+03  0.41119101489E+03  0.19200000000E+03 0.  0.
   -5000001    1    1    2    0    0 -0.13460962656E+03 -0.29457682987E+03  0.86142733884E+02  0.38623804948E+03  0.19200000000E+03 0.  0.
<mgrwt>
<rscale>  0 0.79349214E+03</rscale>
<asrwt>0</asrwt>
<pdfrwt beam="1">  1        2 0.62612164E-01 0.79349214E+03</pdfrwt>
<pdfrwt beam="2">  1       -2 0.51306274E-01 0.79349214E+03</pdfrwt>
<totfact> 0.28189654E+02</totfact>
</mgrwt>
</event>
<event>
 4    1  0.5900026E-005  0.7719921E+03  0.7818608E-02  0.9601466E-01
          2   -1    0    0  501    0  0.00000000000E+00  0.00000000000E+00  0.31171880015E+03  0.31171880016E+03  0.25500000000E-02 0.  1.
         -2   -1    0    0    0  501 -0.00000000000E+00 -0.00000000000E+00 -0.47797223631E+03  0.47797223632E+03  0.25500000000E-02 0. -1.
    5000001    1    1    2    0    0 -0.19550271770E+03 -0.27170150442E+03 -0.92608085818E+02  0.39684162797E+03  0.19200000000E+03 0.  0.
   -5000001    1    1    2    0    0  0.19550271770E+03  0.27170150442E+03 -0.73645350344E+02  0.39284940850E+03  0.19200000000E+03 0.  0.
<mgrwt>
<rscale>  0 0.77199205E+03</rscale>
<asrwt>0</asrwt>
<pdfrwt beam="1">  1        2 0.44531257E-01 0.77199205E+03</pdfrwt>
<pdfrwt beam="2">  1       -2 0.68281748E-01 0.77199205E+03</pdfrwt>
<totfact> 0.22604486E+02</totfact>
</mgrwt>
</event>
<event>
 4    1  0.5900026E-005  0.4450531E+03  0.7818608E-02  0.1029208E+00
          2   -1    0    0  501    0  0.00000000000E+00  0.00000000000E+00  0.10706770538E+04  0.10706770538E+04  0.25500000000E-02 0.  1.
         -2   -1    0    0    0  501 -0.00000000000E+00 -0.00000000000E+00 -0.46249311204E+02  0.46249311275E+02  0.25500000000E-02 0. -1.
    5000001    1    1    2    0    0 -0.42433377630E+02  0.92435275768E+02  0.63281291596E+03  0.66907477785E+03  0.19200000000E+03 0.  0.
   -5000001    1    1    2    0    0  0.42433377630E+02 -0.92435275768E+02  0.39161482662E+03  0.44785158722E+03  0.19200000000E+03 0.  0.
<mgrwt>
<rscale>  0 0.44505315E+03</rscale>
<asrwt>0</asrwt>
<pdfrwt beam="1">  1        2 0.15295387E+00 0.44505315E+03</pdfrwt>
<pdfrwt beam="2">  1       -2 0.66070441E-02 0.44505315E+03</pdfrwt>
<totfact> 0.33910816E+03</totfact>
</mgrwt>
</event>
