<event>
 4    1  0.3147937E-004  0.3263011E+03  0.7818608E-02  0.1072785E+00
         -1   -1    0    0    0  501 -0.00000000000E+00  0.00000000000E+00  0.18270410617E+02  0.18270411312E+02  0.50400000000E-02 0. -1.
          1   -1    0    0  501    0  0.00000000000E+00 -0.00000000000E+00 -0.14568966411E+04  0.14568966411E+04  0.50400000000E-02 0.  1.
    5000001    1    1    2    0    0  0.11225662230E+03  0.40530811646E+00 -0.11258751188E+04  0.11340747315E+04  0.77000000000E+02 0.  0.
   -5000001    1    1    2    0    0 -0.11225662230E+03 -0.40530811646E+00 -0.31275111169E+03  0.34109232092E+03  0.77000000000E+02 0.  0.
<mgrwt>
<rscale>  0 0.32630109E+03</rscale>
<asrwt>0</asrwt>
<pdfrwt beam="1">  1        1 0.22413785E+00 0.32630109E+03</pdfrwt>
<pdfrwt beam="2">  1       -1 0.28108336E-02 0.32630109E+03</pdfrwt>
<totfact> 0.31792771E+03</totfact>
</mgrwt>
</event>
<event>
 4    1  0.3147937E-004  0.1785015E+03  0.7818608E-02  0.1169261E+00
          1   -1    0    0  501    0  0.00000000000E+00  0.00000000000E+00  0.72568945209E+03  0.72568945211E+03  0.50400000000E-02 0.  1.
         -1   -1    0    0    0  501 -0.00000000000E+00 -0.00000000000E+00 -0.10976723919E+02  0.10976725076E+02  0.50400000000E-02 0. -1.
    5000001    1    1    2    0    0  0.28111446982E+02  0.24314400442E+02  0.25171540015E+03  0.26584033966E+03  0.77000000000E+02 0.  0.
   -5000001    1    1    2    0    0 -0.28111446982E+02 -0.24314400442E+02  0.46299732802E+03  0.47082583752E+03  0.77000000000E+02 0.  0.
<mgrwt>
<rscale>  0 0.17850146E+03</rscale>
<asrwt>0</asrwt>
<pdfrwt beam="1">  1        1 0.11164456E+00 0.17850146E+03</pdfrwt>
<pdfrwt beam="2">  1       -1 0.16887263E-02 0.17850146E+03</pdfrwt>
<totfact> 0.22697688E+04</totfact>
</mgrwt>
</event>
<event>
 4    1  0.3147937E-004  0.2233337E+03  0.7818608E-02  0.1131422E+00
         -1   -1    0    0    0  501 -0.00000000000E+00  0.00000000000E+00  0.15828382346E+02  0.15828383148E+02  0.50400000000E-02 0. -1.
          1   -1    0    0  501    0  0.00000000000E+00 -0.00000000000E+00 -0.78779287707E+03  0.78779287708E+03  0.50400000000E-02 0.  1.
    5000001    1    1    2    0    0  0.22174892801E+02  0.77478406579E+02 -0.41034935157E+03  0.42521784969E+03  0.77000000000E+02 0.  0.
   -5000001    1    1    2    0    0 -0.22174892801E+02 -0.77478406579E+02 -0.36161514315E+03  0.37840341054E+03  0.77000000000E+02 0.  0.
<mgrwt>
<rscale>  0 0.22333372E+03</rscale>
<asrwt>0</asrwt>
<pdfrwt beam="1">  1        1 0.12119887E+00 0.22333372E+03</pdfrwt>
<pdfrwt beam="2">  1       -1 0.24351364E-02 0.22333372E+03</pdfrwt>
<totfact> 0.11956676E+04</totfact>
</mgrwt>
</event>
<event>
 4    1  0.3147937E-004  0.2178936E+03  0.7818608E-02  0.1135463E+00
          1   -1    0    0  501    0  0.00000000000E+00  0.00000000000E+00  0.21693485583E+03  0.21693485589E+03  0.50400000000E-02 0.  1.
         -1   -1    0    0    0  501 -0.00000000000E+00 -0.00000000000E+00 -0.54714121782E+02  0.54714122014E+02  0.50400000000E-02 0. -1.
    5000001    1    1    2    0    0  0.19098431734E+02  0.55209667280E+02  0.14378805164E+03  0.17325374815E+03  0.77000000000E+02 0.  0.
   -5000001    1    1    2    0    0 -0.19098431734E+02 -0.55209667280E+02  0.18432682408E+02  0.98395229745E+02  0.77000000000E+02 0.  0.
<mgrwt>
<rscale>  0 0.21789355E+03</rscale>
<asrwt>0</asrwt>
<pdfrwt beam="1">  1        1 0.33374593E-01 0.21789355E+03</pdfrwt>
<pdfrwt beam="2">  1       -1 0.84175572E-02 0.21789355E+03</pdfrwt>
<totfact> 0.10273308E+04</totfact>
</mgrwt>
</event>
<event>
 4    1  0.3147937E-004  0.2154146E+03  0.7818608E-02  0.1137349E+00
          1   -1    0    0  501    0  0.00000000000E+00  0.00000000000E+00  0.40226136811E+03  0.40226136814E+03  0.50400000000E-02 0. -1.
         -1   -1    0    0    0  501 -0.00000000000E+00 -0.00000000000E+00 -0.28839129082E+02  0.28839129522E+02  0.50400000000E-02 0.  1.
    5000001    1    1    2    0    0  0.26528469824E+02  0.66025938641E+02  0.13733704145E+03  0.17278208020E+03  0.77000000000E+02 0.  0.
   -5000001    1    1    2    0    0 -0.26528469824E+02 -0.66025938641E+02  0.23608519757E+03  0.25831841746E+03  0.77000000000E+02 0.  0.
<mgrwt>
<rscale>  0 0.21541465E+03</rscale>
<asrwt>0</asrwt>
<pdfrwt beam="1">  1        1 0.61886364E-01 0.21541465E+03</pdfrwt>
<pdfrwt beam="2">  1       -1 0.44367892E-02 0.21541465E+03</pdfrwt>
<totfact> 0.12389542E+04</totfact>
</mgrwt>
</event>
<event>
 4    1  0.3147937E-004  0.1660866E+03  0.7818608E-02  0.1181991E+00
          1   -1    0    0  501    0  0.00000000000E+00  0.00000000000E+00  0.31290553986E+03  0.31290553990E+03  0.50400000000E-02 0.  1.
         -1   -1    0    0    0  501 -0.00000000000E+00 -0.00000000000E+00 -0.22039203244E+02  0.22039203820E+02  0.50400000000E-02 0. -1.
    5000001    1    1    2    0    0 -0.47905692584E+01  0.30669624896E+02  0.14159963304E+03  0.16414332616E+03  0.77000000000E+02 0.  0.
   -5000001    1    1    2    0    0  0.47905692584E+01 -0.30669624896E+02  0.14926670358E+03  0.17080141757E+03  0.77000000000E+02 0.  0.
<mgrwt>
<rscale>  0 0.16608659E+03</rscale>
<asrwt>0</asrwt>
<pdfrwt beam="1">  1        1 0.48139312E-01 0.16608659E+03</pdfrwt>
<pdfrwt beam="2">  1       -1 0.33906468E-02 0.16608659E+03</pdfrwt>
<totfact> 0.24808422E+04</totfact>
</mgrwt>
</event>
<event>
 4    1  0.3147937E-004  0.2085118E+03  0.7818608E-02  0.1142750E+00
          1   -1    0    0  501    0  0.00000000000E+00  0.00000000000E+00  0.22966166364E+04  0.22966166364E+04  0.50400000000E-02 0.  1.
         -1   -1    0    0    0  501 -0.00000000000E+00 -0.00000000000E+00 -0.47327419736E+01  0.47327446572E+01  0.50400000000E-02 0. -1.
    5000001    1    1    2    0    0 -0.17999565470E+02 -0.67928726381E+02  0.11303300363E+04  0.11351269917E+04  0.77000000000E+02 0.  0.
   -5000001    1    1    2    0    0  0.17999565470E+02  0.67928726381E+02  0.11615538581E+04  0.11662223894E+04  0.77000000000E+02 0.  0.
<mgrwt>
<rscale>  0 0.20851184E+03</rscale>
<asrwt>0</asrwt>
<pdfrwt beam="1">  1        1 0.35332501E+00 0.20851184E+03</pdfrwt>
<pdfrwt beam="2">  1       -1 0.72811565E-03 0.20851184E+03</pdfrwt>
<totfact> 0.64070637E+03</totfact>
</mgrwt>
</event>
<event>
 4    1  0.3147937E-004  0.3489354E+03  0.7818608E-02  0.1063053E+00
          1   -1    0    0  501    0  0.00000000000E+00  0.00000000000E+00  0.51326235655E+03  0.51326235658E+03  0.50400000000E-02 0.  1.
         -1   -1    0    0    0  501 -0.00000000000E+00 -0.00000000000E+00 -0.59304895247E+02  0.59304895461E+02  0.50400000000E-02 0. -1.
    5000001    1    1    2    0    0  0.12134083396E+03  0.28326672574E+02  0.71448174447E+02  0.16297189941E+03  0.77000000000E+02 0.  0.
   -5000001    1    1    2    0    0 -0.12134083396E+03 -0.28326672574E+02  0.38250928686E+03  0.40959535263E+03  0.77000000000E+02 0.  0.
<mgrwt>
<rscale>  0 0.34893535E+03</rscale>
<asrwt>0</asrwt>
<pdfrwt beam="1">  1        1 0.78963440E-01 0.34893535E+03</pdfrwt>
<pdfrwt beam="2">  1       -1 0.91238300E-02 0.34893535E+03</pdfrwt>
<totfact> 0.30728291E+03</totfact>
</mgrwt>
</event>
<event>
 4    1  0.3147937E-004  0.2005765E+03  0.7818608E-02  0.1149254E+00
          1   -1    0    0  501    0  0.00000000000E+00  0.00000000000E+00  0.32705474534E+03  0.32705474538E+03  0.50400000000E-02 0.  1.
         -1   -1    0    0    0  501 -0.00000000000E+00 -0.00000000000E+00 -0.30752442568E+02  0.30752442981E+02  0.50400000000E-02 0. -1.
    5000001    1    1    2    0    0  0.95896254001E+01  0.57621273025E+02  0.10039872871E+03  0.13935952335E+03  0.77000000000E+02 0.  0.
   -5000001    1    1    2    0    0 -0.95896254001E+01 -0.57621273025E+02  0.19590357407E+03  0.21844766502E+03  0.77000000000E+02 0.  0.
<mgrwt>
<rscale>  0 0.20057649E+03</rscale>
<asrwt>0</asrwt>
<pdfrwt beam="1">  1        1 0.50316111E-01 0.20057649E+03</pdfrwt>
<pdfrwt beam="2">  1       -1 0.47311454E-02 0.20057649E+03</pdfrwt>
<totfact> 0.14564394E+04</totfact>
</mgrwt>
</event>
<event>
 4    1  0.3147937E-004  0.1781693E+03  0.7818608E-02  0.1169587E+00
          1   -1    0    0  501    0  0.00000000000E+00  0.00000000000E+00  0.12837067260E+04  0.12837067260E+04  0.50400000000E-02 0.  1.
         -1   -1    0    0    0  501 -0.00000000000E+00 -0.00000000000E+00 -0.61821552168E+01  0.61821572712E+01  0.50400000000E-02 0. -1.
    5000001    1    1    2    0    0  0.79291032584E+01  0.41867624973E+02  0.53862756617E+03  0.54576957019E+03  0.77000000000E+02 0.  0.
   -5000001    1    1    2    0    0 -0.79291032584E+01 -0.41867624973E+02  0.73889700458E+03  0.74411931307E+03  0.77000000000E+02 0.  0.
<mgrwt>
<rscale>  0 0.17816931E+03</rscale>
<asrwt>0</asrwt>
<pdfrwt beam="1">  1        1 0.19749340E+00 0.17816931E+03</pdfrwt>
<pdfrwt beam="2">  1       -1 0.95110068E-03 0.17816931E+03</pdfrwt>
<totfact> 0.19788850E+04</totfact>
</mgrwt>
</event>
<event>
 4    1  0.3147937E-004  0.2961625E+03  0.7818608E-02  0.1087175E+00
         -1   -1    0    0    0  501 -0.00000000000E+00  0.00000000000E+00  0.44459900718E+02  0.44459901004E+02  0.50400000000E-02 0. -1.
          1   -1    0    0  501    0  0.00000000000E+00 -0.00000000000E+00 -0.49320971982E+03  0.49320971985E+03  0.50400000000E-02 0.  1.
    5000001    1    1    2    0    0  0.95473849056E+02  0.82140166301E+02 -0.20314165497E+03  0.25111311148E+03  0.77000000000E+02 0.  0.
   -5000001    1    1    2    0    0 -0.95473849056E+02 -0.82140166301E+02 -0.24560816413E+03  0.28655650937E+03  0.77000000000E+02 0.  0.
<mgrwt>
<rscale>  0 0.29616249E+03</rscale>
<asrwt>0</asrwt>
<pdfrwt beam="1">  1        1 0.75878415E-01 0.29616249E+03</pdfrwt>
<pdfrwt beam="2">  1       -1 0.68399851E-02 0.29616249E+03</pdfrwt>
<totfact> 0.50256366E+03</totfact>
</mgrwt>
</event>
<event>
 4    1  0.3147937E-004  0.1897291E+03  0.7818608E-02  0.1158706E+00
          1   -1    0    0  501    0  0.00000000000E+00  0.00000000000E+00  0.77336758018E+03  0.77336758019E+03  0.50400000000E-02 0.  1.
         -1   -1    0    0    0  501 -0.00000000000E+00 -0.00000000000E+00 -0.11636486251E+02  0.11636487342E+02  0.50400000000E-02 0. -1.
    5000001    1    1    2    0    0 -0.40932272327E+02 -0.37336319153E+02  0.37709609921E+03  0.38884433863E+03  0.77000000000E+02 0.  0.
   -5000001    1    1    2    0    0  0.40932272327E+02  0.37336319153E+02  0.38463499471E+03  0.39615972890E+03  0.77000000000E+02 0.  0.
<mgrwt>
<rscale>  0 0.18972909E+03</rscale>
<asrwt>0</asrwt>
<pdfrwt beam="1">  1        1 0.11897965E+00 0.18972909E+03</pdfrwt>
<pdfrwt beam="2">  1       -1 0.17902284E-02 0.18972909E+03</pdfrwt>
<totfact> 0.19065205E+04</totfact>
</mgrwt>
</event>
<event>
 4    1  0.3147937E-004  0.1965003E+03  0.7818608E-02  0.1152726E+00
          1   -1    0    0  501    0  0.00000000000E+00  0.00000000000E+00  0.54777283581E+02  0.54777283813E+02  0.50400000000E-02 0.  1.
         -1   -1    0    0    0  501 -0.00000000000E+00 -0.00000000000E+00 -0.17622429579E+03  0.17622429586E+03  0.50400000000E-02 0. -1.
    5000001    1    1    2    0    0  0.40807613940E+02 -0.30500890425E+02 -0.21231704780E+02  0.94738328886E+02  0.77000000000E+02 0.  0.
   -5000001    1    1    2    0    0 -0.40807613940E+02  0.30500890425E+02 -0.10021530742E+03  0.13626325078E+03  0.77000000000E+02 0.  0.
<mgrwt>
<rscale>  0 0.19650026E+03</rscale>
<asrwt>0</asrwt>
<pdfrwt beam="1">  1        1 0.84272745E-02 0.19650026E+03</pdfrwt>
<pdfrwt beam="2">  1       -1 0.27111430E-01 0.19650026E+03</pdfrwt>
<totfact> 0.95248568E+03</totfact>
</mgrwt>
</event>
<event>
 4    1  0.3147937E-004  0.2207575E+03  0.7818608E-02  0.1133320E+00
         -1   -1    0    0    0  501 -0.00000000000E+00  0.00000000000E+00  0.15313017445E+02  0.15313018274E+02  0.50400000000E-02 0.  1.
          1   -1    0    0  501    0  0.00000000000E+00 -0.00000000000E+00 -0.79562828538E+03  0.79562828540E+03  0.50400000000E-02 0. -1.
    5000001    1    1    2    0    0 -0.24497123014E+02 -0.71195477893E+02 -0.30126587573E+03  0.31993598264E+03  0.77000000000E+02 0.  0.
   -5000001    1    1    2    0    0  0.24497123014E+02  0.71195477893E+02 -0.47904939221E+03  0.49100532104E+03  0.77000000000E+02 0.  0.
<mgrwt>
<rscale>  0 0.22075752E+03</rscale>
<asrwt>0</asrwt>
<pdfrwt beam="1">  1        1 0.12240432E+00 0.22075752E+03</pdfrwt>
<pdfrwt beam="2">  1       -1 0.23558495E-02 0.22075752E+03</pdfrwt>
<totfact> 0.12354724E+04</totfact>
</mgrwt>
</event>
<event>
 4    1  0.3147937E-004  0.3884717E+03  0.7818608E-02  0.1047846E+00
          1   -1    0    0  501    0  0.00000000000E+00  0.00000000000E+00  0.33783775411E+03  0.33783775415E+03  0.50400000000E-02 0.  1.
         -1   -1    0    0    0  501 -0.00000000000E+00 -0.00000000000E+00 -0.11167362157E+03  0.11167362168E+03  0.50400000000E-02 0. -1.
    5000001    1    1    2    0    0  0.10938864273E+03  0.11636780549E+03  0.21301891100E+02  0.17857802742E+03  0.77000000000E+02 0.  0.
   -5000001    1    1    2    0    0 -0.10938864273E+03 -0.11636780549E+03  0.20486224144E+03  0.27093334841E+03  0.77000000000E+02 0.  0.
<mgrwt>
<rscale>  0 0.38847170E+03</rscale>
<asrwt>0</asrwt>
<pdfrwt beam="1">  1        1 0.51975039E-01 0.38847170E+03</pdfrwt>
<pdfrwt beam="2">  1       -1 0.17180557E-01 0.38847170E+03</pdfrwt>
<totfact> 0.19540763E+03</totfact>
</mgrwt>
</event>
<event>
 4    1  0.3147937E-004  0.1556884E+03  0.7818608E-02  0.1193652E+00
          1   -1    0    0  501    0  0.00000000000E+00  0.00000000000E+00  0.17466030070E+04  0.17466030070E+04  0.50400000000E-02 0. -1.
         -1   -1    0    0    0  501 -0.00000000000E+00 -0.00000000000E+00 -0.34694278094E+01  0.34694314702E+01  0.50400000000E-02 0.  1.
    5000001    1    1    2    0    0 -0.97383373528E+01 -0.33346110347E+01  0.81563128464E+03  0.81932249287E+03  0.77000000000E+02 0.  0.
   -5000001    1    1    2    0    0  0.97383373528E+01  0.33346110347E+01  0.92750229457E+03  0.93074994562E+03  0.77000000000E+02 0.  0.
<mgrwt>
<rscale>  0 0.15568836E+03</rscale>
<asrwt>0</asrwt>
<pdfrwt beam="1">  1        1 0.26870799E+00 0.15568836E+03</pdfrwt>
<pdfrwt beam="2">  1       -1 0.53375874E-03 0.15568836E+03</pdfrwt>
<totfact> 0.22281308E+04</totfact>
</mgrwt>
</event>
<event>
 4    1  0.3147937E-004  0.1654493E+03  0.7818608E-02  0.1182678E+00
          1   -1    0    0  501    0  0.00000000000E+00  0.00000000000E+00  0.53165119082E+03  0.53165119084E+03  0.50400000000E-02 0.  1.
         -1   -1    0    0    0  501 -0.00000000000E+00 -0.00000000000E+00 -0.12871908387E+02  0.12871909373E+02  0.50400000000E-02 0. -1.
    5000001    1    1    2    0    0 -0.50445755771E+01  0.26737522419E+02  0.30280611779E+03  0.31362539410E+03  0.77000000000E+02 0.  0.
   -5000001    1    1    2    0    0  0.50445755771E+01 -0.26737522419E+02  0.21597316464E+03  0.23089770612E+03  0.77000000000E+02 0.  0.
<mgrwt>
<rscale>  0 0.16544928E+03</rscale>
<asrwt>0</asrwt>
<pdfrwt beam="1">  1        1 0.81792511E-01 0.16544928E+03</pdfrwt>
<pdfrwt beam="2">  1       -1 0.19802932E-02 0.16544928E+03</pdfrwt>
<totfact> 0.27597804E+04</totfact>
</mgrwt>
</event>
<event>
 4    1  0.3147937E-004  0.3353846E+03  0.7818608E-02  0.1068779E+00
          1   -1    0    0  501    0  0.00000000000E+00  0.00000000000E+00  0.86955444266E+03  0.86955444268E+03  0.50400000000E-02 0.  1.
         -1   -1    0    0    0  501 -0.00000000000E+00 -0.00000000000E+00 -0.32339222142E+02  0.32339222535E+02  0.50400000000E-02 0. -1.
    5000001    1    1    2    0    0 -0.13782911393E+03  0.60192802946E+01  0.26747411566E+03  0.31065173254E+03  0.77000000000E+02 0.  0.
   -5000001    1    1    2    0    0  0.13782911393E+03 -0.60192802946E+01  0.56974110486E+03  0.59124193267E+03  0.77000000000E+02 0.  0.
<mgrwt>
<rscale>  0 0.33538464E+03</rscale>
<asrwt>0</asrwt>
<pdfrwt beam="1">  1        1 0.13377757E+00 0.33538464E+03</pdfrwt>
<pdfrwt beam="2">  1       -1 0.49752664E-02 0.33538464E+03</pdfrwt>
<totfact> 0.35906490E+03</totfact>
</mgrwt>
</event>
<event>
 4    1  0.3147937E-004  0.2262303E+03  0.7818608E-02  0.1129322E+00
          1   -1    0    0  501    0  0.00000000000E+00  0.00000000000E+00  0.31926603546E+02  0.31926603944E+02  0.50400000000E-02 0.  1.
         -1   -1    0    0    0  501 -0.00000000000E+00 -0.00000000000E+00 -0.40076399719E+03  0.40076399722E+03  0.50400000000E-02 0. -1.
    5000001    1    1    2    0    0  0.26561848881E+02  0.75801528896E+02 -0.14547322375E+03  0.18314710597E+03  0.77000000000E+02 0.  0.
   -5000001    1    1    2    0    0 -0.26561848881E+02 -0.75801528896E+02 -0.22336416989E+03  0.24954349519E+03  0.77000000000E+02 0.  0.
<mgrwt>
<rscale>  0 0.22623027E+03</rscale>
<asrwt>0</asrwt>
<pdfrwt beam="1">  1        1 0.49117855E-02 0.22623027E+03</pdfrwt>
<pdfrwt beam="2">  1       -1 0.61655996E-01 0.22623027E+03</pdfrwt>
<totfact> 0.46395110E+03</totfact>
</mgrwt>
</event>
<event>
 4    1  0.3147937E-004  0.1709836E+03  0.7818608E-02  0.1176826E+00
          1   -1    0    0  501    0  0.00000000000E+00  0.00000000000E+00  0.60355538204E+03  0.60355538206E+03  0.50400000000E-02 0.  1.
         -1   -1    0    0    0  501 -0.00000000000E+00 -0.00000000000E+00 -0.12109650931E+02  0.12109651979E+02  0.50400000000E-02 0. -1.
    5000001    1    1    2    0    0  0.38447895091E+01  0.31271867656E+02  0.22487605196E+03  0.23977270666E+03  0.77000000000E+02 0.  0.
   -5000001    1    1    2    0    0 -0.38447895091E+01 -0.31271867656E+02  0.36656967915E+03  0.37589232739E+03  0.77000000000E+02 0.  0.
<mgrwt>
<rscale>  0 0.17098357E+03</rscale>
<asrwt>0</asrwt>
<pdfrwt beam="1">  1        1 0.92854676E-01 0.17098357E+03</pdfrwt>
<pdfrwt beam="2">  1       -1 0.18630233E-02 0.17098357E+03</pdfrwt>
<totfact> 0.25471883E+04</totfact>
</mgrwt>
</event>
<event>
 4    1  0.3147937E-004  0.1863499E+03  0.7818608E-02  0.1161795E+00
          1   -1    0    0  501    0  0.00000000000E+00  0.00000000000E+00  0.18280741377E+03  0.18280741384E+03  0.50400000000E-02 0. -1.
         -1   -1    0    0    0  501 -0.00000000000E+00 -0.00000000000E+00 -0.47490254671E+02  0.47490254938E+02  0.50400000000E-02 0.  1.
    5000001    1    1    2    0    0 -0.45525706201E+02 -0.37359884847E+01  0.99552290392E+02  0.13388878242E+03  0.77000000000E+02 0.  0.
   -5000001    1    1    2    0    0  0.45525706201E+02  0.37359884847E+01  0.35764868704E+02  0.96408886356E+02  0.77000000000E+02 0.  0.
<mgrwt>
<rscale>  0 0.18634989E+03</rscale>
<asrwt>0</asrwt>
<pdfrwt beam="1">  1        1 0.28124218E-01 0.18634989E+03</pdfrwt>
<pdfrwt beam="2">  1       -1 0.73061930E-02 0.18634989E+03</pdfrwt>
<totfact> 0.15623511E+04</totfact>
</mgrwt>
</event>
<event>
 4    1  0.3147937E-004  0.2110563E+03  0.7818608E-02  0.1140732E+00
          1   -1    0    0  501    0  0.00000000000E+00  0.00000000000E+00  0.32514562888E+03  0.32514562892E+03  0.50400000000E-02 0.  1.
         -1   -1    0    0    0  501 -0.00000000000E+00 -0.00000000000E+00 -0.34249860563E+02  0.34249860934E+02  0.50400000000E-02 0. -1.
    5000001    1    1    2    0    0 -0.39696462870E+01 -0.70445565944E+02  0.17120848875E+03  0.20054845417E+03  0.77000000000E+02 0.  0.
   -5000001    1    1    2    0    0  0.39696462870E+01  0.70445565944E+02  0.11968727957E+03  0.15884703568E+03  0.77000000000E+02 0.  0.
<mgrwt>
<rscale>  0 0.21105632E+03</rscale>
<asrwt>0</asrwt>
<pdfrwt beam="1">  1        1 0.50022404E-01 0.21105632E+03</pdfrwt>
<pdfrwt beam="2">  1       -1 0.52692094E-02 0.21105632E+03</pdfrwt>
<totfact> 0.12535546E+04</totfact>
</mgrwt>
</event>
<event>
 4    1  0.3147937E-004  0.2521137E+03  0.7818608E-02  0.1111976E+00
         -1   -1    0    0    0  501 -0.00000000000E+00  0.00000000000E+00  0.25166351910E+02  0.25166352415E+02  0.50400000000E-02 0.  1.
          1   -1    0    0  501    0  0.00000000000E+00 -0.00000000000E+00 -0.63141185531E+03  0.63141185533E+03  0.50400000000E-02 0. -1.
    5000001    1    1    2    0    0  0.80499924143E+02 -0.24389748263E+02 -0.44303503715E+03  0.45747583734E+03  0.77000000000E+02 0.  0.
   -5000001    1    1    2    0    0 -0.80499924143E+02  0.24389748263E+02 -0.16321046625E+03  0.19910237040E+03  0.77000000000E+02 0.  0.
<mgrwt>
<rscale>  0 0.25211373E+03</rscale>
<asrwt>0</asrwt>
<pdfrwt beam="1">  1        1 0.97140274E-01 0.25211373E+03</pdfrwt>
<pdfrwt beam="2">  1       -1 0.38717470E-02 0.25211373E+03</pdfrwt>
<totfact> 0.83858056E+03</totfact>
</mgrwt>
</event>
<event>
 4    1  0.3147937E-004  0.3398788E+03  0.7818608E-02  0.1066848E+00
         -1   -1    0    0    0  501 -0.00000000000E+00  0.00000000000E+00  0.48943997330E+02  0.48943997589E+02  0.50400000000E-02 0. -1.
          1   -1    0    0  501    0  0.00000000000E+00 -0.00000000000E+00 -0.59005001056E+03  0.59005001058E+03  0.50400000000E-02 0.  1.
    5000001    1    1    2    0    0  0.14420934721E+02 -0.14747619104E+03 -0.21130216784E+03  0.26932284793E+03  0.77000000000E+02 0.  0.
   -5000001    1    1    2    0    0 -0.14420934721E+02  0.14747619104E+03 -0.32980384539E+03  0.36967116024E+03  0.77000000000E+02 0.  0.
<mgrwt>
<rscale>  0 0.33987884E+03</rscale>
<asrwt>0</asrwt>
<pdfrwt beam="1">  1        1 0.90776920E-01 0.33987884E+03</pdfrwt>
<pdfrwt beam="2">  1       -1 0.75298462E-02 0.33987884E+03</pdfrwt>
<totfact> 0.34108329E+03</totfact>
</mgrwt>
</event>
<event>
 4    1  0.3147937E-004  0.1841383E+03  0.7818608E-02  0.1163857E+00
          1   -1    0    0  501    0  0.00000000000E+00  0.00000000000E+00  0.21187623819E+03  0.21187623825E+03  0.50400000000E-02 0.  1.
         -1   -1    0    0    0  501 -0.00000000000E+00 -0.00000000000E+00 -0.40007915180E+02  0.40007915498E+02  0.50400000000E-02 0. -1.
    5000001    1    1    2    0    0 -0.41959772782E+02 -0.26932516280E+02  0.96682786417E+02  0.13327619500E+03  0.77000000000E+02 0.  0.
   -5000001    1    1    2    0    0  0.41959772782E+02  0.26932516280E+02  0.75185536595E+02  0.11860795875E+03  0.77000000000E+02 0.  0.
<mgrwt>
<rscale>  0 0.18413828E+03</rscale>
<asrwt>0</asrwt>
<pdfrwt beam="1">  1        1 0.32596344E-01 0.18413828E+03</pdfrwt>
<pdfrwt beam="2">  1       -1 0.61550639E-02 0.18413828E+03</pdfrwt>
<totfact> 0.16796920E+04</totfact>
</mgrwt>
</event>
<event>
 4    1  0.3147937E-004  0.1961107E+03  0.7818608E-02  0.1153063E+00
          1   -1    0    0  501    0  0.00000000000E+00  0.00000000000E+00  0.13063939330E+04  0.13063939330E+04  0.50400000000E-02 0.  1.
         -1   -1    0    0    0  501 -0.00000000000E+00 -0.00000000000E+00 -0.73598415334E+01  0.73598432591E+01  0.50400000000E-02 0. -1.
    5000001    1    1    2    0    0 -0.19947348095E+02  0.48026324454E+02  0.85938304080E+03  0.86439148270E+03  0.77000000000E+02 0.  0.
   -5000001    1    1    2    0    0  0.19947348095E+02 -0.48026324454E+02  0.43965105069E+03  0.44936229360E+03  0.77000000000E+02 0.  0.
<mgrwt>
<rscale>  0 0.19611072E+03</rscale>
<asrwt>0</asrwt>
<pdfrwt beam="1">  1        1 0.20098357E+00 0.19611072E+03</pdfrwt>
<pdfrwt beam="2">  1       -1 0.11322841E-02 0.19611072E+03</pdfrwt>
<totfact> 0.14947371E+04</totfact>
</mgrwt>
</event>
<event>
 4    1  0.3147937E-004  0.3229656E+03  0.7818608E-02  0.1074293E+00
         -1   -1    0    0    0  501 -0.00000000000E+00  0.00000000000E+00  0.39182441625E+03  0.39182441628E+03  0.50400000000E-02 0.  1.
          1   -1    0    0  501    0  0.00000000000E+00 -0.00000000000E+00 -0.66551972672E+02  0.66551972863E+02  0.50400000000E-02 0. -1.
    5000001    1    1    2    0    0 -0.12626045294E+03  0.42073090137E+00  0.25467922848E+03  0.29450363056E+03  0.77000000000E+02 0.  0.
   -5000001    1    1    2    0    0  0.12626045294E+03 -0.42073090137E+00  0.70593215095E+02  0.16387275859E+03  0.77000000000E+02 0.  0.
<mgrwt>
<rscale>  0 0.32296556E+03</rscale>
<asrwt>0</asrwt>
<pdfrwt beam="1">  1        1 0.10238765E-01 0.32296556E+03</pdfrwt>
<pdfrwt beam="2">  1       -1 0.60280679E-01 0.32296556E+03</pdfrwt>
<totfact> 0.17934605E+03</totfact>
</mgrwt>
</event>
<event>
 4    1  0.3147937E-004  0.2257299E+03  0.7818608E-02  0.1129682E+00
         -1   -1    0    0    0  501 -0.00000000000E+00  0.00000000000E+00  0.95262423921E+01  0.95262437253E+01  0.50400000000E-02 0. -1.
          1   -1    0    0  501    0  0.00000000000E+00 -0.00000000000E+00 -0.13372009729E+04  0.13372009729E+04  0.50400000000E-02 0.  1.
    5000001    1    1    2    0    0  0.58092194643E+02  0.58444137977E+02 -0.68989846989E+03  0.69905602000E+03  0.77000000000E+02 0.  0.
   -5000001    1    1    2    0    0 -0.58092194643E+02 -0.58444137977E+02 -0.63777626063E+03  0.64767119665E+03  0.77000000000E+02 0.  0.
<mgrwt>
<rscale>  0 0.22572994E+03</rscale>
<asrwt>0</asrwt>
<pdfrwt beam="1">  1        1 0.20572308E+00 0.22572994E+03</pdfrwt>
<pdfrwt beam="2">  1       -1 0.14655769E-02 0.22572994E+03</pdfrwt>
<totfact> 0.98728755E+03</totfact>
</mgrwt>
</event>
<event>
 4    1  0.3147937E-004  0.4607185E+03  0.7818608E-02  0.1024573E+00
          1   -1    0    0  501    0  0.00000000000E+00  0.00000000000E+00  0.19048237005E+03  0.19048237012E+03  0.50400000000E-02 0.  1.
         -1   -1    0    0    0  501 -0.00000000000E+00 -0.00000000000E+00 -0.27858422961E+03  0.27858422966E+03  0.50400000000E-02 0. -1.
    5000001    1    1    2    0    0  0.20080642156E+03 -0.45822527881E+02  0.25847727276E+02  0.22140467024E+03  0.77000000000E+02 0.  0.
   -5000001    1    1    2    0    0 -0.20080642156E+03  0.45822527881E+02 -0.11394958684E+03  0.24766192953E+03  0.77000000000E+02 0.  0.
<mgrwt>
<rscale>  0 0.46071850E+03</rscale>
<asrwt>0</asrwt>
<pdfrwt beam="1">  1        1 0.29304980E-01 0.46071850E+03</pdfrwt>
<pdfrwt beam="2">  1       -1 0.42859112E-01 0.46071850E+03</pdfrwt>
<totfact> 0.85383624E+02</totfact>
</mgrwt>
</event>
<event>
 4    1  0.3147937E-004  0.2274710E+03  0.7818608E-02  0.1128433E+00
         -1   -1    0    0    0  501 -0.00000000000E+00  0.00000000000E+00  0.87137817067E+02  0.87137817212E+02  0.50400000000E-02 0.  1.
          1   -1    0    0  501    0  0.00000000000E+00 -0.00000000000E+00 -0.14845180601E+03  0.14845180609E+03  0.50400000000E-02 0. -1.
    5000001    1    1    2    0    0  0.70594155493E+01 -0.79499781909E+02 -0.56790811755E+02  0.12459633611E+03  0.77000000000E+02 0.  0.
   -5000001    1    1    2    0    0 -0.70594155493E+01  0.79499781909E+02 -0.45231771872E+01  0.11099328720E+03  0.77000000000E+02 0.  0.
<mgrwt>
<rscale>  0 0.22747102E+03</rscale>
<asrwt>0</asrwt>
<pdfrwt beam="1">  1        1 0.22838739E-01 0.22747102E+03</pdfrwt>
<pdfrwt beam="2">  1       -1 0.13405818E-01 0.22747102E+03</pdfrwt>
<totfact> 0.80952784E+03</totfact>
</mgrwt>
</event>
<event>
 4    1  0.3147937E-004  0.2472319E+03  0.7818608E-02  0.1115067E+00
          1   -1    0    0  501    0  0.00000000000E+00  0.00000000000E+00  0.73237317068E+03  0.73237317070E+03  0.50400000000E-02 0. -1.
         -1   -1    0    0    0  501 -0.00000000000E+00 -0.00000000000E+00 -0.20864913693E+02  0.20864914302E+02  0.50400000000E-02 0.  1.
    5000001    1    1    2    0    0  0.10192260215E+01 -0.95550515058E+02  0.31046562019E+03  0.33383954389E+03  0.77000000000E+02 0.  0.
   -5000001    1    1    2    0    0 -0.10192260215E+01  0.95550515058E+02  0.40104263680E+03  0.41939854111E+03  0.77000000000E+02 0.  0.
<mgrwt>
<rscale>  0 0.24723190E+03</rscale>
<asrwt>0</asrwt>
<pdfrwt beam="1">  1        1 0.11267280E+00 0.24723190E+03</pdfrwt>
<pdfrwt beam="2">  1       -1 0.32099866E-02 0.24723190E+03</pdfrwt>
<totfact> 0.89282327E+03</totfact>
</mgrwt>
</event>
<event>
 4    1  0.3147937E-004  0.1922970E+03  0.7818608E-02  0.1156406E+00
         -1   -1    0    0    0  501 -0.00000000000E+00  0.00000000000E+00  0.48974503786E+02  0.48974504045E+02  0.50400000000E-02 0. -1.
          1   -1    0    0  501    0  0.00000000000E+00 -0.00000000000E+00 -0.18876218563E+03  0.18876218570E+03  0.50400000000E-02 0.  1.
    5000001    1    1    2    0    0  0.46779613893E+02  0.33472227937E+02 -0.66667100478E+02  0.11697104174E+03  0.77000000000E+02 0.  0.
   -5000001    1    1    2    0    0 -0.46779613893E+02 -0.33472227937E+02 -0.73120581368E+02  0.12076564801E+03  0.77000000000E+02 0.  0.
<mgrwt>
<rscale>  0 0.19229700E+03</rscale>
<asrwt>0</asrwt>
<pdfrwt beam="1">  1        1 0.29040336E-01 0.19229700E+03</pdfrwt>
<pdfrwt beam="2">  1       -1 0.75345392E-02 0.19229700E+03</pdfrwt>
<totfact> 0.14358500E+04</totfact>
</mgrwt>
</event>
<event>
 4    1  0.3147937E-004  0.3925365E+03  0.7818608E-02  0.1046395E+00
          1   -1    0    0  501    0  0.00000000000E+00  0.00000000000E+00  0.99332853171E+03  0.99332853173E+03  0.50400000000E-02 0.  1.
         -1   -1    0    0    0  501 -0.00000000000E+00 -0.00000000000E+00 -0.38779935269E+02  0.38779935597E+02  0.50400000000E-02 0. -1.
    5000001    1    1    2    0    0  0.97090581397E+02  0.15160687582E+03  0.51264741225E+03  0.54876916374E+03  0.77000000000E+02 0.  0.
   -5000001    1    1    2    0    0 -0.97090581397E+02 -0.15160687582E+03  0.44190118420E+03  0.48333930358E+03  0.77000000000E+02 0.  0.
<mgrwt>
<rscale>  0 0.39253645E+03</rscale>
<asrwt>0</asrwt>
<pdfrwt beam="1">  1        1 0.15281975E+00 0.39253645E+03</pdfrwt>
<pdfrwt beam="2">  1       -1 0.59661447E-02 0.39253645E+03</pdfrwt>
<totfact> 0.21836258E+03</totfact>
</mgrwt>
</event>
<event>
 4    1  0.3147937E-004  0.2954941E+03  0.7818608E-02  0.1087515E+00
          1   -1    0    0  501    0  0.00000000000E+00  0.00000000000E+00  0.12703140820E+03  0.12703140830E+03  0.50400000000E-02 0. -1.
         -1   -1    0    0    0  501 -0.00000000000E+00 -0.00000000000E+00 -0.17184086777E+03  0.17184086784E+03  0.50400000000E-02 0.  1.
    5000001    1    1    2    0    0  0.10876432436E+03 -0.59713190746E+02 -0.45130335519E+02  0.15284335310E+03  0.77000000000E+02 0.  0.
   -5000001    1    1    2    0    0 -0.10876432436E+03  0.59713190746E+02  0.32087594760E+00  0.14602892304E+03  0.77000000000E+02 0.  0.
<mgrwt>
<rscale>  0 0.29549408E+03</rscale>
<asrwt>0</asrwt>
<pdfrwt beam="1">  1        1 0.19543293E-01 0.29549408E+03</pdfrwt>
<pdfrwt beam="2">  1       -1 0.26437057E-01 0.29549408E+03</pdfrwt>
<totfact> 0.33276361E+03</totfact>
</mgrwt>
</event>
<event>
 4    1  0.3147937E-004  0.6379071E+03  0.7818608E-02  0.9829739E-01
         -1   -1    0    0    0  501 -0.00000000000E+00  0.00000000000E+00  0.80742094684E+02  0.80742094841E+02  0.50400000000E-02 0. -1.
          1   -1    0    0  501    0  0.00000000000E+00 -0.00000000000E+00 -0.12599544346E+04  0.12599544346E+04  0.50400000000E-02 0.  1.
    5000001    1    1    2    0    0  0.20080770234E+03  0.13446889377E+03 -0.18317223945E+03  0.31286848039E+03  0.77000000000E+02 0.  0.
   -5000001    1    1    2    0    0 -0.20080770234E+03 -0.13446889377E+03 -0.99604010049E+03  0.10278280491E+04  0.77000000000E+02 0.  0.
<mgrwt>
<rscale>  0 0.63790708E+03</rscale>
<asrwt>0</asrwt>
<pdfrwt beam="1">  1        1 0.19383913E+00 0.63790708E+03</pdfrwt>
<pdfrwt beam="2">  1       -1 0.12421862E-01 0.63790708E+03</pdfrwt>
<totfact> 0.43970302E+02</totfact>
</mgrwt>
</event>
<event>
 4    1  0.3147937E-004  0.2636802E+03  0.7818608E-02  0.1104952E+00
          1   -1    0    0  501    0  0.00000000000E+00  0.00000000000E+00  0.11250247208E+02  0.11250248337E+02  0.50400000000E-02 0. -1.
         -1   -1    0    0    0  501 -0.00000000000E+00 -0.00000000000E+00 -0.15450163069E+04  0.15450163069E+04  0.50400000000E-02 0.  1.
    5000001    1    1    2    0    0 -0.10389297332E+03  0.25581833412E+02 -0.75417476754E+03  0.76560875132E+03  0.77000000000E+02 0.  0.
   -5000001    1    1    2    0    0  0.10389297332E+03 -0.25581833412E+02 -0.77959129219E+03  0.79065780396E+03  0.77000000000E+02 0.  0.
<mgrwt>
<rscale>  0 0.26368023E+03</rscale>
<asrwt>0</asrwt>
<pdfrwt beam="1">  1        1 0.17308086E-02 0.26368023E+03</pdfrwt>
<pdfrwt beam="2">  1       -1 0.23769465E+00 0.26368023E+03</pdfrwt>
<totfact> 0.70476663E+02</totfact>
</mgrwt>
</event>
<event>
 4    1  0.3147937E-004  0.2332833E+03  0.7818608E-02  0.1124350E+00
         -1   -1    0    0    0  501 -0.00000000000E+00  0.00000000000E+00  0.44724574034E+02  0.44724574318E+02  0.50400000000E-02 0. -1.
          1   -1    0    0  501    0  0.00000000000E+00 -0.00000000000E+00 -0.30420134669E+03  0.30420134673E+03  0.50400000000E-02 0.  1.
    5000001    1    1    2    0    0  0.74258563265E+02 -0.46115862888E+02 -0.13862106940E+03  0.18106851717E+03  0.77000000000E+02 0.  0.
   -5000001    1    1    2    0    0 -0.74258563265E+02  0.46115862888E+02 -0.12085570325E+03  0.16785740388E+03  0.77000000000E+02 0.  0.
<mgrwt>
<rscale>  0 0.23328331E+03</rscale>
<asrwt>0</asrwt>
<pdfrwt beam="1">  1        1 0.46800206E-01 0.23328331E+03</pdfrwt>
<pdfrwt beam="2">  1       -1 0.68807039E-02 0.23328331E+03</pdfrwt>
<totfact> 0.91754389E+03</totfact>
</mgrwt>
</event>
<event>
 4    1  0.3147937E-004  0.2589000E+03  0.7818608E-02  0.1107806E+00
          1   -1    0    0  501    0  0.00000000000E+00  0.00000000000E+00  0.28572983386E+02  0.28572983831E+02  0.50400000000E-02 0.  1.
         -1   -1    0    0    0  501 -0.00000000000E+00 -0.00000000000E+00 -0.58647371585E+03  0.58647371587E+03  0.50400000000E-02 0. -1.
    5000001    1    1    2    0    0  0.63147845737E+02 -0.61687178391E+02 -0.14806831616E+03  0.18880197205E+03  0.77000000000E+02 0.  0.
   -5000001    1    1    2    0    0 -0.63147845737E+02  0.61687178391E+02 -0.40983241630E+03  0.42624472765E+03  0.77000000000E+02 0.  0.
<mgrwt>
<rscale>  0 0.25890001E+03</rscale>
<asrwt>0</asrwt>
<pdfrwt beam="1">  1        1 0.43958441E-02 0.25890001E+03</pdfrwt>
<pdfrwt beam="2">  1       -1 0.90226717E-01 0.25890001E+03</pdfrwt>
<totfact> 0.25081017E+03</totfact>
</mgrwt>
</event>
<event>
 4    1  0.3147937E-004  0.3279799E+03  0.7818608E-02  0.1072034E+00
         -1   -1    0    0    0  501 -0.00000000000E+00  0.00000000000E+00  0.89033070117E+01  0.89033084382E+01  0.50400000000E-02 0. -1.
          1   -1    0    0  501    0  0.00000000000E+00 -0.00000000000E+00 -0.30205291653E+04  0.30205291653E+04  0.50400000000E-02 0.  1.
    5000001    1    1    2    0    0 -0.14375786740E+03  0.15250190518E+02 -0.14314548629E+04  0.14407952378E+04  0.77000000000E+02 0.  0.
   -5000001    1    1    2    0    0  0.14375786740E+03 -0.15250190518E+02 -0.15801709954E+04  0.15886372360E+04  0.77000000000E+02 0.  0.
<mgrwt>
<rscale>  0 0.32797988E+03</rscale>
<asrwt>0</asrwt>
<pdfrwt beam="1">  1        1 0.46469598E+00 0.32797988E+03</pdfrwt>
<pdfrwt beam="2">  1       -1 0.13697421E-02 0.32797988E+03</pdfrwt>
<totfact> 0.82818900E+02</totfact>
</mgrwt>
</event>
<event>
 4    1  0.3147937E-004  0.1863887E+03  0.7818608E-02  0.1161759E+00
          1   -1    0    0  501    0  0.00000000000E+00  0.00000000000E+00  0.10155869431E+03  0.10155869444E+03  0.50400000000E-02 0.  1.
         -1   -1    0    0    0  501 -0.00000000000E+00 -0.00000000000E+00 -0.85518905913E+02  0.85518906061E+02  0.50400000000E-02 0. -1.
    5000001    1    1    2    0    0 -0.31296484194E+02 -0.40901660769E+02  0.18244431712E+02  0.94415438701E+02  0.77000000000E+02 0.  0.
   -5000001    1    1    2    0    0  0.31296484194E+02  0.40901660769E+02 -0.22046433140E+01  0.92662161796E+02  0.77000000000E+02 0.  0.
<mgrwt>
<rscale>  0 0.18638872E+03</rscale>
<asrwt>0</asrwt>
<pdfrwt beam="1">  1        1 0.15624414E-01 0.18638872E+03</pdfrwt>
<pdfrwt beam="2">  1       -1 0.13156755E-01 0.18638872E+03</pdfrwt>
<totfact> 0.13418573E+04</totfact>
</mgrwt>
</event>
<event>
 4    1  0.3147937E-004  0.1879852E+03  0.7818608E-02  0.1160291E+00
          1   -1    0    0  501    0  0.00000000000E+00  0.00000000000E+00  0.40639246227E+03  0.40639246230E+03  0.50400000000E-02 0.  1.
         -1   -1    0    0    0  501 -0.00000000000E+00 -0.00000000000E+00 -0.21739104146E+02  0.21739104730E+02  0.50400000000E-02 0. -1.
    5000001    1    1    2    0    0 -0.37989904014E+02  0.14951178012E+01  0.27935304699E+03  0.29225432938E+03  0.77000000000E+02 0.  0.
   -5000001    1    1    2    0    0  0.37989904014E+02 -0.14951178012E+01  0.10530031113E+03  0.13587723764E+03  0.77000000000E+02 0.  0.
<mgrwt>
<rscale>  0 0.18798519E+03</rscale>
<asrwt>0</asrwt>
<pdfrwt beam="1">  1        1 0.62521916E-01 0.18798519E+03</pdfrwt>
<pdfrwt beam="2">  1       -1 0.33444777E-02 0.18798519E+03</pdfrwt>
<totfact> 0.18402684E+04</totfact>
</mgrwt>
</event>
<event>
 4    1  0.3147937E-004  0.3946328E+03  0.7818608E-02  0.1045654E+00
          1   -1    0    0  501    0  0.00000000000E+00  0.00000000000E+00  0.28517863481E+04  0.28517863481E+04  0.50400000000E-02 0.  1.
         -1   -1    0    0    0  501 -0.00000000000E+00 -0.00000000000E+00 -0.13652412755E+02  0.13652413686E+02  0.50400000000E-02 0. -1.
    5000001    1    1    2    0    0  0.18021968241E+03  0.10183479235E+02  0.12699189966E+04  0.12849926440E+04  0.77000000000E+02 0.  0.
   -5000001    1    1    2    0    0 -0.18021968241E+03 -0.10183479235E+02  0.15682149388E+04  0.15804461178E+04  0.77000000000E+02 0.  0.
<mgrwt>
<rscale>  0 0.39463282E+03</rscale>
<asrwt>0</asrwt>
<pdfrwt beam="1">  1        1 0.43873661E+00 0.39463282E+03</pdfrwt>
<pdfrwt beam="2">  1       -1 0.21003701E-02 0.39463282E+03</pdfrwt>
<totfact> 0.57499712E+02</totfact>
</mgrwt>
</event>
<event>
 4    1  0.3147937E-004  0.2170519E+03  0.7818608E-02  0.1136100E+00
          1   -1    0    0  501    0  0.00000000000E+00  0.00000000000E+00  0.18286688451E+04  0.18286688451E+04  0.50400000000E-02 0.  1.
         -1   -1    0    0    0  501 -0.00000000000E+00 -0.00000000000E+00 -0.64406863300E+01  0.64406883019E+01  0.50400000000E-02 0. -1.
    5000001    1    1    2    0    0 -0.51113867721E+02 -0.32648802113E+02  0.51723810528E+03  0.52644356706E+03  0.77000000000E+02 0.  0.
   -5000001    1    1    2    0    0  0.51113867721E+02  0.32648802113E+02  0.13049900535E+04  0.13086659664E+04  0.77000000000E+02 0.  0.
<mgrwt>
<rscale>  0 0.21705192E+03</rscale>
<asrwt>0</asrwt>
<pdfrwt beam="1">  1        1 0.28133353E+00 0.21705192E+03</pdfrwt>
<pdfrwt beam="2">  1       -1 0.99087546E-03 0.21705192E+03</pdfrwt>
<totfact> 0.82648036E+03</totfact>
</mgrwt>
</event>
<event>
 4    1  0.3147937E-004  0.2022981E+03  0.7818608E-02  0.1147814E+00
         -1   -1    0    0    0  501 -0.00000000000E+00  0.00000000000E+00  0.14372712345E+02  0.14372713229E+02  0.50400000000E-02 0. -1.
          1   -1    0    0  501    0  0.00000000000E+00 -0.00000000000E+00 -0.71184397635E+03  0.71184397637E+03  0.50400000000E-02 0.  1.
    5000001    1    1    2    0    0  0.61986496199E+02 -0.20628765535E+02 -0.36974685668E+03  0.38328789402E+03  0.77000000000E+02 0.  0.
   -5000001    1    1    2    0    0 -0.61986496199E+02  0.20628765535E+02 -0.32772440733E+03  0.34292879558E+03  0.77000000000E+02 0.  0.
<mgrwt>
<rscale>  0 0.20229809E+03</rscale>
<asrwt>0</asrwt>
<pdfrwt beam="1">  1        1 0.10951443E+00 0.20229809E+03</pdfrwt>
<pdfrwt beam="2">  1       -1 0.22111871E-02 0.20229809E+03</pdfrwt>
<totfact> 0.15919731E+04</totfact>
</mgrwt>
</event>
<event>
 4    1  0.3147937E-004  0.4213080E+03  0.7818608E-02  0.1036641E+00
          1   -1    0    0  501    0  0.00000000000E+00  0.00000000000E+00  0.63032009923E+02  0.63032010125E+02  0.50400000000E-02 0.  1.
         -1   -1    0    0    0  501 -0.00000000000E+00 -0.00000000000E+00 -0.70400900073E+03  0.70400900075E+03  0.50400000000E-02 0. -1.
    5000001    1    1    2    0    0 -0.11392708118E+03 -0.12074096798E+03 -0.13051204614E+03  0.22476689116E+03  0.77000000000E+02 0.  0.
   -5000001    1    1    2    0    0  0.11392708118E+03  0.12074096798E+03 -0.51046494467E+03  0.54227411971E+03  0.77000000000E+02 0.  0.
<mgrwt>
<rscale>  0 0.42130797E+03</rscale>
<asrwt>0</asrwt>
<pdfrwt beam="1">  1        1 0.96972328E-02 0.42130797E+03</pdfrwt>
<pdfrwt beam="2">  1       -1 0.10830907E+00 0.42130797E+03</pdfrwt>
<totfact> 0.56263807E+02</totfact>
</mgrwt>
</event>
<event>
 4    1  0.3147937E-004  0.2017499E+03  0.7818608E-02  0.1148271E+00
         -1   -1    0    0    0  501 -0.00000000000E+00  0.00000000000E+00  0.84463922817E+02  0.84463922967E+02  0.50400000000E-02 0.  1.
          1   -1    0    0  501    0  0.00000000000E+00 -0.00000000000E+00 -0.12047452741E+03  0.12047452751E+03  0.50400000000E-02 0. -1.
    5000001    1    1    2    0    0  0.62336152680E+02  0.15154845033E+02 -0.29644400706E+02  0.10451438060E+03  0.77000000000E+02 0.  0.
   -5000001    1    1    2    0    0 -0.62336152680E+02 -0.15154845033E+02 -0.63662038829E+01  0.10042406988E+03  0.77000000000E+02 0.  0.
<mgrwt>
<rscale>  0 0.20174986E+03</rscale>
<asrwt>0</asrwt>
<pdfrwt beam="1">  1        1 0.18534543E-01 0.20174986E+03</pdfrwt>
<pdfrwt beam="2">  1       -1 0.12994450E-01 0.20174986E+03</pdfrwt>
<totfact> 0.11029213E+04</totfact>
</mgrwt>
</event>
<event>
 4    1  0.3147937E-004  0.2258044E+03  0.7818608E-02  0.1129628E+00
         -1   -1    0    0    0  501 -0.00000000000E+00  0.00000000000E+00  0.55763162385E+02  0.55763162613E+02  0.50400000000E-02 0.  1.
          1   -1    0    0  501    0  0.00000000000E+00 -0.00000000000E+00 -0.22859016767E+03  0.22859016772E+03  0.50400000000E-02 0. -1.
    5000001    1    1    2    0    0  0.45046050263E+02 -0.67790766570E+02 -0.10391609750E+03  0.15281456081E+03  0.77000000000E+02 0.  0.
   -5000001    1    1    2    0    0 -0.45046050263E+02  0.67790766570E+02 -0.68910907784E+02  0.13153876952E+03  0.77000000000E+02 0.  0.
<mgrwt>
<rscale>  0 0.22580443E+03</rscale>
<asrwt>0</asrwt>
<pdfrwt beam="1">  1        1 0.35167718E-01 0.22580443E+03</pdfrwt>
<pdfrwt beam="2">  1       -1 0.85789482E-02 0.22580443E+03</pdfrwt>
<totfact> 0.93654689E+03</totfact>
</mgrwt>
</event>
<event>
 4    1  0.3147937E-004  0.2135809E+03  0.7818608E-02  0.1138761E+00
         -1   -1    0    0    0  501 -0.00000000000E+00  0.00000000000E+00  0.89081967933E+01  0.89081982190E+01  0.50400000000E-02 0. -1.
          1   -1    0    0  501    0  0.00000000000E+00 -0.00000000000E+00 -0.12801915533E+04  0.12801915533E+04  0.50400000000E-02 0.  1.
    5000001    1    1    2    0    0 -0.19086334931E+02 -0.71490230457E+02 -0.63418831088E+03  0.64311659510E+03  0.77000000000E+02 0.  0.
   -5000001    1    1    2    0    0  0.19086334931E+02  0.71490230457E+02 -0.63709504562E+03  0.64598315642E+03  0.77000000000E+02 0.  0.
<mgrwt>
<rscale>  0 0.21358089E+03</rscale>
<asrwt>0</asrwt>
<pdfrwt beam="1">  1        1 0.19695240E+00 0.21358089E+03</pdfrwt>
<pdfrwt beam="2">  1       -1 0.13704929E-02 0.21358089E+03</pdfrwt>
<totfact> 0.11868229E+04</totfact>
</mgrwt>
</event>
<event>
 4    1  0.3147937E-004  0.1697843E+03  0.7818608E-02  0.1178073E+00
          1   -1    0    0  501    0  0.00000000000E+00  0.00000000000E+00  0.10072598703E+03  0.10072598715E+03  0.50400000000E-02 0. -1.
         -1   -1    0    0    0  501 -0.00000000000E+00 -0.00000000000E+00 -0.71547321491E+02  0.71547321669E+02  0.50400000000E-02 0.  1.
    5000001    1    1    2    0    0 -0.21502007696E+02  0.17389027105E+02  0.37569982055E+02  0.90028985056E+02  0.77000000000E+02 0.  0.
   -5000001    1    1    2    0    0  0.21502007696E+02 -0.17389027105E+02 -0.83913165202E+01  0.82244323765E+02  0.77000000000E+02 0.  0.
<mgrwt>
<rscale>  0 0.16978427E+03</rscale>
<asrwt>0</asrwt>
<pdfrwt beam="1">  1        1 0.15496306E-01 0.16978427E+03</pdfrwt>
<pdfrwt beam="2">  1       -1 0.11007280E-01 0.16978427E+03</pdfrwt>
<totfact> 0.17753179E+04</totfact>
</mgrwt>
</event>
<event>
 4    1  0.3147937E-004  0.4680755E+03  0.7818608E-02  0.1022465E+00
         -1   -1    0    0    0  501 -0.00000000000E+00  0.00000000000E+00  0.12451592287E+03  0.12451592297E+03  0.50400000000E-02 0.  1.
          1   -1    0    0  501    0  0.00000000000E+00 -0.00000000000E+00 -0.43989291740E+03  0.43989291743E+03  0.50400000000E-02 0. -1.
    5000001    1    1    2    0    0  0.17143760308E+03 -0.10343299464E+03 -0.44860525323E+02  0.21915908118E+03  0.77000000000E+02 0.  0.
   -5000001    1    1    2    0    0 -0.17143760308E+03  0.10343299464E+03 -0.27051646921E+03  0.34524975922E+03  0.77000000000E+02 0.  0.
<mgrwt>
<rscale>  0 0.46807552E+03</rscale>
<asrwt>0</asrwt>
<pdfrwt beam="1">  1        1 0.67675833E-01 0.46807552E+03</pdfrwt>
<pdfrwt beam="2">  1       -1 0.19156296E-01 0.46807552E+03</pdfrwt>
<totfact> 0.11617335E+03</totfact>
</mgrwt>
</event>
<event>
 4    1  0.3147937E-004  0.2292206E+03  0.7818608E-02  0.1127190E+00
          1   -1    0    0  501    0  0.00000000000E+00  0.00000000000E+00  0.11463585796E+03  0.11463585808E+03  0.50400000000E-02 0. -1.
         -1   -1    0    0    0  501 -0.00000000000E+00 -0.00000000000E+00 -0.11458477131E+03  0.11458477142E+03  0.50400000000E-02 0.  1.
    5000001    1    1    2    0    0 -0.16526876267E+02 -0.54733157098E+02 -0.62725294626E+02  0.11459632940E+03  0.77000000000E+02 0.  0.
   -5000001    1    1    2    0    0  0.16526876267E+02  0.54733157098E+02  0.62776381286E+02  0.11462430010E+03  0.77000000000E+02 0.  0.
<mgrwt>
<rscale>  0 0.22922062E+03</rscale>
<asrwt>0</asrwt>
<pdfrwt beam="1">  1        1 0.17636286E-01 0.22922062E+03</pdfrwt>
<pdfrwt beam="2">  1       -1 0.17628426E-01 0.22922062E+03</pdfrwt>
<totfact> 0.73129497E+03</totfact>
</mgrwt>
</event>
<event>
 4    1  0.3147937E-004  0.1590370E+03  0.7818608E-02  0.1189788E+00
          1   -1    0    0  501    0  0.00000000000E+00  0.00000000000E+00  0.19812354921E+03  0.19812354927E+03  0.50400000000E-02 0.  1.
         -1   -1    0    0    0  501 -0.00000000000E+00 -0.00000000000E+00 -0.31915390226E+02  0.31915390624E+02  0.50400000000E-02 0. -1.
    5000001    1    1    2    0    0  0.17888216626E+02  0.67438194732E+01  0.75351995634E+02  0.10941842003E+03  0.77000000000E+02 0.  0.
   -5000001    1    1    2    0    0 -0.17888216626E+02 -0.67438194732E+01  0.90856163351E+02  0.12062051987E+03  0.77000000000E+02 0.  0.
<mgrwt>
<rscale>  0 0.15903698E+03</rscale>
<asrwt>0</asrwt>
<pdfrwt beam="1">  1        1 0.30480547E-01 0.15903698E+03</pdfrwt>
<pdfrwt beam="2">  1       -1 0.49100599E-02 0.15903698E+03</pdfrwt>
<totfact> 0.25266162E+04</totfact>
</mgrwt>
</event>
<event>
 4    1  0.3147937E-004  0.2075072E+03  0.7818608E-02  0.1143555E+00
         -1   -1    0    0    0  501 -0.00000000000E+00  0.00000000000E+00  0.15804230891E+03  0.15804230899E+03  0.50400000000E-02 0.  1.
          1   -1    0    0  501    0  0.00000000000E+00 -0.00000000000E+00 -0.68113479303E+02  0.68113479489E+02  0.50400000000E-02 0. -1.
    5000001    1    1    2    0    0 -0.55255100602E+02  0.37087414383E+02  0.66957352493E+02  0.12182318950E+03  0.77000000000E+02 0.  0.
   -5000001    1    1    2    0    0  0.55255100602E+02 -0.37087414383E+02  0.22971477115E+02  0.10433259898E+03  0.77000000000E+02 0.  0.
<mgrwt>
<rscale>  0 0.20750722E+03</rscale>
<asrwt>0</asrwt>
<pdfrwt beam="1">  1        1 0.10478997E-01 0.20750722E+03</pdfrwt>
<pdfrwt beam="2">  1       -1 0.24314201E-01 0.20750722E+03</pdfrwt>
<totfact> 0.85492313E+03</totfact>
</mgrwt>
</event>
<event>
 4    1  0.3147937E-004  0.1796614E+03  0.7818608E-02  0.1168131E+00
         -1   -1    0    0    0  501 -0.00000000000E+00  0.00000000000E+00  0.81008269044E+01  0.81008284722E+01  0.50400000000E-02 0.  1.
          1   -1    0    0  501    0  0.00000000000E+00 -0.00000000000E+00 -0.99613898214E+03  0.99613898215E+03  0.50400000000E-02 0. -1.
    5000001    1    1    2    0    0  0.11880645495E+02  0.43298079122E+02 -0.43160598337E+03  0.44071373733E+03  0.77000000000E+02 0.  0.
   -5000001    1    1    2    0    0 -0.11880645495E+02 -0.43298079122E+02 -0.55643217186E+03  0.56352607329E+03  0.77000000000E+02 0.  0.
<mgrwt>
<rscale>  0 0.17966135E+03</rscale>
<asrwt>0</asrwt>
<pdfrwt beam="1">  1        1 0.15325205E+00 0.17966135E+03</pdfrwt>
<pdfrwt beam="2">  1       -1 0.12462820E-02 0.17966135E+03</pdfrwt>
<totfact> 0.21412404E+04</totfact>
</mgrwt>
</event>
<event>
 4    1  0.3147937E-004  0.3162976E+03  0.7818608E-02  0.1077366E+00
          1   -1    0    0  501    0  0.00000000000E+00  0.00000000000E+00  0.21794600070E+03  0.21794600076E+03  0.50400000000E-02 0. -1.
         -1   -1    0    0    0  501 -0.00000000000E+00 -0.00000000000E+00 -0.11475798453E+03  0.11475798464E+03  0.50400000000E-02 0.  1.
    5000001    1    1    2    0    0 -0.16228441771E+02 -0.11451717384E+03 -0.27851771247E+02  0.14171191407E+03  0.77000000000E+02 0.  0.
   -5000001    1    1    2    0    0  0.16228441771E+02  0.11451717384E+03  0.13103978741E+03  0.19099207133E+03  0.77000000000E+02 0.  0.
<mgrwt>
<rscale>  0 0.31629761E+03</rscale>
<asrwt>0</asrwt>
<pdfrwt beam="1">  1        1 0.33530153E-01 0.31629761E+03</pdfrwt>
<pdfrwt beam="2">  1       -1 0.17655075E-01 0.31629761E+03</pdfrwt>
<totfact> 0.32492219E+03</totfact>
</mgrwt>
</event>
<event>
 4    1  0.3147937E-004  0.2166973E+03  0.7818608E-02  0.1136370E+00
         -1   -1    0    0    0  501 -0.00000000000E+00  0.00000000000E+00  0.12153146830E+02  0.12153147875E+02  0.50400000000E-02 0. -1.
          1   -1    0    0  501    0  0.00000000000E+00 -0.00000000000E+00 -0.96595834786E+03  0.96595834787E+03  0.50400000000E-02 0.  1.
    5000001    1    1    2    0    0 -0.44726309687E+02 -0.42955363550E+02 -0.27682564634E+03  0.29395075184E+03  0.77000000000E+02 0.  0.
   -5000001    1    1    2    0    0  0.44726309687E+02  0.42955363550E+02 -0.67697955469E+03  0.68416074391E+03  0.77000000000E+02 0.  0.
<mgrwt>
<rscale>  0 0.21669734E+03</rscale>
<asrwt>0</asrwt>
<pdfrwt beam="1">  1        1 0.14860892E+00 0.21669734E+03</pdfrwt>
<pdfrwt beam="2">  1       -1 0.18697157E-02 0.21669734E+03</pdfrwt>
<totfact> 0.12678626E+04</totfact>
</mgrwt>
</event>
<event>
 4    1  0.3147937E-004  0.2217128E+03  0.7818608E-02  0.1132613E+00
         -1   -1    0    0    0  501 -0.00000000000E+00  0.00000000000E+00  0.18492604551E+02  0.18492605237E+02  0.50400000000E-02 0. -1.
          1   -1    0    0  501    0  0.00000000000E+00 -0.00000000000E+00 -0.66454332999E+03  0.66454333000E+03  0.50400000000E-02 0.  1.
    5000001    1    1    2    0    0  0.70414824246E+02 -0.94185439858E+01 -0.21138657215E+03  0.23592422370E+03  0.77000000000E+02 0.  0.
   -5000001    1    1    2    0    0 -0.70414824246E+02  0.94185439858E+01 -0.43466415329E+03  0.44711171154E+03  0.77000000000E+02 0.  0.
<mgrwt>
<rscale>  0 0.22171276E+03</rscale>
<asrwt>0</asrwt>
<pdfrwt beam="1">  1        1 0.10223742E+00 0.22171276E+03</pdfrwt>
<pdfrwt beam="2">  1       -1 0.28450166E-02 0.22171276E+03</pdfrwt>
<totfact> 0.12220895E+04</totfact>
</mgrwt>
</event>
<event>
 4    1  0.3147937E-004  0.2780422E+03  0.7818608E-02  0.1096763E+00
          1   -1    0    0  501    0  0.00000000000E+00  0.00000000000E+00  0.66595412376E+03  0.66595412378E+03  0.50400000000E-02 0. -1.
         -1   -1    0    0    0  501 -0.00000000000E+00 -0.00000000000E+00 -0.29021324555E+02  0.29021324992E+02  0.50400000000E-02 0.  1.
    5000001    1    1    2    0    0 -0.11529149533E+03  0.10230769690E+02  0.32105601354E+03  0.34986106010E+03  0.77000000000E+02 0.  0.
   -5000001    1    1    2    0    0  0.11529149533E+03 -0.10230769690E+02  0.31587678567E+03  0.34511438868E+03  0.77000000000E+02 0.  0.
<mgrwt>
<rscale>  0 0.27804223E+03</rscale>
<asrwt>0</asrwt>
<pdfrwt beam="1">  1        1 0.10245448E+00 0.27804223E+03</pdfrwt>
<pdfrwt beam="2">  1       -1 0.44648192E-02 0.27804223E+03</pdfrwt>
<totfact> 0.63085784E+03</totfact>
</mgrwt>
</event>
<event>
 4    1  0.3147937E-004  0.2767098E+03  0.7818608E-02  0.1097500E+00
         -1   -1    0    0    0  501 -0.00000000000E+00  0.00000000000E+00  0.10908357260E+03  0.10908357272E+03  0.50400000000E-02 0. -1.
          1   -1    0    0  501    0  0.00000000000E+00 -0.00000000000E+00 -0.17548090834E+03  0.17548090841E+03  0.50400000000E-02 0.  1.
    5000001    1    1    2    0    0 -0.87636217425E+02 -0.50344903302E+02 -0.89510361313E+02  0.15542142927E+03  0.77000000000E+02 0.  0.
   -5000001    1    1    2    0    0  0.87636217425E+02  0.50344903302E+02  0.23113025575E+02  0.12914305186E+03  0.77000000000E+02 0.  0.
<mgrwt>
<rscale>  0 0.27670984E+03</rscale>
<asrwt>0</asrwt>
<pdfrwt beam="1">  1        1 0.26997063E-01 0.27670984E+03</pdfrwt>
<pdfrwt beam="2">  1       -1 0.16782088E-01 0.27670984E+03</pdfrwt>
<totfact> 0.46212863E+03</totfact>
</mgrwt>
</event>
<event>
 4    1  0.3147937E-004  0.2659099E+03  0.7818608E-02  0.1103644E+00
          1   -1    0    0  501    0  0.00000000000E+00  0.00000000000E+00  0.38821194951E+02  0.38821195278E+02  0.50400000000E-02 0. -1.
         -1   -1    0    0    0  501 -0.00000000000E+00 -0.00000000000E+00 -0.45534453778E+03  0.45534453781E+03  0.50400000000E-02 0.  1.
    5000001    1    1    2    0    0  0.91168929712E+02 -0.52660714839E+02 -0.16040683495E+03  0.20674689195E+03  0.77000000000E+02 0.  0.
   -5000001    1    1    2    0    0 -0.91168929712E+02  0.52660714839E+02 -0.25611650788E+03  0.28741884114E+03  0.77000000000E+02 0.  0.
<mgrwt>
<rscale>  0 0.26590990E+03</rscale>
<asrwt>0</asrwt>
<pdfrwt beam="1">  1        1 0.59724919E-02 0.26590990E+03</pdfrwt>
<pdfrwt beam="2">  1       -1 0.70053002E-01 0.26590990E+03</pdfrwt>
<totfact> 0.27732943E+03</totfact>
</mgrwt>
</event>
<event>
 4    1  0.3147937E-004  0.2247588E+03  0.7818608E-02  0.1130384E+00
         -1   -1    0    0    0  501 -0.00000000000E+00  0.00000000000E+00  0.10076993215E+02  0.10076994475E+02  0.50400000000E-02 0.  1.
          1   -1    0    0  501    0  0.00000000000E+00 -0.00000000000E+00 -0.12532639254E+04  0.12532639255E+04  0.50400000000E-02 0. -1.
    5000001    1    1    2    0    0 -0.67769758852E+02 -0.16688839976E+02 -0.86197209093E+03  0.86821434171E+03  0.77000000000E+02 0.  0.
   -5000001    1    1    2    0    0  0.67769758852E+02  0.16688839976E+02 -0.38121484130E+03  0.39512657823E+03  0.77000000000E+02 0.  0.
<mgrwt>
<rscale>  0 0.22475883E+03</rscale>
<asrwt>0</asrwt>
<pdfrwt beam="1">  1        1 0.19280971E+00 0.22475883E+03</pdfrwt>
<pdfrwt beam="2">  1       -1 0.15503077E-02 0.22475883E+03</pdfrwt>
<totfact> 0.10378061E+04</totfact>
</mgrwt>
</event>
<event>
 4    1  0.3147937E-004  0.2225747E+03  0.7818608E-02  0.1131978E+00
         -1   -1    0    0    0  501 -0.00000000000E+00  0.00000000000E+00  0.59676558761E+02  0.59676558974E+02  0.50400000000E-02 0. -1.
          1   -1    0    0  501    0  0.00000000000E+00 -0.00000000000E+00 -0.20753323368E+03  0.20753323374E+03  0.50400000000E-02 0.  1.
    5000001    1    1    2    0    0  0.61374496158E+02  0.60492210938E+01 -0.12098222879E+02  0.99392096523E+02  0.77000000000E+02 0.  0.
   -5000001    1    1    2    0    0 -0.61374496158E+02 -0.60492210938E+01 -0.13575845204E+03  0.16781769619E+03  0.77000000000E+02 0.  0.
<mgrwt>
<rscale>  0 0.22257465E+03</rscale>
<asrwt>0</asrwt>
<pdfrwt beam="1">  1        1 0.31928189E-01 0.22257465E+03</pdfrwt>
<pdfrwt beam="2">  1       -1 0.91810092E-02 0.22257465E+03</pdfrwt>
<totfact> 0.95213154E+03</totfact>
</mgrwt>
</event>
<event>
 4    1  0.3147937E-004  0.1790993E+03  0.7818608E-02  0.1168678E+00
         -1   -1    0    0    0  501 -0.00000000000E+00  0.00000000000E+00  0.29271120344E+03  0.29271120348E+03  0.50400000000E-02 0.  1.
          1   -1    0    0  501    0  0.00000000000E+00 -0.00000000000E+00 -0.27396065628E+02  0.27396066092E+02  0.50400000000E-02 0. -1.
    5000001    1    1    2    0    0 -0.31429958533E+02 -0.28832387193E+02  0.16207980366E+03  0.18443972348E+03  0.77000000000E+02 0.  0.
   -5000001    1    1    2    0    0  0.31429958533E+02  0.28832387193E+02  0.10323533415E+03  0.13566754609E+03  0.77000000000E+02 0.  0.
<mgrwt>
<rscale>  0 0.17909925E+03</rscale>
<asrwt>0</asrwt>
<pdfrwt beam="1">  1        1 0.42147796E-02 0.17909925E+03</pdfrwt>
<pdfrwt beam="2">  1       -1 0.45032491E-01 0.17909925E+03</pdfrwt>
<totfact> 0.10142762E+04</totfact>
</mgrwt>
</event>
<event>
 4    1  0.3147937E-004  0.1688340E+03  0.7818608E-02  0.1179069E+00
         -1   -1    0    0    0  501 -0.00000000000E+00  0.00000000000E+00  0.99262660042E+01  0.99262672837E+01  0.50400000000E-02 0.  1.
          1   -1    0    0  501    0  0.00000000000E+00 -0.00000000000E+00 -0.71791646805E+03  0.71791646807E+03  0.50400000000E-02 0. -1.
    5000001    1    1    2    0    0 -0.25694720620E+02 -0.16813586092E+02 -0.42274365713E+03  0.43079474809E+03  0.77000000000E+02 0.  0.
   -5000001    1    1    2    0    0  0.25694720620E+02  0.16813586092E+02 -0.28524654492E+03  0.29704798726E+03  0.77000000000E+02 0.  0.
<mgrwt>
<rscale>  0 0.16883400E+03</rscale>
<asrwt>0</asrwt>
<pdfrwt beam="1">  1        1 0.11044865E+00 0.16883400E+03</pdfrwt>
<pdfrwt beam="2">  1       -1 0.15271185E-02 0.16883400E+03</pdfrwt>
<totfact> 0.26546310E+04</totfact>
</mgrwt>
</event>
<event>
 4    1  0.3147937E-004  0.1981890E+03  0.7818608E-02  0.1151276E+00
         -1   -1    0    0    0  501 -0.00000000000E+00  0.00000000000E+00  0.40816299938E+02  0.40816300249E+02  0.50400000000E-02 0. -1.
          1   -1    0    0  501    0  0.00000000000E+00 -0.00000000000E+00 -0.24058326566E+03  0.24058326571E+03  0.50400000000E-02 0.  1.
    5000001    1    1    2    0    0  0.19847349392E+02 -0.11864035447E+02 -0.17629324008E+02  0.82307142339E+02  0.77000000000E+02 0.  0.
   -5000001    1    1    2    0    0 -0.19847349392E+02  0.11864035447E+02 -0.18213764171E+03  0.19909242362E+03  0.77000000000E+02 0.  0.
<mgrwt>
<rscale>  0 0.19818899E+03</rscale>
<asrwt>0</asrwt>
<pdfrwt beam="1">  1        1 0.37012809E-01 0.19818899E+03</pdfrwt>
<pdfrwt beam="2">  1       -1 0.62794310E-02 0.19818899E+03</pdfrwt>
<totfact> 0.13984197E+04</totfact>
</mgrwt>
</event>
<event>
 4    1  0.3147937E-004  0.2712004E+03  0.7818608E-02  0.1100595E+00
         -1   -1    0    0    0  501 -0.00000000000E+00  0.00000000000E+00  0.76808693816E+02  0.76808693982E+02  0.50400000000E-02 0.  1.
          1   -1    0    0  501    0  0.00000000000E+00 -0.00000000000E+00 -0.23939230275E+03  0.23939230280E+03  0.50400000000E-02 0. -1.
    5000001    1    1    2    0    0  0.53601243498E+02 -0.57601568420E+02 -0.17359480885E+03  0.20556067632E+03  0.77000000000E+02 0.  0.
   -5000001    1    1    2    0    0 -0.53601243498E+02  0.57601568420E+02  0.11011199918E+02  0.11064032046E+03  0.77000000000E+02 0.  0.
<mgrwt>
<rscale>  0 0.27120037E+03</rscale>
<asrwt>0</asrwt>
<pdfrwt beam="1">  1        1 0.36829585E-01 0.27120037E+03</pdfrwt>
<pdfrwt beam="2">  1       -1 0.11816722E-01 0.27120037E+03</pdfrwt>
<totfact> 0.54344290E+03</totfact>
</mgrwt>
</event>
<event>
 4    1  0.3147937E-004  0.1863435E+03  0.7818608E-02  0.1161801E+00
          1   -1    0    0  501    0  0.00000000000E+00  0.00000000000E+00  0.99489892715E+02  0.99489892843E+02  0.50400000000E-02 0. -1.
         -1   -1    0    0    0  501 -0.00000000000E+00 -0.00000000000E+00 -0.87254856839E+02  0.87254856984E+02  0.50400000000E-02 0.  1.
    5000001    1    1    2    0    0  0.23955470738E+01  0.51401747284E+02 -0.41072985668E+01  0.92702471225E+02  0.77000000000E+02 0.  0.
   -5000001    1    1    2    0    0 -0.23955470738E+01 -0.51401747284E+02  0.16342334443E+02  0.94042278602E+02  0.77000000000E+02 0.  0.
<mgrwt>
<rscale>  0 0.18634351E+03</rscale>
<asrwt>0</asrwt>
<pdfrwt beam="1">  1        1 0.15306137E-01 0.18634351E+03</pdfrwt>
<pdfrwt beam="2">  1       -1 0.13423824E-01 0.18634351E+03</pdfrwt>
<totfact> 0.13356195E+04</totfact>
</mgrwt>
</event>
<event>
 4    1  0.3147937E-004  0.2134541E+03  0.7818608E-02  0.1138860E+00
          1   -1    0    0  501    0  0.00000000000E+00  0.00000000000E+00  0.69718165611E+03  0.69718165613E+03  0.50400000000E-02 0.  1.
         -1   -1    0    0    0  501 -0.00000000000E+00 -0.00000000000E+00 -0.16338154242E+02  0.16338155019E+02  0.50400000000E-02 0. -1.
    5000001    1    1    2    0    0  0.39771903688E+01  0.73512450974E+02  0.36202398034E+03  0.37737284061E+03  0.77000000000E+02 0.  0.
   -5000001    1    1    2    0    0 -0.39771903688E+01 -0.73512450974E+02  0.31881952153E+03  0.33614697053E+03  0.77000000000E+02 0.  0.
<mgrwt>
<rscale>  0 0.21345409E+03</rscale>
<asrwt>0</asrwt>
<pdfrwt beam="1">  1        1 0.10725870E+00 0.21345409E+03</pdfrwt>
<pdfrwt beam="2">  1       -1 0.25135625E-02 0.21345409E+03</pdfrwt>
<totfact> 0.13650040E+04</totfact>
</mgrwt>
</event>
<event>
 4    1  0.3147937E-004  0.3872284E+03  0.7818608E-02  0.1048294E+00
          1   -1    0    0  501    0  0.00000000000E+00  0.00000000000E+00  0.13277507644E+04  0.13277507644E+04  0.50400000000E-02 0.  1.
         -1   -1    0    0    0  501 -0.00000000000E+00 -0.00000000000E+00 -0.28233047444E+02  0.28233047894E+02  0.50400000000E-02 0. -1.
    5000001    1    1    2    0    0 -0.42642462906E+02 -0.14606961141E+03  0.97075351381E+03  0.98561965057E+03  0.77000000000E+02 0.  0.
   -5000001    1    1    2    0    0  0.42642462906E+02  0.14606961141E+03  0.32876420310E+03  0.37036416169E+03  0.77000000000E+02 0.  0.
<mgrwt>
<rscale>  0 0.38722836E+03</rscale>
<asrwt>0</asrwt>
<pdfrwt beam="1">  1        1 0.20426935E+00 0.38722836E+03</pdfrwt>
<pdfrwt beam="2">  1       -1 0.43435457E-02 0.38722836E+03</pdfrwt>
<totfact> 0.20297940E+03</totfact>
</mgrwt>
</event>
<event>
 4    1  0.3147937E-004  0.1671423E+03  0.7818608E-02  0.1180861E+00
         -1   -1    0    0    0  501 -0.00000000000E+00  0.00000000000E+00  0.71530559174E+02  0.71530559351E+02  0.50400000000E-02 0.  1.
          1   -1    0    0  501    0  0.00000000000E+00 -0.00000000000E+00 -0.97638498455E+02  0.97638498585E+02  0.50400000000E-02 0. -1.
    5000001    1    1    2    0    0  0.15315913483E+02 -0.28200356875E+02 -0.79631586367E+01  0.83798861742E+02  0.77000000000E+02 0.  0.
   -5000001    1    1    2    0    0 -0.15315913483E+02  0.28200356875E+02 -0.18144780645E+02  0.85370196195E+02  0.77000000000E+02 0.  0.
<mgrwt>
<rscale>  0 0.16714229E+03</rscale>
<asrwt>0</asrwt>
<pdfrwt beam="1">  1        1 0.15021307E-01 0.16714229E+03</pdfrwt>
<pdfrwt beam="2">  1       -1 0.11004702E-01 0.16714229E+03</pdfrwt>
<totfact> 0.18467753E+04</totfact>
</mgrwt>
</event>
<event>
 4    1  0.3147937E-004  0.2333201E+03  0.7818608E-02  0.1124325E+00
         -1   -1    0    0    0  501 -0.00000000000E+00  0.00000000000E+00  0.35064586670E+02  0.35064587032E+02  0.50400000000E-02 0. -1.
          1   -1    0    0  501    0  0.00000000000E+00 -0.00000000000E+00 -0.38812855201E+03  0.38812855204E+03  0.50400000000E-02 0.  1.
    5000001    1    1    2    0    0 -0.70184056132E+02 -0.15271408956E+02 -0.85452568884E+02  0.13561032112E+03  0.77000000000E+02 0.  0.
   -5000001    1    1    2    0    0  0.70184056132E+02  0.15271408956E+02 -0.26761139645E+03  0.28758281795E+03  0.77000000000E+02 0.  0.
<mgrwt>
<rscale>  0 0.23332010E+03</rscale>
<asrwt>0</asrwt>
<pdfrwt beam="1">  1        1 0.59712082E-01 0.23332010E+03</pdfrwt>
<pdfrwt beam="2">  1       -1 0.53945521E-02 0.23332010E+03</pdfrwt>
<totfact> 0.97296467E+03</totfact>
</mgrwt>
</event>
<event>
 4    1  0.3147937E-004  0.1975986E+03  0.7818608E-02  0.1151781E+00
          1   -1    0    0  501    0  0.00000000000E+00  0.00000000000E+00  0.40705941880E+03  0.40705941883E+03  0.50400000000E-02 0. -1.
         -1   -1    0    0    0  501 -0.00000000000E+00 -0.00000000000E+00 -0.23980035094E+02  0.23980035623E+02  0.50400000000E-02 0.  1.
    5000001    1    1    2    0    0  0.41807883964E+02 -0.34871286560E+02  0.12725737930E+03  0.15838985566E+03  0.77000000000E+02 0.  0.
   -5000001    1    1    2    0    0 -0.41807883964E+02  0.34871286560E+02  0.25582200440E+03  0.27264959880E+03  0.77000000000E+02 0.  0.
<mgrwt>
<rscale>  0 0.19759858E+03</rscale>
<asrwt>0</asrwt>
<pdfrwt beam="1">  1        1 0.62624519E-01 0.19759858E+03</pdfrwt>
<pdfrwt beam="2">  1       -1 0.36892366E-02 0.19759858E+03</pdfrwt>
<totfact> 0.15950361E+04</totfact>
</mgrwt>
</event>
<event>
 4    1  0.3147937E-004  0.1947466E+03  0.7818608E-02  0.1154249E+00
         -1   -1    0    0    0  501 -0.00000000000E+00  0.00000000000E+00  0.13567131878E+03  0.13567131888E+03  0.50400000000E-02 0. -1.
          1   -1    0    0  501    0  0.00000000000E+00 -0.00000000000E+00 -0.69886268869E+02  0.69886269050E+02  0.50400000000E-02 0.  1.
    5000001    1    1    2    0    0  0.74876297671E+01  0.41374163315E+02 -0.11698072797E+02  0.88508366252E+02  0.77000000000E+02 0.  0.
   -5000001    1    1    2    0    0 -0.74876297671E+01 -0.41374163315E+02  0.77483122710E+02  0.11704922167E+03  0.77000000000E+02 0.  0.
<mgrwt>
<rscale>  0 0.19474663E+03</rscale>
<asrwt>0</asrwt>
<pdfrwt beam="1">  1        1 0.10751734E-01 0.19474663E+03</pdfrwt>
<pdfrwt beam="2">  1       -1 0.20872511E-01 0.19474663E+03</pdfrwt>
<totfact> 0.10563625E+04</totfact>
</mgrwt>
</event>
<event>
 4    1  0.3147937E-004  0.7202883E+03  0.7818608E-02  0.9683152E-01
         -1   -1    0    0    0  501 -0.00000000000E+00  0.00000000000E+00  0.12022679049E+03  0.12022679060E+03  0.50400000000E-02 0.  1.
          1   -1    0    0  501    0  0.00000000000E+00 -0.00000000000E+00 -0.10788262691E+04  0.10788262691E+04  0.50400000000E-02 0. -1.
    5000001    1    1    2    0    0  0.30645209964E+03  0.14052832283E+03 -0.31188738366E+03  0.46568641700E+03  0.77000000000E+02 0.  0.
   -5000001    1    1    2    0    0 -0.30645209964E+03 -0.14052832283E+03 -0.64671209495E+03  0.73336664272E+03  0.77000000000E+02 0.  0.
<mgrwt>
<rscale>  0 0.72028833E+03</rscale>
<asrwt>0</asrwt>
<pdfrwt beam="1">  1        1 0.16597327E+00 0.72028833E+03</pdfrwt>
<pdfrwt beam="2">  1       -1 0.18496430E-01 0.72028833E+03</pdfrwt>
<totfact> 0.31050701E+02</totfact>
</mgrwt>
</event>
<event>
 4    1  0.3147937E-004  0.6993738E+03  0.7818608E-02  0.9718304E-01
         -1   -1    0    0    0  501 -0.00000000000E+00  0.00000000000E+00  0.40293920270E+03  0.40293920273E+03  0.50400000000E-02 0. -1.
          1   -1    0    0  501    0  0.00000000000E+00 -0.00000000000E+00 -0.30347240672E+03  0.30347240676E+03  0.50400000000E-02 0.  1.
    5000001    1    1    2    0    0  0.29746109752E+03  0.16466820033E+03  0.77454225221E+02  0.35710905581E+03  0.77000000000E+02 0.  0.
   -5000001    1    1    2    0    0 -0.29746109752E+03 -0.16466820033E+03  0.22012570758E+02  0.34930255368E+03  0.77000000000E+02 0.  0.
<mgrwt>
<rscale>  0 0.69937380E+03</rscale>
<asrwt>0</asrwt>
<pdfrwt beam="1">  1        1 0.46688063E-01 0.69937380E+03</pdfrwt>
<pdfrwt beam="2">  1       -1 0.61990646E-01 0.69937380E+03</pdfrwt>
<totfact> 0.23122425E+02</totfact>
</mgrwt>
</event>
<event>
 4    1  0.3147937E-004  0.1805844E+03  0.7818608E-02  0.1167239E+00
          1   -1    0    0  501    0  0.00000000000E+00  0.00000000000E+00  0.13156757903E+03  0.13156757913E+03  0.50400000000E-02 0.  1.
         -1   -1    0    0    0  501 -0.00000000000E+00 -0.00000000000E+00 -0.61965738546E+02  0.61965738751E+02  0.50400000000E-02 0. -1.
    5000001    1    1    2    0    0  0.11894843682E+02 -0.45164704286E+02  0.27827055050E+02  0.94258595429E+02  0.77000000000E+02 0.  0.
   -5000001    1    1    2    0    0 -0.11894843682E+02  0.45164704286E+02  0.41774785436E+02  0.99274722451E+02  0.77000000000E+02 0.  0.
<mgrwt>
<rscale>  0 0.18058441E+03</rscale>
<asrwt>0</asrwt>
<pdfrwt beam="1">  1        1 0.20241166E-01 0.18058441E+03</pdfrwt>
<pdfrwt beam="2">  1       -1 0.95331908E-02 0.18058441E+03</pdfrwt>
<totfact> 0.15774571E+04</totfact>
</mgrwt>
</event>
<event>
 4    1  0.3147937E-004  0.2410029E+03  0.7818608E-02  0.1119127E+00
         -1   -1    0    0    0  501 -0.00000000000E+00  0.00000000000E+00  0.27328357591E+03  0.27328357595E+03  0.50400000000E-02 0. -1.
          1   -1    0    0  501    0  0.00000000000E+00 -0.00000000000E+00 -0.53133805035E+02  0.53133805274E+02  0.50400000000E-02 0.  1.
    5000001    1    1    2    0    0 -0.33633720956E+02 -0.58139881904E+02  0.23560625845E+02  0.10485979279E+03  0.77000000000E+02 0.  0.
   -5000001    1    1    2    0    0  0.33633720956E+02  0.58139881904E+02  0.19658914503E+03  0.22155758844E+03  0.77000000000E+02 0.  0.
<mgrwt>
<rscale>  0 0.24100287E+03</rscale>
<asrwt>0</asrwt>
<pdfrwt beam="1">  1        1 0.81744317E-02 0.24100287E+03</pdfrwt>
<pdfrwt beam="2">  1       -1 0.42043626E-01 0.24100287E+03</pdfrwt>
<totfact> 0.47087210E+03</totfact>
</mgrwt>
</event>
<event>
 4    1  0.3147937E-004  0.1919245E+03  0.7818608E-02  0.1156737E+00
          1   -1    0    0  501    0  0.00000000000E+00  0.00000000000E+00  0.14756044737E+04  0.14756044737E+04  0.50400000000E-02 0.  1.
         -1   -1    0    0    0  501 -0.00000000000E+00 -0.00000000000E+00 -0.62406612287E+01  0.62406632639E+01  0.50400000000E-02 0. -1.
    5000001    1    1    2    0    0 -0.45873764636E+02  0.18303990949E+02  0.95849859626E+03  0.96285408937E+03  0.77000000000E+02 0.  0.
   -5000001    1    1    2    0    0  0.45873764636E+02 -0.18303990949E+02  0.51086521622E+03  0.51899104762E+03  0.77000000000E+02 0.  0.
<mgrwt>
<rscale>  0 0.19192446E+03</rscale>
<asrwt>0</asrwt>
<pdfrwt beam="1">  1        1 0.22701650E+00 0.19192446E+03</pdfrwt>
<pdfrwt beam="2">  1       -1 0.96010007E-03 0.19192446E+03</pdfrwt>
<totfact> 0.14600997E+04</totfact>
</mgrwt>
</event>
<event>
 4    1  0.3147937E-004  0.2318145E+03  0.7818608E-02  0.1125369E+00
         -1   -1    0    0    0  501 -0.00000000000E+00  0.00000000000E+00  0.12594872582E+04  0.12594872582E+04  0.50400000000E-02 0. -1.
          1   -1    0    0  501    0  0.00000000000E+00 -0.00000000000E+00 -0.10666630020E+02  0.10666631211E+02  0.50400000000E-02 0.  1.
    5000001    1    1    2    0    0 -0.73225781933E+02 -0.16887463801E+02  0.38821468937E+03  0.40284841643E+03  0.77000000000E+02 0.  0.
   -5000001    1    1    2    0    0  0.73225781933E+02  0.16887463801E+02  0.86060593881E+03  0.86730547300E+03  0.77000000000E+02 0.  0.
<mgrwt>
<rscale>  0 0.23181445E+03</rscale>
<asrwt>0</asrwt>
<pdfrwt beam="1">  1        1 0.16410199E-02 0.23181445E+03</pdfrwt>
<pdfrwt beam="2">  1       -1 0.19376730E+00 0.23181445E+03</pdfrwt>
<totfact> 0.14662154E+03</totfact>
</mgrwt>
</event>
<event>
 4    1  0.3147937E-004  0.2148761E+03  0.7818608E-02  0.1137762E+00
          1   -1    0    0  501    0  0.00000000000E+00  0.00000000000E+00  0.71783176730E+03  0.71783176732E+03  0.50400000000E-02 0.  1.
         -1   -1    0    0    0  501 -0.00000000000E+00 -0.00000000000E+00 -0.16080276179E+02  0.16080276969E+02  0.50400000000E-02 0. -1.
    5000001    1    1    2    0    0 -0.38165090688E+02  0.61791986403E+02  0.41377217461E+03  0.42709628448E+03  0.77000000000E+02 0.  0.
   -5000001    1    1    2    0    0  0.38165090688E+02 -0.61791986403E+02  0.28797931651E+03  0.30681575981E+03  0.77000000000E+02 0.  0.
<mgrwt>
<rscale>  0 0.21487609E+03</rscale>
<asrwt>0</asrwt>
<pdfrwt beam="1">  1        1 0.11043565E+00 0.21487609E+03</pdfrwt>
<pdfrwt beam="2">  1       -1 0.24738888E-02 0.21487609E+03</pdfrwt>
<totfact> 0.13395102E+04</totfact>
</mgrwt>
</event>
<event>
 4    1  0.3147937E-004  0.2815819E+03  0.7818608E-02  0.1094828E+00
          1   -1    0    0  501    0  0.00000000000E+00  0.00000000000E+00  0.14651522688E+03  0.14651522697E+03  0.50400000000E-02 0.  1.
         -1   -1    0    0    0  501 -0.00000000000E+00 -0.00000000000E+00 -0.13529034773E+03  0.13529034783E+03  0.50400000000E-02 0. -1.
    5000001    1    1    2    0    0  0.86370086829E+02 -0.80139279593E+02  0.22931826841E+01  0.14077057476E+03  0.77000000000E+02 0.  0.
   -5000001    1    1    2    0    0 -0.86370086829E+02  0.80139279593E+02  0.89316964667E+01  0.14103500003E+03  0.77000000000E+02 0.  0.
<mgrwt>
<rscale>  0 0.28158193E+03</rscale>
<asrwt>0</asrwt>
<pdfrwt beam="1">  1        1 0.22540804E-01 0.28158193E+03</pdfrwt>
<pdfrwt beam="2">  1       -1 0.20813900E-01 0.28158193E+03</pdfrwt>
<totfact> 0.41085075E+03</totfact>
</mgrwt>
</event>
<event>
 4    1  0.3147937E-004  0.2110747E+03  0.7818608E-02  0.1140718E+00
         -1   -1    0    0    0  501 -0.00000000000E+00  0.00000000000E+00  0.44112272755E+02  0.44112273043E+02  0.50400000000E-02 0.  1.
          1   -1    0    0  501    0  0.00000000000E+00 -0.00000000000E+00 -0.25249505391E+03  0.25249505396E+03  0.50400000000E-02 0. -1.
    5000001    1    1    2    0    0  0.48754421836E+02  0.48086361459E+02 -0.72152304145E+02  0.12579446252E+03  0.77000000000E+02 0.  0.
   -5000001    1    1    2    0    0 -0.48754421836E+02 -0.48086361459E+02 -0.13623047701E+03  0.17081286448E+03  0.77000000000E+02 0.  0.
<mgrwt>
<rscale>  0 0.21107469E+03</rscale>
<asrwt>0</asrwt>
<pdfrwt beam="1">  1        1 0.38845392E-01 0.21107469E+03</pdfrwt>
<pdfrwt beam="2">  1       -1 0.67865036E-02 0.21107469E+03</pdfrwt>
<totfact> 0.11759436E+04</totfact>
</mgrwt>
</event>
<event>
 4    1  0.3147937E-004  0.3836880E+03  0.7818608E-02  0.1049579E+00
          1   -1    0    0  501    0  0.00000000000E+00  0.00000000000E+00  0.32792889417E+03  0.32792889420E+03  0.50400000000E-02 0.  1.
         -1   -1    0    0    0  501 -0.00000000000E+00 -0.00000000000E+00 -0.11223202730E+03  0.11223202742E+03  0.50400000000E-02 0. -1.
    5000001    1    1    2    0    0  0.18314149561E+02 -0.17475090156E+03  0.10629275414E+03  0.21931811429E+03  0.77000000000E+02 0.  0.
   -5000001    1    1    2    0    0 -0.18314149561E+02  0.17475090156E+03  0.10940411272E+03  0.22084280733E+03  0.77000000000E+02 0.  0.
<mgrwt>
<rscale>  0 0.38368802E+03</rscale>
<asrwt>0</asrwt>
<pdfrwt beam="1">  1        1 0.50450599E-01 0.38368802E+03</pdfrwt>
<pdfrwt beam="2">  1       -1 0.17266466E-01 0.38368802E+03</pdfrwt>
<totfact> 0.20133410E+03</totfact>
</mgrwt>
</event>
<event>
 4    1  0.3147937E-004  0.2179952E+03  0.7818608E-02  0.1135387E+00
         -1   -1    0    0    0  501 -0.00000000000E+00  0.00000000000E+00  0.86321574015E+01  0.86321588728E+01  0.50400000000E-02 0.  1.
          1   -1    0    0  501    0  0.00000000000E+00 -0.00000000000E+00 -0.13763042689E+04  0.13763042689E+04  0.50400000000E-02 0. -1.
    5000001    1    1    2    0    0  0.62491470994E+02  0.31718919634E+02 -0.47893611892E+03  0.49012251511E+03  0.77000000000E+02 0.  0.
   -5000001    1    1    2    0    0 -0.62491470994E+02 -0.31718919634E+02 -0.88873599253E+03  0.89481391263E+03  0.77000000000E+02 0.  0.
<mgrwt>
<rscale>  0 0.21799519E+03</rscale>
<asrwt>0</asrwt>
<pdfrwt beam="1">  1        1 0.21173894E+00 0.21799519E+03</pdfrwt>
<pdfrwt beam="2">  1       -1 0.13280254E-02 0.21799519E+03</pdfrwt>
<totfact> 0.10704954E+04</totfact>
</mgrwt>
</event>
<event>
 4    1  0.3147937E-004  0.1906928E+03  0.7818608E-02  0.1157838E+00
         -1   -1    0    0    0  501 -0.00000000000E+00  0.00000000000E+00  0.10593889754E+02  0.10593890953E+02  0.50400000000E-02 0.  1.
          1   -1    0    0  501    0  0.00000000000E+00 -0.00000000000E+00 -0.85812993873E+03  0.85812993874E+03  0.50400000000E-02 0. -1.
    5000001    1    1    2    0    0 -0.44399380306E+02 -0.34105199050E+02 -0.44764265377E+03  0.45765425273E+03  0.77000000000E+02 0.  0.
   -5000001    1    1    2    0    0  0.44399380306E+02  0.34105199050E+02 -0.39989339521E+03  0.41106957696E+03  0.77000000000E+02 0.  0.
<mgrwt>
<rscale>  0 0.19069278E+03</rscale>
<asrwt>0</asrwt>
<pdfrwt beam="1">  1        1 0.13201994E+00 0.19069278E+03</pdfrwt>
<pdfrwt beam="2">  1       -1 0.16298300E-02 0.19069278E+03</pdfrwt>
<totfact> 0.18621242E+04</totfact>
</mgrwt>
</event>
<event>
 4    1  0.3147937E-004  0.4162603E+03  0.7818608E-02  0.1038290E+00
         -1   -1    0    0    0  501 -0.00000000000E+00  0.00000000000E+00  0.42731124291E+02  0.42731124589E+02  0.50400000000E-02 0. -1.
          1   -1    0    0  501    0  0.00000000000E+00 -0.00000000000E+00 -0.10137378376E+04  0.10137378376E+04  0.50400000000E-02 0.  1.
    5000001    1    1    2    0    0 -0.75640873266E+02 -0.17790818953E+03 -0.49574760647E+03  0.53765003016E+03  0.77000000000E+02 0.  0.
   -5000001    1    1    2    0    0  0.75640873266E+02  0.17790818953E+03 -0.47525910679E+03  0.51881893199E+03  0.77000000000E+02 0.  0.
<mgrwt>
<rscale>  0 0.41626029E+03</rscale>
<asrwt>0</asrwt>
<pdfrwt beam="1">  1        1 0.15595965E+00 0.41626029E+03</pdfrwt>
<pdfrwt beam="2">  1       -1 0.65740199E-02 0.41626029E+03</pdfrwt>
<totfact> 0.18164454E+03</totfact>
</mgrwt>
</event>
<event>
 4    1  0.3147937E-004  0.4142631E+03  0.7818608E-02  0.1038950E+00
         -1   -1    0    0    0  501 -0.00000000000E+00  0.00000000000E+00  0.20983403469E+03  0.20983403475E+03  0.50400000000E-02 0. -1.
          1   -1    0    0  501    0  0.00000000000E+00 -0.00000000000E+00 -0.20446389366E+03  0.20446389372E+03  0.50400000000E-02 0.  1.
    5000001    1    1    2    0    0 -0.39852542623E+02  0.89841868940E+02  0.16797054247E+03  0.20929139903E+03  0.77000000000E+02 0.  0.
   -5000001    1    1    2    0    0  0.39852542623E+02 -0.89841868940E+02 -0.16260040144E+03  0.20500652945E+03  0.77000000000E+02 0.  0.
<mgrwt>
<rscale>  0 0.41426312E+03</rscale>
<asrwt>0</asrwt>
<pdfrwt beam="1">  1        1 0.31455984E-01 0.41426312E+03</pdfrwt>
<pdfrwt beam="2">  1       -1 0.32282159E-01 0.41426312E+03</pdfrwt>
<totfact> 0.12903793E+03</totfact>
</mgrwt>
</event>
<event>
 4    1  0.3147937E-004  0.2158372E+03  0.7818608E-02  0.1137025E+00
          1   -1    0    0  501    0  0.00000000000E+00  0.00000000000E+00  0.22117448167E+03  0.22117448172E+03  0.50400000000E-02 0. -1.
         -1   -1    0    0    0  501 -0.00000000000E+00 -0.00000000000E+00 -0.52657156205E+02  0.52657156446E+02  0.50400000000E-02 0.  1.
    5000001    1    1    2    0    0 -0.72769989185E+02 -0.42513927497E+01  0.58762187021E+02  0.12122516360E+03  0.77000000000E+02 0.  0.
   -5000001    1    1    2    0    0  0.72769989185E+02  0.42513927497E+01  0.10975513844E+03  0.15260647457E+03  0.77000000000E+02 0.  0.
<mgrwt>
<rscale>  0 0.21583715E+03</rscale>
<asrwt>0</asrwt>
<pdfrwt beam="1">  1        1 0.34026844E-01 0.21583715E+03</pdfrwt>
<pdfrwt beam="2">  1       -1 0.81011008E-02 0.21583715E+03</pdfrwt>
<totfact> 0.10624445E+04</totfact>
</mgrwt>
</event>
<event>
 4    1  0.3147937E-004  0.2711650E+03  0.7818608E-02  0.1100615E+00
         -1   -1    0    0    0  501 -0.00000000000E+00  0.00000000000E+00  0.27503437616E+02  0.27503438077E+02  0.50400000000E-02 0. -1.
          1   -1    0    0  501    0  0.00000000000E+00 -0.00000000000E+00 -0.66837509600E+03  0.66837509601E+03  0.50400000000E-02 0.  1.
    5000001    1    1    2    0    0  0.21606231518E+01  0.10308423371E+03 -0.21087791245E+03  0.24704153799E+03  0.77000000000E+02 0.  0.
   -5000001    1    1    2    0    0 -0.21606231518E+01 -0.10308423371E+03 -0.42999374593E+03  0.44883699610E+03  0.77000000000E+02 0.  0.
<mgrwt>
<rscale>  0 0.27116499E+03</rscale>
<asrwt>0</asrwt>
<pdfrwt beam="1">  1        1 0.10282693E+00 0.27116499E+03</pdfrwt>
<pdfrwt beam="2">  1       -1 0.42312986E-02 0.27116499E+03</pdfrwt>
<totfact> 0.67944534E+03</totfact>
</mgrwt>
</event>
<event>
 4    1  0.3147937E-004  0.1877850E+03  0.7818608E-02  0.1160474E+00
         -1   -1    0    0    0  501 -0.00000000000E+00  0.00000000000E+00  0.49700050593E+02  0.49700050848E+02  0.50400000000E-02 0. -1.
          1   -1    0    0  501    0  0.00000000000E+00 -0.00000000000E+00 -0.17738008543E+03  0.17738008550E+03  0.50400000000E-02 0.  1.
    5000001    1    1    2    0    0 -0.17284033059E+02  0.28314220649E+02 -0.11494974560E+03  0.14227746449E+03  0.77000000000E+02 0.  0.
   -5000001    1    1    2    0    0  0.17284033059E+02 -0.28314220649E+02 -0.12730289239E+02  0.84802671856E+02  0.77000000000E+02 0.  0.
<mgrwt>
<rscale>  0 0.18778498E+03</rscale>
<asrwt>0</asrwt>
<pdfrwt beam="1">  1        1 0.27289244E-01 0.18778498E+03</pdfrwt>
<pdfrwt beam="2">  1       -1 0.76461618E-02 0.18778498E+03</pdfrwt>
<totfact> 0.15156466E+04</totfact>
</mgrwt>
</event>
<event>
 4    1  0.3147937E-004  0.2185254E+03  0.7818608E-02  0.1134987E+00
         -1   -1    0    0    0  501 -0.00000000000E+00  0.00000000000E+00  0.27966970223E+03  0.27966970227E+03  0.50400000000E-02 0.  1.
          1   -1    0    0  501    0  0.00000000000E+00 -0.00000000000E+00 -0.42687260604E+02  0.42687260902E+02  0.50400000000E-02 0. -1.
    5000001    1    1    2    0    0  0.38863291456E+02 -0.30966279666E+02  0.30722254182E+02  0.96654657421E+02  0.77000000000E+02 0.  0.
   -5000001    1    1    2    0    0 -0.38863291456E+02  0.30966279666E+02  0.20626018744E+03  0.22570230575E+03  0.77000000000E+02 0.  0.
<mgrwt>
<rscale>  0 0.21852536E+03</rscale>
<asrwt>0</asrwt>
<pdfrwt beam="1">  1        1 0.65672710E-02 0.21852536E+03</pdfrwt>
<pdfrwt beam="2">  1       -1 0.43026107E-01 0.21852536E+03</pdfrwt>
<totfact> 0.60582746E+03</totfact>
</mgrwt>
</event>
<event>
 4    1  0.3147937E-004  0.2097295E+03  0.7818608E-02  0.1141780E+00
         -1   -1    0    0    0  501 -0.00000000000E+00  0.00000000000E+00  0.29153183967E+02  0.29153184402E+02  0.50400000000E-02 0. -1.
          1   -1    0    0  501    0  0.00000000000E+00 -0.00000000000E+00 -0.37720127531E+03  0.37720127534E+03  0.50400000000E-02 0.  1.
    5000001    1    1    2    0    0 -0.47077749578E+02 -0.52929632160E+02 -0.18769113552E+03  0.21488327719E+03  0.77000000000E+02 0.  0.
   -5000001    1    1    2    0    0  0.47077749578E+02  0.52929632160E+02 -0.16035695582E+03  0.19147118255E+03  0.77000000000E+02 0.  0.
<mgrwt>
<rscale>  0 0.20972952E+03</rscale>
<asrwt>0</asrwt>
<pdfrwt beam="1">  1        1 0.58030962E-01 0.20972952E+03</pdfrwt>
<pdfrwt beam="2">  1       -1 0.44851055E-02 0.20972952E+03</pdfrwt>
<totfact> 0.13209936E+04</totfact>
</mgrwt>
</event>
<event>
 4    1  0.3147937E-004  0.4940297E+03  0.7818608E-02  0.1015349E+00
         -1   -1    0    0    0  501 -0.00000000000E+00  0.00000000000E+00  0.14225701678E+03  0.14225701687E+03  0.50400000000E-02 0. -1.
          1   -1    0    0  501    0  0.00000000000E+00 -0.00000000000E+00 -0.42891617275E+03  0.42891617278E+03  0.50400000000E-02 0.  1.
    5000001    1    1    2    0    0  0.45923756602E+01  0.54226923458E+02 -0.40729111626E+03  0.41806303654E+03  0.77000000000E+02 0.  0.
   -5000001    1    1    2    0    0 -0.45923756602E+01 -0.54226923458E+02  0.12063196028E+03  0.15311015310E+03  0.77000000000E+02 0.  0.
<mgrwt>
<rscale>  0 0.49402970E+03</rscale>
<asrwt>0</asrwt>
<pdfrwt beam="1">  1        1 0.65987103E-01 0.49402970E+03</pdfrwt>
<pdfrwt beam="2">  1       -1 0.21885695E-01 0.49402970E+03</pdfrwt>
<totfact> 0.96345712E+02</totfact>
</mgrwt>
</event>
<event>
 4    1  0.3147937E-004  0.1891345E+03  0.7818608E-02  0.1159244E+00
          1   -1    0    0  501    0  0.00000000000E+00  0.00000000000E+00  0.25715458705E+02  0.25715459199E+02  0.50400000000E-02 0. -1.
         -1   -1    0    0    0  501 -0.00000000000E+00 -0.00000000000E+00 -0.34776622135E+03  0.34776622139E+03  0.50400000000E-02 0.  1.
    5000001    1    1    2    0    0 -0.27762542570E+02  0.37683771975E+02 -0.10437067409E+03  0.13788786404E+03  0.77000000000E+02 0.  0.
   -5000001    1    1    2    0    0  0.27762542570E+02 -0.37683771975E+02 -0.21768008856E+03  0.23559381655E+03  0.77000000000E+02 0.  0.
<mgrwt>
<rscale>  0 0.18913453E+03</rscale>
<asrwt>0</asrwt>
<pdfrwt beam="1">  1        1 0.39562247E-02 0.18913453E+03</pdfrwt>
<pdfrwt beam="2">  1       -1 0.53502492E-01 0.18913453E+03</pdfrwt>
<totfact> 0.81083412E+03</totfact>
</mgrwt>
</event>
<event>
 4    1  0.3147937E-004  0.2054796E+03  0.7818608E-02  0.1145197E+00
          1   -1    0    0  501    0  0.00000000000E+00  0.00000000000E+00  0.38800568841E+03  0.38800568844E+03  0.50400000000E-02 0.  1.
         -1   -1    0    0    0  501 -0.00000000000E+00 -0.00000000000E+00 -0.27204399042E+02  0.27204399509E+02  0.50400000000E-02 0. -1.
    5000001    1    1    2    0    0  0.67975346717E+02 -0.20450816533E+01  0.17781956736E+03  0.20536218896E+03  0.77000000000E+02 0.  0.
   -5000001    1    1    2    0    0 -0.67975346717E+02  0.20450816533E+01  0.18298172201E+03  0.20984789899E+03  0.77000000000E+02 0.  0.
<mgrwt>
<rscale>  0 0.20547955E+03</rscale>
<asrwt>0</asrwt>
<pdfrwt beam="1">  1        1 0.59693185E-01 0.20547955E+03</pdfrwt>
<pdfrwt beam="2">  1       -1 0.41852921E-02 0.20547955E+03</pdfrwt>
<totfact> 0.14105055E+04</totfact>
</mgrwt>
</event>
<event>
 4    1  0.3147937E-004  0.2704600E+03  0.7818608E-02  0.1101017E+00
          1   -1    0    0  501    0  0.00000000000E+00  0.00000000000E+00  0.13982908931E+04  0.13982908931E+04  0.50400000000E-02 0.  1.
         -1   -1    0    0    0  501 -0.00000000000E+00 -0.00000000000E+00 -0.13078213338E+02  0.13078214309E+02  0.50400000000E-02 0. -1.
    5000001    1    1    2    0    0  0.16693898105E+00  0.98303888480E+02  0.42172823733E+03  0.43982654367E+03  0.77000000000E+02 0.  0.
   -5000001    1    1    2    0    0 -0.16693898105E+00 -0.98303888480E+02  0.96348444247E+03  0.97154256378E+03  0.77000000000E+02 0.  0.
<mgrwt>
<rscale>  0 0.27045996E+03</rscale>
<asrwt>0</asrwt>
<pdfrwt beam="1">  1        1 0.21512169E+00 0.27045996E+03</pdfrwt>
<pdfrwt beam="2">  1       -1 0.20120327E-02 0.27045996E+03</pdfrwt>
<totfact> 0.56861127E+03</totfact>
</mgrwt>
</event>
<event>
 4    1  0.3147937E-004  0.2053930E+03  0.7818608E-02  0.1145267E+00
         -1   -1    0    0    0  501 -0.00000000000E+00  0.00000000000E+00  0.55574717740E+01  0.55574740593E+01  0.50400000000E-02 0. -1.
          1   -1    0    0  501    0  0.00000000000E+00 -0.00000000000E+00 -0.18977285283E+04  0.18977285283E+04  0.50400000000E-02 0.  1.
    5000001    1    1    2    0    0 -0.13455378961E+02  0.40866904993E+02 -0.14334767360E+04  0.14361879068E+04  0.77000000000E+02 0.  0.
   -5000001    1    1    2    0    0  0.13455378961E+02 -0.40866904993E+02 -0.45869432056E+03  0.46709809555E+03  0.77000000000E+02 0.  0.
<mgrwt>
<rscale>  0 0.20539304E+03</rscale>
<asrwt>0</asrwt>
<pdfrwt beam="1">  1        1 0.29195772E+00 0.20539304E+03</pdfrwt>
<pdfrwt beam="2">  1       -1 0.85499735E-03 0.20539304E+03</pdfrwt>
<totfact> 0.92085927E+03</totfact>
</mgrwt>
</event>
<event>
 4    1  0.3147937E-004  0.2400679E+03  0.7818608E-02  0.1119748E+00
         -1   -1    0    0    0  501 -0.00000000000E+00  0.00000000000E+00  0.29548368902E+02  0.29548369332E+02  0.50400000000E-02 0. -1.
          1   -1    0    0  501    0  0.00000000000E+00 -0.00000000000E+00 -0.48761223005E+03  0.48761223007E+03  0.50400000000E-02 0.  1.
    5000001    1    1    2    0    0 -0.53660520087E+02  0.58337234122E+02 -0.32999283117E+03  0.34800424268E+03  0.77000000000E+02 0.  0.
   -5000001    1    1    2    0    0  0.53660520087E+02 -0.58337234122E+02 -0.12807102997E+03  0.16915635672E+03  0.77000000000E+02 0.  0.
<mgrwt>
<rscale>  0 0.24006788E+03</rscale>
<asrwt>0</asrwt>
<pdfrwt beam="1">  1        1 0.75017260E-01 0.24006788E+03</pdfrwt>
<pdfrwt beam="2">  1       -1 0.45459033E-02 0.24006788E+03</pdfrwt>
<totfact> 0.93651772E+03</totfact>
</mgrwt>
</event>
<event>
 4    1  0.3147937E-004  0.2127222E+03  0.7818608E-02  0.1139428E+00
          1   -1    0    0  501    0  0.00000000000E+00  0.00000000000E+00  0.12459937668E+02  0.12459938687E+02  0.50400000000E-02 0.  1.
         -1   -1    0    0    0  501 -0.00000000000E+00 -0.00000000000E+00 -0.90792422961E+03  0.90792422962E+03  0.50400000000E-02 0. -1.
    5000001    1    1    2    0    0  0.70661173776E+01 -0.72853274390E+02 -0.42560661342E+03  0.43866561182E+03  0.77000000000E+02 0.  0.
   -5000001    1    1    2    0    0 -0.70661173776E+01  0.72853274390E+02 -0.46985767852E+03  0.48171855649E+03  0.77000000000E+02 0.  0.
<mgrwt>
<rscale>  0 0.21272216E+03</rscale>
<asrwt>0</asrwt>
<pdfrwt beam="1">  1        1 0.19169143E-02 0.21272216E+03</pdfrwt>
<pdfrwt beam="2">  1       -1 0.13968060E+00 0.21272216E+03</pdfrwt>
<totfact> 0.28864071E+03</totfact>
</mgrwt>
</event>
<event>
 4    1  0.3147937E-004  0.3437550E+03  0.7818608E-02  0.1065208E+00
         -1   -1    0    0    0  501 -0.00000000000E+00  0.00000000000E+00  0.51609133674E+02  0.51609133920E+02  0.50400000000E-02 0. -1.
          1   -1    0    0  501    0  0.00000000000E+00 -0.00000000000E+00 -0.57241558314E+03  0.57241558316E+03  0.50400000000E-02 0.  1.
    5000001    1    1    2    0    0 -0.15346876958E+03  0.74376877772E+01 -0.26441749869E+03  0.31536264213E+03  0.77000000000E+02 0.  0.
   -5000001    1    1    2    0    0  0.15346876958E+03 -0.74376877772E+01 -0.25638895078E+03  0.30866207496E+03  0.77000000000E+02 0.  0.
<mgrwt>
<rscale>  0 0.34375499E+03</rscale>
<asrwt>0</asrwt>
<pdfrwt beam="1">  1        1 0.88063931E-01 0.34375499E+03</pdfrwt>
<pdfrwt beam="2">  1       -1 0.79398671E-02 0.34375499E+03</pdfrwt>
<totfact> 0.32800980E+03</totfact>
</mgrwt>
</event>
<event>
 4    1  0.3147937E-004  0.5217115E+03  0.7818608E-02  0.1008262E+00
          1   -1    0    0  501    0  0.00000000000E+00  0.00000000000E+00  0.31928594152E+03  0.31928594156E+03  0.50400000000E-02 0.  1.
         -1   -1    0    0    0  501 -0.00000000000E+00 -0.00000000000E+00 -0.21311842104E+03  0.21311842110E+03  0.50400000000E-02 0. -1.
    5000001    1    1    2    0    0  0.23539058000E+03  0.71146721347E+02  0.94487912107E+02  0.27445864287E+03  0.77000000000E+02 0.  0.
   -5000001    1    1    2    0    0 -0.23539058000E+03 -0.71146721347E+02  0.11679608377E+02  0.25794571980E+03  0.77000000000E+02 0.  0.
<mgrwt>
<rscale>  0 0.52171147E+03</rscale>
<asrwt>0</asrwt>
<pdfrwt beam="1">  1        1 0.49120914E-01 0.52171147E+03</pdfrwt>
<pdfrwt beam="2">  1       -1 0.32787449E-01 0.52171147E+03</pdfrwt>
<totfact> 0.70976765E+02</totfact>
</mgrwt>
</event>
<event>
 4    1  0.3147937E-004  0.3280896E+03  0.7818608E-02  0.1071985E+00
         -1   -1    0    0    0  501 -0.00000000000E+00  0.00000000000E+00  0.46601063064E+02  0.46601063337E+02  0.50400000000E-02 0. -1.
          1   -1    0    0  501    0  0.00000000000E+00 -0.00000000000E+00 -0.57746948516E+03  0.57746948518E+03  0.50400000000E-02 0.  1.
    5000001    1    1    2    0    0 -0.86342676451E+01  0.13181592934E+03 -0.15239391243E+03  0.21587703525E+03  0.77000000000E+02 0.  0.
   -5000001    1    1    2    0    0  0.86342676451E+01 -0.13181592934E+03 -0.37847450967E+03  0.40819351327E+03  0.77000000000E+02 0.  0.
<mgrwt>
<rscale>  0 0.32808957E+03</rscale>
<asrwt>0</asrwt>
<pdfrwt beam="1">  1        1 0.88841454E-01 0.32808957E+03</pdfrwt>
<pdfrwt beam="2">  1       -1 0.71693947E-02 0.32808957E+03</pdfrwt>
<totfact> 0.37861596E+03</totfact>
</mgrwt>
</event>
<event>
 4    1  0.3147937E-004  0.2243665E+03  0.7818608E-02  0.1130669E+00
         -1   -1    0    0    0  501 -0.00000000000E+00  0.00000000000E+00  0.21681427073E+02  0.21681427658E+02  0.50400000000E-02 0.  1.
          1   -1    0    0  501    0  0.00000000000E+00 -0.00000000000E+00 -0.58045436868E+03  0.58045436870E+03  0.50400000000E-02 0. -1.
    5000001    1    1    2    0    0  0.10994988218E+02 -0.59741973447E+02 -0.13322653304E+03  0.16543367935E+03  0.77000000000E+02 0.  0.
   -5000001    1    1    2    0    0 -0.10994988218E+02  0.59741973447E+02 -0.42554640856E+03  0.43670211701E+03  0.77000000000E+02 0.  0.
<mgrwt>
<rscale>  0 0.22436648E+03</rscale>
<asrwt>0</asrwt>
<pdfrwt beam="1">  1        1 0.89300660E-01 0.22436648E+03</pdfrwt>
<pdfrwt beam="2">  1       -1 0.33356047E-02 0.22436648E+03</pdfrwt>
<totfact> 0.11688373E+04</totfact>
</mgrwt>
</event>
<event>
 4    1  0.3147937E-004  0.1712796E+03  0.7818608E-02  0.1176520E+00
          1   -1    0    0  501    0  0.00000000000E+00  0.00000000000E+00  0.72388464689E+03  0.72388464691E+03  0.50400000000E-02 0. -1.
         -1   -1    0    0    0  501 -0.00000000000E+00 -0.00000000000E+00 -0.10131689015E+02  0.10131690269E+02  0.50400000000E-02 0.  1.
    5000001    1    1    2    0    0 -0.28671992611E+02 -0.23892469354E+02  0.37187037800E+03  0.38158814353E+03  0.77000000000E+02 0.  0.
   -5000001    1    1    2    0    0  0.28671992611E+02  0.23892469354E+02  0.34188257988E+03  0.35242819365E+03  0.77000000000E+02 0.  0.
<mgrwt>
<rscale>  0 0.17127959E+03</rscale>
<asrwt>0</asrwt>
<pdfrwt beam="1">  1        1 0.11136686E+00 0.17127959E+03</pdfrwt>
<pdfrwt beam="2">  1       -1 0.15587217E-02 0.17127959E+03</pdfrwt>
<totfact> 0.25493976E+04</totfact>
</mgrwt>
</event>
<event>
 4    1  0.3147937E-004  0.3767866E+03  0.7818608E-02  0.1052128E+00
         -1   -1    0    0    0  501 -0.00000000000E+00  0.00000000000E+00  0.44443056285E+02  0.44443056570E+02  0.50400000000E-02 0. -1.
          1   -1    0    0  501    0  0.00000000000E+00 -0.00000000000E+00 -0.79859572692E+03  0.79859572694E+03  0.50400000000E-02 0.  1.
    5000001    1    1    2    0    0  0.85554266519E+01 -0.14858191756E+03 -0.56972079863E+03  0.59385231324E+03  0.77000000000E+02 0.  0.
   -5000001    1    1    2    0    0 -0.85554266519E+01  0.14858191756E+03 -0.18443187201E+03  0.24918647027E+03  0.77000000000E+02 0.  0.
<mgrwt>
<rscale>  0 0.37678660E+03</rscale>
<asrwt>0</asrwt>
<pdfrwt beam="1">  1        1 0.12286087E+00 0.37678660E+03</pdfrwt>
<pdfrwt beam="2">  1       -1 0.68373939E-02 0.37678660E+03</pdfrwt>
<totfact> 0.25380071E+03</totfact>
</mgrwt>
</event>
<event>
 4    1  0.3147937E-004  0.2346752E+03  0.7818608E-02  0.1123392E+00
         -1   -1    0    0    0  501 -0.00000000000E+00  0.00000000000E+00  0.49311648101E+02  0.49311648359E+02  0.50400000000E-02 0. -1.
          1   -1    0    0  501    0  0.00000000000E+00 -0.00000000000E+00 -0.27920600141E+03  0.27920600146E+03  0.50400000000E-02 0.  1.
    5000001    1    1    2    0    0 -0.35238525887E+02 -0.77366779356E+02 -0.14957088302E+03  0.18848825242E+03  0.77000000000E+02 0.  0.
   -5000001    1    1    2    0    0  0.35238525887E+02  0.77366779356E+02 -0.80323470292E+02  0.14002939739E+03  0.77000000000E+02 0.  0.
<mgrwt>
<rscale>  0 0.23467516E+03</rscale>
<asrwt>0</asrwt>
<pdfrwt beam="1">  1        1 0.42954769E-01 0.23467516E+03</pdfrwt>
<pdfrwt beam="2">  1       -1 0.75864076E-02 0.23467516E+03</pdfrwt>
<totfact> 0.88123075E+03</totfact>
</mgrwt>
</event>
<event>
 4    1  0.3147937E-004  0.2009868E+03  0.7818608E-02  0.1148909E+00
         -1   -1    0    0    0  501 -0.00000000000E+00  0.00000000000E+00  0.68273023340E+02  0.68273023526E+02  0.50400000000E-02 0.  1.
          1   -1    0    0  501    0  0.00000000000E+00 -0.00000000000E+00 -0.14791960661E+03  0.14791960669E+03  0.50400000000E-02 0. -1.
    5000001    1    1    2    0    0  0.37213909366E+02  0.50532901306E+02 -0.56188458889E+02  0.11412533495E+03  0.77000000000E+02 0.  0.
   -5000001    1    1    2    0    0 -0.37213909366E+02 -0.50532901306E+02 -0.23458124379E+02  0.10206729527E+03  0.77000000000E+02 0.  0.
<mgrwt>
<rscale>  0 0.20098675E+03</rscale>
<asrwt>0</asrwt>
<pdfrwt beam="1">  1        1 0.22756863E-01 0.20098675E+03</pdfrwt>
<pdfrwt beam="2">  1       -1 0.10503542E-01 0.20098675E+03</pdfrwt>
<totfact> 0.11797840E+04</totfact>
</mgrwt>
</event>
<event>
 4    1  0.3147937E-004  0.4729997E+03  0.7818608E-02  0.1021077E+00
         -1   -1    0    0    0  501 -0.00000000000E+00  0.00000000000E+00  0.65795985071E+02  0.65795985265E+02  0.50400000000E-02 0. -1.
          1   -1    0    0  501    0  0.00000000000E+00 -0.00000000000E+00 -0.85008502501E+03  0.85008502503E+03  0.50400000000E-02 0.  1.
    5000001    1    1    2    0    0  0.13763683288E+03 -0.60437511972E+02 -0.71587207025E+02  0.18344023230E+03  0.77000000000E+02 0.  0.
   -5000001    1    1    2    0    0 -0.13763683288E+03  0.60437511972E+02 -0.71270183291E+03  0.73244077799E+03  0.77000000000E+02 0.  0.
<mgrwt>
<rscale>  0 0.47299971E+03</rscale>
<asrwt>0</asrwt>
<pdfrwt beam="1">  1        1 0.13078230E+00 0.47299971E+03</pdfrwt>
<pdfrwt beam="2">  1       -1 0.10122460E-01 0.47299971E+03</pdfrwt>
<totfact> 0.12507975E+03</totfact>
</mgrwt>
</event>
<event>
 4    1  0.3147937E-004  0.2623650E+03  0.7818608E-02  0.1105731E+00
         -1   -1    0    0    0  501 -0.00000000000E+00  0.00000000000E+00  0.23713897649E+02  0.23713898185E+02  0.50400000000E-02 0.  1.
          1   -1    0    0  501    0  0.00000000000E+00 -0.00000000000E+00 -0.72568636995E+03  0.72568636997E+03  0.50400000000E-02 0. -1.
    5000001    1    1    2    0    0 -0.18998265738E+02  0.46246501193E+02 -0.83340955168E+02  0.12399349895E+03  0.77000000000E+02 0.  0.
   -5000001    1    1    2    0    0  0.18998265738E+02 -0.46246501193E+02 -0.61863151714E+03  0.62540676921E+03  0.77000000000E+02 0.  0.
<mgrwt>
<rscale>  0 0.26236503E+03</rscale>
<asrwt>0</asrwt>
<pdfrwt beam="1">  1        1 0.11164404E+00 0.26236503E+03</pdfrwt>
<pdfrwt beam="2">  1       -1 0.36482925E-02 0.26236503E+03</pdfrwt>
<totfact> 0.75049365E+03</totfact>
</mgrwt>
</event>
<event>
 4    1  0.3147937E-004  0.2579052E+03  0.7818608E-02  0.1108408E+00
         -1   -1    0    0    0  501 -0.00000000000E+00  0.00000000000E+00  0.20031396602E+02  0.20031397236E+02  0.50400000000E-02 0. -1.
          1   -1    0    0  501    0  0.00000000000E+00 -0.00000000000E+00 -0.83013533394E+03  0.83013533396E+03  0.50400000000E-02 0.  1.
    5000001    1    1    2    0    0  0.72485226129E+02 -0.73739720055E+02 -0.39566086286E+03  0.41613480114E+03  0.77000000000E+02 0.  0.
   -5000001    1    1    2    0    0 -0.72485226129E+02  0.73739720055E+02 -0.41444307448E+03  0.43403193005E+03  0.77000000000E+02 0.  0.
<mgrwt>
<rscale>  0 0.25790518E+03</rscale>
<asrwt>0</asrwt>
<pdfrwt beam="1">  1        1 0.12771310E+00 0.25790518E+03</pdfrwt>
<pdfrwt beam="2">  1       -1 0.30817540E-02 0.25790518E+03</pdfrwt>
<totfact> 0.78487824E+03</totfact>
</mgrwt>
</event>
<event>
 4    1  0.3147937E-004  0.3784649E+03  0.7818608E-02  0.1051503E+00
          1   -1    0    0  501    0  0.00000000000E+00  0.00000000000E+00  0.72604174997E+02  0.72604175172E+02  0.50400000000E-02 0.  1.
         -1   -1    0    0    0  501 -0.00000000000E+00 -0.00000000000E+00 -0.49320743529E+03  0.49320743531E+03  0.50400000000E-02 0. -1.
    5000001    1    1    2    0    0  0.12018647228E+03 -0.10596425855E+03 -0.30726716005E+03  0.35498636573E+03  0.77000000000E+02 0.  0.
   -5000001    1    1    2    0    0 -0.12018647228E+03  0.10596425855E+03 -0.11333610024E+03  0.21082524475E+03  0.77000000000E+02 0.  0.
<mgrwt>
<rscale>  0 0.37846489E+03</rscale>
<asrwt>0</asrwt>
<pdfrwt beam="1">  1        1 0.11169873E-01 0.37846489E+03</pdfrwt>
<pdfrwt beam="2">  1       -1 0.75878065E-01 0.37846489E+03</pdfrwt>
<totfact> 0.10090027E+03</totfact>
</mgrwt>
</event>
<event>
 4    1  0.3147937E-004  0.1949442E+03  0.7818608E-02  0.1154076E+00
          1   -1    0    0  501    0  0.00000000000E+00  0.00000000000E+00  0.54589786991E+03  0.54589786993E+03  0.50400000000E-02 0.  1.
         -1   -1    0    0    0  501 -0.00000000000E+00 -0.00000000000E+00 -0.17404009649E+02  0.17404010379E+02  0.50400000000E-02 0. -1.
    5000001    1    1    2    0    0 -0.19238318053E+02  0.43423888087E+02  0.15942080704E+03  0.18330232038E+03  0.77000000000E+02 0.  0.
   -5000001    1    1    2    0    0  0.19238318053E+02 -0.43423888087E+02  0.36907305322E+03  0.37999955993E+03  0.77000000000E+02 0.  0.
<mgrwt>
<rscale>  0 0.19494422E+03</rscale>
<asrwt>0</asrwt>
<pdfrwt beam="1">  1        1 0.83984278E-01 0.19494422E+03</pdfrwt>
<pdfrwt beam="2">  1       -1 0.26775403E-02 0.19494422E+03</pdfrwt>
<totfact> 0.17394682E+04</totfact>
</mgrwt>
</event>
<event>
 4    1  0.3147937E-004  0.2206374E+03  0.7818608E-02  0.1133409E+00
          1   -1    0    0  501    0  0.00000000000E+00  0.00000000000E+00  0.74671648722E+03  0.74671648724E+03  0.50400000000E-02 0.  1.
         -1   -1    0    0    0  501 -0.00000000000E+00 -0.00000000000E+00 -0.16298313651E+02  0.16298314430E+02  0.50400000000E-02 0. -1.
    5000001    1    1    2    0    0  0.46302242774E+02  0.40613294335E+02  0.19410947034E+03  0.21771730257E+03  0.77000000000E+02 0.  0.
   -5000001    1    1    2    0    0 -0.46302242774E+02 -0.40613294335E+02  0.53630870323E+03  0.54529749910E+03  0.77000000000E+02 0.  0.
<mgrwt>
<rscale>  0 0.22063744E+03</rscale>
<asrwt>0</asrwt>
<pdfrwt beam="1">  1        1 0.11487946E+00 0.22063744E+03</pdfrwt>
<pdfrwt beam="2">  1       -1 0.25074330E-02 0.22063744E+03</pdfrwt>
<totfact> 0.12408600E+04</totfact>
</mgrwt>
</event>
<event>
 4    1  0.3147937E-004  0.2425582E+03  0.7818608E-02  0.1118100E+00
         -1   -1    0    0    0  501 -0.00000000000E+00  0.00000000000E+00  0.42794065654E+02  0.42794065951E+02  0.50400000000E-02 0. -1.
          1   -1    0    0  501    0  0.00000000000E+00 -0.00000000000E+00 -0.34370698622E+03  0.34370698626E+03  0.50400000000E-02 0.  1.
    5000001    1    1    2    0    0  0.74305609843E+02  0.38678722109E+02 -0.83565295172E+02  0.14117197227E+03  0.77000000000E+02 0.  0.
   -5000001    1    1    2    0    0 -0.74305609843E+02 -0.38678722109E+02 -0.21734762540E+03  0.24532907994E+03  0.77000000000E+02 0.  0.
<mgrwt>
<rscale>  0 0.24255819E+03</rscale>
<asrwt>0</asrwt>
<pdfrwt beam="1">  1        1 0.52877996E-01 0.24255819E+03</pdfrwt>
<pdfrwt beam="2">  1       -1 0.65837027E-02 0.24255819E+03</pdfrwt>
<totfact> 0.84268492E+03</totfact>
</mgrwt>
</event>
<event>
 4    1  0.3147937E-004  0.3026125E+03  0.7818608E-02  0.1083942E+00
         -1   -1    0    0    0  501 -0.00000000000E+00  0.00000000000E+00  0.16565653544E+03  0.16565653552E+03  0.50400000000E-02 0.  1.
          1   -1    0    0  501    0  0.00000000000E+00 -0.00000000000E+00 -0.13819903879E+03  0.13819903889E+03  0.50400000000E-02 0. -1.
    5000001    1    1    2    0    0  0.47064754957E+02  0.11437605283E+03  0.54732777698E+02  0.15563306067E+03  0.77000000000E+02 0.  0.
   -5000001    1    1    2    0    0 -0.47064754957E+02 -0.11437605283E+03 -0.27275281051E+02  0.14822251373E+03  0.77000000000E+02 0.  0.
<mgrwt>
<rscale>  0 0.30261245E+03</rscale>
<asrwt>0</asrwt>
<pdfrwt beam="1">  1        1 0.21261391E-01 0.30261245E+03</pdfrwt>
<pdfrwt beam="2">  1       -1 0.25485621E-01 0.30261245E+03</pdfrwt>
<totfact> 0.31753686E+03</totfact>
</mgrwt>
</event>
<event>
 4    1  0.3147937E-004  0.3218726E+03  0.7818608E-02  0.1074791E+00
         -1   -1    0    0    0  501 -0.00000000000E+00  0.00000000000E+00  0.17730651473E+03  0.17730651481E+03  0.50400000000E-02 0. -1.
          1   -1    0    0  501    0  0.00000000000E+00 -0.00000000000E+00 -0.14607750782E+03  0.14607750791E+03  0.50400000000E-02 0.  1.
    5000001    1    1    2    0    0 -0.84784339178E+01  0.87719018297E+02 -0.95380427398E+02  0.15097329546E+03  0.77000000000E+02 0.  0.
   -5000001    1    1    2    0    0  0.84784339178E+01 -0.87719018297E+02  0.12660943431E+03  0.17241072725E+03  0.77000000000E+02 0.  0.
<mgrwt>
<rscale>  0 0.32187261E+03</rscale>
<asrwt>0</asrwt>
<pdfrwt beam="1">  1        1 0.22473463E-01 0.32187261E+03</pdfrwt>
<pdfrwt beam="2">  1       -1 0.27277925E-01 0.32187261E+03</pdfrwt>
<totfact> 0.26411226E+03</totfact>
</mgrwt>
</event>
<event>
 4    1  0.3147937E-004  0.3337954E+03  0.7818608E-02  0.1069470E+00
          1   -1    0    0  501    0  0.00000000000E+00  0.00000000000E+00  0.49462727391E+03  0.49462727394E+03  0.50400000000E-02 0. -1.
         -1   -1    0    0    0  501 -0.00000000000E+00 -0.00000000000E+00 -0.56314797872E+02  0.56314798097E+02  0.50400000000E-02 0.  1.
    5000001    1    1    2    0    0 -0.59774232345E+02  0.12930472225E+03  0.28585851744E+03  0.32853730693E+03  0.77000000000E+02 0.  0.
   -5000001    1    1    2    0    0  0.59774232345E+02 -0.12930472225E+03  0.15245395860E+03  0.22240476511E+03  0.77000000000E+02 0.  0.
<mgrwt>
<rscale>  0 0.33379536E+03</rscale>
<asrwt>0</asrwt>
<pdfrwt beam="1">  1        1 0.76096505E-01 0.33379536E+03</pdfrwt>
<pdfrwt beam="2">  1       -1 0.86638149E-02 0.33379536E+03</pdfrwt>
<totfact> 0.34954450E+03</totfact>
</mgrwt>
</event>
<event>
 4    1  0.3147937E-004  0.3553937E+03  0.7818608E-02  0.1060423E+00
         -1   -1    0    0    0  501 -0.00000000000E+00  0.00000000000E+00  0.22053558443E+02  0.22053559019E+02  0.50400000000E-02 0. -1.
          1   -1    0    0  501    0  0.00000000000E+00 -0.00000000000E+00 -0.14317945639E+04  0.14317945640E+04  0.50400000000E-02 0.  1.
    5000001    1    1    2    0    0  0.21110381426E+02  0.14062240198E+03 -0.10062290777E+04  0.10191399634E+04  0.77000000000E+02 0.  0.
   -5000001    1    1    2    0    0 -0.21110381426E+02 -0.14062240198E+03 -0.40351192781E+03  0.43470815960E+03  0.77000000000E+02 0.  0.
<mgrwt>
<rscale>  0 0.35539367E+03</rscale>
<asrwt>0</asrwt>
<pdfrwt beam="1">  1        1 0.22027601E+00 0.35539367E+03</pdfrwt>
<pdfrwt beam="2">  1       -1 0.33928563E-02 0.35539367E+03</pdfrwt>
<totfact> 0.24981146E+03</totfact>
</mgrwt>
</event>
<event>
 4    1  0.3147937E-004  0.2111883E+03  0.7818608E-02  0.1140628E+00
         -1   -1    0    0    0  501 -0.00000000000E+00  0.00000000000E+00  0.91008812564E+02  0.91008812704E+02  0.50400000000E-02 0. -1.
          1   -1    0    0  501    0  0.00000000000E+00 -0.00000000000E+00 -0.12251697104E+03  0.12251697114E+03  0.50400000000E-02 0.  1.
    5000001    1    1    2    0    0 -0.23971403341E+02  0.67524058305E+02 -0.25184558023E+02  0.10815446635E+03  0.77000000000E+02 0.  0.
   -5000001    1    1    2    0    0  0.23971403341E+02 -0.67524058305E+02 -0.63236004484E+01  0.10537131750E+03  0.77000000000E+02 0.  0.
<mgrwt>
<rscale>  0 0.21118830E+03</rscale>
<asrwt>0</asrwt>
<pdfrwt beam="1">  1        1 0.18848765E-01 0.21118830E+03</pdfrwt>
<pdfrwt beam="2">  1       -1 0.14001356E-01 0.21118830E+03</pdfrwt>
<totfact> 0.96288237E+03</totfact>
</mgrwt>
</event>
<event>
 4    1  0.3147937E-004  0.4827006E+03  0.7818608E-02  0.1018396E+00
          1   -1    0    0  501    0  0.00000000000E+00  0.00000000000E+00  0.54017216940E+03  0.54017216943E+03  0.50400000000E-02 0.  1.
         -1   -1    0    0    0  501 -0.00000000000E+00 -0.00000000000E+00 -0.10783592804E+03  0.10783592816E+03  0.50400000000E-02 0. -1.
    5000001    1    1    2    0    0  0.15367194586E+03 -0.11915465564E+03  0.54469099585E+02  0.21612214536E+03  0.77000000000E+02 0.  0.
   -5000001    1    1    2    0    0 -0.15367194586E+03  0.11915465564E+03  0.37786714177E+03  0.43188595223E+03  0.77000000000E+02 0.  0.
<mgrwt>
<rscale>  0 0.48270060E+03</rscale>
<asrwt>0</asrwt>
<pdfrwt beam="1">  1        1 0.83103409E-01 0.48270060E+03</pdfrwt>
<pdfrwt beam="2">  1       -1 0.16590143E-01 0.48270060E+03</pdfrwt>
<totfact> 0.11134395E+03</totfact>
</mgrwt>
</event>
<event>
 4    1  0.3147937E-004  0.1741925E+03  0.7818608E-02  0.1173545E+00
         -1   -1    0    0    0  501 -0.00000000000E+00  0.00000000000E+00  0.73471747275E+02  0.73471747448E+02  0.50400000000E-02 0. -1.
          1   -1    0    0  501    0  0.00000000000E+00 -0.00000000000E+00 -0.10324726708E+03  0.10324726720E+03  0.50400000000E-02 0.  1.
    5000001    1    1    2    0    0  0.26088434406E+02 -0.28787083241E+02 -0.25685477405E+01  0.86283833994E+02  0.77000000000E+02 0.  0.
   -5000001    1    1    2    0    0 -0.26088434406E+02  0.28787083241E+02 -0.27206972063E+02  0.90435180655E+02  0.77000000000E+02 0.  0.
<mgrwt>
<rscale>  0 0.17419250E+03</rscale>
<asrwt>0</asrwt>
<pdfrwt beam="1">  1        1 0.15884195E-01 0.17419250E+03</pdfrwt>
<pdfrwt beam="2">  1       -1 0.11303346E-01 0.17419250E+03</pdfrwt>
<totfact> 0.16538311E+04</totfact>
</mgrwt>
</event>
<event>
 4    1  0.3147937E-004  0.2051531E+03  0.7818608E-02  0.1145463E+00
         -1   -1    0    0    0  501 -0.00000000000E+00  0.00000000000E+00  0.12285194122E+02  0.12285195156E+02  0.50400000000E-02 0.  1.
          1   -1    0    0  501    0  0.00000000000E+00 -0.00000000000E+00 -0.85647402517E+03  0.85647402518E+03  0.50400000000E-02 0. -1.
    5000001    1    1    2    0    0  0.18706870814E+02  0.54665353212E+02 -0.57209455115E+03  0.58013741762E+03  0.77000000000E+02 0.  0.
   -5000001    1    1    2    0    0 -0.18706870814E+02 -0.54665353212E+02 -0.27209427989E+03  0.28862180272E+03  0.77000000000E+02 0.  0.
<mgrwt>
<rscale>  0 0.20515311E+03</rscale>
<asrwt>0</asrwt>
<pdfrwt beam="1">  1        1 0.13176519E+00 0.20515311E+03</pdfrwt>
<pdfrwt beam="2">  1       -1 0.18900306E-02 0.20515311E+03</pdfrwt>
<totfact> 0.15133935E+04</totfact>
</mgrwt>
</event>
<event>
 4    1  0.3147937E-004  0.1700029E+03  0.7818608E-02  0.1177845E+00
          1   -1    0    0  501    0  0.00000000000E+00  0.00000000000E+00  0.35476434538E+04  0.35476434538E+04  0.50400000000E-02 0. -1.
         -1   -1    0    0    0  501 -0.00000000000E+00 -0.00000000000E+00 -0.20366294851E+01  0.20366357213E+01  0.50400000000E-02 0.  1.
    5000001    1    1    2    0    0  0.31825626568E+02  0.15931456935E+02  0.16592714295E+04  0.16614383403E+04  0.77000000000E+02 0.  0.
   -5000001    1    1    2    0    0 -0.31825626568E+02 -0.15931456935E+02  0.18863353949E+04  0.18882417493E+04  0.77000000000E+02 0.  0.
<mgrwt>
<rscale>  0 0.17000290E+03</rscale>
<asrwt>0</asrwt>
<pdfrwt beam="1">  1        1 0.54578949E+00 0.17000290E+03</pdfrwt>
<pdfrwt beam="2">  1       -1 0.31332913E-03 0.17000290E+03</pdfrwt>
<totfact> 0.28960063E+03</totfact>
</mgrwt>
</event>
<event>
 4    1  0.3147937E-004  0.2503800E+03  0.7818608E-02  0.1113065E+00
          1   -1    0    0  501    0  0.00000000000E+00  0.00000000000E+00  0.93671060064E+03  0.93671060065E+03  0.50400000000E-02 0.  1.
         -1   -1    0    0    0  501 -0.00000000000E+00 -0.00000000000E+00 -0.16731459383E+02  0.16731460142E+02  0.50400000000E-02 0. -1.
    5000001    1    1    2    0    0 -0.72710847549E+02 -0.45404978333E+02  0.64634950233E+03  0.65654029470E+03  0.77000000000E+02 0.  0.
   -5000001    1    1    2    0    0  0.72710847549E+02  0.45404978333E+02  0.27362963893E+03  0.29690176609E+03  0.77000000000E+02 0.  0.
<mgrwt>
<rscale>  0 0.25038000E+03</rscale>
<asrwt>0</asrwt>
<pdfrwt beam="1">  1        1 0.14410936E+00 0.25038000E+03</pdfrwt>
<pdfrwt beam="2">  1       -1 0.25740701E-02 0.25038000E+03</pdfrwt>
<totfact> 0.84142305E+03</totfact>
</mgrwt>
</event>
<event>
 4    1  0.3147937E-004  0.2483929E+03  0.7818608E-02  0.1114325E+00
          1   -1    0    0  501    0  0.00000000000E+00  0.00000000000E+00  0.60597123038E+02  0.60597123247E+02  0.50400000000E-02 0.  1.
         -1   -1    0    0    0  501 -0.00000000000E+00 -0.00000000000E+00 -0.25454608331E+03  0.25454608336E+03  0.50400000000E-02 0. -1.
    5000001    1    1    2    0    0  0.87886075918E+02  0.85980120038E+01 -0.44696205932E+02  0.12539792253E+03  0.77000000000E+02 0.  0.
   -5000001    1    1    2    0    0 -0.87886075918E+02 -0.85980120038E+01 -0.14925275434E+03  0.18974528408E+03  0.77000000000E+02 0.  0.
<mgrwt>
<rscale>  0 0.24839292E+03</rscale>
<asrwt>0</asrwt>
<pdfrwt beam="1">  1        1 0.93226345E-02 0.24839292E+03</pdfrwt>
<pdfrwt beam="2">  1       -1 0.39160935E-01 0.24839292E+03</pdfrwt>
<totfact> 0.44781084E+03</totfact>
</mgrwt>
</event>
<event>
 4    1  0.3147937E-004  0.2086199E+03  0.7818608E-02  0.1142664E+00
          1   -1    0    0  501    0  0.00000000000E+00  0.00000000000E+00  0.13863025916E+02  0.13863026832E+02  0.50400000000E-02 0. -1.
         -1   -1    0    0    0  501 -0.00000000000E+00 -0.00000000000E+00 -0.78486236629E+03  0.78486236631E+03  0.50400000000E-02 0.  1.
    5000001    1    1    2    0    0  0.67027207917E+02  0.14650022129E+02 -0.32565828648E+03  0.34159857919E+03  0.77000000000E+02 0.  0.
   -5000001    1    1    2    0    0 -0.67027207917E+02 -0.14650022129E+02 -0.44534105389E+03  0.45712681395E+03  0.77000000000E+02 0.  0.
<mgrwt>
<rscale>  0 0.20861992E+03</rscale>
<asrwt>0</asrwt>
<pdfrwt beam="1">  1        1 0.21327739E-02 0.20861992E+03</pdfrwt>
<pdfrwt beam="2">  1       -1 0.12074802E+00 0.20861992E+03</pdfrwt>
<totfact> 0.35460998E+03</totfact>
</mgrwt>
</event>
<event>
 4    1  0.3147937E-004  0.2210546E+03  0.7818608E-02  0.1133099E+00
         -1   -1    0    0    0  501 -0.00000000000E+00  0.00000000000E+00  0.13140786072E+02  0.13140787039E+02  0.50400000000E-02 0. -1.
          1   -1    0    0  501    0  0.00000000000E+00 -0.00000000000E+00 -0.92964594525E+03  0.92964594526E+03  0.50400000000E-02 0.  1.
    5000001    1    1    2    0    0  0.42785093354E+02  0.66627383821E+02 -0.47609744214E+03  0.48874077680E+03  0.77000000000E+02 0.  0.
   -5000001    1    1    2    0    0 -0.42785093354E+02 -0.66627383821E+02 -0.44040771703E+03  0.45404595551E+03  0.77000000000E+02 0.  0.
<mgrwt>
<rscale>  0 0.22105455E+03</rscale>
<asrwt>0</asrwt>
<pdfrwt beam="1">  1        1 0.14302240E+00 0.22105455E+03</pdfrwt>
<pdfrwt beam="2">  1       -1 0.20216602E-02 0.22105455E+03</pdfrwt>
<totfact> 0.12071147E+04</totfact>
</mgrwt>
</event>
<event>
 4    1  0.3147937E-004  0.1894978E+03  0.7818608E-02  0.1158915E+00
          1   -1    0    0  501    0  0.00000000000E+00  0.00000000000E+00  0.88956645848E+02  0.88956645991E+02  0.50400000000E-02 0. -1.
         -1   -1    0    0    0  501 -0.00000000000E+00 -0.00000000000E+00 -0.10091835205E+03  0.10091835218E+03  0.50400000000E-02 0.  1.
    5000001    1    1    2    0    0  0.53338925018E+02 -0.93900995028E+01 -0.16732691568E+02  0.95614841201E+02  0.77000000000E+02 0.  0.
   -5000001    1    1    2    0    0 -0.53338925018E+02  0.93900995028E+01  0.47709853623E+01  0.94260156970E+02  0.77000000000E+02 0.  0.
<mgrwt>
<rscale>  0 0.18949784E+03</rscale>
<asrwt>0</asrwt>
<pdfrwt beam="1">  1        1 0.13685638E-01 0.18949784E+03</pdfrwt>
<pdfrwt beam="2">  1       -1 0.15525900E-01 0.18949784E+03</pdfrwt>
<totfact> 0.12312876E+04</totfact>
</mgrwt>
</event>
<event>
 4    1  0.3147937E-004  0.2459446E+03  0.7818608E-02  0.1115895E+00
         -1   -1    0    0    0  501 -0.00000000000E+00  0.00000000000E+00  0.14116161283E+04  0.14116161283E+04  0.50400000000E-02 0. -1.
          1   -1    0    0  501    0  0.00000000000E+00 -0.00000000000E+00 -0.10712679040E+02  0.10712680225E+02  0.50400000000E-02 0.  1.
    5000001    1    1    2    0    0 -0.18329278738E+02 -0.91610655278E+02  0.57578320446E+03  0.58837383792E+03  0.77000000000E+02 0.  0.
   -5000001    1    1    2    0    0  0.18329278738E+02  0.91610655278E+02  0.82512024477E+03  0.83395497058E+03  0.77000000000E+02 0.  0.
<mgrwt>
<rscale>  0 0.24594464E+03</rscale>
<asrwt>0</asrwt>
<pdfrwt beam="1">  1        1 0.16481046E-02 0.24594464E+03</pdfrwt>
<pdfrwt beam="2">  1       -1 0.21717171E+00 0.24594464E+03</pdfrwt>
<totfact> 0.10220754E+03</totfact>
</mgrwt>
</event>
<event>
 4    1  0.3147937E-004  0.2239557E+03  0.7818608E-02  0.1130968E+00
         -1   -1    0    0    0  501 -0.00000000000E+00  0.00000000000E+00  0.19074166220E+02  0.19074166886E+02  0.50400000000E-02 0. -1.
          1   -1    0    0  501    0  0.00000000000E+00 -0.00000000000E+00 -0.65738327194E+03  0.65738327196E+03  0.50400000000E-02 0.  1.
    5000001    1    1    2    0    0  0.56087521629E+02 -0.50639920052E+02 -0.22854838804E+03  0.25273222443E+03  0.77000000000E+02 0.  0.
   -5000001    1    1    2    0    0 -0.56087521629E+02  0.50639920052E+02 -0.40976071768E+03  0.42372521442E+03  0.77000000000E+02 0.  0.
<mgrwt>
<rscale>  0 0.22395569E+03</rscale>
<asrwt>0</asrwt>
<pdfrwt beam="1">  1        1 0.10113587E+00 0.22395569E+03</pdfrwt>
<pdfrwt beam="2">  1       -1 0.29344877E-02 0.22395569E+03</pdfrwt>
<totfact> 0.11865189E+04</totfact>
</mgrwt>
</event>
<event>
 4    1  0.3147937E-004  0.3075909E+03  0.7818608E-02  0.1081506E+00
          1   -1    0    0  501    0  0.00000000000E+00  0.00000000000E+00  0.18435830566E+04  0.18435830567E+04  0.50400000000E-02 0.  1.
         -1   -1    0    0    0  501 -0.00000000000E+00 -0.00000000000E+00 -0.12829929406E+02  0.12829930396E+02  0.50400000000E-02 0. -1.
    5000001    1    1    2    0    0 -0.11196096241E+03 -0.25390165297E+02  0.13222189413E+04  0.13294253820E+04  0.77000000000E+02 0.  0.
   -5000001    1    1    2    0    0  0.11196096241E+03  0.25390165297E+02  0.50853418594E+03  0.52698760504E+03  0.77000000000E+02 0.  0.
<mgrwt>
<rscale>  0 0.30759091E+03</rscale>
<asrwt>0</asrwt>
<pdfrwt beam="1">  1        1 0.28362805E+00 0.30759091E+03</pdfrwt>
<pdfrwt beam="2">  1       -1 0.19738361E-02 0.30759091E+03</pdfrwt>
<totfact> 0.29782759E+03</totfact>
</mgrwt>
</event>
<event>
 4    1  0.3147937E-004  0.3367221E+03  0.7818608E-02  0.1068201E+00
         -1   -1    0    0    0  501 -0.00000000000E+00  0.00000000000E+00  0.10697785811E+02  0.10697786999E+02  0.50400000000E-02 0.  1.
          1   -1    0    0  501    0  0.00000000000E+00 -0.00000000000E+00 -0.26496555476E+04  0.26496555477E+04  0.50400000000E-02 0. -1.
    5000001    1    1    2    0    0 -0.23874004375E+01  0.14891391983E+03 -0.11982613976E+04  0.12099340611E+04  0.77000000000E+02 0.  0.
   -5000001    1    1    2    0    0  0.23874004375E+01 -0.14891391983E+03 -0.14406963642E+04  0.14504192735E+04  0.77000000000E+02 0.  0.
<mgrwt>
<rscale>  0 0.33672214E+03</rscale>
<asrwt>0</asrwt>
<pdfrwt beam="1">  1        1 0.40763879E+00 0.33672214E+03</pdfrwt>
<pdfrwt beam="2">  1       -1 0.16458154E-02 0.33672214E+03</pdfrwt>
<totfact> 0.11403118E+03</totfact>
</mgrwt>
</event>
<event>
 4    1  0.3147937E-004  0.3195745E+03  0.7818608E-02  0.1075845E+00
         -1   -1    0    0    0  501 -0.00000000000E+00  0.00000000000E+00  0.55358660100E+03  0.55358660102E+03  0.50400000000E-02 0. -1.
          1   -1    0    0  501    0  0.00000000000E+00 -0.00000000000E+00 -0.46120985970E+02  0.46120986246E+02  0.50400000000E-02 0.  1.
    5000001    1    1    2    0    0  0.73140270401E+02 -0.11923920226E+03  0.24255596550E+03  0.29039607936E+03  0.77000000000E+02 0.  0.
   -5000001    1    1    2    0    0 -0.73140270401E+02  0.11923920226E+03  0.26490964952E+03  0.30931150790E+03  0.77000000000E+02 0.  0.
<mgrwt>
<rscale>  0 0.31957447E+03</rscale>
<asrwt>0</asrwt>
<pdfrwt beam="1">  1        1 0.70955365E-02 0.31957447E+03</pdfrwt>
<pdfrwt beam="2">  1       -1 0.85167167E-01 0.31957447E+03</pdfrwt>
<totfact> 0.14691175E+03</totfact>
</mgrwt>
</event>
<event>
 4    1  0.3147937E-004  0.4703695E+03  0.7818608E-02  0.1021816E+00
          1   -1    0    0  501    0  0.00000000000E+00  0.00000000000E+00  0.59703455266E+03  0.59703455268E+03  0.50400000000E-02 0.  1.
         -1   -1    0    0    0  501 -0.00000000000E+00 -0.00000000000E+00 -0.92644343720E+02  0.92644343857E+02  0.50400000000E-02 0. -1.
    5000001    1    1    2    0    0  0.15324293111E+03  0.14858252356E+03  0.16153973121E+03  0.27853948913E+03  0.77000000000E+02 0.  0.
   -5000001    1    1    2    0    0 -0.15324293111E+03 -0.14858252356E+03  0.34285047774E+03  0.41113940741E+03  0.77000000000E+02 0.  0.
<mgrwt>
<rscale>  0 0.47036953E+03</rscale>
<asrwt>0</asrwt>
<pdfrwt beam="1">  1        1 0.91851471E-01 0.47036953E+03</pdfrwt>
<pdfrwt beam="2">  1       -1 0.14252976E-01 0.47036953E+03</pdfrwt>
<totfact> 0.12371049E+03</totfact>
</mgrwt>
</event>
<event>
 4    1  0.3147937E-004  0.1784527E+03  0.7818608E-02  0.1169309E+00
         -1   -1    0    0    0  501 -0.00000000000E+00  0.00000000000E+00  0.28084772849E+02  0.28084773301E+02  0.50400000000E-02 0. -1.
          1   -1    0    0  501    0  0.00000000000E+00 -0.00000000000E+00 -0.28347547192E+03  0.28347547197E+03  0.50400000000E-02 0.  1.
    5000001    1    1    2    0    0 -0.43234673757E+02 -0.26952655146E+01 -0.14949062037E+03  0.17364603954E+03  0.77000000000E+02 0.  0.
   -5000001    1    1    2    0    0  0.43234673757E+02  0.26952655146E+01 -0.10590007871E+03  0.13791420573E+03  0.77000000000E+02 0.  0.
<mgrwt>
<rscale>  0 0.17845273E+03</rscale>
<asrwt>0</asrwt>
<pdfrwt beam="1">  1        1 0.43611609E-01 0.17845273E+03</pdfrwt>
<pdfrwt beam="2">  1       -1 0.43207345E-02 0.17845273E+03</pdfrwt>
<totfact> 0.19749596E+04</totfact>
</mgrwt>
</event>
<event>
 4    1  0.3147937E-004  0.2007608E+03  0.7818608E-02  0.1149099E+00
          1   -1    0    0  501    0  0.00000000000E+00  0.00000000000E+00  0.25773471048E+02  0.25773471540E+02  0.50400000000E-02 0.  1.
         -1   -1    0    0    0  501 -0.00000000000E+00 -0.00000000000E+00 -0.39095340860E+03  0.39095340863E+03  0.50400000000E-02 0. -1.
    5000001    1    1    2    0    0 -0.41882393486E+02 -0.11091052271E+02 -0.28148925425E+03  0.29502939952E+03  0.77000000000E+02 0.  0.
   -5000001    1    1    2    0    0  0.41882393486E+02  0.11091052271E+02 -0.83690683298E+02  0.12169748065E+03  0.77000000000E+02 0.  0.
<mgrwt>
<rscale>  0 0.20076082E+03</rscale>
<asrwt>0</asrwt>
<pdfrwt beam="1">  1        1 0.39651497E-02 0.20076082E+03</pdfrwt>
<pdfrwt beam="2">  1       -1 0.60146674E-01 0.20076082E+03</pdfrwt>
<totfact> 0.65044693E+03</totfact>
</mgrwt>
</event>
<event>
 4    1  0.3147937E-004  0.3527323E+03  0.7818608E-02  0.1061499E+00
         -1   -1    0    0    0  501 -0.00000000000E+00  0.00000000000E+00  0.35583203231E+02  0.35583203588E+02  0.50400000000E-02 0. -1.
          1   -1    0    0  501    0  0.00000000000E+00 -0.00000000000E+00 -0.87414885719E+03  0.87414885720E+03  0.50400000000E-02 0.  1.
    5000001    1    1    2    0    0  0.10147937550E+03  0.77922004217E+02 -0.17725770766E+03  0.23177402209E+03  0.77000000000E+02 0.  0.
   -5000001    1    1    2    0    0 -0.10147937550E+03 -0.77922004217E+02 -0.66130794630E+03  0.67795803870E+03  0.77000000000E+02 0.  0.
<mgrwt>
<rscale>  0 0.35273229E+03</rscale>
<asrwt>0</asrwt>
<pdfrwt beam="1">  1        1 0.13448442E+00 0.35273229E+03</pdfrwt>
<pdfrwt beam="2">  1       -1 0.54743396E-02 0.35273229E+03</pdfrwt>
<totfact> 0.30828828E+03</totfact>
</mgrwt>
</event>
<event>
 4    1  0.3147937E-004  0.2062823E+03  0.7818608E-02  0.1144544E+00
         -1   -1    0    0    0  501 -0.00000000000E+00  0.00000000000E+00  0.21421269215E+02  0.21421269808E+02  0.50400000000E-02 0. -1.
          1   -1    0    0  501    0  0.00000000000E+00 -0.00000000000E+00 -0.49661362452E+03  0.49661362455E+03  0.50400000000E-02 0.  1.
    5000001    1    1    2    0    0 -0.39980973379E+02  0.55003182494E+02 -0.21440701745E+03  0.23774607767E+03  0.77000000000E+02 0.  0.
   -5000001    1    1    2    0    0  0.39980973379E+02 -0.55003182494E+02 -0.26078533786E+03  0.28028881669E+03  0.77000000000E+02 0.  0.
<mgrwt>
<rscale>  0 0.20628228E+03</rscale>
<asrwt>0</asrwt>
<pdfrwt beam="1">  1        1 0.76402088E-01 0.20628228E+03</pdfrwt>
<pdfrwt beam="2">  1       -1 0.32955803E-02 0.20628228E+03</pdfrwt>
<totfact> 0.14599354E+04</totfact>
</mgrwt>
</event>
<event>
 4    1  0.3147937E-004  0.2336707E+03  0.7818608E-02  0.1124083E+00
         -1   -1    0    0    0  501 -0.00000000000E+00  0.00000000000E+00  0.17328982760E+03  0.17328982767E+03  0.50400000000E-02 0.  1.
          1   -1    0    0  501    0  0.00000000000E+00 -0.00000000000E+00 -0.78772619054E+02  0.78772619216E+02  0.50400000000E-02 0. -1.
    5000001    1    1    2    0    0 -0.20863632092E+02 -0.77051348246E+02  0.86882482317E+02  0.14088920166E+03  0.77000000000E+02 0.  0.
   -5000001    1    1    2    0    0  0.20863632092E+02  0.77051348246E+02  0.76347262301E+01  0.11117324523E+03  0.77000000000E+02 0.  0.
<mgrwt>
<rscale>  0 0.23367065E+03</rscale>
<asrwt>0</asrwt>
<pdfrwt beam="1">  1        1 0.12118865E-01 0.23367065E+03</pdfrwt>
<pdfrwt beam="2">  1       -1 0.26659973E-01 0.23367065E+03</pdfrwt>
<totfact> 0.60855166E+03</totfact>
</mgrwt>
</event>
<event>
 4    1  0.3147937E-004  0.5869695E+03  0.7818608E-02  0.9932815E-01
         -1   -1    0    0    0  501 -0.00000000000E+00  0.00000000000E+00  0.97035605894E+02  0.97035606025E+02  0.50400000000E-02 0. -1.
          1   -1    0    0  501    0  0.00000000000E+00 -0.00000000000E+00 -0.88764635356E+03  0.88764635357E+03  0.50400000000E-02 0.  1.
    5000001    1    1    2    0    0  0.16361845629E+03  0.23047601445E+03 -0.36557359733E+03  0.46846904651E+03  0.77000000000E+02 0.  0.
   -5000001    1    1    2    0    0 -0.16361845629E+03 -0.23047601445E+03 -0.42503715033E+03  0.51621291309E+03  0.77000000000E+02 0.  0.
<mgrwt>
<rscale>  0 0.58696951E+03</rscale>
<asrwt>0</asrwt>
<pdfrwt beam="1">  1        1 0.13656097E+00 0.58696951E+03</pdfrwt>
<pdfrwt beam="2">  1       -1 0.14928555E-01 0.58696951E+03</pdfrwt>
<totfact> 0.62530058E+02</totfact>
</mgrwt>
</event>
<event>
 4    1  0.3147937E-004  0.1802706E+03  0.7818608E-02  0.1167541E+00
         -1   -1    0    0    0  501 -0.00000000000E+00  0.00000000000E+00  0.99243776288E+01  0.99243789086E+01  0.50400000000E-02 0.  1.
          1   -1    0    0  501    0  0.00000000000E+00 -0.00000000000E+00 -0.81862812737E+03  0.81862812738E+03  0.50400000000E-02 0. -1.
    5000001    1    1    2    0    0 -0.46490534925E+02 -0.56231963534E+01 -0.39725376916E+03  0.40734818926E+03  0.77000000000E+02 0.  0.
   -5000001    1    1    2    0    0  0.46490534925E+02  0.56231963534E+01 -0.41144998058E+03  0.42120431704E+03  0.77000000000E+02 0.  0.
<mgrwt>
<rscale>  0 0.18027063E+03</rscale>
<asrwt>0</asrwt>
<pdfrwt beam="1">  1        1 0.12594274E+00 0.18027063E+03</pdfrwt>
<pdfrwt beam="2">  1       -1 0.15268281E-02 0.18027063E+03</pdfrwt>
<totfact> 0.21935964E+04</totfact>
</mgrwt>
</event>
<event>
 4    1  0.3147937E-004  0.2088064E+03  0.7818608E-02  0.1142515E+00
          1   -1    0    0  501    0  0.00000000000E+00  0.00000000000E+00  0.73943568745E+01  0.73943585922E+01  0.50400000000E-02 0. -1.
         -1   -1    0    0    0  501 -0.00000000000E+00 -0.00000000000E+00 -0.14741003839E+04  0.14741003839E+04  0.50400000000E-02 0.  1.
    5000001    1    1    2    0    0  0.31652578377E+02  0.62242186896E+02 -0.80252535999E+03  0.80922921906E+03  0.77000000000E+02 0.  0.
   -5000001    1    1    2    0    0 -0.31652578377E+02 -0.62242186896E+02 -0.66418066699E+03  0.67226552340E+03  0.77000000000E+02 0.  0.
<mgrwt>
<rscale>  0 0.20880638E+03</rscale>
<asrwt>0</asrwt>
<pdfrwt beam="1">  1        1 0.11375947E-02 0.20880638E+03</pdfrwt>
<pdfrwt beam="2">  1       -1 0.22678444E+00 0.20880638E+03</pdfrwt>
<totfact> 0.14917501E+03</totfact>
</mgrwt>
</event>
<event>
 4    1  0.3147937E-004  0.2808292E+03  0.7818608E-02  0.1095237E+00
         -1   -1    0    0    0  501 -0.00000000000E+00  0.00000000000E+00  0.88836610479E+01  0.88836624776E+01  0.50400000000E-02 0. -1.
          1   -1    0    0  501    0  0.00000000000E+00 -0.00000000000E+00 -0.22193845189E+04  0.22193845189E+04  0.50400000000E-02 0.  1.
    5000001    1    1    2    0    0 -0.78488301484E+02  0.84243677556E+02 -0.92260788621E+03  0.93294786691E+03  0.77000000000E+02 0.  0.
   -5000001    1    1    2    0    0  0.78488301484E+02 -0.84243677556E+02 -0.12878929716E+04  0.12953203145E+04  0.77000000000E+02 0.  0.
<mgrwt>
<rscale>  0 0.28082921E+03</rscale>
<asrwt>0</asrwt>
<pdfrwt beam="1">  1        1 0.34144333E+00 0.28082921E+03</pdfrwt>
<pdfrwt beam="2">  1       -1 0.13667190E-02 0.28082921E+03</pdfrwt>
<totfact> 0.29010509E+03</totfact>
</mgrwt>
</event>
<event>
 4    1  0.3147937E-004  0.2527856E+03  0.7818608E-02  0.1111557E+00
         -1   -1    0    0    0  501 -0.00000000000E+00  0.00000000000E+00  0.96350656837E+02  0.96350656969E+02  0.50400000000E-02 0. -1.
          1   -1    0    0  501    0  0.00000000000E+00 -0.00000000000E+00 -0.16580215024E+03  0.16580215032E+03  0.50400000000E-02 0.  1.
    5000001    1    1    2    0    0 -0.67789801915E+01  0.87491746915E+02 -0.84949508596E+02  0.14438206039E+03  0.77000000000E+02 0.  0.
   -5000001    1    1    2    0    0  0.67789801915E+01 -0.87491746915E+02  0.15498015192E+02  0.11777074690E+03  0.77000000000E+02 0.  0.
<mgrwt>
<rscale>  0 0.25278565E+03</rscale>
<asrwt>0</asrwt>
<pdfrwt beam="1">  1        1 0.25508023E-01 0.25278565E+03</pdfrwt>
<pdfrwt beam="2">  1       -1 0.14823178E-01 0.25278565E+03</pdfrwt>
<totfact> 0.60318176E+03</totfact>
</mgrwt>
</event>
<event>
 4    1  0.3147937E-004  0.2145156E+03  0.7818608E-02  0.1138039E+00
          1   -1    0    0  501    0  0.00000000000E+00  0.00000000000E+00  0.79161558028E+02  0.79161558189E+02  0.50400000000E-02 0.  1.
         -1   -1    0    0    0  501 -0.00000000000E+00 -0.00000000000E+00 -0.14532608660E+03  0.14532608669E+03  0.50400000000E-02 0. -1.
    5000001    1    1    2    0    0  0.63242376262E+02  0.39518335922E+02 -0.36989798824E+02  0.11339551246E+03  0.77000000000E+02 0.  0.
   -5000001    1    1    2    0    0 -0.63242376262E+02 -0.39518335922E+02 -0.29174729751E+02  0.11109213242E+03  0.77000000000E+02 0.  0.
<mgrwt>
<rscale>  0 0.21451564E+03</rscale>
<asrwt>0</asrwt>
<pdfrwt beam="1">  1        1 0.12178701E-01 0.21451564E+03</pdfrwt>
<pdfrwt beam="2">  1       -1 0.22357859E-01 0.21451564E+03</pdfrwt>
<totfact> 0.80521783E+03</totfact>
</mgrwt>
</event>
<event>
 4    1  0.3147937E-004  0.2919543E+03  0.7818608E-02  0.1089333E+00
         -1   -1    0    0    0  501 -0.00000000000E+00  0.00000000000E+00  0.62793159833E+03  0.62793159835E+03  0.50400000000E-02 0.  1.
          1   -1    0    0  501    0  0.00000000000E+00 -0.00000000000E+00 -0.33935744113E+02  0.33935744487E+02  0.50400000000E-02 0. -1.
    5000001    1    1    2    0    0  0.82908453865E+02  0.20295584184E+02  0.93033751264E+02  0.14788509504E+03  0.77000000000E+02 0.  0.
   -5000001    1    1    2    0    0 -0.82908453865E+02 -0.20295584184E+02  0.50096210295E+03  0.51398224780E+03  0.77000000000E+02 0.  0.
<mgrwt>
<rscale>  0 0.29195429E+03</rscale>
<asrwt>0</asrwt>
<pdfrwt beam="1">  1        1 0.52208835E-02 0.29195429E+03</pdfrwt>
<pdfrwt beam="2">  1       -1 0.96604866E-01 0.29195429E+03</pdfrwt>
<totfact> 0.17068870E+03</totfact>
</mgrwt>
</event>
<event>
 4    1  0.3147937E-004  0.5055124E+03  0.7818608E-02  0.1012350E+00
          1   -1    0    0  501    0  0.00000000000E+00  0.00000000000E+00  0.78627928085E+02  0.78627928247E+02  0.50400000000E-02 0.  1.
         -1   -1    0    0    0  501 -0.00000000000E+00 -0.00000000000E+00 -0.81250645625E+03  0.81250645626E+03  0.50400000000E-02 0. -1.
    5000001    1    1    2    0    0 -0.16648841008E+03 -0.15835101797E+03 -0.24026933355E+03  0.34125033074E+03  0.77000000000E+02 0.  0.
   -5000001    1    1    2    0    0  0.16648841008E+03  0.15835101797E+03 -0.49360919462E+03  0.54988405377E+03  0.77000000000E+02 0.  0.
<mgrwt>
<rscale>  0 0.50551241E+03</rscale>
<asrwt>0</asrwt>
<pdfrwt beam="1">  1        1 0.12096605E-01 0.50551241E+03</pdfrwt>
<pdfrwt beam="2">  1       -1 0.12500099E+00 0.50551241E+03</pdfrwt>
<totfact> 0.29524570E+02</totfact>
</mgrwt>
</event>
<event>
 4    1  0.3147937E-004  0.2090487E+03  0.7818608E-02  0.1142322E+00
         -1   -1    0    0    0  501 -0.00000000000E+00  0.00000000000E+00  0.50771445227E+01  0.50771470242E+01  0.50400000000E-02 0. -1.
          1   -1    0    0  501    0  0.00000000000E+00 -0.00000000000E+00 -0.21518669949E+04  0.21518669949E+04  0.50400000000E-02 0.  1.
    5000001    1    1    2    0    0 -0.53064303041E+02  0.43556087679E+02 -0.89970158200E+03  0.90559642760E+03  0.77000000000E+02 0.  0.
   -5000001    1    1    2    0    0  0.53064303041E+02 -0.43556087679E+02 -0.12470882684E+04  0.12513477143E+04  0.77000000000E+02 0.  0.
<mgrwt>
<rscale>  0 0.20904873E+03</rscale>
<asrwt>0</asrwt>
<pdfrwt beam="1">  1        1 0.33105573E+00 0.20904873E+03</pdfrwt>
<pdfrwt beam="2">  1       -1 0.78110107E-03 0.20904873E+03</pdfrwt>
<totfact> 0.71922559E+03</totfact>
</mgrwt>
</event>
<event>
 4    1  0.3147937E-004  0.1711119E+03  0.7818608E-02  0.1176693E+00
         -1   -1    0    0    0  501 -0.00000000000E+00  0.00000000000E+00  0.26087946920E+02  0.26087947406E+02  0.50400000000E-02 0. -1.
          1   -1    0    0  501    0  0.00000000000E+00 -0.00000000000E+00 -0.28058242269E+03  0.28058242274E+03  0.50400000000E-02 0.  1.
    5000001    1    1    2    0    0 -0.39414601928E+01  0.19219630135E+02 -0.70405556829E+02  0.10616436183E+03  0.77000000000E+02 0.  0.
   -5000001    1    1    2    0    0  0.39414601928E+01 -0.19219630135E+02 -0.18408891894E+03  0.20050600831E+03  0.77000000000E+02 0.  0.
<mgrwt>
<rscale>  0 0.17111189E+03</rscale>
<asrwt>0</asrwt>
<pdfrwt beam="1">  1        1 0.43166525E-01 0.17111189E+03</pdfrwt>
<pdfrwt beam="2">  1       -1 0.40135305E-02 0.17111189E+03</pdfrwt>
<totfact> 0.22228160E+04</totfact>
</mgrwt>
</event>
<event>
 4    1  0.3147937E-004  0.3020104E+03  0.7818608E-02  0.1084240E+00
          1   -1    0    0  501    0  0.00000000000E+00  0.00000000000E+00  0.14038433401E+04  0.14038433401E+04  0.50400000000E-02 0.  1.
         -1   -1    0    0    0  501 -0.00000000000E+00 -0.00000000000E+00 -0.16242961983E+02  0.16242962765E+02  0.50400000000E-02 0. -1.
    5000001    1    1    2    0    0  0.45424409853E+02 -0.58444424326E+01  0.12653733535E+04  0.12685409959E+04  0.77000000000E+02 0.  0.
   -5000001    1    1    2    0    0 -0.45424409853E+02  0.58444424326E+01  0.12222702457E+03  0.15154530693E+03  0.77000000000E+02 0.  0.
<mgrwt>
<rscale>  0 0.30201043E+03</rscale>
<asrwt>0</asrwt>
<pdfrwt beam="1">  1        1 0.21597600E+00 0.30201043E+03</pdfrwt>
<pdfrwt beam="2">  1       -1 0.24989161E-02 0.30201043E+03</pdfrwt>
<totfact> 0.41055303E+03</totfact>
</mgrwt>
</event>
<event>
 4    1  0.3147937E-004  0.2473343E+03  0.7818608E-02  0.1115001E+00
         -1   -1    0    0    0  501 -0.00000000000E+00  0.00000000000E+00  0.33139533802E+03  0.33139533806E+03  0.50400000000E-02 0. -1.
          1   -1    0    0  501    0  0.00000000000E+00 -0.00000000000E+00 -0.46149004055E+02  0.46149004330E+02  0.50400000000E-02 0.  1.
    5000001    1    1    2    0    0  0.61052454279E+02 -0.74111711624E+02  0.12426653057E+03  0.17490316919E+03  0.77000000000E+02 0.  0.
   -5000001    1    1    2    0    0 -0.61052454279E+02  0.74111711624E+02  0.16097980339E+03  0.20264117319E+03  0.77000000000E+02 0.  0.
<mgrwt>
<rscale>  0 0.24733431E+03</rscale>
<asrwt>0</asrwt>
<pdfrwt beam="1">  1        1 0.70998471E-02 0.24733431E+03</pdfrwt>
<pdfrwt beam="2">  1       -1 0.50983896E-01 0.24733431E+03</pdfrwt>
<totfact> 0.40204041E+03</totfact>
</mgrwt>
</event>
<event>
 4    1  0.3147937E-004  0.2489396E+03  0.7818608E-02  0.1113977E+00
          1   -1    0    0  501    0  0.00000000000E+00  0.00000000000E+00  0.94341477134E+03  0.94341477135E+03  0.50400000000E-02 0.  1.
         -1   -1    0    0    0  501 -0.00000000000E+00 -0.00000000000E+00 -0.16421968413E+02  0.16421969186E+02  0.50400000000E-02 0. -1.
    5000001    1    1    2    0    0 -0.61868074487E+02 -0.71985524184E+02  0.55426142277E+03  0.56757757100E+03  0.77000000000E+02 0.  0.
   -5000001    1    1    2    0    0  0.61868074487E+02  0.71985524184E+02  0.37273138015E+03  0.39225916953E+03  0.77000000000E+02 0.  0.
<mgrwt>
<rscale>  0 0.24893957E+03</rscale>
<asrwt>0</asrwt>
<pdfrwt beam="1">  1        1 0.14514073E+00 0.24893957E+03</pdfrwt>
<pdfrwt beam="2">  1       -1 0.25264569E-02 0.24893957E+03</pdfrwt>
<totfact> 0.85444873E+03</totfact>
</mgrwt>
</event>
<event>
 4    1  0.3147937E-004  0.3242540E+03  0.7818608E-02  0.1073708E+00
         -1   -1    0    0    0  501 -0.00000000000E+00  0.00000000000E+00  0.37967837002E+02  0.37967837336E+02  0.50400000000E-02 0.  1.
          1   -1    0    0  501    0  0.00000000000E+00 -0.00000000000E+00 -0.69230091743E+03  0.69230091745E+03  0.50400000000E-02 0. -1.
    5000001    1    1    2    0    0  0.24713598650E+02  0.10897978690E+03 -0.12738657082E+03  0.18612816643E+03  0.77000000000E+02 0.  0.
   -5000001    1    1    2    0    0 -0.24713598650E+02 -0.10897978690E+03 -0.52694650961E+03  0.54414058836E+03  0.77000000000E+02 0.  0.
<mgrwt>
<rscale>  0 0.32425403E+03</rscale>
<asrwt>0</asrwt>
<pdfrwt beam="1">  1        1 0.10650782E+00 0.32425403E+03</pdfrwt>
<pdfrwt beam="2">  1       -1 0.58412062E-02 0.32425403E+03</pdfrwt>
<totfact> 0.39946391E+03</totfact>
</mgrwt>
</event>
<event>
 4    1  0.3147937E-004  0.2881420E+03  0.7818608E-02  0.1091323E+00
          1   -1    0    0  501    0  0.00000000000E+00  0.00000000000E+00  0.88938871108E+03  0.88938871110E+03  0.50400000000E-02 0.  1.
         -1   -1    0    0    0  501 -0.00000000000E+00 -0.00000000000E+00 -0.23337881297E+02  0.23337881841E+02  0.50400000000E-02 0. -1.
    5000001    1    1    2    0    0  0.44957842574E+02  0.10459412978E+03  0.29618135782E+03  0.32651728333E+03  0.77000000000E+02 0.  0.
   -5000001    1    1    2    0    0 -0.44957842574E+02 -0.10459412978E+03  0.56986947196E+03  0.58620930960E+03  0.77000000000E+02 0.  0.
<mgrwt>
<rscale>  0 0.28814197E+03</rscale>
<asrwt>0</asrwt>
<pdfrwt beam="1">  1        1 0.13682902E+00 0.28814197E+03</pdfrwt>
<pdfrwt beam="2">  1       -1 0.35904436E-02 0.28814197E+03</pdfrwt>
<totfact> 0.56259844E+03</totfact>
</mgrwt>
</event>
<event>
 4    1  0.3147937E-004  0.2425217E+03  0.7818608E-02  0.1118124E+00
          1   -1    0    0  501    0  0.00000000000E+00  0.00000000000E+00  0.12177335128E+03  0.12177335139E+03  0.50400000000E-02 0.  1.
         -1   -1    0    0    0  501 -0.00000000000E+00 -0.00000000000E+00 -0.12075050036E+03  0.12075050047E+03  0.50400000000E-02 0. -1.
    5000001    1    1    2    0    0 -0.47203842945E+02 -0.69156965695E+02 -0.41492572135E+02  0.12108477293E+03  0.77000000000E+02 0.  0.
   -5000001    1    1    2    0    0  0.47203842945E+02  0.69156965695E+02  0.42515423052E+02  0.12143907893E+03  0.77000000000E+02 0.  0.
<mgrwt>
<rscale>  0 0.24252169E+03</rscale>
<asrwt>0</asrwt>
<pdfrwt beam="1">  1        1 0.18734362E-01 0.24252169E+03</pdfrwt>
<pdfrwt beam="2">  1       -1 0.18577000E-01 0.24252169E+03</pdfrwt>
<totfact> 0.62334392E+03</totfact>
</mgrwt>
</event>
<event>
 4    1  0.3147937E-004  0.2366799E+03  0.7818608E-02  0.1122025E+00
         -1   -1    0    0    0  501 -0.00000000000E+00  0.00000000000E+00  0.10306334896E+02  0.10306336128E+02  0.50400000000E-02 0. -1.
          1   -1    0    0  501    0  0.00000000000E+00 -0.00000000000E+00 -0.13588094378E+04  0.13588094378E+04  0.50400000000E-02 0.  1.
    5000001    1    1    2    0    0  0.50728062051E+02 -0.73895622518E+02 -0.63701035912E+03  0.64787737800E+03  0.77000000000E+02 0.  0.
   -5000001    1    1    2    0    0 -0.50728062051E+02  0.73895622518E+02 -0.71149274375E+03  0.72123839590E+03  0.77000000000E+02 0.  0.
<mgrwt>
<rscale>  0 0.23667992E+03</rscale>
<asrwt>0</asrwt>
<pdfrwt beam="1">  1        1 0.20904746E+00 0.23667992E+03</pdfrwt>
<pdfrwt beam="2">  1       -1 0.15855912E-02 0.23667992E+03</pdfrwt>
<totfact> 0.85293107E+03</totfact>
</mgrwt>
</event>
<event>
 4    1  0.3147937E-004  0.2544145E+03  0.7818608E-02  0.1110546E+00
         -1   -1    0    0    0  501 -0.00000000000E+00  0.00000000000E+00  0.13383120007E+03  0.13383120017E+03  0.50400000000E-02 0. -1.
          1   -1    0    0  501    0  0.00000000000E+00 -0.00000000000E+00 -0.12091113400E+03  0.12091113411E+03  0.50400000000E-02 0.  1.
    5000001    1    1    2    0    0  0.33020889031E+02  0.94977133855E+02  0.18376929724E+02  0.12797557038E+03  0.77000000000E+02 0.  0.
   -5000001    1    1    2    0    0 -0.33020889031E+02 -0.94977133855E+02 -0.54568636549E+01  0.12676676390E+03  0.77000000000E+02 0.  0.
<mgrwt>
<rscale>  0 0.25441448E+03</rscale>
<asrwt>0</asrwt>
<pdfrwt beam="1">  1        1 0.18601713E-01 0.25441448E+03</pdfrwt>
<pdfrwt beam="2">  1       -1 0.20589415E-01 0.25441448E+03</pdfrwt>
<totfact> 0.53357634E+03</totfact>
</mgrwt>
</event>
<event>
 4    1  0.3147937E-004  0.2090840E+03  0.7818608E-02  0.1142293E+00
          1   -1    0    0  501    0  0.00000000000E+00  0.00000000000E+00  0.11291091026E+03  0.11291091037E+03  0.50400000000E-02 0. -1.
         -1   -1    0    0    0  501 -0.00000000000E+00 -0.00000000000E+00 -0.96793368600E+02  0.96793368731E+02  0.50400000000E-02 0.  1.
    5000001    1    1    2    0    0 -0.57075695832E+02  0.41397849415E+02  0.26940339175E+01  0.10443981429E+03  0.77000000000E+02 0.  0.
   -5000001    1    1    2    0    0  0.57075695832E+02 -0.41397849415E+02  0.13423507740E+02  0.10526446481E+03  0.77000000000E+02 0.  0.
<mgrwt>
<rscale>  0 0.20908398E+03</rscale>
<asrwt>0</asrwt>
<pdfrwt beam="1">  1        1 0.17370909E-01 0.20908398E+03</pdfrwt>
<pdfrwt beam="2">  1       -1 0.14891287E-01 0.20908398E+03</pdfrwt>
<totfact> 0.97034571E+03</totfact>
</mgrwt>
</event>
<event>
 4    1  0.3147937E-004  0.2450882E+03  0.7818608E-02  0.1116449E+00
         -1   -1    0    0    0  501 -0.00000000000E+00  0.00000000000E+00  0.10177642675E+03  0.10177642687E+03  0.50400000000E-02 0. -1.
          1   -1    0    0  501    0  0.00000000000E+00 -0.00000000000E+00 -0.14754946743E+03  0.14754946752E+03  0.50400000000E-02 0.  1.
    5000001    1    1    2    0    0  0.90309171465E+02  0.28885863745E+02 -0.32952968669E+02  0.12651101817E+03  0.77000000000E+02 0.  0.
   -5000001    1    1    2    0    0 -0.90309171465E+02 -0.28885863745E+02 -0.12820072015E+02  0.12281487622E+03  0.77000000000E+02 0.  0.
<mgrwt>
<rscale>  0 0.24508821E+03</rscale>
<asrwt>0</asrwt>
<pdfrwt beam="1">  1        1 0.22699918E-01 0.24508821E+03</pdfrwt>
<pdfrwt beam="2">  1       -1 0.15657912E-01 0.24508821E+03</pdfrwt>
<totfact> 0.64069480E+03</totfact>
</mgrwt>
</event>
<event>
 4    1  0.3147937E-004  0.1914709E+03  0.7818608E-02  0.1157141E+00
         -1   -1    0    0    0  501 -0.00000000000E+00  0.00000000000E+00  0.56792305727E+01  0.56792328090E+01  0.50400000000E-02 0.  1.
          1   -1    0    0  501    0  0.00000000000E+00 -0.00000000000E+00 -0.16138233265E+04  0.16138233265E+04  0.50400000000E-02 0. -1.
    5000001    1    1    2    0    0 -0.59446434607E+01 -0.56445409798E+02 -0.83667024151E+03  0.84212084412E+03  0.77000000000E+02 0.  0.
   -5000001    1    1    2    0    0  0.59446434607E+01  0.56445409798E+02 -0.77147385443E+03  0.77738171521E+03  0.77000000000E+02 0.  0.
<mgrwt>
<rscale>  0 0.19147090E+03</rscale>
<asrwt>0</asrwt>
<pdfrwt beam="1">  1        1 0.24828015E+00 0.19147090E+03</pdfrwt>
<pdfrwt beam="2">  1       -1 0.87372924E-03 0.19147090E+03</pdfrwt>
<totfact> 0.13577245E+04</totfact>
</mgrwt>
</event>
<event>
 4    1  0.3147937E-004  0.2053479E+03  0.7818608E-02  0.1145304E+00
         -1   -1    0    0    0  501 -0.00000000000E+00  0.00000000000E+00  0.16498336385E+02  0.16498337155E+02  0.50400000000E-02 0. -1.
          1   -1    0    0  501    0  0.00000000000E+00 -0.00000000000E+00 -0.63897005815E+03  0.63897005817E+03  0.50400000000E-02 0.  1.
    5000001    1    1    2    0    0 -0.55405161446E+02  0.37704842399E+02 -0.34642834436E+03  0.36115507034E+03  0.77000000000E+02 0.  0.
   -5000001    1    1    2    0    0  0.55405161446E+02 -0.37704842399E+02 -0.27604337741E+03  0.29431332499E+03  0.77000000000E+02 0.  0.
<mgrwt>
<rscale>  0 0.20534793E+03</rscale>
<asrwt>0</asrwt>
<pdfrwt beam="1">  1        1 0.98303067E-01 0.20534793E+03</pdfrwt>
<pdfrwt beam="2">  1       -1 0.25382062E-02 0.20534793E+03</pdfrwt>
<totfact> 0.15204032E+04</totfact>
</mgrwt>
</event>
<event>
 4    1  0.3147937E-004  0.1821778E+03  0.7818608E-02  0.1165712E+00
          1   -1    0    0  501    0  0.00000000000E+00  0.00000000000E+00  0.50057916625E+02  0.50057916879E+02  0.50400000000E-02 0.  1.
         -1   -1    0    0    0  501 -0.00000000000E+00 -0.00000000000E+00 -0.16575170812E+03  0.16575170820E+03  0.50400000000E-02 0. -1.
    5000001    1    1    2    0    0 -0.18615442489E+01  0.39424174855E+02 -0.24122848393E+02  0.89825623987E+02  0.77000000000E+02 0.  0.
   -5000001    1    1    2    0    0  0.18615442489E+01 -0.39424174855E+02 -0.91570943105E+02  0.12598400109E+03  0.77000000000E+02 0.  0.
<mgrwt>
<rscale>  0 0.18217777E+03</rscale>
<asrwt>0</asrwt>
<pdfrwt beam="1">  1        1 0.77012180E-02 0.18217777E+03</pdfrwt>
<pdfrwt beam="2">  1       -1 0.25500263E-01 0.18217777E+03</pdfrwt>
<totfact> 0.11846102E+04</totfact>
</mgrwt>
</event>
<event>
 4    1  0.3147937E-004  0.1606518E+03  0.7818608E-02  0.1187963E+00
          1   -1    0    0  501    0  0.00000000000E+00  0.00000000000E+00  0.47568676821E+02  0.47568677088E+02  0.50400000000E-02 0. -1.
         -1   -1    0    0    0  501 -0.00000000000E+00 -0.00000000000E+00 -0.13564077027E+03  0.13564077036E+03  0.50400000000E-02 0.  1.
    5000001    1    1    2    0    0 -0.11232782713E+02  0.12828488816E+02 -0.26646841807E+02  0.83245418559E+02  0.77000000000E+02 0.  0.
   -5000001    1    1    2    0    0  0.11232782713E+02 -0.12828488816E+02 -0.61425251637E+02  0.99964028888E+02  0.77000000000E+02 0.  0.
<mgrwt>
<rscale>  0 0.16065182E+03</rscale>
<asrwt>0</asrwt>
<pdfrwt beam="1">  1        1 0.73182581E-02 0.16065182E+03</pdfrwt>
<pdfrwt beam="2">  1       -1 0.20867811E-01 0.16065182E+03</pdfrwt>
<totfact> 0.17436830E+04</totfact>
</mgrwt>
</event>
<event>
 4    1  0.3147937E-004  0.1746661E+03  0.7818608E-02  0.1173067E+00
         -1   -1    0    0    0  501 -0.00000000000E+00  0.00000000000E+00  0.13520297108E+02  0.13520298048E+02  0.50400000000E-02 0.  1.
          1   -1    0    0  501    0  0.00000000000E+00 -0.00000000000E+00 -0.56411917910E+03  0.56411917913E+03  0.50400000000E-02 0. -1.
    5000001    1    1    2    0    0  0.74224985785E+01 -0.33031451218E+02 -0.19760782527E+03  0.21476504106E+03  0.77000000000E+02 0.  0.
   -5000001    1    1    2    0    0 -0.74224985785E+01  0.33031451218E+02 -0.35299105673E+03  0.36287443611E+03  0.77000000000E+02 0.  0.
<mgrwt>
<rscale>  0 0.17466607E+03</rscale>
<asrwt>0</asrwt>
<pdfrwt beam="1">  1        1 0.86787548E-01 0.17466607E+03</pdfrwt>
<pdfrwt beam="2">  1       -1 0.20800462E-02 0.17466607E+03</pdfrwt>
<totfact> 0.23845753E+04</totfact>
</mgrwt>
</event>
<event>
 4    1  0.3147937E-004  0.2534453E+03  0.7818608E-02  0.1111147E+00
         -1   -1    0    0    0  501 -0.00000000000E+00  0.00000000000E+00  0.27456041006E+03  0.27456041011E+03  0.50400000000E-02 0. -1.
          1   -1    0    0  501    0  0.00000000000E+00 -0.00000000000E+00 -0.58488523257E+02  0.58488523475E+02  0.50400000000E-02 0.  1.
    5000001    1    1    2    0    0  0.83363900617E+02 -0.44395297804E+02  0.15373044659E+03  0.19616965261E+03  0.77000000000E+02 0.  0.
   -5000001    1    1    2    0    0 -0.83363900617E+02  0.44395297804E+02  0.62341440208E+02  0.13687928098E+03  0.77000000000E+02 0.  0.
<mgrwt>
<rscale>  0 0.25344532E+03</rscale>
<asrwt>0</asrwt>
<pdfrwt beam="1">  1        1 0.89982345E-02 0.25344532E+03</pdfrwt>
<pdfrwt beam="2">  1       -1 0.42240063E-01 0.25344532E+03</pdfrwt>
<totfact> 0.41087141E+03</totfact>
</mgrwt>
</event>
<event>
 4    1  0.3147937E-004  0.2036183E+03  0.7818608E-02  0.1146722E+00
          1   -1    0    0  501    0  0.00000000000E+00  0.00000000000E+00  0.34107358257E+03  0.34107358260E+03  0.50400000000E-02 0. -1.
         -1   -1    0    0    0  501 -0.00000000000E+00 -0.00000000000E+00 -0.30389637569E+02  0.30389637987E+02  0.50400000000E-02 0.  1.
    5000001    1    1    2    0    0  0.40284346116E+02  0.31854097108E+02  0.77973293809E+02  0.12102209134E+03  0.77000000000E+02 0.  0.
   -5000001    1    1    2    0    0 -0.40284346116E+02 -0.31854097108E+02  0.23271065119E+03  0.25044112925E+03  0.77000000000E+02 0.  0.
<mgrwt>
<rscale>  0 0.20361830E+03</rscale>
<asrwt>0</asrwt>
<pdfrwt beam="1">  1        1 0.52472860E-01 0.20361830E+03</pdfrwt>
<pdfrwt beam="2">  1       -1 0.46753288E-02 0.20361830E+03</pdfrwt>
<totfact> 0.14076385E+04</totfact>
</mgrwt>
</event>
<event>
 4    1  0.3147937E-004  0.3114872E+03  0.7818608E-02  0.1079635E+00
         -1   -1    0    0    0  501 -0.00000000000E+00  0.00000000000E+00  0.32950061546E+03  0.32950061549E+03  0.50400000000E-02 0.  1.
          1   -1    0    0  501    0  0.00000000000E+00 -0.00000000000E+00 -0.73614651662E+02  0.73614651834E+02  0.50400000000E-02 0. -1.
    5000001    1    1    2    0    0  0.10962102359E+03  0.44397660238E+02  0.21319240288E+03  0.25567151130E+03  0.77000000000E+02 0.  0.
   -5000001    1    1    2    0    0 -0.10962102359E+03 -0.44397660238E+02  0.42693560918E+02  0.14744375603E+03  0.77000000000E+02 0.  0.
<mgrwt>
<rscale>  0 0.31148723E+03</rscale>
<asrwt>0</asrwt>
<pdfrwt beam="1">  1        1 0.11325331E-01 0.31148723E+03</pdfrwt>
<pdfrwt beam="2">  1       -1 0.50692402E-01 0.31148723E+03</pdfrwt>
<totfact> 0.21736212E+03</totfact>
</mgrwt>
</event>
<event>
 4    1  0.3147937E-004  0.1833166E+03  0.7818608E-02  0.1164631E+00
          1   -1    0    0  501    0  0.00000000000E+00  0.00000000000E+00  0.11461912444E+03  0.11461912455E+03  0.50400000000E-02 0. -1.
         -1   -1    0    0    0  501 -0.00000000000E+00 -0.00000000000E+00 -0.73297089077E+02  0.73297089250E+02  0.50400000000E-02 0.  1.
    5000001    1    1    2    0    0 -0.34288816987E+02  0.33322503844E+02  0.66755336735E+01  0.90882754044E+02  0.77000000000E+02 0.  0.
   -5000001    1    1    2    0    0  0.34288816987E+02 -0.33322503844E+02  0.34646501688E+02  0.97033459755E+02  0.77000000000E+02 0.  0.
<mgrwt>
<rscale>  0 0.18331665E+03</rscale>
<asrwt>0</asrwt>
<pdfrwt beam="1">  1        1 0.17633711E-01 0.18331665E+03</pdfrwt>
<pdfrwt beam="2">  1       -1 0.11276475E-01 0.18331665E+03</pdfrwt>
<totfact> 0.14560549E+04</totfact>
</mgrwt>
</event>
<event>
 4    1  0.3147937E-004  0.4989840E+03  0.7818608E-02  0.1014044E+00
          1   -1    0    0  501    0  0.00000000000E+00  0.00000000000E+00  0.34940985632E+03  0.34940985636E+03  0.50400000000E-02 0.  1.
         -1   -1    0    0    0  501 -0.00000000000E+00 -0.00000000000E+00 -0.17814681444E+03  0.17814681451E+03  0.50400000000E-02 0. -1.
    5000001    1    1    2    0    0  0.14927971594E+03  0.67770457375E+02  0.26703737783E+03  0.32266891645E+03  0.77000000000E+02 0.  0.
   -5000001    1    1    2    0    0 -0.14927971594E+03 -0.67770457375E+02 -0.95774335948E+02  0.20488775442E+03  0.77000000000E+02 0.  0.
<mgrwt>
<rscale>  0 0.49898398E+03</rscale>
<asrwt>0</asrwt>
<pdfrwt beam="1">  1        1 0.53755362E-01 0.49898398E+03</pdfrwt>
<pdfrwt beam="2">  1       -1 0.27407203E-01 0.49898398E+03</pdfrwt>
<totfact> 0.86167065E+02</totfact>
</mgrwt>
</event>
<event>
 4    1  0.3147937E-004  0.1668027E+03  0.7818608E-02  0.1181224E+00
          1   -1    0    0  501    0  0.00000000000E+00  0.00000000000E+00  0.41958294985E+03  0.41958294989E+03  0.50400000000E-02 0. -1.
         -1   -1    0    0    0  501 -0.00000000000E+00 -0.00000000000E+00 -0.16577862078E+02  0.16577862845E+02  0.50400000000E-02 0.  1.
    5000001    1    1    2    0    0  0.31771513021E+02 -0.31749762439E+01  0.19444786375E+03  0.21156200328E+03  0.77000000000E+02 0.  0.
   -5000001    1    1    2    0    0 -0.31771513021E+02  0.31749762439E+01  0.20855722403E+03  0.22459880945E+03  0.77000000000E+02 0.  0.
<mgrwt>
<rscale>  0 0.16680274E+03</rscale>
<asrwt>0</asrwt>
<pdfrwt beam="1">  1        1 0.64551220E-01 0.16680274E+03</pdfrwt>
<pdfrwt beam="2">  1       -1 0.25504405E-02 0.16680274E+03</pdfrwt>
<totfact> 0.26013934E+04</totfact>
</mgrwt>
</event>
<event>
 4    1  0.3147937E-004  0.2005121E+03  0.7818608E-02  0.1149308E+00
         -1   -1    0    0    0  501 -0.00000000000E+00  0.00000000000E+00  0.17433042566E+03  0.17433042574E+03  0.50400000000E-02 0. -1.
          1   -1    0    0  501    0  0.00000000000E+00 -0.00000000000E+00 -0.57656474270E+02  0.57656474490E+02  0.50400000000E-02 0.  1.
    5000001    1    1    2    0    0  0.57218429773E+02 -0.11050160598E+02  0.27158288613E+02  0.10031264823E+03  0.77000000000E+02 0.  0.
   -5000001    1    1    2    0    0 -0.57218429773E+02  0.11050160598E+02  0.89515662781E+02  0.13167425199E+03  0.77000000000E+02 0.  0.
<mgrwt>
<rscale>  0 0.20051212E+03</rscale>
<asrwt>0</asrwt>
<pdfrwt beam="1">  1        1 0.88702268E-02 0.20051212E+03</pdfrwt>
<pdfrwt beam="2">  1       -1 0.26820065E-01 0.20051212E+03</pdfrwt>
<totfact> 0.90634333E+03</totfact>
</mgrwt>
</event>
<event>
 4    1  0.3147937E-004  0.3479537E+03  0.7818608E-02  0.1063458E+00
         -1   -1    0    0    0  501 -0.00000000000E+00  0.00000000000E+00  0.14814171992E+02  0.14814172849E+02  0.50400000000E-02 0.  1.
          1   -1    0    0  501    0  0.00000000000E+00 -0.00000000000E+00 -0.20431745926E+04  0.20431745927E+04  0.50400000000E-02 0. -1.
    5000001    1    1    2    0    0 -0.46686111348E+02 -0.11910591121E+03 -0.15423043020E+04  0.15495152052E+04  0.77000000000E+02 0.  0.
   -5000001    1    1    2    0    0  0.46686111348E+02  0.11910591121E+03 -0.48605611867E+03  0.50847356035E+03  0.77000000000E+02 0.  0.
<mgrwt>
<rscale>  0 0.34795368E+03</rscale>
<asrwt>0</asrwt>
<pdfrwt beam="1">  1        1 0.31433433E+00 0.34795368E+03</pdfrwt>
<pdfrwt beam="2">  1       -1 0.22791051E-02 0.34795368E+03</pdfrwt>
<totfact> 0.17824369E+03</totfact>
</mgrwt>
</event>
<event>
 4    1  0.3147937E-004  0.2170510E+03  0.7818608E-02  0.1136101E+00
          1   -1    0    0  501    0  0.00000000000E+00  0.00000000000E+00  0.94725697549E+03  0.94725697550E+03  0.50400000000E-02 0.  1.
         -1   -1    0    0    0  501 -0.00000000000E+00 -0.00000000000E+00 -0.12433570543E+02  0.12433571565E+02  0.50400000000E-02 0. -1.
    5000001    1    1    2    0    0  0.57397718449E+01 -0.75127402580E+02  0.40947231467E+03  0.42340718945E+03  0.77000000000E+02 0.  0.
   -5000001    1    1    2    0    0 -0.57397718449E+01  0.75127402580E+02  0.52535109027E+03  0.53628335761E+03  0.77000000000E+02 0.  0.
<mgrwt>
<rscale>  0 0.21705103E+03</rscale>
<asrwt>0</asrwt>
<pdfrwt beam="1">  1        1 0.14573192E+00 0.21705103E+03</pdfrwt>
<pdfrwt beam="2">  1       -1 0.19128561E-02 0.21705103E+03</pdfrwt>
<totfact> 0.12672907E+04</totfact>
</mgrwt>
</event>
<event>
 4    1  0.3147937E-004  0.2167023E+03  0.7818608E-02  0.1136366E+00
          1   -1    0    0  501    0  0.00000000000E+00  0.00000000000E+00  0.78894425938E+03  0.78894425940E+03  0.50400000000E-02 0.  1.
         -1   -1    0    0    0  501 -0.00000000000E+00 -0.00000000000E+00 -0.14880613532E+02  0.14880614386E+02  0.50400000000E-02 0. -1.
    5000001    1    1    2    0    0  0.30105813985E+02 -0.41047483786E+02  0.59750988952E+03  0.60459765467E+03  0.77000000000E+02 0.  0.
   -5000001    1    1    2    0    0 -0.30105813985E+02  0.41047483786E+02  0.17655375633E+03  0.19922721911E+03  0.77000000000E+02 0.  0.
<mgrwt>
<rscale>  0 0.21670233E+03</rscale>
<asrwt>0</asrwt>
<pdfrwt beam="1">  1        1 0.12137605E+00 0.21670233E+03</pdfrwt>
<pdfrwt beam="2">  1       -1 0.22893250E-02 0.21670233E+03</pdfrwt>
<totfact> 0.13037184E+04</totfact>
</mgrwt>
</event>
<event>
 4    1  0.3147937E-004  0.2353912E+03  0.7818608E-02  0.1122902E+00
         -1   -1    0    0    0  501 -0.00000000000E+00  0.00000000000E+00  0.32719806496E+03  0.32719806500E+03  0.50400000000E-02 0. -1.
          1   -1    0    0  501    0  0.00000000000E+00 -0.00000000000E+00 -0.42335991122E+02  0.42335991422E+02  0.50400000000E-02 0.  1.
    5000001    1    1    2    0    0 -0.78754060357E+02  0.38795731746E+02  0.16550033730E+03  0.20255041958E+03  0.77000000000E+02 0.  0.
   -5000001    1    1    2    0    0  0.78754060357E+02 -0.38795731746E+02  0.11936173654E+03  0.16698363685E+03  0.77000000000E+02 0.  0.
<mgrwt>
<rscale>  0 0.23539120E+03</rscale>
<asrwt>0</asrwt>
<pdfrwt beam="1">  1        1 0.65132298E-02 0.23539120E+03</pdfrwt>
<pdfrwt beam="2">  1       -1 0.50338161E-01 0.23539120E+03</pdfrwt>
<totfact> 0.46223244E+03</totfact>
</mgrwt>
</event>
<event>
 4    1  0.3147937E-004  0.1718424E+03  0.7818608E-02  0.1175940E+00
          1   -1    0    0  501    0  0.00000000000E+00  0.00000000000E+00  0.65648232743E+03  0.65648232745E+03  0.50400000000E-02 0.  1.
         -1   -1    0    0    0  501 -0.00000000000E+00 -0.00000000000E+00 -0.11245467748E+02  0.11245468878E+02  0.50400000000E-02 0. -1.
    5000001    1    1    2    0    0  0.77389349343E+01 -0.34764300444E+02  0.37547015502E+03  0.38493542967E+03  0.77000000000E+02 0.  0.
   -5000001    1    1    2    0    0 -0.77389349343E+01  0.34764300444E+02  0.26976670466E+03  0.28279236666E+03  0.77000000000E+02 0.  0.
<mgrwt>
<rscale>  0 0.17184238E+03</rscale>
<asrwt>0</asrwt>
<pdfrwt beam="1">  1        1 0.10099729E+00 0.17184238E+03</pdfrwt>
<pdfrwt beam="2">  1       -1 0.17300720E-02 0.17184238E+03</pdfrwt>
<totfact> 0.25232949E+04</totfact>
</mgrwt>
</event>
<event>
 4    1  0.3147937E-004  0.3896358E+03  0.7818608E-02  0.1047429E+00
          1   -1    0    0  501    0  0.00000000000E+00  0.00000000000E+00  0.66623576081E+02  0.66623576271E+02  0.50400000000E-02 0. -1.
         -1   -1    0    0    0  501 -0.00000000000E+00 -0.00000000000E+00 -0.56967846994E+03  0.56967846996E+03  0.50400000000E-02 0.  1.
    5000001    1    1    2    0    0  0.15300684474E+03 -0.92427744445E+02 -0.26529126813E+03  0.32903258111E+03  0.77000000000E+02 0.  0.
   -5000001    1    1    2    0    0 -0.15300684474E+03  0.92427744445E+02 -0.23776362572E+03  0.30726946512E+03  0.77000000000E+02 0.  0.
<mgrwt>
<rscale>  0 0.38963581E+03</rscale>
<asrwt>0</asrwt>
<pdfrwt beam="1">  1        1 0.10249781E-01 0.38963581E+03</pdfrwt>
<pdfrwt beam="2">  1       -1 0.87642838E-01 0.38963581E+03</pdfrwt>
<totfact> 0.83703861E+02</totfact>
</mgrwt>
</event>
<event>
 4    1  0.3147937E-004  0.2104250E+03  0.7818608E-02  0.1141230E+00
         -1   -1    0    0    0  501 -0.00000000000E+00  0.00000000000E+00  0.26699710302E+02  0.26699710778E+02  0.50400000000E-02 0. -1.
          1   -1    0    0  501    0  0.00000000000E+00 -0.00000000000E+00 -0.41459896900E+03  0.41459896903E+03  0.50400000000E-02 0.  1.
    5000001    1    1    2    0    0 -0.41691214423E+02 -0.25993779398E+02 -0.30346244857E+03  0.31691054198E+03  0.77000000000E+02 0.  0.
   -5000001    1    1    2    0    0  0.41691214423E+02  0.25993779398E+02 -0.84436810130E+02  0.12438813783E+03  0.77000000000E+02 0.  0.
<mgrwt>
<rscale>  0 0.21042502E+03</rscale>
<asrwt>0</asrwt>
<pdfrwt beam="1">  1        1 0.63784452E-01 0.21042502E+03</pdfrwt>
<pdfrwt beam="2">  1       -1 0.41076481E-02 0.21042502E+03</pdfrwt>
<totfact> 0.13345882E+04</totfact>
</mgrwt>
</event>
<event>
 4    1  0.3147937E-004  0.2699060E+03  0.7818608E-02  0.1101333E+00
          1   -1    0    0  501    0  0.00000000000E+00  0.00000000000E+00  0.35363071435E+03  0.35363071439E+03  0.50400000000E-02 0.  1.
         -1   -1    0    0    0  501 -0.00000000000E+00 -0.00000000000E+00 -0.51500924052E+02  0.51500924299E+02  0.50400000000E-02 0. -1.
    5000001    1    1    2    0    0 -0.10273031604E+03 -0.16000720154E+02  0.93441586988E+02  0.15959282896E+03  0.77000000000E+02 0.  0.
   -5000001    1    1    2    0    0  0.10273031604E+03  0.16000720154E+02  0.20868820331E+03  0.24553880972E+03  0.77000000000E+02 0.  0.
<mgrwt>
<rscale>  0 0.26990597E+03</rscale>
<asrwt>0</asrwt>
<pdfrwt beam="1">  1        1 0.54404725E-01 0.26990597E+03</pdfrwt>
<pdfrwt beam="2">  1       -1 0.79232191E-02 0.26990597E+03</pdfrwt>
<totfact> 0.61615670E+03</totfact>
</mgrwt>
</event>
<event>
 4    1  0.3147937E-004  0.2434904E+03  0.7818608E-02  0.1117489E+00
          1   -1    0    0  501    0  0.00000000000E+00  0.00000000000E+00  0.30434767108E+03  0.30434767112E+03  0.50400000000E-02 0.  1.
         -1   -1    0    0    0  501 -0.00000000000E+00 -0.00000000000E+00 -0.48700521026E+02  0.48700521287E+02  0.50400000000E-02 0. -1.
    5000001    1    1    2    0    0 -0.60663932106E+02 -0.62159361158E+02  0.18107813324E+03  0.21508646907E+03  0.77000000000E+02 0.  0.
   -5000001    1    1    2    0    0  0.60663932106E+02  0.62159361158E+02  0.74569016811E+02  0.13796172334E+03  0.77000000000E+02 0.  0.
<mgrwt>
<rscale>  0 0.24349037E+03</rscale>
<asrwt>0</asrwt>
<pdfrwt beam="1">  1        1 0.46822720E-01 0.24349037E+03</pdfrwt>
<pdfrwt beam="2">  1       -1 0.74923877E-02 0.24349037E+03</pdfrwt>
<totfact> 0.80748481E+03</totfact>
</mgrwt>
</event>
<event>
 4    1  0.3147937E-004  0.2197202E+03  0.7818608E-02  0.1134092E+00
         -1   -1    0    0    0  501 -0.00000000000E+00  0.00000000000E+00  0.20201983643E+02  0.20201984271E+02  0.50400000000E-02 0.  1.
          1   -1    0    0  501    0  0.00000000000E+00 -0.00000000000E+00 -0.59742844043E+03  0.59742844045E+03  0.50400000000E-02 0. -1.
    5000001    1    1    2    0    0 -0.80538194961E+01  0.72418825228E+02 -0.20758611449E+03  0.23308870669E+03  0.77000000000E+02 0.  0.
   -5000001    1    1    2    0    0  0.80538194961E+01 -0.72418825228E+02 -0.36964034230E+03  0.38454171804E+03  0.77000000000E+02 0.  0.
<mgrwt>
<rscale>  0 0.21972018E+03</rscale>
<asrwt>0</asrwt>
<pdfrwt beam="1">  1        1 0.91912055E-01 0.21972018E+03</pdfrwt>
<pdfrwt beam="2">  1       -1 0.31079980E-02 0.21972018E+03</pdfrwt>
<totfact> 0.12453081E+04</totfact>
</mgrwt>
</event>
<event>
 4    1  0.3147937E-004  0.2043935E+03  0.7818608E-02  0.1146084E+00
          1   -1    0    0  501    0  0.00000000000E+00  0.00000000000E+00  0.36662251921E+03  0.36662251924E+03  0.50400000000E-02 0. -1.
         -1   -1    0    0    0  501 -0.00000000000E+00 -0.00000000000E+00 -0.28487557317E+02  0.28487557763E+02  0.50400000000E-02 0.  1.
    5000001    1    1    2    0    0  0.60109464794E+02  0.15243029942E+02  0.11904267897E+03  0.15474384361E+03  0.77000000000E+02 0.  0.
   -5000001    1    1    2    0    0 -0.60109464794E+02 -0.15243029942E+02  0.21909228293E+03  0.24036623340E+03  0.77000000000E+02 0.  0.
<mgrwt>
<rscale>  0 0.20439354E+03</rscale>
<asrwt>0</asrwt>
<pdfrwt beam="1">  1        1 0.56403464E-01 0.20439354E+03</pdfrwt>
<pdfrwt beam="2">  1       -1 0.43827012E-02 0.20439354E+03</pdfrwt>
<totfact> 0.14149389E+04</totfact>
</mgrwt>
</event>
<event>
 4    1  0.3147937E-004  0.4165337E+03  0.7818608E-02  0.1038200E+00
         -1   -1    0    0    0  501 -0.00000000000E+00  0.00000000000E+00  0.13355079413E+03  0.13355079423E+03  0.50400000000E-02 0. -1.
          1   -1    0    0  501    0  0.00000000000E+00 -0.00000000000E+00 -0.32478344969E+03  0.32478344973E+03  0.50400000000E-02 0.  1.
    5000001    1    1    2    0    0 -0.14047705886E+03  0.13308732789E+03 -0.95378420263E+02  0.22906785886E+03  0.77000000000E+02 0.  0.
   -5000001    1    1    2    0    0  0.14047705886E+03 -0.13308732789E+03 -0.95854235296E+02  0.22926638510E+03  0.77000000000E+02 0.  0.
<mgrwt>
<rscale>  0 0.41653373E+03</rscale>
<asrwt>0</asrwt>
<pdfrwt beam="1">  1        1 0.49966684E-01 0.41653373E+03</pdfrwt>
<pdfrwt beam="2">  1       -1 0.20546276E-01 0.41653373E+03</pdfrwt>
<totfact> 0.15351485E+03</totfact>
</mgrwt>
</event>
<event>
 4    1  0.3147937E-004  0.2001355E+03  0.7818608E-02  0.1149625E+00
          1   -1    0    0  501    0  0.00000000000E+00  0.00000000000E+00  0.16059061584E+04  0.16059061584E+04  0.50400000000E-02 0. -1.
         -1   -1    0    0    0  501 -0.00000000000E+00 -0.00000000000E+00 -0.62354526338E+01  0.62354546706E+01  0.50400000000E-02 0.  1.
    5000001    1    1    2    0    0  0.24619891358E+00  0.55880918508E+02  0.10496541015E+04  0.10539570534E+04  0.77000000000E+02 0.  0.
   -5000001    1    1    2    0    0 -0.24619891358E+00 -0.55880918508E+02  0.55001660422E+03  0.55818455961E+03  0.77000000000E+02 0.  0.
<mgrwt>
<rscale>  0 0.20013549E+03</rscale>
<asrwt>0</asrwt>
<pdfrwt beam="1">  1        1 0.24706223E+00 0.20013549E+03</pdfrwt>
<pdfrwt beam="2">  1       -1 0.95930156E-03 0.20013549E+03</pdfrwt>
<totfact> 0.12036592E+04</totfact>
</mgrwt>
</event>
<event>
 4    1  0.3147937E-004  0.2380611E+03  0.7818608E-02  0.1121091E+00
         -1   -1    0    0    0  501 -0.00000000000E+00  0.00000000000E+00  0.16151523569E+02  0.16151524355E+02  0.50400000000E-02 0. -1.
          1   -1    0    0  501    0  0.00000000000E+00 -0.00000000000E+00 -0.87720967365E+03  0.87720967366E+03  0.50400000000E-02 0.  1.
    5000001    1    1    2    0    0  0.72365006953E+02  0.41697515002E+02 -0.56394089702E+03  0.57526838286E+03  0.77000000000E+02 0.  0.
   -5000001    1    1    2    0    0 -0.72365006953E+02 -0.41697515002E+02 -0.29711725306E+03  0.31809281516E+03  0.77000000000E+02 0.  0.
<mgrwt>
<rscale>  0 0.23806111E+03</rscale>
<asrwt>0</asrwt>
<pdfrwt beam="1">  1        1 0.13495530E+00 0.23806111E+03</pdfrwt>
<pdfrwt beam="2">  1       -1 0.24848505E-02 0.23806111E+03</pdfrwt>
<totfact> 0.98433573E+03</totfact>
</mgrwt>
</event>
<event>
 4    1  0.3147937E-004  0.3136000E+03  0.7818608E-02  0.1078633E+00
          1   -1    0    0  501    0  0.00000000000E+00  0.00000000000E+00  0.45593644315E+02  0.45593644594E+02  0.50400000000E-02 0.  1.
         -1   -1    0    0    0  501 -0.00000000000E+00 -0.00000000000E+00 -0.53924700844E+03  0.53924700847E+03  0.50400000000E-02 0. -1.
    5000001    1    1    2    0    0  0.22920486652E+02 -0.51287632324E+02 -0.14634323178E+02  0.96430977142E+02  0.77000000000E+02 0.  0.
   -5000001    1    1    2    0    0 -0.22920486652E+02  0.51287632324E+02 -0.47901904095E+03  0.48840967592E+03  0.77000000000E+02 0.  0.
<mgrwt>
<rscale>  0 0.31359998E+03</rscale>
<asrwt>0</asrwt>
<pdfrwt beam="1">  1        1 0.70144072E-02 0.31359998E+03</pdfrwt>
<pdfrwt beam="2">  1       -1 0.82961074E-01 0.31359998E+03</pdfrwt>
<totfact> 0.15772087E+03</totfact>
</mgrwt>
</event>
<event>
 4    1  0.3147937E-004  0.1786115E+03  0.7818608E-02  0.1169154E+00
          1   -1    0    0  501    0  0.00000000000E+00  0.00000000000E+00  0.11394073322E+04  0.11394073322E+04  0.50400000000E-02 0. -1.
         -1   -1    0    0    0  501 -0.00000000000E+00 -0.00000000000E+00 -0.69997087084E+01  0.69997105228E+01  0.50400000000E-02 0.  1.
    5000001    1    1    2    0    0 -0.29903935447E+02  0.33470201271E+02  0.52988387860E+03  0.53732711129E+03  0.77000000000E+02 0.  0.
   -5000001    1    1    2    0    0  0.29903935447E+02 -0.33470201271E+02  0.60252374491E+03  0.60907993147E+03  0.77000000000E+02 0.  0.
<mgrwt>
<rscale>  0 0.17861154E+03</rscale>
<asrwt>0</asrwt>
<pdfrwt beam="1">  1        1 0.17529334E+00 0.17861154E+03</pdfrwt>
<pdfrwt beam="2">  1       -1 0.10768790E-02 0.17861154E+03</pdfrwt>
<totfact> 0.20821885E+04</totfact>
</mgrwt>
</event>
<event>
 4    1  0.3147937E-004  0.2122052E+03  0.7818608E-02  0.1139832E+00
         -1   -1    0    0    0  501 -0.00000000000E+00  0.00000000000E+00  0.89172533286E+01  0.89172547529E+01  0.50400000000E-02 0. -1.
          1   -1    0    0  501    0  0.00000000000E+00 -0.00000000000E+00 -0.12624691651E+04  0.12624691651E+04  0.50400000000E-02 0.  1.
    5000001    1    1    2    0    0  0.56793701014E+02 -0.44158560584E+02 -0.55260576362E+03  0.56256344792E+03  0.77000000000E+02 0.  0.
   -5000001    1    1    2    0    0 -0.56793701014E+02  0.44158560584E+02 -0.70094614812E+03  0.70882297191E+03  0.77000000000E+02 0.  0.
<mgrwt>
<rscale>  0 0.21220517E+03</rscale>
<asrwt>0</asrwt>
<pdfrwt beam="1">  1        1 0.19422588E+00 0.21220517E+03</pdfrwt>
<pdfrwt beam="2">  1       -1 0.13718862E-02 0.21220517E+03</pdfrwt>
<totfact> 0.12182352E+04</totfact>
</mgrwt>
</event>
<event>
 4    1  0.3147937E-004  0.3105361E+03  0.7818608E-02  0.1080089E+00
         -1   -1    0    0    0  501 -0.00000000000E+00  0.00000000000E+00  0.82229531841E+01  0.82229547286E+01  0.50400000000E-02 0.  1.
          1   -1    0    0  501    0  0.00000000000E+00 -0.00000000000E+00 -0.29318130100E+04  0.29318130100E+04  0.50400000000E-02 0. -1.
    5000001    1    1    2    0    0  0.11672289519E+03 -0.57757342605E+02 -0.17923515542E+04  0.17987254484E+04  0.77000000000E+02 0.  0.
   -5000001    1    1    2    0    0 -0.11672289519E+03  0.57757342605E+02 -0.11312385026E+04  0.11413105163E+04  0.77000000000E+02 0.  0.
<mgrwt>
<rscale>  0 0.31053607E+03</rscale>
<asrwt>0</asrwt>
<pdfrwt beam="1">  1        1 0.45104732E+00 0.31053607E+03</pdfrwt>
<pdfrwt beam="2">  1       -1 0.12650722E-02 0.31053607E+03</pdfrwt>
<totfact> 0.10754744E+03</totfact>
</mgrwt>
</event>
<event>
 4    1  0.3147937E-004  0.3004386E+03  0.7818608E-02  0.1085022E+00
         -1   -1    0    0    0  501 -0.00000000000E+00  0.00000000000E+00  0.83670599699E+02  0.83670599851E+02  0.50400000000E-02 0.  1.
          1   -1    0    0  501    0  0.00000000000E+00 -0.00000000000E+00 -0.26969852204E+03  0.26969852208E+03  0.50400000000E-02 0. -1.
    5000001    1    1    2    0    0 -0.12540384711E+03  0.25627188948E+01 -0.57647480007E+02  0.15806620242E+03  0.77000000000E+02 0.  0.
   -5000001    1    1    2    0    0  0.12540384711E+03 -0.25627188948E+01 -0.12838044233E+03  0.19530291951E+03  0.77000000000E+02 0.  0.
<mgrwt>
<rscale>  0 0.30043859E+03</rscale>
<asrwt>0</asrwt>
<pdfrwt beam="1">  1        1 0.41492080E-01 0.30043859E+03</pdfrwt>
<pdfrwt beam="2">  1       -1 0.12872400E-01 0.30043859E+03</pdfrwt>
<totfact> 0.41035020E+03</totfact>
</mgrwt>
</event>
<event>
 4    1  0.3147937E-004  0.2694167E+03  0.7818608E-02  0.1101614E+00
         -1   -1    0    0    0  501 -0.00000000000E+00  0.00000000000E+00  0.54238514839E+02  0.54238515073E+02  0.50400000000E-02 0. -1.
          1   -1    0    0  501    0  0.00000000000E+00 -0.00000000000E+00 -0.33456545682E+03  0.33456545686E+03  0.50400000000E-02 0.  1.
    5000001    1    1    2    0    0  0.15761694203E+02  0.10923554866E+03 -0.13144505633E+03  0.18811602518E+03  0.77000000000E+02 0.  0.
   -5000001    1    1    2    0    0 -0.15761694203E+02 -0.10923554866E+03 -0.14888188565E+03  0.20068794675E+03  0.77000000000E+02 0.  0.
<mgrwt>
<rscale>  0 0.26941666E+03</rscale>
<asrwt>0</asrwt>
<pdfrwt beam="1">  1        1 0.51471608E-01 0.26941666E+03</pdfrwt>
<pdfrwt beam="2">  1       -1 0.83443871E-02 0.26941666E+03</pdfrwt>
<totfact> 0.61061200E+03</totfact>
</mgrwt>
</event>
<event>
 4    1  0.3147937E-004  0.3374311E+03  0.7818608E-02  0.1067895E+00
         -1   -1    0    0    0  501 -0.00000000000E+00  0.00000000000E+00  0.13747050322E+02  0.13747051246E+02  0.50400000000E-02 0. -1.
          1   -1    0    0  501    0  0.00000000000E+00 -0.00000000000E+00 -0.20706212097E+04  0.20706212097E+04  0.50400000000E-02 0.  1.
    5000001    1    1    2    0    0 -0.14831740533E+03 -0.14512519259E+02 -0.11401856027E+04  0.11524586216E+04  0.77000000000E+02 0.  0.
   -5000001    1    1    2    0    0  0.14831740533E+03  0.14512519259E+02 -0.91668855670E+03  0.93190963936E+03  0.77000000000E+02 0.  0.
<mgrwt>
<rscale>  0 0.33743109E+03</rscale>
<asrwt>0</asrwt>
<pdfrwt beam="1">  1        1 0.31855686E+00 0.33743109E+03</pdfrwt>
<pdfrwt beam="2">  1       -1 0.21149325E-02 0.33743109E+03</pdfrwt>
<totfact> 0.19106872E+03</totfact>
</mgrwt>
</event>
<event>
 4    1  0.3147937E-004  0.1863014E+03  0.7818608E-02  0.1161840E+00
         -1   -1    0    0    0  501 -0.00000000000E+00  0.00000000000E+00  0.11395635151E+02  0.11395636266E+02  0.50400000000E-02 0. -1.
          1   -1    0    0  501    0  0.00000000000E+00 -0.00000000000E+00 -0.76143676581E+03  0.76143676583E+03  0.50400000000E-02 0.  1.
    5000001    1    1    2    0    0  0.63390592068E+01  0.42349929553E+02 -0.50045787753E+03  0.50815429486E+03  0.77000000000E+02 0.  0.
   -5000001    1    1    2    0    0 -0.63390592068E+01 -0.42349929553E+02 -0.24958325312E+03  0.26467810723E+03  0.77000000000E+02 0.  0.
<mgrwt>
<rscale>  0 0.18630143E+03</rscale>
<asrwt>0</asrwt>
<pdfrwt beam="1">  1        1 0.11714408E+00 0.18630143E+03</pdfrwt>
<pdfrwt beam="2">  1       -1 0.17531753E-02 0.18630143E+03</pdfrwt>
<totfact> 0.20089225E+04</totfact>
</mgrwt>
</event>
<event>
 4    1  0.3147937E-004  0.3059165E+03  0.7818608E-02  0.1082320E+00
          1   -1    0    0  501    0  0.00000000000E+00  0.00000000000E+00  0.47071598279E+03  0.47071598281E+03  0.50400000000E-02 0.  1.
         -1   -1    0    0    0  501 -0.00000000000E+00 -0.00000000000E+00 -0.49703491506E+02  0.49703491762E+02  0.50400000000E-02 0. -1.
    5000001    1    1    2    0    0  0.48222651834E+02 -0.86278408015E+02  0.61249123076E+02  0.13946269364E+03  0.77000000000E+02 0.  0.
   -5000001    1    1    2    0    0 -0.48222651834E+02  0.86278408015E+02  0.35976336820E+03  0.38095678094E+03  0.77000000000E+02 0.  0.
<mgrwt>
<rscale>  0 0.30591651E+03</rscale>
<asrwt>0</asrwt>
<pdfrwt beam="1">  1        1 0.72417842E-01 0.30591651E+03</pdfrwt>
<pdfrwt beam="2">  1       -1 0.76466912E-02 0.30591651E+03</pdfrwt>
<totfact> 0.45138981E+03</totfact>
</mgrwt>
</event>
<event>
 4    1  0.3147937E-004  0.1759068E+03  0.7818608E-02  0.1171824E+00
         -1   -1    0    0    0  501 -0.00000000000E+00  0.00000000000E+00  0.20888941254E+02  0.20888941862E+02  0.50400000000E-02 0.  1.
          1   -1    0    0  501    0  0.00000000000E+00 -0.00000000000E+00 -0.37032984350E+03  0.37032984353E+03  0.50400000000E-02 0. -1.
    5000001    1    1    2    0    0  0.91216705673E+01 -0.38630318155E+02 -0.14089702898E+03  0.16539794173E+03  0.77000000000E+02 0.  0.
   -5000001    1    1    2    0    0 -0.91216705673E+01  0.38630318155E+02 -0.20854387327E+03  0.22582084367E+03  0.77000000000E+02 0.  0.
<mgrwt>
<rscale>  0 0.17590678E+03</rscale>
<asrwt>0</asrwt>
<pdfrwt beam="1">  1        1 0.56973817E-01 0.17590678E+03</pdfrwt>
<pdfrwt beam="2">  1       -1 0.32136836E-02 0.17590678E+03</pdfrwt>
<totfact> 0.21836289E+04</totfact>
</mgrwt>
</event>
<event>
 4    1  0.3147937E-004  0.1974341E+03  0.7818608E-02  0.1151922E+00
          1   -1    0    0  501    0  0.00000000000E+00  0.00000000000E+00  0.77519524822E+03  0.77519524823E+03  0.50400000000E-02 0. -1.
         -1   -1    0    0    0  501 -0.00000000000E+00 -0.00000000000E+00 -0.12571098064E+02  0.12571099075E+02  0.50400000000E-02 0.  1.
    5000001    1    1    2    0    0  0.39598108080E+02  0.45606203339E+02  0.32957702457E+03  0.34379928893E+03  0.77000000000E+02 0.  0.
   -5000001    1    1    2    0    0 -0.39598108080E+02 -0.45606203339E+02  0.43304712558E+03  0.44396705838E+03  0.77000000000E+02 0.  0.
<mgrwt>
<rscale>  0 0.19743410E+03</rscale>
<asrwt>0</asrwt>
<pdfrwt beam="1">  1        1 0.11926085E+00 0.19743410E+03</pdfrwt>
<pdfrwt beam="2">  1       -1 0.19340145E-02 0.19743410E+03</pdfrwt>
<totfact> 0.17026693E+04</totfact>
</mgrwt>
</event>
<event>
 4    1  0.3147937E-004  0.1882781E+03  0.7818608E-02  0.1160024E+00
          1   -1    0    0  501    0  0.00000000000E+00  0.00000000000E+00  0.43509946971E+03  0.43509946974E+03  0.50400000000E-02 0.  1.
         -1   -1    0    0    0  501 -0.00000000000E+00 -0.00000000000E+00 -0.20368130032E+02  0.20368130656E+02  0.50400000000E-02 0. -1.
    5000001    1    1    2    0    0  0.20115228429E+01 -0.52057927497E+02  0.24317264275E+03  0.26033825731E+03  0.77000000000E+02 0.  0.
   -5000001    1    1    2    0    0 -0.20115228429E+01  0.52057927497E+02  0.17155869693E+03  0.19512934308E+03  0.77000000000E+02 0.  0.
<mgrwt>
<rscale>  0 0.18827812E+03</rscale>
<asrwt>0</asrwt>
<pdfrwt beam="1">  1        1 0.66938382E-01 0.18827812E+03</pdfrwt>
<pdfrwt beam="2">  1       -1 0.31335584E-02 0.18827812E+03</pdfrwt>
<totfact> 0.18558578E+04</totfact>
</mgrwt>
</event>
<event>
 4    1  0.3147937E-004  0.4879638E+03  0.7818608E-02  0.1016969E+00
         -1   -1    0    0    0  501 -0.00000000000E+00  0.00000000000E+00  0.45462394093E+02  0.45462394372E+02  0.50400000000E-02 0. -1.
          1   -1    0    0  501    0  0.00000000000E+00 -0.00000000000E+00 -0.13093717886E+04  0.13093717886E+04  0.50400000000E-02 0.  1.
    5000001    1    1    2    0    0 -0.16858841372E+03 -0.15764427565E+03 -0.58194633141E+03  0.63076485597E+03  0.77000000000E+02 0.  0.
   -5000001    1    1    2    0    0  0.16858841372E+03  0.15764427565E+03 -0.68196306307E+03  0.72406932698E+03  0.77000000000E+02 0.  0.
<mgrwt>
<rscale>  0 0.48796384E+03</rscale>
<asrwt>0</asrwt>
<pdfrwt beam="1">  1        1 0.20144178E+00 0.48796384E+03</pdfrwt>
<pdfrwt beam="2">  1       -1 0.69942155E-02 0.48796384E+03</pdfrwt>
<totfact> 0.10078475E+03</totfact>
</mgrwt>
</event>
<event>
 4    1  0.3147937E-004  0.3210777E+03  0.7818608E-02  0.1075154E+00
         -1   -1    0    0    0  501 -0.00000000000E+00  0.00000000000E+00  0.50554597996E+02  0.50554598247E+02  0.50400000000E-02 0. -1.
          1   -1    0    0  501    0  0.00000000000E+00 -0.00000000000E+00 -0.50979980061E+03  0.50979980063E+03  0.50400000000E-02 0.  1.
    5000001    1    1    2    0    0  0.67292363136E+02  0.67910689073E+02 -0.49064255176E+02  0.13219843026E+03  0.77000000000E+02 0.  0.
   -5000001    1    1    2    0    0 -0.67292363136E+02 -0.67910689073E+02 -0.41018094744E+03  0.42815596862E+03  0.77000000000E+02 0.  0.
<mgrwt>
<rscale>  0 0.32107771E+03</rscale>
<asrwt>0</asrwt>
<pdfrwt beam="1">  1        1 0.78430735E-01 0.32107771E+03</pdfrwt>
<pdfrwt beam="2">  1       -1 0.77776308E-02 0.32107771E+03</pdfrwt>
<totfact> 0.39595271E+03</totfact>
</mgrwt>
</event>
<event>
 4    1  0.3147937E-004  0.1982635E+03  0.7818608E-02  0.1151212E+00
          1   -1    0    0  501    0  0.00000000000E+00  0.00000000000E+00  0.74528959833E+02  0.74528960004E+02  0.50400000000E-02 0. -1.
         -1   -1    0    0    0  501 -0.00000000000E+00 -0.00000000000E+00 -0.13185614689E+03  0.13185614699E+03  0.50400000000E-02 0.  1.
    5000001    1    1    2    0    0 -0.54851833559E+02 -0.29624312650E+02 -0.32236080417E+02  0.10418487618E+03  0.77000000000E+02 0.  0.
   -5000001    1    1    2    0    0  0.54851833559E+02  0.29624312650E+02 -0.25091106643E+02  0.10220023081E+03  0.77000000000E+02 0.  0.
<mgrwt>
<rscale>  0 0.19826348E+03</rscale>
<asrwt>0</asrwt>
<pdfrwt beam="1">  1        1 0.11465994E-01 0.19826348E+03</pdfrwt>
<pdfrwt beam="2">  1       -1 0.20285561E-01 0.19826348E+03</pdfrwt>
<totfact> 0.10169575E+04</totfact>
</mgrwt>
</event>
<event>
 4    1  0.3147937E-004  0.2308752E+03  0.7818608E-02  0.1126025E+00
          1   -1    0    0  501    0  0.00000000000E+00  0.00000000000E+00  0.50825705900E+03  0.50825705903E+03  0.50400000000E-02 0. -1.
         -1   -1    0    0    0  501 -0.00000000000E+00 -0.00000000000E+00 -0.26218691436E+02  0.26218691920E+02  0.50400000000E-02 0.  1.
    5000001    1    1    2    0    0 -0.71907237325E+02  0.36813634929E+02  0.17269962224E+03  0.20562114195E+03  0.77000000000E+02 0.  0.
   -5000001    1    1    2    0    0  0.71907237325E+02 -0.36813634929E+02  0.30933874533E+03  0.32885460900E+03  0.77000000000E+02 0.  0.
<mgrwt>
<rscale>  0 0.23087516E+03</rscale>
<asrwt>0</asrwt>
<pdfrwt beam="1">  1        1 0.78193395E-01 0.23087516E+03</pdfrwt>
<pdfrwt beam="2">  1       -1 0.40336448E-02 0.23087516E+03</pdfrwt>
<totfact> 0.10570473E+04</totfact>
</mgrwt>
</event>
<event>
 4    1  0.3147937E-004  0.1854298E+03  0.7818608E-02  0.1162649E+00
         -1   -1    0    0    0  501 -0.00000000000E+00  0.00000000000E+00  0.23286912306E+02  0.23286912851E+02  0.50400000000E-02 0. -1.
          1   -1    0    0  501    0  0.00000000000E+00 -0.00000000000E+00 -0.36913674261E+03  0.36913674265E+03  0.50400000000E-02 0.  1.
    5000001    1    1    2    0    0 -0.22989009529E+02  0.46227168162E+02 -0.17024011496E+03  0.19384566638E+03  0.77000000000E+02 0.  0.
   -5000001    1    1    2    0    0  0.22989009529E+02 -0.46227168162E+02 -0.17560971535E+03  0.19857798911E+03  0.77000000000E+02 0.  0.
<mgrwt>
<rscale>  0 0.18542983E+03</rscale>
<asrwt>0</asrwt>
<pdfrwt beam="1">  1        1 0.56790264E-01 0.18542983E+03</pdfrwt>
<pdfrwt beam="2">  1       -1 0.35826022E-02 0.18542983E+03</pdfrwt>
<totfact> 0.18767991E+04</totfact>
</mgrwt>
</event>
<event>
 4    1  0.3147937E-004  0.2245705E+03  0.7818608E-02  0.1130521E+00
          1   -1    0    0  501    0  0.00000000000E+00  0.00000000000E+00  0.20778552189E+04  0.20778552190E+04  0.50400000000E-02 0.  1.
         -1   -1    0    0    0  501 -0.00000000000E+00 -0.00000000000E+00 -0.60677855319E+01  0.60677876250E+01  0.50400000000E-02 0. -1.
    5000001    1    1    2    0    0 -0.61899964521E+02  0.12784294356E+02  0.55514831202E+03  0.56401568430E+03  0.77000000000E+02 0.  0.
   -5000001    1    1    2    0    0  0.61899964521E+02 -0.12784294356E+02  0.15166391214E+04  0.15199073223E+04  0.77000000000E+02 0.  0.
<mgrwt>
<rscale>  0 0.22457054E+03</rscale>
<asrwt>0</asrwt>
<pdfrwt beam="1">  1        1 0.31967002E+00 0.22457054E+03</pdfrwt>
<pdfrwt beam="2">  1       -1 0.93350567E-03 0.22457054E+03</pdfrwt>
<totfact> 0.62227883E+03</totfact>
</mgrwt>
</event>
<event>
 4    1  0.3147937E-004  0.1891141E+03  0.7818608E-02  0.1159263E+00
          1   -1    0    0  501    0  0.00000000000E+00  0.00000000000E+00  0.20170497145E+04  0.20170497145E+04  0.50400000000E-02 0. -1.
         -1   -1    0    0    0  501 -0.00000000000E+00 -0.00000000000E+00 -0.44327283630E+01  0.44327312283E+01  0.50400000000E-02 0.  1.
    5000001    1    1    2    0    0 -0.51654668146E+02  0.14694582269E+02  0.11271963935E+04  0.11310989545E+04  0.77000000000E+02 0.  0.
   -5000001    1    1    2    0    0  0.51654668146E+02 -0.14694582269E+02  0.88542059269E+03  0.89038349122E+03  0.77000000000E+02 0.  0.
<mgrwt>
<rscale>  0 0.18911411E+03</rscale>
<asrwt>0</asrwt>
<pdfrwt beam="1">  1        1 0.31031583E+00 0.18911411E+03</pdfrwt>
<pdfrwt beam="2">  1       -1 0.68195737E-03 0.18911411E+03</pdfrwt>
<totfact> 0.10642362E+04</totfact>
</mgrwt>
</event>
<event>
 4    1  0.3147937E-004  0.2200349E+03  0.7818608E-02  0.1133857E+00
         -1   -1    0    0    0  501 -0.00000000000E+00  0.00000000000E+00  0.16057298211E+02  0.16057299002E+02  0.50400000000E-02 0. -1.
          1   -1    0    0  501    0  0.00000000000E+00 -0.00000000000E+00 -0.75379036457E+03  0.75379036459E+03  0.50400000000E-02 0.  1.
    5000001    1    1    2    0    0  0.34778362934E+02  0.70450699866E+02 -0.36391688837E+03  0.38018066400E+03  0.77000000000E+02 0.  0.
   -5000001    1    1    2    0    0 -0.34778362934E+02 -0.70450699866E+02 -0.37381617799E+03  0.38966699958E+03  0.77000000000E+02 0.  0.
<mgrwt>
<rscale>  0 0.22003488E+03</rscale>
<asrwt>0</asrwt>
<pdfrwt beam="1">  1        1 0.11596772E+00 0.22003488E+03</pdfrwt>
<pdfrwt beam="2">  1       -1 0.24703542E-02 0.22003488E+03</pdfrwt>
<totfact> 0.12503523E+04</totfact>
</mgrwt>
</event>
<event>
 4    1  0.3147937E-004  0.2188728E+03  0.7818608E-02  0.1134726E+00
          1   -1    0    0  501    0  0.00000000000E+00  0.00000000000E+00  0.11714103716E+04  0.11714103716E+04  0.50400000000E-02 0. -1.
         -1   -1    0    0    0  501 -0.00000000000E+00 -0.00000000000E+00 -0.10223847253E+02  0.10223848495E+02  0.50400000000E-02 0.  1.
    5000001    1    1    2    0    0  0.75587210449E+02  0.88117143909E+01  0.49417167762E+03  0.50589101559E+03  0.77000000000E+02 0.  0.
   -5000001    1    1    2    0    0 -0.75587210449E+02 -0.88117143909E+01  0.66701484673E+03  0.67574320452E+03  0.77000000000E+02 0.  0.
<mgrwt>
<rscale>  0 0.21887276E+03</rscale>
<asrwt>0</asrwt>
<pdfrwt beam="1">  1        1 0.18021693E+00 0.21887276E+03</pdfrwt>
<pdfrwt beam="2">  1       -1 0.15729001E-02 0.21887276E+03</pdfrwt>
<totfact> 0.11569318E+04</totfact>
</mgrwt>
</event>
<event>
 4    1  0.3147937E-004  0.2437323E+03  0.7818608E-02  0.1117331E+00
          1   -1    0    0  501    0  0.00000000000E+00  0.00000000000E+00  0.11907397724E+04  0.11907397724E+04  0.50400000000E-02 0.  1.
         -1   -1    0    0    0  501 -0.00000000000E+00 -0.00000000000E+00 -0.12472375635E+02  0.12472376654E+02  0.50400000000E-02 0. -1.
    5000001    1    1    2    0    0  0.82695581339E+02  0.21954450474E+02  0.78670913851E+03  0.79508542037E+03  0.77000000000E+02 0.  0.
   -5000001    1    1    2    0    0 -0.82695581339E+02 -0.21954450474E+02  0.39155825828E+03  0.40812672872E+03  0.77000000000E+02 0.  0.
<mgrwt>
<rscale>  0 0.24373227E+03</rscale>
<asrwt>0</asrwt>
<pdfrwt beam="1">  1        1 0.18319073E+00 0.24373227E+03</pdfrwt>
<pdfrwt beam="2">  1       -1 0.19188271E-02 0.24373227E+03</pdfrwt>
<totfact> 0.84312564E+03</totfact>
</mgrwt>
</event>
<event>
 4    1  0.3147937E-004  0.4074348E+03  0.7818608E-02  0.1041235E+00
          1   -1    0    0  501    0  0.00000000000E+00  0.00000000000E+00  0.12508863560E+03  0.12508863570E+03  0.50400000000E-02 0.  1.
         -1   -1    0    0    0  501 -0.00000000000E+00 -0.00000000000E+00 -0.33177105632E+03  0.33177105636E+03  0.50400000000E-02 0. -1.
    5000001    1    1    2    0    0  0.14494844865E+03 -0.70383125883E+02 -0.21325193603E+03  0.27815324085E+03  0.77000000000E+02 0.  0.
   -5000001    1    1    2    0    0 -0.14494844865E+03  0.70383125883E+02  0.65695153075E+01  0.17870645121E+03  0.77000000000E+02 0.  0.
<mgrwt>
<rscale>  0 0.40743485E+03</rscale>
<asrwt>0</asrwt>
<pdfrwt beam="1">  1        1 0.19244406E-01 0.40743485E+03</pdfrwt>
<pdfrwt beam="2">  1       -1 0.51041701E-01 0.40743485E+03</pdfrwt>
<totfact> 0.10660755E+03</totfact>
</mgrwt>
</event>
<event>
 4    1  0.3147937E-004  0.1730797E+03  0.7818608E-02  0.1174674E+00
         -1   -1    0    0    0  501 -0.00000000000E+00  0.00000000000E+00  0.32677020566E+03  0.32677020570E+03  0.50400000000E-02 0.  1.
          1   -1    0    0  501    0  0.00000000000E+00 -0.00000000000E+00 -0.22918704375E+02  0.22918704929E+02  0.50400000000E-02 0. -1.
    5000001    1    1    2    0    0 -0.83422423186E+01 -0.27668772299E+02  0.97525190296E+02  0.12757474950E+03  0.77000000000E+02 0.  0.
   -5000001    1    1    2    0    0  0.83422423186E+01  0.27668772299E+02  0.20632631099E+03  0.22211416113E+03  0.77000000000E+02 0.  0.
<mgrwt>
<rscale>  0 0.17307975E+03</rscale>
<asrwt>0</asrwt>
<pdfrwt beam="1">  1        1 0.35259550E-02 0.17307975E+03</pdfrwt>
<pdfrwt beam="2">  1       -1 0.50272333E-01 0.17307975E+03</pdfrwt>
<totfact> 0.10604088E+04</totfact>
</mgrwt>
</event>
<event>
 4    1  0.3147937E-004  0.1683974E+03  0.7818608E-02  0.1179530E+00
          1   -1    0    0  501    0  0.00000000000E+00  0.00000000000E+00  0.17053239418E+03  0.17053239425E+03  0.50400000000E-02 0. -1.
         -1   -1    0    0    0  501 -0.00000000000E+00 -0.00000000000E+00 -0.41572272554E+02  0.41572272860E+02  0.50400000000E-02 0.  1.
    5000001    1    1    2    0    0  0.18658991847E+02 -0.27679045088E+02  0.55925167189E+02  0.10085093871E+03  0.77000000000E+02 0.  0.
   -5000001    1    1    2    0    0 -0.18658991847E+02  0.27679045088E+02  0.73034954433E+02  0.11125372840E+03  0.77000000000E+02 0.  0.
<mgrwt>
<rscale>  0 0.16839738E+03</rscale>
<asrwt>0</asrwt>
<pdfrwt beam="1">  1        1 0.26235753E-01 0.16839738E+03</pdfrwt>
<pdfrwt beam="2">  1       -1 0.63957342E-02 0.16839738E+03</pdfrwt>
<totfact> 0.20661045E+04</totfact>
</mgrwt>
</event>
<event>
 4    1  0.3147937E-004  0.2576157E+03  0.7818608E-02  0.1108584E+00
          1   -1    0    0  501    0  0.00000000000E+00  0.00000000000E+00  0.48936583474E+03  0.48936583476E+03  0.50400000000E-02 0.  1.
         -1   -1    0    0    0  501 -0.00000000000E+00 -0.00000000000E+00 -0.33903995993E+02  0.33903996368E+02  0.50400000000E-02 0. -1.
    5000001    1    1    2    0    0  0.81822821821E+02  0.31307170247E+02  0.11671223562E+03  0.16500260308E+03  0.77000000000E+02 0.  0.
   -5000001    1    1    2    0    0 -0.81822821821E+02 -0.31307170247E+02  0.33874960312E+03  0.35826722805E+03  0.77000000000E+02 0.  0.
<mgrwt>
<rscale>  0 0.25761566E+03</rscale>
<asrwt>0</asrwt>
<pdfrwt beam="1">  1        1 0.75287047E-01 0.25761566E+03</pdfrwt>
<pdfrwt beam="2">  1       -1 0.52159997E-02 0.25761566E+03</pdfrwt>
<totfact> 0.76113546E+03</totfact>
</mgrwt>
</event>
<event>
 4    1  0.3147937E-004  0.2890250E+03  0.7818608E-02  0.1090859E+00
         -1   -1    0    0    0  501 -0.00000000000E+00  0.00000000000E+00  0.17264579851E+03  0.17264579858E+03  0.50400000000E-02 0.  1.
          1   -1    0    0  501    0  0.00000000000E+00 -0.00000000000E+00 -0.12096363740E+03  0.12096363751E+03  0.50400000000E-02 0. -1.
    5000001    1    1    2    0    0  0.55518291640E+02  0.80950341410E+02 -0.48251566237E+02  0.13376267090E+03  0.77000000000E+02 0.  0.
   -5000001    1    1    2    0    0 -0.55518291640E+02 -0.80950341410E+02  0.99933727346E+02  0.15984676519E+03  0.77000000000E+02 0.  0.
<mgrwt>
<rscale>  0 0.28902501E+03</rscale>
<asrwt>0</asrwt>
<pdfrwt beam="1">  1        1 0.18609790E-01 0.28902501E+03</pdfrwt>
<pdfrwt beam="2">  1       -1 0.26560892E-01 0.28902501E+03</pdfrwt>
<totfact> 0.35158268E+03</totfact>
</mgrwt>
</event>
<event>
 4    1  0.3147937E-004  0.2438871E+03  0.7818608E-02  0.1117230E+00
          1   -1    0    0  501    0  0.00000000000E+00  0.00000000000E+00  0.47318923288E+02  0.47318923556E+02  0.50400000000E-02 0.  1.
         -1   -1    0    0    0  501 -0.00000000000E+00 -0.00000000000E+00 -0.31425538905E+03  0.31425538909E+03  0.50400000000E-02 0. -1.
    5000001    1    1    2    0    0  0.89194871583E+02 -0.22809355391E+02 -0.16544576316E+03  0.20439494210E+03  0.77000000000E+02 0.  0.
   -5000001    1    1    2    0    0 -0.89194871583E+02  0.22809355391E+02 -0.10149070261E+03  0.15717937055E+03  0.77000000000E+02 0.  0.
<mgrwt>
<rscale>  0 0.24388708E+03</rscale>
<asrwt>0</asrwt>
<pdfrwt beam="1">  1        1 0.72798346E-02 0.24388708E+03</pdfrwt>
<pdfrwt beam="2">  1       -1 0.48346982E-01 0.24388708E+03</pdfrwt>
<totfact> 0.42827563E+03</totfact>
</mgrwt>
</event>
<event>
 4    1  0.3147937E-004  0.2189799E+03  0.7818608E-02  0.1134646E+00
         -1   -1    0    0    0  501 -0.00000000000E+00  0.00000000000E+00  0.17425603892E+02  0.17425604620E+02  0.50400000000E-02 0. -1.
          1   -1    0    0  501    0  0.00000000000E+00 -0.00000000000E+00 -0.68795587317E+03  0.68795587319E+03  0.50400000000E-02 0.  1.
    5000001    1    1    2    0    0  0.55846805957E+02  0.53712831412E+02 -0.35917879848E+03  0.37542288592E+03  0.77000000000E+02 0.  0.
   -5000001    1    1    2    0    0 -0.55846805957E+02 -0.53712831412E+02 -0.31135147080E+03  0.32995859189E+03  0.77000000000E+02 0.  0.
<mgrwt>
<rscale>  0 0.21897988E+03</rscale>
<asrwt>0</asrwt>
<pdfrwt beam="1">  1        1 0.10583934E+00 0.21897988E+03</pdfrwt>
<pdfrwt beam="2">  1       -1 0.26808627E-02 0.21897988E+03</pdfrwt>
<totfact> 0.12679923E+04</totfact>
</mgrwt>
</event>
<event>
 4    1  0.3147937E-004  0.1778842E+03  0.7818608E-02  0.1169867E+00
          1   -1    0    0  501    0  0.00000000000E+00  0.00000000000E+00  0.16642413224E+04  0.16642413224E+04  0.50400000000E-02 0. -1.
         -1   -1    0    0    0  501 -0.00000000000E+00 -0.00000000000E+00 -0.47533313624E+01  0.47533340344E+01  0.50400000000E-02 0.  1.
    5000001    1    1    2    0    0  0.90186608782E+01  0.33211081227E+02  0.56480217771E+03  0.57106463041E+03  0.77000000000E+02 0.  0.
   -5000001    1    1    2    0    0 -0.90186608782E+01 -0.33211081227E+02  0.10946858133E+04  0.10979300260E+04  0.77000000000E+02 0.  0.
<mgrwt>
<rscale>  0 0.17788415E+03</rscale>
<asrwt>0</asrwt>
<pdfrwt beam="1">  1        1 0.25603708E+00 0.17788415E+03</pdfrwt>
<pdfrwt beam="2">  1       -1 0.73128210E-03 0.17788415E+03</pdfrwt>
<totfact> 0.16193467E+04</totfact>
</mgrwt>
</event>
<event>
 4    1  0.3147937E-004  0.2164357E+03  0.7818608E-02  0.1136569E+00
         -1   -1    0    0    0  501 -0.00000000000E+00  0.00000000000E+00  0.32466401656E+02  0.32466402047E+02  0.50400000000E-02 0.  1.
          1   -1    0    0  501    0  0.00000000000E+00 -0.00000000000E+00 -0.36071455093E+03  0.36071455097E+03  0.50400000000E-02 0. -1.
    5000001    1    1    2    0    0  0.38537939363E+02 -0.48477453202E+02 -0.83968866920E+02  0.12967269123E+03  0.77000000000E+02 0.  0.
   -5000001    1    1    2    0    0 -0.38537939363E+02  0.48477453202E+02 -0.24427928236E+03  0.26350826178E+03  0.77000000000E+02 0.  0.
<mgrwt>
<rscale>  0 0.21643570E+03</rscale>
<asrwt>0</asrwt>
<pdfrwt beam="1">  1        1 0.55494544E-01 0.21643570E+03</pdfrwt>
<pdfrwt beam="2">  1       -1 0.49948313E-02 0.21643570E+03</pdfrwt>
<totfact> 0.11931200E+04</totfact>
</mgrwt>
</event>
<event>
 4    1  0.3147937E-004  0.2138589E+03  0.7818608E-02  0.1138546E+00
          1   -1    0    0  501    0  0.00000000000E+00  0.00000000000E+00  0.57978001633E+03  0.57978001635E+03  0.50400000000E-02 0.  1.
         -1   -1    0    0    0  501 -0.00000000000E+00 -0.00000000000E+00 -0.19721104697E+02  0.19721105341E+02  0.50400000000E-02 0. -1.
    5000001    1    1    2    0    0 -0.48907155593E+02 -0.55509464687E+02  0.26424832831E+03  0.28500770086E+03  0.77000000000E+02 0.  0.
   -5000001    1    1    2    0    0  0.48907155593E+02  0.55509464687E+02  0.29581058332E+03  0.31449342083E+03  0.77000000000E+02 0.  0.
<mgrwt>
<rscale>  0 0.21385886E+03</rscale>
<asrwt>0</asrwt>
<pdfrwt beam="1">  1        1 0.89196912E-01 0.21385886E+03</pdfrwt>
<pdfrwt beam="2">  1       -1 0.30340166E-02 0.21385886E+03</pdfrwt>
<totfact> 0.13424374E+04</totfact>
</mgrwt>
</event>
<event>
 4    1  0.3147937E-004  0.4975646E+03  0.7818608E-02  0.1014417E+00
         -1   -1    0    0    0  501 -0.00000000000E+00  0.00000000000E+00  0.13246661265E+04  0.13246661265E+04  0.50400000000E-02 0.  1.
          1   -1    0    0  501    0  0.00000000000E+00 -0.00000000000E+00 -0.46723194918E+02  0.46723195190E+02  0.50400000000E-02 0. -1.
    5000001    1    1    2    0    0  0.22984120656E+03 -0.39113739723E+02  0.52849036278E+03  0.58274173390E+03  0.77000000000E+02 0.  0.
   -5000001    1    1    2    0    0 -0.22984120656E+03  0.39113739723E+02  0.74945256875E+03  0.78864758776E+03  0.77000000000E+02 0.  0.
<mgrwt>
<rscale>  0 0.49756460E+03</rscale>
<asrwt>0</asrwt>
<pdfrwt beam="1">  1        1 0.71881834E-02 0.49756460E+03</pdfrwt>
<pdfrwt beam="2">  1       -1 0.20379480E+00 0.49756460E+03</pdfrwt>
<totfact> 0.15615631E+02</totfact>
</mgrwt>
</event>
<event>
 4    1  0.3147937E-004  0.1744302E+03  0.7818608E-02  0.1173305E+00
          1   -1    0    0  501    0  0.00000000000E+00  0.00000000000E+00  0.49282227688E+01  0.49282253460E+01  0.50400000000E-02 0. -1.
         -1   -1    0    0    0  501 -0.00000000000E+00 -0.00000000000E+00 -0.15434512309E+04  0.15434512309E+04  0.50400000000E-02 0.  1.
    5000001    1    1    2    0    0 -0.71698485729E+01 -0.23767122290E+02 -0.48009203472E+03  0.48686101161E+03  0.77000000000E+02 0.  0.
   -5000001    1    1    2    0    0  0.71698485729E+01  0.23767122290E+02 -0.10584309734E+04  0.10615184447E+04  0.77000000000E+02 0.  0.
<mgrwt>
<rscale>  0 0.17443020E+03</rscale>
<asrwt>0</asrwt>
<pdfrwt beam="1">  1        1 0.75818955E-03 0.17443020E+03</pdfrwt>
<pdfrwt beam="2">  1       -1 0.23745365E+00 0.17443020E+03</pdfrwt>
<totfact> 0.22477814E+03</totfact>
</mgrwt>
</event>
<event>
 4    1  0.3147937E-004  0.3658435E+03  0.7818608E-02  0.1056294E+00
          1   -1    0    0  501    0  0.00000000000E+00  0.00000000000E+00  0.12514612092E+04  0.12514612092E+04  0.50400000000E-02 0.  1.
         -1   -1    0    0    0  501 -0.00000000000E+00 -0.00000000000E+00 -0.26737041135E+02  0.26737041610E+02  0.50400000000E-02 0. -1.
    5000001    1    1    2    0    0  0.20904751896E+02 -0.11139991640E+03  0.10357429757E+04  0.10447676593E+04  0.77000000000E+02 0.  0.
   -5000001    1    1    2    0    0 -0.20904751896E+02  0.11139991640E+03  0.18898119232E+03  0.23343059156E+03  0.77000000000E+02 0.  0.
<mgrwt>
<rscale>  0 0.36584352E+03</rscale>
<asrwt>0</asrwt>
<pdfrwt beam="1">  1        1 0.19253258E+00 0.36584352E+03</pdfrwt>
<pdfrwt beam="2">  1       -1 0.41133891E-02 0.36584352E+03</pdfrwt>
<totfact> 0.24890816E+03</totfact>
</mgrwt>
</event>
<event>
 4    1  0.3147937E-004  0.1876649E+03  0.7818608E-02  0.1160584E+00
          1   -1    0    0  501    0  0.00000000000E+00  0.00000000000E+00  0.15940411210E+03  0.15940411218E+03  0.50400000000E-02 0. -1.
         -1   -1    0    0    0  501 -0.00000000000E+00 -0.00000000000E+00 -0.55234018752E+02  0.55234018982E+02  0.50400000000E-02 0.  1.
    5000001    1    1    2    0    0 -0.52978488172E+02  0.38031905860E+01  0.60516544364E+02  0.11141111529E+03  0.77000000000E+02 0.  0.
   -5000001    1    1    2    0    0  0.52978488172E+02 -0.38031905860E+01  0.43653548985E+02  0.10322701588E+03  0.77000000000E+02 0.  0.
<mgrwt>
<rscale>  0 0.18766491E+03</rscale>
<asrwt>0</asrwt>
<pdfrwt beam="1">  1        1 0.24523709E-01 0.18766491E+03</pdfrwt>
<pdfrwt beam="2">  1       -1 0.84975415E-02 0.18766491E+03</pdfrwt>
<totfact> 0.14774585E+04</totfact>
</mgrwt>
</event>
<event>
 4    1  0.3147937E-004  0.2312856E+03  0.7818608E-02  0.1125738E+00
          1   -1    0    0  501    0  0.00000000000E+00  0.00000000000E+00  0.12975297387E+04  0.12975297387E+04  0.50400000000E-02 0.  1.
         -1   -1    0    0    0  501 -0.00000000000E+00 -0.00000000000E+00 -0.10306703590E+02  0.10306704822E+02  0.50400000000E-02 0. -1.
    5000001    1    1    2    0    0 -0.69244437489E+02  0.22253164017E+02  0.38115708555E+03  0.39560045412E+03  0.77000000000E+02 0.  0.
   -5000001    1    1    2    0    0  0.69244437489E+02 -0.22253164017E+02  0.90606594955E+03  0.91223598940E+03  0.77000000000E+02 0.  0.
<mgrwt>
<rscale>  0 0.23128558E+03</rscale>
<asrwt>0</asrwt>
<pdfrwt beam="1">  1        1 0.19961981E+00 0.23128558E+03</pdfrwt>
<pdfrwt beam="2">  1       -1 0.15856480E-02 0.23128558E+03</pdfrwt>
<totfact> 0.93772401E+03</totfact>
</mgrwt>
</event>
<event>
 4    1  0.3147937E-004  0.2284858E+03  0.7818608E-02  0.1127710E+00
          1   -1    0    0  501    0  0.00000000000E+00  0.00000000000E+00  0.43471302004E+03  0.43471302007E+03  0.50400000000E-02 0.  1.
         -1   -1    0    0    0  501 -0.00000000000E+00 -0.00000000000E+00 -0.30023119482E+02  0.30023119905E+02  0.50400000000E-02 0. -1.
    5000001    1    1    2    0    0 -0.14930426890E+02 -0.47510093728E+02  0.34092939700E+03  0.35304671134E+03  0.77000000000E+02 0.  0.
   -5000001    1    1    2    0    0  0.14930426890E+02  0.47510093728E+02  0.63760503557E+02  0.11168942863E+03  0.77000000000E+02 0.  0.
<mgrwt>
<rscale>  0 0.22848581E+03</rscale>
<asrwt>0</asrwt>
<pdfrwt beam="1">  1        1 0.66878922E-01 0.22848581E+03</pdfrwt>
<pdfrwt beam="2">  1       -1 0.46189418E-02 0.22848581E+03</pdfrwt>
<totfact> 0.10597748E+04</totfact>
</mgrwt>
</event>
<event>
 4    1  0.3147937E-004  0.5004553E+03  0.7818608E-02  0.1013660E+00
         -1   -1    0    0    0  501 -0.00000000000E+00  0.00000000000E+00  0.21110540537E+02  0.21110541138E+02  0.50400000000E-02 0.  1.
          1   -1    0    0  501    0  0.00000000000E+00 -0.00000000000E+00 -0.29660008296E+04  0.29660008296E+04  0.50400000000E-02 0. -1.
    5000001    1    1    2    0    0 -0.16593028912E+02 -0.19014671310E+03 -0.62299253413E+03  0.65610959351E+03  0.77000000000E+02 0.  0.
   -5000001    1    1    2    0    0  0.16593028912E+02  0.19014671310E+03 -0.23218977549E+04  0.23310017772E+04  0.77000000000E+02 0.  0.
<mgrwt>
<rscale>  0 0.50045532E+03</rscale>
<asrwt>0</asrwt>
<pdfrwt beam="1">  1        1 0.45630749E+00 0.50045532E+03</pdfrwt>
<pdfrwt beam="2">  1       -1 0.32477779E-02 0.50045532E+03</pdfrwt>
<totfact> 0.24632597E+02</totfact>
</mgrwt>
</event>
<event>
 4    1  0.3147937E-004  0.2091445E+03  0.7818608E-02  0.1142245E+00
          1   -1    0    0  501    0  0.00000000000E+00  0.00000000000E+00  0.16292650396E+04  0.16292650396E+04  0.50400000000E-02 0.  1.
         -1   -1    0    0    0  501 -0.00000000000E+00 -0.00000000000E+00 -0.67118303161E+01  0.67118322084E+01  0.50400000000E-02 0. -1.
    5000001    1    1    2    0    0 -0.60029407839E+02  0.36836531373E+02  0.75828584147E+03  0.76543247724E+03  0.77000000000E+02 0.  0.
   -5000001    1    1    2    0    0  0.60029407839E+02 -0.36836531373E+02  0.86426736778E+03  0.87054439453E+03  0.77000000000E+02 0.  0.
<mgrwt>
<rscale>  0 0.20914447E+03</rscale>
<asrwt>0</asrwt>
<pdfrwt beam="1">  1        1 0.25065596E+00 0.20914447E+03</pdfrwt>
<pdfrwt beam="2">  1       -1 0.10325902E-02 0.20914447E+03</pdfrwt>
<totfact> 0.10471892E+04</totfact>
</mgrwt>
</event>
<event>
 4    1  0.3147937E-004  0.3181909E+03  0.7818608E-02  0.1076485E+00
          1   -1    0    0  501    0  0.00000000000E+00  0.00000000000E+00  0.11092918874E+04  0.11092918874E+04  0.50400000000E-02 0.  1.
         -1   -1    0    0    0  501 -0.00000000000E+00 -0.00000000000E+00 -0.22817591481E+02  0.22817592037E+02  0.50400000000E-02 0. -1.
    5000001    1    1    2    0    0  0.71794841375E+02 -0.64265030919E+02  0.90076973083E+03  0.90917523142E+03  0.77000000000E+02 0.  0.
   -5000001    1    1    2    0    0 -0.71794841375E+02  0.64265030919E+02  0.18570456506E+03  0.22293424800E+03  0.77000000000E+02 0.  0.
<mgrwt>
<rscale>  0 0.31819095E+03</rscale>
<asrwt>0</asrwt>
<pdfrwt beam="1">  1        1 0.17066034E+00 0.31819095E+03</pdfrwt>
<pdfrwt beam="2">  1       -1 0.35103978E-02 0.31819095E+03</pdfrwt>
<totfact> 0.39779414E+03</totfact>
</mgrwt>
</event>
<event>
 4    1  0.3147937E-004  0.1979296E+03  0.7818608E-02  0.1151498E+00
         -1   -1    0    0    0  501 -0.00000000000E+00  0.00000000000E+00  0.43577195509E+03  0.43577195512E+03  0.50400000000E-02 0. -1.
          1   -1    0    0  501    0  0.00000000000E+00 -0.00000000000E+00 -0.22475129261E+02  0.22475129826E+02  0.50400000000E-02 0.  1.
    5000001    1    1    2    0    0  0.43292135803E+02  0.42229327436E+02  0.17329775982E+03  0.19904431335E+03  0.77000000000E+02 0.  0.
   -5000001    1    1    2    0    0 -0.43292135803E+02 -0.42229327436E+02  0.23999906601E+03  0.25920277160E+03  0.77000000000E+02 0.  0.
<mgrwt>
<rscale>  0 0.19792960E+03</rscale>
<asrwt>0</asrwt>
<pdfrwt beam="1">  1        1 0.34577124E-02 0.19792960E+03</pdfrwt>
<pdfrwt beam="2">  1       -1 0.67041836E-01 0.19792960E+03</pdfrwt>
<totfact> 0.63688628E+03</totfact>
</mgrwt>
</event>
<event>
 4    1  0.3147937E-004  0.2001465E+03  0.7818608E-02  0.1149615E+00
         -1   -1    0    0    0  501 -0.00000000000E+00  0.00000000000E+00  0.21114272471E+02  0.21114273073E+02  0.50400000000E-02 0. -1.
          1   -1    0    0  501    0  0.00000000000E+00 -0.00000000000E+00 -0.47430759387E+03  0.47430759389E+03  0.50400000000E-02 0.  1.
    5000001    1    1    2    0    0  0.36768176342E+02  0.22868675534E+02 -0.11021077678E+03  0.14124549703E+03  0.77000000000E+02 0.  0.
   -5000001    1    1    2    0    0 -0.36768176342E+02 -0.22868675534E+02 -0.34298254461E+03  0.35417636994E+03  0.77000000000E+02 0.  0.
<mgrwt>
<rscale>  0 0.20014655E+03</rscale>
<asrwt>0</asrwt>
<pdfrwt beam="1">  1        1 0.72970391E-01 0.20014655E+03</pdfrwt>
<pdfrwt beam="2">  1       -1 0.32483500E-02 0.20014655E+03</pdfrwt>
<totfact> 0.15808917E+04</totfact>
</mgrwt>
</event>
<event>
 4    1  0.3147937E-004  0.2542026E+03  0.7818608E-02  0.1110677E+00
         -1   -1    0    0    0  501 -0.00000000000E+00  0.00000000000E+00  0.46588516863E+02  0.46588517136E+02  0.50400000000E-02 0. -1.
          1   -1    0    0  501    0  0.00000000000E+00 -0.00000000000E+00 -0.34675375689E+03  0.34675375693E+03  0.50400000000E-02 0.  1.
    5000001    1    1    2    0    0  0.93782292128E+02  0.19720255081E+02 -0.20002503573E+03  0.23478292462E+03  0.77000000000E+02 0.  0.
   -5000001    1    1    2    0    0 -0.93782292128E+02 -0.19720255081E+02 -0.10014020430E+03  0.15855934944E+03  0.77000000000E+02 0.  0.
<mgrwt>
<rscale>  0 0.25420262E+03</rscale>
<asrwt>0</asrwt>
<pdfrwt beam="1">  1        1 0.53346730E-01 0.25420262E+03</pdfrwt>
<pdfrwt beam="2">  1       -1 0.71674644E-02 0.25420262E+03</pdfrwt>
<totfact> 0.73417261E+03</totfact>
</mgrwt>
</event>
<event>
 4    1  0.3147937E-004  0.1937858E+03  0.7818608E-02  0.1155090E+00
         -1   -1    0    0    0  501 -0.00000000000E+00  0.00000000000E+00  0.21773197170E+02  0.21773197754E+02  0.50400000000E-02 0. -1.
          1   -1    0    0  501    0  0.00000000000E+00 -0.00000000000E+00 -0.43118305073E+03  0.43118305076E+03  0.50400000000E-02 0.  1.
    5000001    1    1    2    0    0 -0.36556653257E+02  0.45857208174E+02 -0.19426184914E+03  0.21703902522E+03  0.77000000000E+02 0.  0.
   -5000001    1    1    2    0    0  0.36556653257E+02 -0.45857208174E+02 -0.21514800442E+03  0.23591722329E+03  0.77000000000E+02 0.  0.
<mgrwt>
<rscale>  0 0.19378580E+03</rscale>
<asrwt>0</asrwt>
<pdfrwt beam="1">  1        1 0.66335848E-01 0.19378580E+03</pdfrwt>
<pdfrwt beam="2">  1       -1 0.33497230E-02 0.19378580E+03</pdfrwt>
<totfact> 0.17058531E+04</totfact>
</mgrwt>
</event>
<event>
 4    1  0.3147937E-004  0.3473917E+03  0.7818608E-02  0.1063691E+00
         -1   -1    0    0    0  501 -0.00000000000E+00  0.00000000000E+00  0.65603349364E+02  0.65603349558E+02  0.50400000000E-02 0. -1.
          1   -1    0    0  501    0  0.00000000000E+00 -0.00000000000E+00 -0.45988885983E+03  0.45988885986E+03  0.50400000000E-02 0.  1.
    5000001    1    1    2    0    0 -0.41918066565E+02 -0.13278934488E+03 -0.30250078189E+03  0.34179797756E+03  0.77000000000E+02 0.  0.
   -5000001    1    1    2    0    0  0.41918066565E+02  0.13278934488E+03 -0.91784728579E+02  0.18369423186E+03  0.77000000000E+02 0.  0.
<mgrwt>
<rscale>  0 0.34739171E+03</rscale>
<asrwt>0</asrwt>
<pdfrwt beam="1">  1        1 0.70752130E-01 0.34739171E+03</pdfrwt>
<pdfrwt beam="2">  1       -1 0.10092823E-01 0.34739171E+03</pdfrwt>
<totfact> 0.30412100E+03</totfact>
</mgrwt>
</event>
<event>
 4    1  0.3147937E-004  0.4013302E+03  0.7818608E-02  0.1043320E+00
         -1   -1    0    0    0  501 -0.00000000000E+00  0.00000000000E+00  0.90197694046E+01  0.90197708127E+01  0.50400000000E-02 0. -1.
          1   -1    0    0  501    0  0.00000000000E+00 -0.00000000000E+00 -0.44642462529E+04  0.44642462529E+04  0.50400000000E-02 0.  1.
    5000001    1    1    2    0    0 -0.12179006808E+03  0.12826984319E+03 -0.28433282270E+04  0.28498649757E+04  0.77000000000E+02 0.  0.
   -5000001    1    1    2    0    0  0.12179006808E+03 -0.12826984319E+03 -0.16118982565E+04  0.16234010480E+04  0.77000000000E+02 0.  0.
<mgrwt>
<rscale>  0 0.40133016E+03</rscale>
<asrwt>0</asrwt>
<pdfrwt beam="1">  1        1 0.68680535E+00 0.40133016E+03</pdfrwt>
<pdfrwt beam="2">  1       -1 0.13876605E-02 0.40133016E+03</pdfrwt>
<totfact> 0.53770329E+01</totfact>
</mgrwt>
</event>
<event>
 4    1  0.3147937E-004  0.2055617E+03  0.7818608E-02  0.1145130E+00
         -1   -1    0    0    0  501 -0.00000000000E+00  0.00000000000E+00  0.11117718275E+03  0.11117718287E+03  0.50400000000E-02 0.  1.
          1   -1    0    0  501    0  0.00000000000E+00 -0.00000000000E+00 -0.95018641220E+02  0.95018641353E+02  0.50400000000E-02 0. -1.
    5000001    1    1    2    0    0 -0.20733030498E+02  0.57804462946E+02 -0.21399995479E+02  0.10078776859E+03  0.77000000000E+02 0.  0.
   -5000001    1    1    2    0    0  0.20733030498E+02 -0.57804462946E+02  0.37558537012E+02  0.10540805563E+03  0.77000000000E+02 0.  0.
<mgrwt>
<rscale>  0 0.20556172E+03</rscale>
<asrwt>0</asrwt>
<pdfrwt beam="1">  1        1 0.14618252E-01 0.20556172E+03</pdfrwt>
<pdfrwt beam="2">  1       -1 0.17104182E-01 0.20556172E+03</pdfrwt>
<totfact> 0.97375445E+03</totfact>
</mgrwt>
</event>
<event>
 4    1  0.3147937E-004  0.2205547E+03  0.7818608E-02  0.1133470E+00
          1   -1    0    0  501    0  0.00000000000E+00  0.00000000000E+00  0.13445434614E+04  0.13445434614E+04  0.50400000000E-02 0. -1.
         -1   -1    0    0    0  501 -0.00000000000E+00 -0.00000000000E+00 -0.90447782690E+01  0.90447796732E+01  0.50400000000E-02 0.  1.
    5000001    1    1    2    0    0  0.40888560509E+02 -0.74903998248E+01  0.25586521647E+03  0.27041447719E+03  0.77000000000E+02 0.  0.
   -5000001    1    1    2    0    0 -0.40888560509E+02  0.74903998248E+01  0.10796334666E+04  0.10831737639E+04  0.77000000000E+02 0.  0.
<mgrwt>
<rscale>  0 0.22055474E+03</rscale>
<asrwt>0</asrwt>
<pdfrwt beam="1">  1        1 0.20685290E+00 0.22055474E+03</pdfrwt>
<pdfrwt beam="2">  1       -1 0.13915040E-02 0.22055474E+03</pdfrwt>
<totfact> 0.10513935E+04</totfact>
</mgrwt>
</event>
<event>
 4    1  0.3147937E-004  0.4323052E+03  0.7818608E-02  0.1033134E+00
          1   -1    0    0  501    0  0.00000000000E+00  0.00000000000E+00  0.18138534553E+03  0.18138534560E+03  0.50400000000E-02 0. -1.
         -1   -1    0    0    0  501 -0.00000000000E+00 -0.00000000000E+00 -0.25758394835E+03  0.25758394840E+03  0.50400000000E-02 0.  1.
    5000001    1    1    2    0    0  0.91114921318E+02 -0.66134191780E+01  0.14480876022E+03  0.18773450199E+03  0.77000000000E+02 0.  0.
   -5000001    1    1    2    0    0 -0.91114921318E+02  0.66134191780E+01 -0.22100736304E+03  0.25123479201E+03  0.77000000000E+02 0.  0.
<mgrwt>
<rscale>  0 0.43230523E+03</rscale>
<asrwt>0</asrwt>
<pdfrwt beam="1">  1        1 0.27905438E-01 0.43230523E+03</pdfrwt>
<pdfrwt beam="2">  1       -1 0.39628300E-01 0.43230523E+03</pdfrwt>
<totfact> 0.10477191E+03</totfact>
</mgrwt>
</event>
<event>
 4    1  0.3147937E-004  0.2346038E+03  0.7818608E-02  0.1123441E+00
         -1   -1    0    0    0  501 -0.00000000000E+00  0.00000000000E+00  0.38108182072E+03  0.38108182076E+03  0.50400000000E-02 0. -1.
          1   -1    0    0  501    0  0.00000000000E+00 -0.00000000000E+00 -0.36107024924E+02  0.36107025275E+02  0.50400000000E-02 0.  1.
    5000001    1    1    2    0    0  0.61071090100E+02  0.44913151895E+02  0.25366424158E+03  0.27571981560E+03  0.77000000000E+02 0.  0.
   -5000001    1    1    2    0    0 -0.61071090100E+02 -0.44913151895E+02  0.91310554222E+02  0.14146903043E+03  0.77000000000E+02 0.  0.
<mgrwt>
<rscale>  0 0.23460376E+03</rscale>
<asrwt>0</asrwt>
<pdfrwt beam="1">  1        1 0.55549268E-02 0.23460376E+03</pdfrwt>
<pdfrwt beam="2">  1       -1 0.58627974E-01 0.23460376E+03</pdfrwt>
<totfact> 0.43196008E+03</totfact>
</mgrwt>
</event>
<event>
 4    1  0.3147937E-004  0.1995153E+03  0.7818608E-02  0.1150149E+00
         -1   -1    0    0    0  501 -0.00000000000E+00  0.00000000000E+00  0.10249125171E+03  0.10249125184E+03  0.50400000000E-02 0.  1.
          1   -1    0    0  501    0  0.00000000000E+00 -0.00000000000E+00 -0.97096930707E+02  0.97096930838E+02  0.50400000000E-02 0. -1.
    5000001    1    1    2    0    0  0.44854544483E+01 -0.62925559686E+02  0.92448276151E+01  0.99971056816E+02  0.77000000000E+02 0.  0.
   -5000001    1    1    2    0    0 -0.44854544483E+01  0.62925559686E+02 -0.38505066082E+01  0.99617125859E+02  0.77000000000E+02 0.  0.
<mgrwt>
<rscale>  0 0.19951527E+03</rscale>
<asrwt>0</asrwt>
<pdfrwt beam="1">  1        1 0.14937989E-01 0.19951527E+03</pdfrwt>
<pdfrwt beam="2">  1       -1 0.15767885E-01 0.19951527E+03</pdfrwt>
<totfact> 0.10752892E+04</totfact>
</mgrwt>
</event>
<event>
 4    1  0.3147937E-004  0.3240646E+03  0.7818608E-02  0.1073794E+00
          1   -1    0    0  501    0  0.00000000000E+00  0.00000000000E+00  0.14479446053E+03  0.14479446062E+03  0.50400000000E-02 0. -1.
         -1   -1    0    0    0  501 -0.00000000000E+00 -0.00000000000E+00 -0.18132227935E+03  0.18132227942E+03  0.50400000000E-02 0.  1.
    5000001    1    1    2    0    0  0.93089488208E+02 -0.10798046900E+03 -0.18098107421E+02  0.16303979880E+03  0.77000000000E+02 0.  0.
   -5000001    1    1    2    0    0 -0.93089488208E+02  0.10798046900E+03 -0.18429711401E+02  0.16307694124E+03  0.77000000000E+02 0.  0.
<mgrwt>
<rscale>  0 0.32406457E+03</rscale>
<asrwt>0</asrwt>
<pdfrwt beam="1">  1        1 0.22276071E-01 0.32406457E+03</pdfrwt>
<pdfrwt beam="2">  1       -1 0.27895735E-01 0.32406457E+03</pdfrwt>
<totfact> 0.25723538E+03</totfact>
</mgrwt>
</event>
<event>
 4    1  0.3147937E-004  0.2027173E+03  0.7818608E-02  0.1147466E+00
          1   -1    0    0  501    0  0.00000000000E+00  0.00000000000E+00  0.49217703137E+03  0.49217703140E+03  0.50400000000E-02 0.  1.
         -1   -1    0    0    0  501 -0.00000000000E+00 -0.00000000000E+00 -0.20873748009E+02  0.20873748618E+02  0.50400000000E-02 0. -1.
    5000001    1    1    2    0    0 -0.57095827618E+02  0.29606040639E+01  0.31866567960E+03  0.33278448591E+03  0.77000000000E+02 0.  0.
   -5000001    1    1    2    0    0  0.57095827618E+02 -0.29606040639E+01  0.15263760376E+03  0.18026629410E+03  0.77000000000E+02 0.  0.
<mgrwt>
<rscale>  0 0.20271734E+03</rscale>
<asrwt>0</asrwt>
<pdfrwt beam="1">  1        1 0.75719549E-01 0.20271734E+03</pdfrwt>
<pdfrwt beam="2">  1       -1 0.32113457E-02 0.20271734E+03</pdfrwt>
<totfact> 0.15329617E+04</totfact>
</mgrwt>
</event>
<event>
 4    1  0.3147937E-004  0.6194729E+03  0.7818608E-02  0.9865810E-01
         -1   -1    0    0    0  501 -0.00000000000E+00  0.00000000000E+00  0.26055621319E+03  0.26055621324E+03  0.50400000000E-02 0. -1.
          1   -1    0    0  501    0  0.00000000000E+00 -0.00000000000E+00 -0.36819953479E+03  0.36819953483E+03  0.50400000000E-02 0.  1.
    5000001    1    1    2    0    0 -0.28818001599E+03  0.82836271231E+02 -0.63874987181E+02  0.31609900891E+03  0.77000000000E+02 0.  0.
   -5000001    1    1    2    0    0  0.28818001599E+03 -0.82836271231E+02 -0.43768334421E+02  0.31265673916E+03  0.77000000000E+02 0.  0.
<mgrwt>
<rscale>  0 0.61947293E+03</rscale>
<asrwt>0</asrwt>
<pdfrwt beam="1">  1        1 0.56646083E-01 0.61947293E+03</pdfrwt>
<pdfrwt beam="2">  1       -1 0.40085571E-01 0.61947293E+03</pdfrwt>
<totfact> 0.41138296E+02</totfact>
</mgrwt>
</event>
<event>
 4    1  0.3147937E-004  0.3104366E+03  0.7818608E-02  0.1080137E+00
         -1   -1    0    0    0  501 -0.00000000000E+00  0.00000000000E+00  0.52757036968E+02  0.52757037209E+02  0.50400000000E-02 0. -1.
          1   -1    0    0  501    0  0.00000000000E+00 -0.00000000000E+00 -0.45667300006E+03  0.45667300009E+03  0.50400000000E-02 0.  1.
    5000001    1    1    2    0    0  0.10214463469E+03 -0.52887693671E+02 -0.86700066204E+02  0.16332953199E+03  0.77000000000E+02 0.  0.
   -5000001    1    1    2    0    0 -0.10214463469E+03  0.52887693671E+02 -0.31721589689E+03  0.34610050532E+03  0.77000000000E+02 0.  0.
<mgrwt>
<rscale>  0 0.31043656E+03</rscale>
<asrwt>0</asrwt>
<pdfrwt beam="1">  1        1 0.70257382E-01 0.31043656E+03</pdfrwt>
<pdfrwt beam="2">  1       -1 0.81164675E-02 0.31043656E+03</pdfrwt>
<totfact> 0.42889558E+03</totfact>
</mgrwt>
</event>
<event>
 4    1  0.3147937E-004  0.3139364E+03  0.7818608E-02  0.1078474E+00
          1   -1    0    0  501    0  0.00000000000E+00  0.00000000000E+00  0.26369092878E+03  0.26369092883E+03  0.50400000000E-02 0. -1.
         -1   -1    0    0    0  501 -0.00000000000E+00 -0.00000000000E+00 -0.93439018999E+02  0.93439019135E+02  0.50400000000E-02 0.  1.
    5000001    1    1    2    0    0  0.42297834806E+02  0.12321222315E+03  0.37678042987E+02  0.15594548306E+03  0.77000000000E+02 0.  0.
   -5000001    1    1    2    0    0 -0.42297834806E+02 -0.12321222315E+03  0.13257386680E+03  0.20118446491E+03  0.77000000000E+02 0.  0.
<mgrwt>
<rscale>  0 0.31393644E+03</rscale>
<asrwt>0</asrwt>
<pdfrwt beam="1">  1        1 0.40567835E-01 0.31393644E+03</pdfrwt>
<pdfrwt beam="2">  1       -1 0.14375234E-01 0.31393644E+03</pdfrwt>
<totfact> 0.35492343E+03</totfact>
</mgrwt>
</event>
<event>
 4    1  0.3147937E-004  0.2346804E+03  0.7818608E-02  0.1123388E+00
         -1   -1    0    0    0  501 -0.00000000000E+00  0.00000000000E+00  0.13455642654E+03  0.13455642664E+03  0.50400000000E-02 0.  1.
          1   -1    0    0  501    0  0.00000000000E+00 -0.00000000000E+00 -0.10232673116E+03  0.10232673128E+03  0.50400000000E-02 0. -1.
    5000001    1    1    2    0    0  0.22650779652E+02 -0.69443896472E+02  0.66626608113E+02  0.12531407537E+03  0.77000000000E+02 0.  0.
   -5000001    1    1    2    0    0 -0.22650779652E+02  0.69443896472E+02 -0.34396912729E+02  0.11156908255E+03  0.77000000000E+02 0.  0.
<mgrwt>
<rscale>  0 0.23468037E+03</rscale>
<asrwt>0</asrwt>
<pdfrwt beam="1">  1        1 0.15742574E-01 0.23468037E+03</pdfrwt>
<pdfrwt beam="2">  1       -1 0.20700989E-01 0.23468037E+03</pdfrwt>
<totfact> 0.65472218E+03</totfact>
</mgrwt>
</event>
<event>
 4    1  0.3147937E-004  0.1968107E+03  0.7818608E-02  0.1152458E+00
          1   -1    0    0  501    0  0.00000000000E+00  0.00000000000E+00  0.12674321031E+02  0.12674322033E+02  0.50400000000E-02 0.  1.
         -1   -1    0    0    0  501 -0.00000000000E+00 -0.00000000000E+00 -0.76403399903E+03  0.76403399904E+03  0.50400000000E-02 0. -1.
    5000001    1    1    2    0    0 -0.56494014762E+02 -0.23710206679E+02 -0.37935021475E+03  0.39190474995E+03  0.77000000000E+02 0.  0.
   -5000001    1    1    2    0    0  0.56494014762E+02  0.23710206679E+02 -0.37200946325E+03  0.38480357113E+03  0.77000000000E+02 0.  0.
<mgrwt>
<rscale>  0 0.19681070E+03</rscale>
<asrwt>0</asrwt>
<pdfrwt beam="1">  1        1 0.19498962E-02 0.19681070E+03</pdfrwt>
<pdfrwt beam="2">  1       -1 0.11754366E+00 0.19681070E+03</pdfrwt>
<totfact> 0.42737606E+03</totfact>
</mgrwt>
</event>
<event>
 4    1  0.3147937E-004  0.2481885E+03  0.7818608E-02  0.1114455E+00
         -1   -1    0    0    0  501 -0.00000000000E+00  0.00000000000E+00  0.15561514577E+02  0.15561515393E+02  0.50400000000E-02 0. -1.
          1   -1    0    0  501    0  0.00000000000E+00 -0.00000000000E+00 -0.98958149993E+03  0.98958149994E+03  0.50400000000E-02 0.  1.
    5000001    1    1    2    0    0  0.30859722717E+02  0.89363451658E+02 -0.58044276466E+03  0.59311124760E+03  0.77000000000E+02 0.  0.
   -5000001    1    1    2    0    0 -0.30859722717E+02 -0.89363451658E+02 -0.39357722069E+03  0.41203176773E+03  0.77000000000E+02 0.  0.
<mgrwt>
<rscale>  0 0.24818854E+03</rscale>
<asrwt>0</asrwt>
<pdfrwt beam="1">  1        1 0.15224326E+00 0.24818854E+03</pdfrwt>
<pdfrwt beam="2">  1       -1 0.23940800E-02 0.24818854E+03</pdfrwt>
<totfact> 0.85295406E+03</totfact>
</mgrwt>
</event>
<event>
 4    1  0.3147937E-004  0.9035737E+03  0.7818608E-02  0.9421125E-01
          1   -1    0    0  501    0  0.00000000000E+00  0.00000000000E+00  0.59441338571E+03  0.59441338573E+03  0.50400000000E-02 0. -1.
         -1   -1    0    0    0  501 -0.00000000000E+00 -0.00000000000E+00 -0.34338284788E+03  0.34338284792E+03  0.50400000000E-02 0.  1.
    5000001    1    1    2    0    0  0.44130770106E+03  0.57719080266E+02  0.11522082953E+03  0.46614248766E+03  0.77000000000E+02 0.  0.
   -5000001    1    1    2    0    0 -0.44130770106E+03 -0.57719080266E+02  0.13580970829E+03  0.47165374599E+03  0.77000000000E+02 0.  0.
<mgrwt>
<rscale>  0 0.90357371E+03</rscale>
<asrwt>0</asrwt>
<pdfrwt beam="1">  1        1 0.91448211E-01 0.90357371E+03</pdfrwt>
<pdfrwt beam="2">  1       -1 0.52828132E-01 0.90357371E+03</pdfrwt>
<totfact> 0.12633820E+02</totfact>
</mgrwt>
</event>
<event>
 4    1  0.3147937E-004  0.2351254E+03  0.7818608E-02  0.1123083E+00
          1   -1    0    0  501    0  0.00000000000E+00  0.00000000000E+00  0.44987484413E+02  0.44987484695E+02  0.50400000000E-02 0.  1.
         -1   -1    0    0    0  501 -0.00000000000E+00 -0.00000000000E+00 -0.30721861467E+03  0.30721861471E+03  0.50400000000E-02 0. -1.
    5000001    1    1    2    0    0 -0.51003574437E+02 -0.72669526771E+02 -0.12643391020E+03  0.17261737564E+03  0.77000000000E+02 0.  0.
   -5000001    1    1    2    0    0  0.51003574437E+02  0.72669526771E+02 -0.13579722006E+03  0.17958872376E+03  0.77000000000E+02 0.  0.
<mgrwt>
<rscale>  0 0.23512544E+03</rscale>
<asrwt>0</asrwt>
<pdfrwt beam="1">  1        1 0.69211517E-02 0.23512544E+03</pdfrwt>
<pdfrwt beam="2">  1       -1 0.47264401E-01 0.23512544E+03</pdfrwt>
<totfact> 0.47753494E+03</totfact>
</mgrwt>
</event>
<event>
 4    1  0.3147937E-004  0.4007520E+03  0.7818608E-02  0.1043520E+00
          1   -1    0    0  501    0  0.00000000000E+00  0.00000000000E+00  0.11047630102E+03  0.11047630114E+03  0.50400000000E-02 0.  1.
         -1   -1    0    0    0  501 -0.00000000000E+00 -0.00000000000E+00 -0.36343118544E+03  0.36343118547E+03  0.50400000000E-02 0. -1.
    5000001    1    1    2    0    0  0.16545915872E+03  0.82119145429E+02 -0.11457855128E+03  0.23060254046E+03  0.77000000000E+02 0.  0.
   -5000001    1    1    2    0    0 -0.16545915872E+03 -0.82119145429E+02 -0.13837633313E+03  0.24330494615E+03  0.77000000000E+02 0.  0.
<mgrwt>
<rscale>  0 0.40075196E+03</rscale>
<asrwt>0</asrwt>
<pdfrwt beam="1">  1        1 0.16996354E-01 0.40075196E+03</pdfrwt>
<pdfrwt beam="2">  1       -1 0.55912489E-01 0.40075196E+03</pdfrwt>
<totfact> 0.10559887E+03</totfact>
</mgrwt>
</event>
<event>
 4    1  0.3147937E-004  0.1794936E+03  0.7818608E-02  0.1168294E+00
          1   -1    0    0  501    0  0.00000000000E+00  0.00000000000E+00  0.78426070788E+02  0.78426070950E+02  0.50400000000E-02 0.  1.
         -1   -1    0    0    0  501 -0.00000000000E+00 -0.00000000000E+00 -0.10270161312E+03  0.10270161324E+03  0.50400000000E-02 0. -1.
    5000001    1    1    2    0    0  0.40889454691E+02 -0.23040043836E+01 -0.33501915329E+02  0.93427160247E+02  0.77000000000E+02 0.  0.
   -5000001    1    1    2    0    0 -0.40889454691E+02  0.23040043836E+01  0.92263730007E+01  0.87700523943E+02  0.77000000000E+02 0.  0.
<mgrwt>
<rscale>  0 0.17949355E+03</rscale>
<asrwt>0</asrwt>
<pdfrwt beam="1">  1        1 0.12065549E-01 0.17949355E+03</pdfrwt>
<pdfrwt beam="2">  1       -1 0.15800248E-01 0.17949355E+03</pdfrwt>
<totfact> 0.14076737E+04</totfact>
</mgrwt>
</event>
<event>
 4    1  0.3147937E-004  0.2683117E+03  0.7818608E-02  0.1102250E+00
          1   -1    0    0  501    0  0.00000000000E+00  0.00000000000E+00  0.11896151679E+03  0.11896151690E+03  0.50400000000E-02 0.  1.
         -1   -1    0    0    0  501 -0.00000000000E+00 -0.00000000000E+00 -0.15129082455E+03  0.15129082463E+03  0.50400000000E-02 0. -1.
    5000001    1    1    2    0    0 -0.50932038644E+02  0.80708167287E+02 -0.70972429524E+02  0.14168262625E+03  0.77000000000E+02 0.  0.
   -5000001    1    1    2    0    0  0.50932038644E+02 -0.80708167287E+02  0.38643121768E+02  0.12856971528E+03  0.77000000000E+02 0.  0.
<mgrwt>
<rscale>  0 0.26831165E+03</rscale>
<asrwt>0</asrwt>
<pdfrwt beam="1">  1        1 0.18301772E-01 0.26831165E+03</pdfrwt>
<pdfrwt beam="2">  1       -1 0.23275512E-01 0.26831165E+03</pdfrwt>
<totfact> 0.44654883E+03</totfact>
</mgrwt>
</event>
<event>
 4    1  0.3147937E-004  0.3611414E+03  0.7818608E-02  0.1058133E+00
         -1   -1    0    0    0  501 -0.00000000000E+00  0.00000000000E+00  0.11989402771E+03  0.11989402782E+03  0.50400000000E-02 0. -1.
          1   -1    0    0  501    0  0.00000000000E+00 -0.00000000000E+00 -0.27195504115E+03  0.27195504119E+03  0.50400000000E-02 0.  1.
    5000001    1    1    2    0    0  0.14572457740E+03 -0.33775001328E+02 -0.48772120959E+01  0.16831277543E+03  0.77000000000E+02 0.  0.
   -5000001    1    1    2    0    0 -0.14572457740E+03  0.33775001328E+02 -0.14718380134E+03  0.22353629358E+03  0.77000000000E+02 0.  0.
<mgrwt>
<rscale>  0 0.36114144E+03</rscale>
<asrwt>0</asrwt>
<pdfrwt beam="1">  1        1 0.41839237E-01 0.36114144E+03</pdfrwt>
<pdfrwt beam="2">  1       -1 0.18445235E-01 0.36114144E+03</pdfrwt>
<totfact> 0.22929908E+03</totfact>
</mgrwt>
</event>
<event>
 4    1  0.3147937E-004  0.2160654E+03  0.7818608E-02  0.1136851E+00
         -1   -1    0    0    0  501 -0.00000000000E+00  0.00000000000E+00  0.14491353844E+02  0.14491354721E+02  0.50400000000E-02 0. -1.
          1   -1    0    0  501    0  0.00000000000E+00 -0.00000000000E+00 -0.80538130488E+03  0.80538130490E+03  0.50400000000E-02 0.  1.
    5000001    1    1    2    0    0  0.57130043785E+02 -0.41312467229E+02 -0.29004749356E+03  0.30826467585E+03  0.77000000000E+02 0.  0.
   -5000001    1    1    2    0    0 -0.57130043785E+02  0.41312467229E+02 -0.50084245747E+03  0.51160798377E+03  0.77000000000E+02 0.  0.
<mgrwt>
<rscale>  0 0.21606541E+03</rscale>
<asrwt>0</asrwt>
<pdfrwt beam="1">  1        1 0.12390478E+00 0.21606541E+03</pdfrwt>
<pdfrwt beam="2">  1       -1 0.22294398E-02 0.21606541E+03</pdfrwt>
<totfact> 0.13129323E+04</totfact>
</mgrwt>
</event>
<event>
 4    1  0.3147937E-004  0.2335300E+03  0.7818608E-02  0.1124180E+00
          1   -1    0    0  501    0  0.00000000000E+00  0.00000000000E+00  0.22318931020E+02  0.22318931589E+02  0.50400000000E-02 0. -1.
         -1   -1    0    0    0  501 -0.00000000000E+00 -0.00000000000E+00 -0.61087445470E+03  0.61087445472E+03  0.50400000000E-02 0.  1.
    5000001    1    1    2    0    0 -0.60899354582E+02 -0.61291241762E+02 -0.33625785336E+03  0.35561733879E+03  0.77000000000E+02 0.  0.
   -5000001    1    1    2    0    0  0.60899354582E+02  0.61291241762E+02 -0.25229767032E+03  0.27757604751E+03  0.77000000000E+02 0.  0.
<mgrwt>
<rscale>  0 0.23353000E+03</rscale>
<asrwt>0</asrwt>
<pdfrwt beam="1">  1        1 0.34336822E-02 0.23353000E+03</pdfrwt>
<pdfrwt beam="2">  1       -1 0.93980673E-01 0.23353000E+03</pdfrwt>
<totfact> 0.32296031E+03</totfact>
</mgrwt>
</event>
<event>
 4    1  0.3147937E-004  0.2210962E+03  0.7818608E-02  0.1133068E+00
          1   -1    0    0  501    0  0.00000000000E+00  0.00000000000E+00  0.39890120071E+02  0.39890120389E+02  0.50400000000E-02 0.  1.
         -1   -1    0    0    0  501 -0.00000000000E+00 -0.00000000000E+00 -0.30636356379E+03  0.30636356383E+03  0.50400000000E-02 0. -1.
    5000001    1    1    2    0    0  0.76990484274E+02 -0.50682568720E+01 -0.16205669250E+03  0.19530640922E+03  0.77000000000E+02 0.  0.
   -5000001    1    1    2    0    0 -0.76990484274E+02  0.50682568720E+01 -0.10441675122E+03  0.15094727500E+03  0.77000000000E+02 0.  0.
<mgrwt>
<rscale>  0 0.22109617E+03</rscale>
<asrwt>0</asrwt>
<pdfrwt beam="1">  1        1 0.61369418E-02 0.22109617E+03</pdfrwt>
<pdfrwt beam="2">  1       -1 0.47132854E-01 0.22109617E+03</pdfrwt>
<totfact> 0.56412710E+03</totfact>
</mgrwt>
</event>
<event>
 4    1  0.3147937E-004  0.2380856E+03  0.7818608E-02  0.1121075E+00
          1   -1    0    0  501    0  0.00000000000E+00  0.00000000000E+00  0.23442618854E+04  0.23442618854E+04  0.50400000000E-02 0.  1.
         -1   -1    0    0    0  501 -0.00000000000E+00 -0.00000000000E+00 -0.60450523065E+01  0.60450544075E+01  0.50400000000E-02 0. -1.
    5000001    1    1    2    0    0 -0.87418428258E+02  0.23287134843E+02  0.12442344616E+04  0.12498930625E+04  0.77000000000E+02 0.  0.
   -5000001    1    1    2    0    0  0.87418428258E+02 -0.23287134843E+02  0.10939823715E+04  0.11004138774E+04  0.77000000000E+02 0.  0.
<mgrwt>
<rscale>  0 0.23808560E+03</rscale>
<asrwt>0</asrwt>
<pdfrwt beam="1">  1        1 0.36065667E+00 0.23808560E+03</pdfrwt>
<pdfrwt beam="2">  1       -1 0.93000563E-03 0.23808560E+03</pdfrwt>
<totfact> 0.41995322E+03</totfact>
</mgrwt>
</event>
<event>
 4    1  0.3147937E-004  0.1635969E+03  0.7818608E-02  0.1184695E+00
         -1   -1    0    0    0  501 -0.00000000000E+00  0.00000000000E+00  0.11068070199E+03  0.11068070210E+03  0.50400000000E-02 0.  1.
          1   -1    0    0  501    0  0.00000000000E+00 -0.00000000000E+00 -0.60453052568E+02  0.60453052778E+02  0.50400000000E-02 0. -1.
    5000001    1    1    2    0    0  0.16741831933E+02 -0.17455670905E+02  0.11196893136E+02  0.81482266777E+02  0.77000000000E+02 0.  0.
   -5000001    1    1    2    0    0 -0.16741831933E+02  0.17455670905E+02  0.39030756284E+02  0.89651488104E+02  0.77000000000E+02 0.  0.
<mgrwt>
<rscale>  0 0.16359690E+03</rscale>
<asrwt>0</asrwt>
<pdfrwt beam="1">  1        1 0.93004696E-02 0.16359690E+03</pdfrwt>
<pdfrwt beam="2">  1       -1 0.17027800E-01 0.16359690E+03</pdfrwt>
<totfact> 0.17530030E+04</totfact>
</mgrwt>
</event>
<event>
 4    1  0.3147937E-004  0.2035417E+03  0.7818608E-02  0.1146785E+00
          1   -1    0    0  501    0  0.00000000000E+00  0.00000000000E+00  0.65187147728E+02  0.65187147923E+02  0.50400000000E-02 0.  1.
         -1   -1    0    0    0  501 -0.00000000000E+00 -0.00000000000E+00 -0.15888577986E+03  0.15888577994E+03  0.50400000000E-02 0. -1.
    5000001    1    1    2    0    0 -0.58013023655E+02 -0.31530623065E+02 -0.55968592683E+02  0.11584979271E+03  0.77000000000E+02 0.  0.
   -5000001    1    1    2    0    0  0.58013023655E+02  0.31530623065E+02 -0.37730039444E+02  0.10822313515E+03  0.77000000000E+02 0.  0.
<mgrwt>
<rscale>  0 0.20354175E+03</rscale>
<asrwt>0</asrwt>
<pdfrwt beam="1">  1        1 0.10028792E-01 0.20354175E+03</pdfrwt>
<pdfrwt beam="2">  1       -1 0.24443966E-01 0.20354175E+03</pdfrwt>
<totfact> 0.89757097E+03</totfact>
</mgrwt>
</event>
<event>
 4    1  0.3147937E-004  0.1833221E+03  0.7818608E-02  0.1164626E+00
          1   -1    0    0  501    0  0.00000000000E+00  0.00000000000E+00  0.40605343556E+03  0.40605343559E+03  0.50400000000E-02 0. -1.
         -1   -1    0    0    0  501 -0.00000000000E+00 -0.00000000000E+00 -0.20691234212E+02  0.20691234825E+02  0.50400000000E-02 0.  1.
    5000001    1    1    2    0    0  0.49443191742E+02 -0.50219958053E+01  0.18871882824E+03  0.20979429397E+03  0.77000000000E+02 0.  0.
   -5000001    1    1    2    0    0 -0.49443191742E+02  0.50219958053E+01  0.19664337312E+03  0.21695037645E+03  0.77000000000E+02 0.  0.
<mgrwt>
<rscale>  0 0.18332209E+03</rscale>
<asrwt>0</asrwt>
<pdfrwt beam="1">  1        1 0.62469755E-01 0.18332209E+03</pdfrwt>
<pdfrwt beam="2">  1       -1 0.31832671E-02 0.18332209E+03</pdfrwt>
<totfact> 0.19770581E+04</totfact>
</mgrwt>
</event>
<event>
 4    1  0.3147937E-004  0.1812028E+03  0.7818608E-02  0.1166644E+00
         -1   -1    0    0    0  501 -0.00000000000E+00  0.00000000000E+00  0.12596014632E+02  0.12596015640E+02  0.50400000000E-02 0. -1.
          1   -1    0    0  501    0  0.00000000000E+00 -0.00000000000E+00 -0.65168369974E+03  0.65168369976E+03  0.50400000000E-02 0.  1.
    5000001    1    1    2    0    0  0.32966497558E+02 -0.30881550905E+02 -0.37623666544E+03  0.38668267167E+03  0.77000000000E+02 0.  0.
   -5000001    1    1    2    0    0 -0.32966497558E+02  0.30881550905E+02 -0.26285101967E+03  0.27759704373E+03  0.77000000000E+02 0.  0.
<mgrwt>
<rscale>  0 0.18120284E+03</rscale>
<asrwt>0</asrwt>
<pdfrwt beam="1">  1        1 0.10025900E+00 0.18120284E+03</pdfrwt>
<pdfrwt beam="2">  1       -1 0.19378490E-02 0.18120284E+03</pdfrwt>
<totfact> 0.21723316E+04</totfact>
</mgrwt>
</event>
<event>
 4    1  0.3147937E-004  0.1668940E+03  0.7818608E-02  0.1181126E+00
          1   -1    0    0  501    0  0.00000000000E+00  0.00000000000E+00  0.46749982535E+02  0.46749982806E+02  0.50400000000E-02 0. -1.
         -1   -1    0    0    0  501 -0.00000000000E+00 -0.00000000000E+00 -0.14894977192E+03  0.14894977200E+03  0.50400000000E-02 0.  1.
    5000001    1    1    2    0    0 -0.27339149210E+02  0.16381247099E+02 -0.56160436473E+02  0.10049263138E+03  0.77000000000E+02 0.  0.
   -5000001    1    1    2    0    0  0.27339149210E+02 -0.16381247099E+02 -0.46039352910E+02  0.95207123433E+02  0.77000000000E+02 0.  0.
<mgrwt>
<rscale>  0 0.16689397E+03</rscale>
<asrwt>0</asrwt>
<pdfrwt beam="1">  1        1 0.71923051E-02 0.16689397E+03</pdfrwt>
<pdfrwt beam="2">  1       -1 0.22915349E-01 0.16689397E+03</pdfrwt>
<totfact> 0.15382337E+04</totfact>
</mgrwt>
</event>
<event>
 4    1  0.3147937E-004  0.3228695E+03  0.7818608E-02  0.1074336E+00
          1   -1    0    0  501    0  0.00000000000E+00  0.00000000000E+00  0.48876791124E+03  0.48876791127E+03  0.50400000000E-02 0.  1.
         -1   -1    0    0    0  501 -0.00000000000E+00 -0.00000000000E+00 -0.53320156234E+02  0.53320156472E+02  0.50400000000E-02 0. -1.
    5000001    1    1    2    0    0  0.26887385605E+02 -0.10339821474E+03  0.37449017727E+03  0.39697105082E+03  0.77000000000E+02 0.  0.
   -5000001    1    1    2    0    0 -0.26887385605E+02  0.10339821474E+03  0.60957577741E+02  0.14511701692E+03  0.77000000000E+02 0.  0.
<mgrwt>
<rscale>  0 0.32286952E+03</rscale>
<asrwt>0</asrwt>
<pdfrwt beam="1">  1        1 0.75195059E-01 0.32286952E+03</pdfrwt>
<pdfrwt beam="2">  1       -1 0.82031014E-02 0.32286952E+03</pdfrwt>
<totfact> 0.38605735E+03</totfact>
</mgrwt>
</event>
<event>
 4    1  0.3147937E-004  0.1710051E+03  0.7818608E-02  0.1176804E+00
         -1   -1    0    0    0  501 -0.00000000000E+00  0.00000000000E+00  0.25009978953E+04  0.25009978953E+04  0.50400000000E-02 0.  1.
          1   -1    0    0  501    0  0.00000000000E+00 -0.00000000000E+00 -0.29231057939E+01  0.29231101389E+01  0.50400000000E-02 0. -1.
    5000001    1    1    2    0    0 -0.15767809206E+02 -0.33556367154E+02  0.12878695171E+04  0.12907019588E+04  0.77000000000E+02 0.  0.
   -5000001    1    1    2    0    0  0.15767809206E+02  0.33556367154E+02  0.12102052724E+04  0.12132190466E+04  0.77000000000E+02 0.  0.
<mgrwt>
<rscale>  0 0.17100511E+03</rscale>
<asrwt>0</asrwt>
<pdfrwt beam="1">  1        1 0.44971180E-03 0.17100511E+03</pdfrwt>
<pdfrwt beam="2">  1       -1 0.38476644E+00 0.17100511E+03</pdfrwt>
<totfact> 0.55836260E+02</totfact>
</mgrwt>
</event>
<event>
 4    1  0.3147937E-004  0.2052598E+03  0.7818608E-02  0.1145376E+00
         -1   -1    0    0    0  501 -0.00000000000E+00  0.00000000000E+00  0.66841912168E+02  0.66841912358E+02  0.50400000000E-02 0. -1.
          1   -1    0    0  501    0  0.00000000000E+00 -0.00000000000E+00 -0.15757922150E+03  0.15757922158E+03  0.50400000000E-02 0.  1.
    5000001    1    1    2    0    0  0.22345329908E+02 -0.62084036179E+02 -0.62661426555E+02  0.11920233091E+03  0.77000000000E+02 0.  0.
   -5000001    1    1    2    0    0 -0.22345329908E+02  0.62084036179E+02 -0.28075882780E+02  0.10521880303E+03  0.77000000000E+02 0.  0.
<mgrwt>
<rscale>  0 0.20525980E+03</rscale>
<asrwt>0</asrwt>
<pdfrwt beam="1">  1        1 0.24242957E-01 0.20525980E+03</pdfrwt>
<pdfrwt beam="2">  1       -1 0.10283371E-01 0.20525980E+03</pdfrwt>
<totfact> 0.11263515E+04</totfact>
</mgrwt>
</event>
<event>
 4    1  0.3147937E-004  0.1955173E+03  0.7818608E-02  0.1153577E+00
         -1   -1    0    0    0  501 -0.00000000000E+00  0.00000000000E+00  0.21805713878E+04  0.21805713878E+04  0.50400000000E-02 0.  1.
          1   -1    0    0  501    0  0.00000000000E+00 -0.00000000000E+00 -0.43826809588E+01  0.43826838567E+01  0.50400000000E-02 0. -1.
    5000001    1    1    2    0    0  0.34315798767E+02  0.35175767386E+02  0.14772824004E+04  0.14801037798E+04  0.77000000000E+02 0.  0.
   -5000001    1    1    2    0    0 -0.34315798767E+02 -0.35175767386E+02  0.69890630650E+03  0.70485029185E+03  0.77000000000E+02 0.  0.
<mgrwt>
<rscale>  0 0.19551728E+03</rscale>
<asrwt>0</asrwt>
<pdfrwt beam="1">  1        1 0.67425792E-03 0.19551728E+03</pdfrwt>
<pdfrwt beam="2">  1       -1 0.33547298E+00 0.19551728E+03</pdfrwt>
<totfact> 0.65405825E+02</totfact>
</mgrwt>
</event>
<event>
 4    1  0.3147937E-004  0.2250008E+03  0.7818608E-02  0.1130209E+00
          1   -1    0    0  501    0  0.00000000000E+00  0.00000000000E+00  0.25248123473E+02  0.25248123976E+02  0.50400000000E-02 0. -1.
         -1   -1    0    0    0  501 -0.00000000000E+00 -0.00000000000E+00 -0.50127835578E+03  0.50127835580E+03  0.50400000000E-02 0.  1.
    5000001    1    1    2    0    0  0.26706806864E+02  0.67991218281E+02 -0.15072938532E+03  0.18434860155E+03  0.77000000000E+02 0.  0.
   -5000001    1    1    2    0    0 -0.26706806864E+02 -0.67991218281E+02 -0.32530084699E+03  0.34217787822E+03  0.77000000000E+02 0.  0.
<mgrwt>
<rscale>  0 0.22500078E+03</rscale>
<asrwt>0</asrwt>
<pdfrwt beam="1">  1        1 0.38843271E-02 0.22500078E+03</pdfrwt>
<pdfrwt beam="2">  1       -1 0.77119740E-01 0.22500078E+03</pdfrwt>
<totfact> 0.41185915E+03</totfact>
</mgrwt>
</event>
<event>
 4    1  0.3147937E-004  0.1941383E+03  0.7818608E-02  0.1154781E+00
         -1   -1    0    0    0  501 -0.00000000000E+00  0.00000000000E+00  0.40888145874E+02  0.40888146185E+02  0.50400000000E-02 0. -1.
          1   -1    0    0  501    0  0.00000000000E+00 -0.00000000000E+00 -0.23044373449E+03  0.23044373455E+03  0.50400000000E-02 0.  1.
    5000001    1    1    2    0    0  0.58548904911E+02 -0.28354898191E+01 -0.84188762509E+02  0.12826832034E+03  0.77000000000E+02 0.  0.
   -5000001    1    1    2    0    0 -0.58548904911E+02  0.28354898191E+01 -0.10536682611E+03  0.14306356039E+03  0.77000000000E+02 0.  0.
<mgrwt>
<rscale>  0 0.19413827E+03</rscale>
<asrwt>0</asrwt>
<pdfrwt beam="1">  1        1 0.35452881E-01 0.19413827E+03</pdfrwt>
<pdfrwt beam="2">  1       -1 0.62904842E-02 0.19413827E+03</pdfrwt>
<totfact> 0.14696569E+04</totfact>
</mgrwt>
</event>
<event>
 4    1  0.3147937E-004  0.2944723E+03  0.7818608E-02  0.1088037E+00
          1   -1    0    0  501    0  0.00000000000E+00  0.00000000000E+00  0.69005588977E+02  0.69005589162E+02  0.50400000000E-02 0.  1.
         -1   -1    0    0    0  501 -0.00000000000E+00 -0.00000000000E+00 -0.31415550692E+03  0.31415550696E+03  0.50400000000E-02 0. -1.
    5000001    1    1    2    0    0  0.78454835392E+02  0.71280769771E+02 -0.20999031288E+03  0.24750967827E+03  0.77000000000E+02 0.  0.
   -5000001    1    1    2    0    0 -0.78454835392E+02 -0.71280769771E+02 -0.35159605060E+02  0.13565141785E+03  0.77000000000E+02 0.  0.
<mgrwt>
<rscale>  0 0.29447231E+03</rscale>
<asrwt>0</asrwt>
<pdfrwt beam="1">  1        1 0.10616245E-01 0.29447231E+03</pdfrwt>
<pdfrwt beam="2">  1       -1 0.48331616E-01 0.29447231E+03</pdfrwt>
<totfact> 0.25864657E+03</totfact>
</mgrwt>
</event>
<event>
 4    1  0.3147937E-004  0.3415476E+03  0.7818608E-02  0.1066139E+00
          1   -1    0    0  501    0  0.00000000000E+00  0.00000000000E+00  0.16101933512E+03  0.16101933520E+03  0.50400000000E-02 0.  1.
         -1   -1    0    0    0  501 -0.00000000000E+00 -0.00000000000E+00 -0.18111915057E+03  0.18111915064E+03  0.50400000000E-02 0. -1.
    5000001    1    1    2    0    0 -0.11062755920E+03 -0.17193474065E+02  0.93572828884E+02  0.16498165568E+03  0.77000000000E+02 0.  0.
   -5000001    1    1    2    0    0  0.11062755920E+03  0.17193474065E+02 -0.11367264433E+03  0.17715683017E+03  0.77000000000E+02 0.  0.
<mgrwt>
<rscale>  0 0.34154757E+03</rscale>
<asrwt>0</asrwt>
<pdfrwt beam="1">  1        1 0.24772205E-01 0.34154757E+03</pdfrwt>
<pdfrwt beam="2">  1       -1 0.27864485E-01 0.34154757E+03</pdfrwt>
<totfact> 0.22505363E+03</totfact>
</mgrwt>
</event>
<event>
 4    1  0.3147937E-004  0.2580678E+03  0.7818608E-02  0.1108310E+00
         -1   -1    0    0    0  501 -0.00000000000E+00  0.00000000000E+00  0.18432440623E+02  0.18432441312E+02  0.50400000000E-02 0. -1.
          1   -1    0    0  501    0  0.00000000000E+00 -0.00000000000E+00 -0.90328493885E+03  0.90328493886E+03  0.50400000000E-02 0.  1.
    5000001    1    1    2    0    0 -0.18500660634E+02 -0.10014468223E+03 -0.50919858526E+03  0.52496040903E+03  0.77000000000E+02 0.  0.
   -5000001    1    1    2    0    0  0.18500660634E+02  0.10014468223E+03 -0.37565391297E+03  0.39675697114E+03  0.77000000000E+02 0.  0.
<mgrwt>
<rscale>  0 0.25806779E+03</rscale>
<asrwt>0</asrwt>
<pdfrwt beam="1">  1        1 0.13896688E+00 0.25806779E+03</pdfrwt>
<pdfrwt beam="2">  1       -1 0.28357608E-02 0.25806779E+03</pdfrwt>
<totfact> 0.77544865E+03</totfact>
</mgrwt>
</event>
<event>
 4    1  0.3147937E-004  0.3544284E+03  0.7818608E-02  0.1060812E+00
         -1   -1    0    0    0  501 -0.00000000000E+00  0.00000000000E+00  0.25078327401E+02  0.25078327907E+02  0.50400000000E-02 0. -1.
          1   -1    0    0  501    0  0.00000000000E+00 -0.00000000000E+00 -0.12522711628E+04  0.12522711628E+04  0.50400000000E-02 0.  1.
    5000001    1    1    2    0    0  0.15797267322E+03  0.14597941001E+02 -0.55040850183E+03  0.57796797857E+03  0.77000000000E+02 0.  0.
   -5000001    1    1    2    0    0 -0.15797267322E+03 -0.14597941001E+02 -0.67678433352E+03  0.69938151210E+03  0.77000000000E+02 0.  0.
<mgrwt>
<rscale>  0 0.35442837E+03</rscale>
<asrwt>0</asrwt>
<pdfrwt beam="1">  1        1 0.19265705E+00 0.35442837E+03</pdfrwt>
<pdfrwt beam="2">  1       -1 0.38582052E-02 0.35442837E+03</pdfrwt>
<totfact> 0.27365348E+03</totfact>
</mgrwt>
</event>
<event>
 4    1  0.3147937E-004  0.2728390E+03  0.7818608E-02  0.1099666E+00
          1   -1    0    0  501    0  0.00000000000E+00  0.00000000000E+00  0.31591392677E+02  0.31591393079E+02  0.50400000000E-02 0. -1.
         -1   -1    0    0    0  501 -0.00000000000E+00 -0.00000000000E+00 -0.58909350360E+03  0.58909350362E+03  0.50400000000E-02 0.  1.
    5000001    1    1    2    0    0  0.91758101863E+02  0.35354159593E+02 -0.15390377863E+03  0.19820403360E+03  0.77000000000E+02 0.  0.
   -5000001    1    1    2    0    0 -0.91758101863E+02 -0.35354159593E+02 -0.40359833229E+03  0.42248086310E+03  0.77000000000E+02 0.  0.
<mgrwt>
<rscale>  0 0.27283903E+03</rscale>
<asrwt>0</asrwt>
<pdfrwt beam="1">  1        1 0.48602147E-02 0.27283903E+03</pdfrwt>
<pdfrwt beam="2">  1       -1 0.90629762E-01 0.27283903E+03</pdfrwt>
<totfact> 0.21635948E+03</totfact>
</mgrwt>
</event>
<event>
 4    1  0.3147937E-004  0.1672690E+03  0.7818608E-02  0.1180726E+00
         -1   -1    0    0    0  501 -0.00000000000E+00  0.00000000000E+00  0.52791249284E+02  0.52791249525E+02  0.50400000000E-02 0. -1.
          1   -1    0    0  501    0  0.00000000000E+00 -0.00000000000E+00 -0.13249791956E+03  0.13249791965E+03  0.50400000000E-02 0.  1.
    5000001    1    1    2    0    0  0.28890909274E+02  0.66782761496E+01 -0.54978910825E+02  0.99151221105E+02  0.77000000000E+02 0.  0.
   -5000001    1    1    2    0    0 -0.28890909274E+02 -0.66782761496E+01 -0.24727759448E+02  0.86137948073E+02  0.77000000000E+02 0.  0.
<mgrwt>
<rscale>  0 0.16726901E+03</rscale>
<asrwt>0</asrwt>
<pdfrwt beam="1">  1        1 0.20384295E-01 0.16726901E+03</pdfrwt>
<pdfrwt beam="2">  1       -1 0.81217308E-02 0.16726901E+03</pdfrwt>
<totfact> 0.19827862E+04</totfact>
</mgrwt>
</event>
<event>
 4    1  0.3147937E-004  0.2719404E+03  0.7818608E-02  0.1100174E+00
          1   -1    0    0  501    0  0.00000000000E+00  0.00000000000E+00  0.30368874116E+04  0.30368874117E+04  0.50400000000E-02 0.  1.
         -1   -1    0    0    0  501 -0.00000000000E+00 -0.00000000000E+00 -0.60877778787E+01  0.60877799650E+01  0.50400000000E-02 0. -1.
    5000001    1    1    2    0    0  0.10111283898E+03 -0.47156392973E+02  0.13973122906E+04  0.14038725615E+04  0.77000000000E+02 0.  0.
   -5000001    1    1    2    0    0 -0.10111283898E+03  0.47156392973E+02  0.16334873432E+04  0.16391026301E+04  0.77000000000E+02 0.  0.
<mgrwt>
<rscale>  0 0.27194043E+03</rscale>
<asrwt>0</asrwt>
<pdfrwt beam="1">  1        1 0.46721381E+00 0.27194043E+03</pdfrwt>
<pdfrwt beam="2">  1       -1 0.93658064E-03 0.27194043E+03</pdfrwt>
<totfact> 0.14107017E+03</totfact>
</mgrwt>
</event>
<event>
 4    1  0.3147937E-004  0.3583218E+03  0.7818608E-02  0.1059250E+00
         -1   -1    0    0    0  501 -0.00000000000E+00  0.00000000000E+00  0.45049694246E+03  0.45049694248E+03  0.50400000000E-02 0. -1.
          1   -1    0    0  501    0  0.00000000000E+00 -0.00000000000E+00 -0.71251615387E+02  0.71251615566E+02  0.50400000000E-02 0.  1.
    5000001    1    1    2    0    0 -0.63699578875E+02  0.14805015046E+03  0.16938608641E+03  0.24616484247E+03  0.77000000000E+02 0.  0.
   -5000001    1    1    2    0    0  0.63699578875E+02 -0.14805015046E+03  0.20985924066E+03  0.27558371558E+03  0.77000000000E+02 0.  0.
<mgrwt>
<rscale>  0 0.35832184E+03</rscale>
<asrwt>0</asrwt>
<pdfrwt beam="1">  1        1 0.10961787E-01 0.35832184E+03</pdfrwt>
<pdfrwt beam="2">  1       -1 0.69307223E-01 0.35832184E+03</pdfrwt>
<totfact> 0.12438737E+03</totfact>
</mgrwt>
</event>
<event>
 4    1  0.3147937E-004  0.3648463E+03  0.7818608E-02  0.1056681E+00
          1   -1    0    0  501    0  0.00000000000E+00  0.00000000000E+00  0.12538248251E+03  0.12538248261E+03  0.50400000000E-02 0. -1.
         -1   -1    0    0    0  501 -0.00000000000E+00 -0.00000000000E+00 -0.26541347291E+03  0.26541347296E+03  0.50400000000E-02 0.  1.
    5000001    1    1    2    0    0 -0.16475786315E+03  0.14097570449E+02 -0.72482617708E+02  0.19628200333E+03  0.77000000000E+02 0.  0.
   -5000001    1    1    2    0    0  0.16475786315E+03 -0.14097570449E+02 -0.67548372691E+02  0.19451395224E+03  0.77000000000E+02 0.  0.
<mgrwt>
<rscale>  0 0.36484627E+03</rscale>
<asrwt>0</asrwt>
<pdfrwt beam="1">  1        1 0.19289613E-01 0.36484627E+03</pdfrwt>
<pdfrwt beam="2">  1       -1 0.40832842E-01 0.36484627E+03</pdfrwt>
<totfact> 0.15993680E+03</totfact>
</mgrwt>
</event>
<event>
 4    1  0.3147937E-004  0.4447161E+03  0.7818608E-02  0.1029310E+00
          1   -1    0    0  501    0  0.00000000000E+00  0.00000000000E+00  0.16390079529E+03  0.16390079537E+03  0.50400000000E-02 0.  1.
         -1   -1    0    0    0  501 -0.00000000000E+00 -0.00000000000E+00 -0.30166486518E+03  0.30166486523E+03  0.50400000000E-02 0. -1.
    5000001    1    1    2    0    0  0.94559848981E+02  0.18172269765E+03 -0.11008997167E+03  0.24497654121E+03  0.77000000000E+02 0.  0.
   -5000001    1    1    2    0    0 -0.94559848981E+02 -0.18172269765E+03 -0.27674098227E+02  0.22058911939E+03  0.77000000000E+02 0.  0.
<mgrwt>
<rscale>  0 0.44471614E+03</rscale>
<asrwt>0</asrwt>
<pdfrwt beam="1">  1        1 0.25215507E-01 0.44471614E+03</pdfrwt>
<pdfrwt beam="2">  1       -1 0.46409979E-01 0.44471614E+03</pdfrwt>
<totfact> 0.89557760E+02</totfact>
</mgrwt>
</event>
<event>
 4    1  0.3147937E-004  0.2074367E+03  0.7818608E-02  0.1143612E+00
         -1   -1    0    0    0  501 -0.00000000000E+00  0.00000000000E+00  0.38170965389E+02  0.38170965721E+02  0.50400000000E-02 0.  1.
          1   -1    0    0  501    0  0.00000000000E+00 -0.00000000000E+00 -0.28182393955E+03  0.28182393960E+03  0.50400000000E-02 0. -1.
    5000001    1    1    2    0    0  0.64813660598E+02  0.20453531120E+02 -0.99507328315E+02  0.14300302767E+03  0.77000000000E+02 0.  0.
   -5000001    1    1    2    0    0 -0.64813660598E+02 -0.20453531120E+02 -0.14414564585E+03  0.17699187765E+03  0.77000000000E+02 0.  0.
<mgrwt>
<rscale>  0 0.20743666E+03</rscale>
<asrwt>0</asrwt>
<pdfrwt beam="1">  1        1 0.43357528E-01 0.20743666E+03</pdfrwt>
<pdfrwt beam="2">  1       -1 0.58724564E-02 0.20743666E+03</pdfrwt>
<totfact> 0.12732169E+04</totfact>
</mgrwt>
</event>
<event>
 4    1  0.3147937E-004  0.1683979E+03  0.7818608E-02  0.1179529E+00
          1   -1    0    0  501    0  0.00000000000E+00  0.00000000000E+00  0.87097654056E+03  0.87097654057E+03  0.50400000000E-02 0. -1.
         -1   -1    0    0    0  501 -0.00000000000E+00 -0.00000000000E+00 -0.81396743311E+01  0.81396758915E+01  0.50400000000E-02 0.  1.
    5000001    1    1    2    0    0  0.10040551729E+02 -0.21318981458E+02  0.30299548349E+03  0.31351327670E+03  0.77000000000E+02 0.  0.
   -5000001    1    1    2    0    0 -0.10040551729E+02  0.21318981458E+02  0.55984138274E+03  0.56560293977E+03  0.77000000000E+02 0.  0.
<mgrwt>
<rscale>  0 0.16839793E+03</rscale>
<asrwt>0</asrwt>
<pdfrwt beam="1">  1        1 0.13399646E+00 0.16839793E+03</pdfrwt>
<pdfrwt beam="2">  1       -1 0.12522571E-02 0.16839793E+03</pdfrwt>
<totfact> 0.26366748E+04</totfact>
</mgrwt>
</event>
<event>
 4    1  0.3147937E-004  0.1798225E+03  0.7818608E-02  0.1167975E+00
         -1   -1    0    0    0  501 -0.00000000000E+00  0.00000000000E+00  0.20311307763E+02  0.20311308388E+02  0.50400000000E-02 0. -1.
          1   -1    0    0  501    0  0.00000000000E+00 -0.00000000000E+00 -0.39800640808E+03  0.39800640811E+03  0.50400000000E-02 0.  1.
    5000001    1    1    2    0    0  0.34548490282E+02  0.30612092843E+02 -0.20032259867E+03  0.21951957076E+03  0.77000000000E+02 0.  0.
   -5000001    1    1    2    0    0 -0.34548490282E+02 -0.30612092843E+02 -0.17737250165E+03  0.19879814574E+03  0.77000000000E+02 0.  0.
<mgrwt>
<rscale>  0 0.17982248E+03</rscale>
<asrwt>0</asrwt>
<pdfrwt beam="1">  1        1 0.61231749E-01 0.17982248E+03</pdfrwt>
<pdfrwt beam="2">  1       -1 0.31248169E-02 0.17982248E+03</pdfrwt>
<totfact> 0.20807466E+04</totfact>
</mgrwt>
</event>
<event>
 4    1  0.3147937E-004  0.2832396E+03  0.7818608E-02  0.1093933E+00
         -1   -1    0    0    0  501 -0.00000000000E+00  0.00000000000E+00  0.49742930614E+02  0.49742930869E+02  0.50400000000E-02 0. -1.
          1   -1    0    0  501    0  0.00000000000E+00 -0.00000000000E+00 -0.40319646335E+03  0.40319646338E+03  0.50400000000E-02 0.  1.
    5000001    1    1    2    0    0  0.78321550492E+02  0.74344476068E+02 -0.25613501739E+03  0.28843632491E+03  0.77000000000E+02 0.  0.
   -5000001    1    1    2    0    0 -0.78321550492E+02 -0.74344476068E+02 -0.97318515341E+02  0.16450306934E+03  0.77000000000E+02 0.  0.
<mgrwt>
<rscale>  0 0.28323964E+03</rscale>
<asrwt>0</asrwt>
<pdfrwt beam="1">  1        1 0.62030223E-01 0.28323964E+03</pdfrwt>
<pdfrwt beam="2">  1       -1 0.76527588E-02 0.28323964E+03</pdfrwt>
<totfact> 0.55038470E+03</totfact>
</mgrwt>
</event>
<event>
 4    1  0.3147937E-004  0.2148189E+03  0.7818608E-02  0.1137806E+00
         -1   -1    0    0    0  501 -0.00000000000E+00  0.00000000000E+00  0.79337499540E+02  0.79337499700E+02  0.50400000000E-02 0. -1.
          1   -1    0    0  501    0  0.00000000000E+00 -0.00000000000E+00 -0.14541410597E+03  0.14541410605E+03  0.50400000000E-02 0.  1.
    5000001    1    1    2    0    0 -0.29956790888E+02 -0.67769974333E+02 -0.44384692354E+02  0.11571162282E+03  0.77000000000E+02 0.  0.
   -5000001    1    1    2    0    0  0.29956790888E+02  0.67769974333E+02 -0.21691914073E+02  0.10903998293E+03  0.77000000000E+02 0.  0.
<mgrwt>
<rscale>  0 0.21481892E+03</rscale>
<asrwt>0</asrwt>
<pdfrwt beam="1">  1        1 0.22371401E-01 0.21481892E+03</pdfrwt>
<pdfrwt beam="2">  1       -1 0.12205769E-01 0.21481892E+03</pdfrwt>
<totfact> 0.95931484E+03</totfact>
</mgrwt>
</event>
<event>
 4    1  0.3147937E-004  0.1894477E+03  0.7818608E-02  0.1158960E+00
         -1   -1    0    0    0  501 -0.00000000000E+00  0.00000000000E+00  0.66795982304E+02  0.66795982495E+02  0.50400000000E-02 0.  1.
          1   -1    0    0  501    0  0.00000000000E+00 -0.00000000000E+00 -0.13432853737E+03  0.13432853746E+03  0.50400000000E-02 0. -1.
    5000001    1    1    2    0    0  0.54205431092E+02 -0.94110760428E+01 -0.38118923900E+02  0.10202376915E+03  0.77000000000E+02 0.  0.
   -5000001    1    1    2    0    0 -0.54205431092E+02  0.94110760428E+01 -0.29413631162E+02  0.99100750806E+02  0.77000000000E+02 0.  0.
<mgrwt>
<rscale>  0 0.18944769E+03</rscale>
<asrwt>0</asrwt>
<pdfrwt beam="1">  1        1 0.20665929E-01 0.18944769E+03</pdfrwt>
<pdfrwt beam="2">  1       -1 0.10276305E-01 0.18944769E+03</pdfrwt>
<totfact> 0.13740862E+04</totfact>
</mgrwt>
</event>
<event>
 4    1  0.3147937E-004  0.3101392E+03  0.7818608E-02  0.1080279E+00
         -1   -1    0    0    0  501 -0.00000000000E+00  0.00000000000E+00  0.10679739117E+03  0.10679739129E+03  0.50400000000E-02 0. -1.
          1   -1    0    0  501    0  0.00000000000E+00 -0.00000000000E+00 -0.22516072050E+03  0.22516072056E+03  0.50400000000E-02 0.  1.
    5000001    1    1    2    0    0 -0.13053645713E+03  0.31395870718E+02 -0.48909059492E+02  0.16231624515E+03  0.77000000000E+02 0.  0.
   -5000001    1    1    2    0    0  0.13053645713E+03 -0.31395870718E+02 -0.69454269843E+02  0.16964186670E+03  0.77000000000E+02 0.  0.
<mgrwt>
<rscale>  0 0.31013918E+03</rscale>
<asrwt>0</asrwt>
<pdfrwt beam="1">  1        1 0.34640111E-01 0.31013918E+03</pdfrwt>
<pdfrwt beam="2">  1       -1 0.16430368E-01 0.31013918E+03</pdfrwt>
<totfact> 0.34990161E+03</totfact>
</mgrwt>
</event>
<event>
 4    1  0.3147937E-004  0.4274994E+03  0.7818608E-02  0.1034653E+00
         -1   -1    0    0    0  501 -0.00000000000E+00  0.00000000000E+00  0.78739697354E+02  0.78739697515E+02  0.50400000000E-02 0. -1.
          1   -1    0    0  501    0  0.00000000000E+00 -0.00000000000E+00 -0.58025276286E+03  0.58025276288E+03  0.50400000000E-02 0.  1.
    5000001    1    1    2    0    0 -0.18043335850E+03  0.76915006267E+02 -0.19543793077E+03  0.28739711173E+03  0.77000000000E+02 0.  0.
   -5000001    1    1    2    0    0  0.18043335850E+03 -0.76915006267E+02 -0.30607513473E+03  0.37159534866E+03  0.77000000000E+02 0.  0.
<mgrwt>
<rscale>  0 0.42749937E+03</rscale>
<asrwt>0</asrwt>
<pdfrwt beam="1">  1        1 0.89269653E-01 0.42749937E+03</pdfrwt>
<pdfrwt beam="2">  1       -1 0.12113800E-01 0.42749937E+03</pdfrwt>
<totfact> 0.16688799E+03</totfact>
</mgrwt>
</event>
<event>
 4    1  0.3147937E-004  0.1732843E+03  0.7818608E-02  0.1174466E+00
         -1   -1    0    0    0  501 -0.00000000000E+00  0.00000000000E+00  0.31208614259E+02  0.31208614666E+02  0.50400000000E-02 0. -1.
          1   -1    0    0  501    0  0.00000000000E+00 -0.00000000000E+00 -0.24053811724E+03  0.24053811729E+03  0.50400000000E-02 0.  1.
    5000001    1    1    2    0    0  0.19076150332E+02  0.28759672418E+02 -0.13550888459E+03  0.15963294169E+03  0.77000000000E+02 0.  0.
   -5000001    1    1    2    0    0 -0.19076150332E+02 -0.28759672418E+02 -0.73820618386E+02  0.11211379027E+03  0.77000000000E+02 0.  0.
<mgrwt>
<rscale>  0 0.17328429E+03</rscale>
<asrwt>0</asrwt>
<pdfrwt beam="1">  1        1 0.37005863E-01 0.17328429E+03</pdfrwt>
<pdfrwt beam="2">  1       -1 0.48013255E-02 0.17328429E+03</pdfrwt>
<totfact> 0.20669718E+04</totfact>
</mgrwt>
</event>
<event>
 4    1  0.3147937E-004  0.4078370E+03  0.7818608E-02  0.1041099E+00
         -1   -1    0    0    0  501 -0.00000000000E+00  0.00000000000E+00  0.43403400251E+02  0.43403400543E+02  0.50400000000E-02 0. -1.
          1   -1    0    0  501    0  0.00000000000E+00 -0.00000000000E+00 -0.95805312800E+03  0.95805312801E+03  0.50400000000E-02 0.  1.
    5000001    1    1    2    0    0 -0.42276617914E+02  0.17514808064E+03 -0.59600479222E+03  0.62738734042E+03  0.77000000000E+02 0.  0.
   -5000001    1    1    2    0    0  0.42276617914E+02 -0.17514808064E+03 -0.31864493553E+03  0.37406918813E+03  0.77000000000E+02 0.  0.
<mgrwt>
<rscale>  0 0.40783704E+03</rscale>
<asrwt>0</asrwt>
<pdfrwt beam="1">  1        1 0.14739277E+00 0.40783704E+03</pdfrwt>
<pdfrwt beam="2">  1       -1 0.66774469E-02 0.40783704E+03</pdfrwt>
<totfact> 0.19564618E+03</totfact>
</mgrwt>
</event>
<event>
 4    1  0.3147937E-004  0.2219658E+03  0.7818608E-02  0.1132426E+00
         -1   -1    0    0    0  501 -0.00000000000E+00  0.00000000000E+00  0.12068133092E+02  0.12068134145E+02  0.50400000000E-02 0.  1.
          1   -1    0    0  501    0  0.00000000000E+00 -0.00000000000E+00 -0.10206388108E+04  0.10206388108E+04  0.50400000000E-02 0. -1.
    5000001    1    1    2    0    0 -0.48887797903E+02  0.60797631310E+02 -0.42345449699E+03  0.43741179657E+03  0.77000000000E+02 0.  0.
   -5000001    1    1    2    0    0  0.48887797903E+02 -0.60797631310E+02 -0.58511618069E+03  0.59529514836E+03  0.77000000000E+02 0.  0.
<mgrwt>
<rscale>  0 0.22196581E+03</rscale>
<asrwt>0</asrwt>
<pdfrwt beam="1">  1        1 0.15702129E+00 0.22196581E+03</pdfrwt>
<pdfrwt beam="2">  1       -1 0.18566367E-02 0.22196581E+03</pdfrwt>
<totfact> 0.11673159E+04</totfact>
</mgrwt>
</event>
<event>
 4    1  0.3147937E-004  0.2552657E+03  0.7818608E-02  0.1110022E+00
          1   -1    0    0  501    0  0.00000000000E+00  0.00000000000E+00  0.32830572527E+03  0.32830572531E+03  0.50400000000E-02 0. -1.
         -1   -1    0    0    0  501 -0.00000000000E+00 -0.00000000000E+00 -0.49618835492E+02  0.49618835748E+02  0.50400000000E-02 0.  1.
    5000001    1    1    2    0    0  0.66813015684E+02  0.76527105893E+02  0.12989005925E+03  0.18199122092E+03  0.77000000000E+02 0.  0.
   -5000001    1    1    2    0    0 -0.66813015684E+02 -0.76527105893E+02  0.14879683053E+03  0.19593334014E+03  0.77000000000E+02 0.  0.
<mgrwt>
<rscale>  0 0.25526573E+03</rscale>
<asrwt>0</asrwt>
<pdfrwt beam="1">  1        1 0.50508572E-01 0.25526573E+03</pdfrwt>
<pdfrwt beam="2">  1       -1 0.76336672E-02 0.25526573E+03</pdfrwt>
<totfact> 0.71491767E+03</totfact>
</mgrwt>
</event>
<event>
 4    1  0.3147937E-004  0.3531515E+03  0.7818608E-02  0.1061329E+00
          1   -1    0    0  501    0  0.00000000000E+00  0.00000000000E+00  0.60436075288E+03  0.60436075290E+03  0.50400000000E-02 0.  1.
         -1   -1    0    0    0  501 -0.00000000000E+00 -0.00000000000E+00 -0.51590049076E+02  0.51590049322E+02  0.50400000000E-02 0. -1.
    5000001    1    1    2    0    0  0.23249143506E+02 -0.14227729624E+03  0.40052231057E+03  0.43258579838E+03  0.77000000000E+02 0.  0.
   -5000001    1    1    2    0    0 -0.23249143506E+02  0.14227729624E+03  0.15224839323E+03  0.22336500384E+03  0.77000000000E+02 0.  0.
<mgrwt>
<rscale>  0 0.35315153E+03</rscale>
<asrwt>0</asrwt>
<pdfrwt beam="1">  1        1 0.92978577E-01 0.35315153E+03</pdfrwt>
<pdfrwt beam="2">  1       -1 0.79369306E-02 0.35315153E+03</pdfrwt>
<totfact> 0.30437174E+03</totfact>
</mgrwt>
</event>
<event>
 4    1  0.3147937E-004  0.1807735E+03  0.7818608E-02  0.1167057E+00
         -1   -1    0    0    0  501 -0.00000000000E+00  0.00000000000E+00  0.26524985746E+02  0.26524986225E+02  0.50400000000E-02 0.  1.
          1   -1    0    0  501    0  0.00000000000E+00 -0.00000000000E+00 -0.30800259336E+03  0.30800259340E+03  0.50400000000E-02 0. -1.
    5000001    1    1    2    0    0 -0.20445139562E+02  0.17162615586E+02 -0.68397217743E+02  0.10639425972E+03  0.77000000000E+02 0.  0.
   -5000001    1    1    2    0    0  0.20445139562E+02 -0.17162615586E+02 -0.21308038987E+03  0.22813331991E+03  0.77000000000E+02 0.  0.
<mgrwt>
<rscale>  0 0.18077350E+03</rscale>
<asrwt>0</asrwt>
<pdfrwt beam="1">  1        1 0.47385012E-01 0.18077350E+03</pdfrwt>
<pdfrwt beam="2">  1       -1 0.40807673E-02 0.18077350E+03</pdfrwt>
<totfact> 0.19399884E+04</totfact>
</mgrwt>
</event>
<event>
 4    1  0.3147937E-004  0.1940265E+03  0.7818608E-02  0.1154879E+00
         -1   -1    0    0    0  501 -0.00000000000E+00  0.00000000000E+00  0.11173311661E+02  0.11173312798E+02  0.50400000000E-02 0. -1.
          1   -1    0    0  501    0  0.00000000000E+00 -0.00000000000E+00 -0.84232561659E+03  0.84232561661E+03  0.50400000000E-02 0.  1.
    5000001    1    1    2    0    0  0.35002525176E+02 -0.47511724194E+02 -0.41629116976E+03  0.42744576115E+03  0.77000000000E+02 0.  0.
   -5000001    1    1    2    0    0 -0.35002525176E+02  0.47511724194E+02 -0.41486113517E+03  0.42605316825E+03  0.77000000000E+02 0.  0.
<mgrwt>
<rscale>  0 0.19402646E+03</rscale>
<asrwt>0</asrwt>
<pdfrwt beam="1">  1        1 0.12958851E+00 0.19402646E+03</pdfrwt>
<pdfrwt beam="2">  1       -1 0.17189718E-02 0.19402646E+03</pdfrwt>
<totfact> 0.17768502E+04</totfact>
</mgrwt>
</event>
<event>
 4    1  0.3147937E-004  0.2270079E+03  0.7818608E-02  0.1128764E+00
          1   -1    0    0  501    0  0.00000000000E+00  0.00000000000E+00  0.82817631346E+02  0.82817631499E+02  0.50400000000E-02 0.  1.
         -1   -1    0    0    0  501 -0.00000000000E+00 -0.00000000000E+00 -0.15556039279E+03  0.15556039287E+03  0.50400000000E-02 0. -1.
    5000001    1    1    2    0    0  0.69136905410E+02 -0.19393776556E+02 -0.80899442972E+02  0.13277706930E+03  0.77000000000E+02 0.  0.
   -5000001    1    1    2    0    0 -0.69136905410E+02  0.19393776556E+02  0.81566815253E+01  0.10560095507E+03  0.77000000000E+02 0.  0.
<mgrwt>
<rscale>  0 0.22700787E+03</rscale>
<asrwt>0</asrwt>
<pdfrwt beam="1">  1        1 0.12741174E-01 0.22700787E+03</pdfrwt>
<pdfrwt beam="2">  1       -1 0.23932368E-01 0.22700787E+03</pdfrwt>
<totfact> 0.68035946E+03</totfact>
</mgrwt>
</event>
<event>
 4    1  0.3147937E-004  0.3850174E+03  0.7818608E-02  0.1049095E+00
         -1   -1    0    0    0  501 -0.00000000000E+00  0.00000000000E+00  0.11980459668E+03  0.11980459679E+03  0.50400000000E-02 0. -1.
          1   -1    0    0  501    0  0.00000000000E+00 -0.00000000000E+00 -0.30933365352E+03  0.30933365357E+03  0.50400000000E-02 0.  1.
    5000001    1    1    2    0    0 -0.76238638118E+01 -0.16652906426E+03 -0.15918520966E+03  0.24302054135E+03  0.77000000000E+02 0.  0.
   -5000001    1    1    2    0    0  0.76238638118E+01  0.16652906426E+03 -0.30343847179E+02  0.18611770900E+03  0.77000000000E+02 0.  0.
<mgrwt>
<rscale>  0 0.38501737E+03</rscale>
<asrwt>0</asrwt>
<pdfrwt beam="1">  1        1 0.47589793E-01 0.38501737E+03</pdfrwt>
<pdfrwt beam="2">  1       -1 0.18431477E-01 0.38501737E+03</pdfrwt>
<totfact> 0.19508684E+03</totfact>
</mgrwt>
</event>
<event>
 4    1  0.3147937E-004  0.2309896E+03  0.7818608E-02  0.1125945E+00
         -1   -1    0    0    0  501 -0.00000000000E+00  0.00000000000E+00  0.13954628019E+02  0.13954628929E+02  0.50400000000E-02 0. -1.
          1   -1    0    0  501    0  0.00000000000E+00 -0.00000000000E+00 -0.95588710737E+03  0.95588710739E+03  0.50400000000E-02 0.  1.
    5000001    1    1    2    0    0  0.73101805239E+02 -0.37240708730E+02 -0.58039736972E+03  0.59120288488E+03  0.77000000000E+02 0.  0.
   -5000001    1    1    2    0    0 -0.73101805239E+02  0.37240708730E+02 -0.36153510963E+03  0.37863885143E+03  0.77000000000E+02 0.  0.
<mgrwt>
<rscale>  0 0.23098961E+03</rscale>
<asrwt>0</asrwt>
<pdfrwt beam="1">  1        1 0.14705950E+00 0.23098961E+03</pdfrwt>
<pdfrwt beam="2">  1       -1 0.21468667E-02 0.23098961E+03</pdfrwt>
<totfact> 0.10579433E+04</totfact>
</mgrwt>
</event>
<event>
 4    1  0.3147937E-004  0.2553759E+03  0.7818608E-02  0.1109954E+00
         -1   -1    0    0    0  501 -0.00000000000E+00  0.00000000000E+00  0.13528427980E+02  0.13528428919E+02  0.50400000000E-02 0.  1.
          1   -1    0    0  501    0  0.00000000000E+00 -0.00000000000E+00 -0.12051810926E+04  0.12051810926E+04  0.50400000000E-02 0. -1.
    5000001    1    1    2    0    0  0.24524585163E+02 -0.80327431173E+02 -0.32080177703E+03  0.34043609036E+03  0.77000000000E+02 0.  0.
   -5000001    1    1    2    0    0 -0.24524585163E+02  0.80327431173E+02 -0.87085088758E+03  0.87827343116E+03  0.77000000000E+02 0.  0.
<mgrwt>
<rscale>  0 0.25537585E+03</rscale>
<asrwt>0</asrwt>
<pdfrwt beam="1">  1        1 0.18541239E+00 0.25537585E+03</pdfrwt>
<pdfrwt beam="2">  1       -1 0.20812976E-02 0.25537585E+03</pdfrwt>
<totfact> 0.73251209E+03</totfact>
</mgrwt>
</event>
<event>
 4    1  0.3147937E-004  0.2024220E+03  0.7818608E-02  0.1147712E+00
         -1   -1    0    0    0  501 -0.00000000000E+00  0.00000000000E+00  0.77831187756E+01  0.77831204075E+01  0.50400000000E-02 0. -1.
          1   -1    0    0  501    0  0.00000000000E+00 -0.00000000000E+00 -0.13161383524E+04  0.13161383524E+04  0.50400000000E-02 0.  1.
    5000001    1    1    2    0    0 -0.83816259826E+01 -0.61111661444E+02 -0.80184821651E+03  0.80789507310E+03  0.77000000000E+02 0.  0.
   -5000001    1    1    2    0    0  0.83816259826E+01  0.61111661444E+02 -0.50650701708E+03  0.51602639968E+03  0.77000000000E+02 0.  0.
<mgrwt>
<rscale>  0 0.20242196E+03</rscale>
<asrwt>0</asrwt>
<pdfrwt beam="1">  1        1 0.20248265E+00 0.20242196E+03</pdfrwt>
<pdfrwt beam="2">  1       -1 0.11974041E-02 0.20242196E+03</pdfrwt>
<totfact> 0.13603427E+04</totfact>
</mgrwt>
</event>
<event>
 4    1  0.3147937E-004  0.1778133E+03  0.7818608E-02  0.1169936E+00
         -1   -1    0    0    0  501 -0.00000000000E+00  0.00000000000E+00  0.26229553582E+02  0.26229554067E+02  0.50400000000E-02 0.  1.
          1   -1    0    0  501    0  0.00000000000E+00 -0.00000000000E+00 -0.30135441399E+03  0.30135441404E+03  0.50400000000E-02 0. -1.
    5000001    1    1    2    0    0 -0.23891564665E+02  0.29649958036E+02 -0.95331534345E+02  0.12832391949E+03  0.77000000000E+02 0.  0.
   -5000001    1    1    2    0    0  0.23891564665E+02 -0.29649958036E+02 -0.17979332607E+03  0.19926004861E+03  0.77000000000E+02 0.  0.
<mgrwt>
<rscale>  0 0.17781329E+03</rscale>
<asrwt>0</asrwt>
<pdfrwt beam="1">  1        1 0.46362215E-01 0.17781329E+03</pdfrwt>
<pdfrwt beam="2">  1       -1 0.40353162E-02 0.17781329E+03</pdfrwt>
<totfact> 0.20240598E+04</totfact>
</mgrwt>
</event>
<event>
 4    1  0.3147937E-004  0.2304668E+03  0.7818608E-02  0.1126312E+00
          1   -1    0    0  501    0  0.00000000000E+00  0.00000000000E+00  0.15673618009E+04  0.15673618009E+04  0.50400000000E-02 0. -1.
         -1   -1    0    0    0  501 -0.00000000000E+00 -0.00000000000E+00 -0.84720268756E+01  0.84720283747E+01  0.50400000000E-02 0.  1.
    5000001    1    1    2    0    0 -0.81762091905E+02  0.63116307198E+01  0.60852518320E+03  0.61883501432E+03  0.77000000000E+02 0.  0.
   -5000001    1    1    2    0    0  0.81762091905E+02 -0.63116307198E+01  0.95036459082E+03  0.95699881496E+03  0.77000000000E+02 0.  0.
<mgrwt>
<rscale>  0 0.23046677E+03</rscale>
<asrwt>0</asrwt>
<pdfrwt beam="1">  1        1 0.24113257E+00 0.23046677E+03</pdfrwt>
<pdfrwt beam="2">  1       -1 0.13033890E-02 0.23046677E+03</pdfrwt>
<totfact> 0.82351251E+03</totfact>
</mgrwt>
</event>
<event>
 4    1  0.3147937E-004  0.1882096E+03  0.7818608E-02  0.1160086E+00
         -1   -1    0    0    0  501 -0.00000000000E+00  0.00000000000E+00  0.10288267119E+02  0.10288268353E+02  0.50400000000E-02 0. -1.
          1   -1    0    0  501    0  0.00000000000E+00 -0.00000000000E+00 -0.86075864940E+03  0.86075864941E+03  0.50400000000E-02 0.  1.
    5000001    1    1    2    0    0 -0.41919726204E+02 -0.28431994223E+02 -0.33729292308E+03  0.34965863024E+03  0.77000000000E+02 0.  0.
   -5000001    1    1    2    0    0  0.41919726204E+02  0.28431994223E+02 -0.51317745920E+03  0.52138828753E+03  0.77000000000E+02 0.  0.
<mgrwt>
<rscale>  0 0.18820962E+03</rscale>
<asrwt>0</asrwt>
<pdfrwt beam="1">  1        1 0.13242435E+00 0.18820962E+03</pdfrwt>
<pdfrwt beam="2">  1       -1 0.15828111E-02 0.18820962E+03</pdfrwt>
<totfact> 0.19316842E+04</totfact>
</mgrwt>
</event>
<event>
 4    1  0.3147937E-004  0.2384073E+03  0.7818608E-02  0.1120858E+00
         -1   -1    0    0    0  501 -0.00000000000E+00  0.00000000000E+00  0.72432801026E+02  0.72432801201E+02  0.50400000000E-02 0. -1.
          1   -1    0    0  501    0  0.00000000000E+00 -0.00000000000E+00 -0.19617499446E+03  0.19617499453E+03  0.50400000000E-02 0.  1.
    5000001    1    1    2    0    0 -0.77617415568E+02  0.18708022673E+02 -0.12682275218E+02  0.11164359998E+03  0.77000000000E+02 0.  0.
   -5000001    1    1    2    0    0  0.77617415568E+02 -0.18708022673E+02 -0.11105991822E+03  0.15696419575E+03  0.77000000000E+02 0.  0.
<mgrwt>
<rscale>  0 0.23840725E+03</rscale>
<asrwt>0</asrwt>
<pdfrwt beam="1">  1        1 0.30180768E-01 0.23840725E+03</pdfrwt>
<pdfrwt beam="2">  1       -1 0.11143508E-01 0.23840725E+03</pdfrwt>
<totfact> 0.76067798E+03</totfact>
</mgrwt>
</event>
<event>
 4    1  0.3147937E-004  0.1887905E+03  0.7818608E-02  0.1159557E+00
         -1   -1    0    0    0  501 -0.00000000000E+00  0.00000000000E+00  0.10182928968E+04  0.10182928969E+04  0.50400000000E-02 0.  1.
          1   -1    0    0  501    0  0.00000000000E+00 -0.00000000000E+00 -0.87503908075E+01  0.87503922590E+01  0.50400000000E-02 0. -1.
    5000001    1    1    2    0    0 -0.44679599688E+02 -0.26838670580E+01  0.67489943321E+03  0.68075084628E+03  0.77000000000E+02 0.  0.
   -5000001    1    1    2    0    0  0.44679599688E+02  0.26838670580E+01  0.33464307283E+03  0.34629244283E+03  0.77000000000E+02 0.  0.
<mgrwt>
<rscale>  0 0.18879048E+03</rscale>
<asrwt>0</asrwt>
<pdfrwt beam="1">  1        1 0.13462142E-02 0.18879048E+03</pdfrwt>
<pdfrwt beam="2">  1       -1 0.15666043E+00 0.18879048E+03</pdfrwt>
<totfact> 0.35065816E+03</totfact>
</mgrwt>
</event>
<event>
 4    1  0.3147937E-004  0.2626462E+03  0.7818608E-02  0.1105564E+00
          1   -1    0    0  501    0  0.00000000000E+00  0.00000000000E+00  0.73087999225E+02  0.73087999398E+02  0.50400000000E-02 0.  1.
         -1   -1    0    0    0  501 -0.00000000000E+00 -0.00000000000E+00 -0.23595874243E+03  0.23595874248E+03  0.50400000000E-02 0. -1.
    5000001    1    1    2    0    0  0.67169302997E+02  0.52505039658E+02 -0.15630181287E+03  0.19397873894E+03  0.77000000000E+02 0.  0.
   -5000001    1    1    2    0    0 -0.67169302997E+02 -0.52505039658E+02 -0.65689303325E+01  0.11506800294E+03  0.77000000000E+02 0.  0.
<mgrwt>
<rscale>  0 0.26264617E+03</rscale>
<asrwt>0</asrwt>
<pdfrwt beam="1">  1        1 0.11244308E-01 0.26264617E+03</pdfrwt>
<pdfrwt beam="2">  1       -1 0.36301345E-01 0.26264617E+03</pdfrwt>
<totfact> 0.39869240E+03</totfact>
</mgrwt>
</event>
<event>
 4    1  0.3147937E-004  0.1844727E+03  0.7818608E-02  0.1163543E+00
          1   -1    0    0  501    0  0.00000000000E+00  0.00000000000E+00  0.28782999317E+03  0.28782999321E+03  0.50400000000E-02 0.  1.
         -1   -1    0    0    0  501 -0.00000000000E+00 -0.00000000000E+00 -0.29557540110E+02  0.29557540540E+02  0.50400000000E-02 0. -1.
    5000001    1    1    2    0    0 -0.11904909674E+01  0.48253189205E+02  0.15627231167E+03  0.18077561487E+03  0.77000000000E+02 0.  0.
   -5000001    1    1    2    0    0  0.11904909674E+01 -0.48253189205E+02  0.10200014139E+03  0.13661191888E+03  0.77000000000E+02 0.  0.
<mgrwt>
<rscale>  0 0.18447273E+03</rscale>
<asrwt>0</asrwt>
<pdfrwt beam="1">  1        1 0.44281537E-01 0.18447273E+03</pdfrwt>
<pdfrwt beam="2">  1       -1 0.45473139E-02 0.18447273E+03</pdfrwt>
<totfact> 0.18012434E+04</totfact>
</mgrwt>
</event>
<event>
 4    1  0.3147937E-004  0.2449645E+03  0.7818608E-02  0.1116529E+00
         -1   -1    0    0    0  501 -0.00000000000E+00  0.00000000000E+00  0.49393619697E+02  0.49393619954E+02  0.50400000000E-02 0.  1.
          1   -1    0    0  501    0  0.00000000000E+00 -0.00000000000E+00 -0.30372138789E+03  0.30372138793E+03  0.50400000000E-02 0. -1.
    5000001    1    1    2    0    0 -0.28102787978E+02  0.90631650424E+02 -0.11518680364E+03  0.16793112422E+03  0.77000000000E+02 0.  0.
   -5000001    1    1    2    0    0  0.28102787978E+02 -0.90631650424E+02 -0.13914096455E+03  0.18518388366E+03  0.77000000000E+02 0.  0.
<mgrwt>
<rscale>  0 0.24496448E+03</rscale>
<asrwt>0</asrwt>
<pdfrwt beam="1">  1        1 0.46726366E-01 0.24496448E+03</pdfrwt>
<pdfrwt beam="2">  1       -1 0.75990187E-02 0.24496448E+03</pdfrwt>
<totfact> 0.79257626E+03</totfact>
</mgrwt>
</event>
<event>
 4    1  0.3147937E-004  0.2112216E+03  0.7818608E-02  0.1140602E+00
         -1   -1    0    0    0  501 -0.00000000000E+00  0.00000000000E+00  0.66294596883E+02  0.66294597075E+02  0.50400000000E-02 0.  1.
          1   -1    0    0  501    0  0.00000000000E+00 -0.00000000000E+00 -0.16824359054E+03  0.16824359061E+03  0.50400000000E-02 0. -1.
    5000001    1    1    2    0    0 -0.60232079427E+02 -0.25114231586E+02 -0.85486226692E+02  0.13227064290E+03  0.77000000000E+02 0.  0.
   -5000001    1    1    2    0    0  0.60232079427E+02  0.25114231586E+02 -0.16462766964E+02  0.10226754478E+03  0.77000000000E+02 0.  0.
<mgrwt>
<rscale>  0 0.21122160E+03</rscale>
<asrwt>0</asrwt>
<pdfrwt beam="1">  1        1 0.25883629E-01 0.21122160E+03</pdfrwt>
<pdfrwt beam="2">  1       -1 0.10199169E-01 0.21122160E+03</pdfrwt>
<totfact> 0.10517862E+04</totfact>
</mgrwt>
</event>
<event>
 4    1  0.3147937E-004  0.1689383E+03  0.7818608E-02  0.1178960E+00
         -1   -1    0    0    0  501 -0.00000000000E+00  0.00000000000E+00  0.10636022386E+03  0.10636022398E+03  0.50400000000E-02 0.  1.
          1   -1    0    0  501    0  0.00000000000E+00 -0.00000000000E+00 -0.67083720158E+02  0.67083720347E+02  0.50400000000E-02 0. -1.
    5000001    1    1    2    0    0 -0.31398110498E+02 -0.14322882458E+02  0.23621575464E+02  0.87623998608E+02  0.77000000000E+02 0.  0.
   -5000001    1    1    2    0    0  0.31398110498E+02  0.14322882458E+02  0.15654928237E+02  0.85819945717E+02  0.77000000000E+02 0.  0.
<mgrwt>
<rscale>  0 0.16893833E+03</rscale>
<asrwt>0</asrwt>
<pdfrwt beam="1">  1        1 0.10320572E-01 0.16893833E+03</pdfrwt>
<pdfrwt beam="2">  1       -1 0.16363111E-01 0.16893833E+03</pdfrwt>
<totfact> 0.16299052E+04</totfact>
</mgrwt>
</event>
<event>
 4    1  0.3147937E-004  0.1997089E+03  0.7818608E-02  0.1149985E+00
          1   -1    0    0  501    0  0.00000000000E+00  0.00000000000E+00  0.47177905409E+02  0.47177905678E+02  0.50400000000E-02 0. -1.
         -1   -1    0    0    0  501 -0.00000000000E+00 -0.00000000000E+00 -0.21134706916E+03  0.21134706922E+03  0.50400000000E-02 0.  1.
    5000001    1    1    2    0    0 -0.58978286394E+02  0.19930274784E+02 -0.65393046377E+02  0.11866298763E+03  0.77000000000E+02 0.  0.
   -5000001    1    1    2    0    0  0.58978286394E+02 -0.19930274784E+02 -0.98776117376E+02  0.13986198727E+03  0.77000000000E+02 0.  0.
<mgrwt>
<rscale>  0 0.19970891E+03</rscale>
<asrwt>0</asrwt>
<pdfrwt beam="1">  1        1 0.72581394E-02 0.19970891E+03</pdfrwt>
<pdfrwt beam="2">  1       -1 0.32514933E-01 0.19970891E+03</pdfrwt>
<totfact> 0.85836794E+03</totfact>
</mgrwt>
</event>
<event>
 4    1  0.3147937E-004  0.2794401E+03  0.7818608E-02  0.1095995E+00
          1   -1    0    0  501    0  0.00000000000E+00  0.00000000000E+00  0.63125385463E+03  0.63125385465E+03  0.50400000000E-02 0.  1.
         -1   -1    0    0    0  501 -0.00000000000E+00 -0.00000000000E+00 -0.30925258048E+02  0.30925258459E+02  0.50400000000E-02 0. -1.
    5000001    1    1    2    0    0 -0.83817486016E+02  0.40357469712E+02  0.46669272330E+03  0.48206347539E+03  0.77000000000E+02 0.  0.
   -5000001    1    1    2    0    0  0.83817486016E+02 -0.40357469712E+02  0.13363587329E+03  0.18011563772E+03  0.77000000000E+02 0.  0.
<mgrwt>
<rscale>  0 0.27944007E+03</rscale>
<asrwt>0</asrwt>
<pdfrwt beam="1">  1        1 0.97115981E-01 0.27944007E+03</pdfrwt>
<pdfrwt beam="2">  1       -1 0.47577319E-02 0.27944007E+03</pdfrwt>
<totfact> 0.61917205E+03</totfact>
</mgrwt>
</event>
<event>
 4    1  0.3147937E-004  0.1804277E+03  0.7818608E-02  0.1167390E+00
          1   -1    0    0  501    0  0.00000000000E+00  0.00000000000E+00  0.31109909225E+03  0.31109909229E+03  0.50400000000E-02 0.  1.
         -1   -1    0    0    0  501 -0.00000000000E+00 -0.00000000000E+00 -0.26160598487E+02  0.26160598972E+02  0.50400000000E-02 0. -1.
    5000001    1    1    2    0    0 -0.40899104957E+02  0.10998017542E+02  0.10435150563E+03  0.13642554711E+03  0.77000000000E+02 0.  0.
   -5000001    1    1    2    0    0  0.40899104957E+02 -0.10998017542E+02  0.18058698814E+03  0.20083414416E+03  0.77000000000E+02 0.  0.
<mgrwt>
<rscale>  0 0.18042770E+03</rscale>
<asrwt>0</asrwt>
<pdfrwt beam="1">  1        1 0.47861397E-01 0.18042770E+03</pdfrwt>
<pdfrwt beam="2">  1       -1 0.40247076E-02 0.18042770E+03</pdfrwt>
<totfact> 0.19551663E+04</totfact>
</mgrwt>
</event>
<event>
 4    1  0.3147937E-004  0.1721560E+03  0.7818608E-02  0.1175618E+00
          1   -1    0    0  501    0  0.00000000000E+00  0.00000000000E+00  0.28141870320E+03  0.28141870324E+03  0.50400000000E-02 0.  1.
         -1   -1    0    0    0  501 -0.00000000000E+00 -0.00000000000E+00 -0.26328818231E+02  0.26328818713E+02  0.50400000000E-02 0. -1.
    5000001    1    1    2    0    0  0.66339849196E+01  0.34735942049E+02  0.15464514228E+03  0.17633693730E+03  0.77000000000E+02 0.  0.
   -5000001    1    1    2    0    0 -0.66339849196E+01 -0.34735942049E+02  0.10044474268E+03  0.13141058465E+03  0.77000000000E+02 0.  0.
<mgrwt>
<rscale>  0 0.17215600E+03</rscale>
<asrwt>0</asrwt>
<pdfrwt beam="1">  1        1 0.43295184E-01 0.17215600E+03</pdfrwt>
<pdfrwt beam="2">  1       -1 0.40505875E-02 0.17215600E+03</pdfrwt>
<totfact> 0.21859120E+04</totfact>
</mgrwt>
</event>
<event>
 4    1  0.3147937E-004  0.3878361E+03  0.7818608E-02  0.1048075E+00
          1   -1    0    0  501    0  0.00000000000E+00  0.00000000000E+00  0.66961315207E+03  0.66961315209E+03  0.50400000000E-02 0.  1.
         -1   -1    0    0    0  501 -0.00000000000E+00 -0.00000000000E+00 -0.56158121652E+02  0.56158121878E+02  0.50400000000E-02 0. -1.
    5000001    1    1    2    0    0  0.10468631206E+02  0.13839038638E+03  0.98229187443E+02  0.18665332718E+03  0.77000000000E+02 0.  0.
   -5000001    1    1    2    0    0 -0.10468631206E+02 -0.13839038638E+03  0.51522584297E+03  0.53911794679E+03  0.77000000000E+02 0.  0.
<mgrwt>
<rscale>  0 0.38783614E+03</rscale>
<asrwt>0</asrwt>
<pdfrwt beam="1">  1        1 0.10301741E+00 0.38783614E+03</pdfrwt>
<pdfrwt beam="2">  1       -1 0.86397113E-02 0.38783614E+03</pdfrwt>
<totfact> 0.23079557E+03</totfact>
</mgrwt>
</event>
<event>
 4    1  0.3147937E-004  0.2229596E+03  0.7818608E-02  0.1131696E+00
          1   -1    0    0  501    0  0.00000000000E+00  0.00000000000E+00  0.19194555547E+02  0.19194556209E+02  0.50400000000E-02 0.  1.
         -1   -1    0    0    0  501 -0.00000000000E+00 -0.00000000000E+00 -0.64746196789E+03  0.64746196791E+03  0.50400000000E-02 0. -1.
    5000001    1    1    2    0    0 -0.10724150848E+02 -0.69276008477E+02 -0.19511040686E+03  0.22115886513E+03  0.77000000000E+02 0.  0.
   -5000001    1    1    2    0    0  0.10724150848E+02  0.69276008477E+02 -0.43315700549E+03  0.44549765899E+03  0.77000000000E+02 0.  0.
<mgrwt>
<rscale>  0 0.22295959E+03</rscale>
<asrwt>0</asrwt>
<pdfrwt beam="1">  1        1 0.29530091E-02 0.22295959E+03</pdfrwt>
<pdfrwt beam="2">  1       -1 0.99609517E-01 0.22295959E+03</pdfrwt>
<totfact> 0.35033431E+03</totfact>
</mgrwt>
</event>
<event>
 4    1  0.3147937E-004  0.2007073E+03  0.7818608E-02  0.1149144E+00
          1   -1    0    0  501    0  0.00000000000E+00  0.00000000000E+00  0.11717867094E+04  0.11717867095E+04  0.50400000000E-02 0. -1.
         -1   -1    0    0    0  501 -0.00000000000E+00 -0.00000000000E+00 -0.85944446560E+01  0.85944461337E+01  0.50400000000E-02 0.  1.
    5000001    1    1    2    0    0 -0.17704760235E+02 -0.94840420184E+01  0.94118391187E+03  0.94454198506E+03  0.77000000000E+02 0.  0.
   -5000001    1    1    2    0    0  0.17704760235E+02  0.94840420184E+01  0.22200835293E+03  0.23583917053E+03  0.77000000000E+02 0.  0.
<mgrwt>
<rscale>  0 0.20070732E+03</rscale>
<asrwt>0</asrwt>
<pdfrwt beam="1">  1        1 0.18027491E+00 0.20070732E+03</pdfrwt>
<pdfrwt beam="2">  1       -1 0.13222222E-02 0.20070732E+03</pdfrwt>
<totfact> 0.14804899E+04</totfact>
</mgrwt>
</event>
<event>
 4    1  0.3147937E-004  0.1721532E+03  0.7818608E-02  0.1175621E+00
         -1   -1    0    0    0  501 -0.00000000000E+00  0.00000000000E+00  0.60225605939E+02  0.60225606150E+02  0.50400000000E-02 0. -1.
          1   -1    0    0  501    0  0.00000000000E+00 -0.00000000000E+00 -0.12302372340E+03  0.12302372351E+03  0.50400000000E-02 0.  1.
    5000001    1    1    2    0    0  0.13255643882E+02  0.29490282883E+02 -0.92034598620E+01  0.84018406035E+02  0.77000000000E+02 0.  0.
   -5000001    1    1    2    0    0 -0.13255643882E+02 -0.29490282883E+02 -0.53594657603E+02  0.99230923622E+02  0.77000000000E+02 0.  0.
<mgrwt>
<rscale>  0 0.17215317E+03</rscale>
<asrwt>0</asrwt>
<pdfrwt beam="1">  1        1 0.18926727E-01 0.17215317E+03</pdfrwt>
<pdfrwt beam="2">  1       -1 0.92654779E-02 0.17215317E+03</pdfrwt>
<totfact> 0.17885353E+04</totfact>
</mgrwt>
</event>
<event>
 4    1  0.3147937E-004  0.2865645E+03  0.7818608E-02  0.1092157E+00
          1   -1    0    0  501    0  0.00000000000E+00  0.00000000000E+00  0.54713707958E+02  0.54713708190E+02  0.50400000000E-02 0.  1.
         -1   -1    0    0    0  501 -0.00000000000E+00 -0.00000000000E+00 -0.37522229622E+03  0.37522229626E+03  0.50400000000E-02 0. -1.
    5000001    1    1    2    0    0 -0.44737730641E+02  0.10811131920E+03 -0.11496373743E+03  0.18120480900E+03  0.77000000000E+02 0.  0.
   -5000001    1    1    2    0    0  0.44737730641E+02 -0.10811131920E+03 -0.20554485084E+03  0.24873119544E+03  0.77000000000E+02 0.  0.
<mgrwt>
<rscale>  0 0.28656450E+03</rscale>
<asrwt>0</asrwt>
<pdfrwt beam="1">  1        1 0.84174938E-02 0.28656450E+03</pdfrwt>
<pdfrwt beam="2">  1       -1 0.57726505E-01 0.28656450E+03</pdfrwt>
<totfact> 0.25356309E+03</totfact>
</mgrwt>
</event>
<event>
 4    1  0.3147937E-004  0.1680696E+03  0.7818608E-02  0.1179876E+00
         -1   -1    0    0    0  501 -0.00000000000E+00  0.00000000000E+00  0.38074646587E+02  0.38074646920E+02  0.50400000000E-02 0. -1.
          1   -1    0    0  501    0  0.00000000000E+00 -0.00000000000E+00 -0.18547376115E+03  0.18547376122E+03  0.50400000000E-02 0.  1.
    5000001    1    1    2    0    0 -0.15258983558E+02 -0.28577151072E+02 -0.85843383703E+02  0.11978137029E+03  0.77000000000E+02 0.  0.
   -5000001    1    1    2    0    0  0.15258983558E+02  0.28577151072E+02 -0.61555730863E+02  0.10376703785E+03  0.77000000000E+02 0.  0.
<mgrwt>
<rscale>  0 0.16806960E+03</rscale>
<asrwt>0</asrwt>
<pdfrwt beam="1">  1        1 0.28534424E-01 0.16806960E+03</pdfrwt>
<pdfrwt beam="2">  1       -1 0.58576381E-02 0.16806960E+03</pdfrwt>
<totfact> 0.21204935E+04</totfact>
</mgrwt>
</event>
<event>
 4    1  0.3147937E-004  0.2966233E+03  0.7818608E-02  0.1086941E+00
          1   -1    0    0  501    0  0.00000000000E+00  0.00000000000E+00  0.10016108871E+04  0.10016108871E+04  0.50400000000E-02 0.  1.
         -1   -1    0    0    0  501 -0.00000000000E+00 -0.00000000000E+00 -0.21960962956E+02  0.21960963534E+02  0.50400000000E-02 0. -1.
    5000001    1    1    2    0    0 -0.60503543578E+02 -0.11044495759E+03  0.43998914338E+03  0.46408858393E+03  0.77000000000E+02 0.  0.
   -5000001    1    1    2    0    0  0.60503543578E+02  0.11044495759E+03  0.53966078078E+03  0.55948326673E+03  0.77000000000E+02 0.  0.
<mgrwt>
<rscale>  0 0.29662326E+03</rscale>
<asrwt>0</asrwt>
<pdfrwt beam="1">  1        1 0.15409396E+00 0.29662326E+03</pdfrwt>
<pdfrwt beam="2">  1       -1 0.33786103E-02 0.29662326E+03</pdfrwt>
<totfact> 0.50490714E+03</totfact>
</mgrwt>
</event>
<event>
 4    1  0.3147937E-004  0.2201448E+03  0.7818608E-02  0.1133775E+00
         -1   -1    0    0    0  501 -0.00000000000E+00  0.00000000000E+00  0.18586316674E+02  0.18586317357E+02  0.50400000000E-02 0. -1.
          1   -1    0    0  501    0  0.00000000000E+00 -0.00000000000E+00 -0.65187366218E+03  0.65187366220E+03  0.50400000000E-02 0.  1.
    5000001    1    1    2    0    0 -0.13699061291E+02 -0.66282525326E+02 -0.43868946007E+03  0.45050913400E+03  0.77000000000E+02 0.  0.
   -5000001    1    1    2    0    0  0.13699061291E+02  0.66282525326E+02 -0.19459788544E+03  0.21995084556E+03  0.77000000000E+02 0.  0.
<mgrwt>
<rscale>  0 0.22014478E+03</rscale>
<asrwt>0</asrwt>
<pdfrwt beam="1">  1        1 0.10028824E+00 0.22014478E+03</pdfrwt>
<pdfrwt beam="2">  1       -1 0.28594339E-02 0.22014478E+03</pdfrwt>
<totfact> 0.12462395E+04</totfact>
</mgrwt>
</event>
<event>
 4    1  0.3147937E-004  0.1812985E+03  0.7818608E-02  0.1166552E+00
         -1   -1    0    0    0  501 -0.00000000000E+00  0.00000000000E+00  0.13005936746E+04  0.13005936746E+04  0.50400000000E-02 0.  1.
          1   -1    0    0  501    0  0.00000000000E+00 -0.00000000000E+00 -0.63181019978E+01  0.63181040080E+01  0.50400000000E-02 0. -1.
    5000001    1    1    2    0    0 -0.26998467543E+02 -0.17305866517E+02  0.39126991405E+03  0.40006194009E+03  0.77000000000E+02 0.  0.
   -5000001    1    1    2    0    0  0.26998467543E+02  0.17305866517E+02  0.90300565855E+03  0.90684983853E+03  0.77000000000E+02 0.  0.
<mgrwt>
<rscale>  0 0.18129848E+03</rscale>
<asrwt>0</asrwt>
<pdfrwt beam="1">  1        1 0.97201644E-03 0.18129848E+03</pdfrwt>
<pdfrwt beam="2">  1       -1 0.20009121E+00 0.18129848E+03</pdfrwt>
<totfact> 0.27605208E+03</totfact>
</mgrwt>
</event>
<event>
 4    1  0.3147937E-004  0.2285861E+03  0.7818608E-02  0.1127639E+00
         -1   -1    0    0    0  501 -0.00000000000E+00  0.00000000000E+00  0.12186996606E+03  0.12186996616E+03  0.50400000000E-02 0. -1.
          1   -1    0    0  501    0  0.00000000000E+00 -0.00000000000E+00 -0.10718716422E+03  0.10718716434E+03  0.50400000000E-02 0.  1.
    5000001    1    1    2    0    0  0.54226536084E+02  0.62304507499E+02  0.25027908481E+02  0.11566228890E+03  0.77000000000E+02 0.  0.
   -5000001    1    1    2    0    0 -0.54226536084E+02 -0.62304507499E+02 -0.10345106645E+02  0.11339484160E+03  0.77000000000E+02 0.  0.
<mgrwt>
<rscale>  0 0.22858605E+03</rscale>
<asrwt>0</asrwt>
<pdfrwt beam="1">  1        1 0.16490333E-01 0.22858605E+03</pdfrwt>
<pdfrwt beam="2">  1       -1 0.18749225E-01 0.22858605E+03</pdfrwt>
<totfact> 0.72257273E+03</totfact>
</mgrwt>
</event>
<event>
 4    1  0.3147937E-004  0.3917238E+03  0.7818608E-02  0.1046684E+00
         -1   -1    0    0    0  501 -0.00000000000E+00  0.00000000000E+00  0.23623051306E+03  0.23623051311E+03  0.50400000000E-02 0. -1.
          1   -1    0    0  501    0  0.00000000000E+00 -0.00000000000E+00 -0.16239177287E+03  0.16239177295E+03  0.50400000000E-02 0.  1.
    5000001    1    1    2    0    0  0.14545809781E+03  0.99454117950E+02  0.74772729939E+02  0.20632290454E+03  0.77000000000E+02 0.  0.
   -5000001    1    1    2    0    0 -0.14545809781E+03 -0.99454117950E+02 -0.93398975738E+00  0.19229938152E+03  0.77000000000E+02 0.  0.
<mgrwt>
<rscale>  0 0.39172384E+03</rscale>
<asrwt>0</asrwt>
<pdfrwt beam="1">  1        1 0.24983350E-01 0.39172384E+03</pdfrwt>
<pdfrwt beam="2">  1       -1 0.36343156E-01 0.39172384E+03</pdfrwt>
<totfact> 0.14084222E+03</totfact>
</mgrwt>
</event>
<event>
 4    1  0.3147937E-004  0.2555129E+03  0.7818608E-02  0.1109870E+00
         -1   -1    0    0    0  501 -0.00000000000E+00  0.00000000000E+00  0.54542638794E+01  0.54542662080E+01  0.50400000000E-02 0. -1.
          1   -1    0    0  501    0  0.00000000000E+00 -0.00000000000E+00 -0.29924663497E+04  0.29924663497E+04  0.50400000000E-02 0.  1.
    5000001    1    1    2    0    0  0.16957842879E+02  0.25781541975E+02 -0.35350910556E+03  0.36311147607E+03  0.77000000000E+02 0.  0.
   -5000001    1    1    2    0    0 -0.16957842879E+02 -0.25781541975E+02 -0.26335029802E+04  0.26348091398E+04  0.77000000000E+02 0.  0.
<mgrwt>
<rscale>  0 0.25551285E+03</rscale>
<asrwt>0</asrwt>
<pdfrwt beam="1">  1        1 0.46037813E+00 0.25551285E+03</pdfrwt>
<pdfrwt beam="2">  1       -1 0.83912009E-03 0.25551285E+03</pdfrwt>
<totfact> 0.17791432E+03</totfact>
</mgrwt>
</event>
<event>
 4    1  0.3147937E-004  0.3644917E+03  0.7818608E-02  0.1056819E+00
          1   -1    0    0  501    0  0.00000000000E+00  0.00000000000E+00  0.39605100798E+02  0.39605101119E+02  0.50400000000E-02 0. -1.
         -1   -1    0    0    0  501 -0.00000000000E+00 -0.00000000000E+00 -0.83861796307E+03  0.83861796308E+03  0.50400000000E-02 0.  1.
    5000001    1    1    2    0    0 -0.12601644222E+03 -0.93888815875E+02 -0.52211138573E+03  0.55065829020E+03  0.77000000000E+02 0.  0.
   -5000001    1    1    2    0    0  0.12601644222E+03  0.93888815875E+02 -0.27690147654E+03  0.32756477400E+03  0.77000000000E+02 0.  0.
<mgrwt>
<rscale>  0 0.36449170E+03</rscale>
<asrwt>0</asrwt>
<pdfrwt beam="1">  1        1 0.60930931E-02 0.36449170E+03</pdfrwt>
<pdfrwt beam="2">  1       -1 0.12901813E+00 0.36449170E+03</pdfrwt>
<totfact> 0.70289229E+02</totfact>
</mgrwt>
</event>
<event>
 4    1  0.3147937E-004  0.2555385E+03  0.7818608E-02  0.1109854E+00
         -1   -1    0    0    0  501 -0.00000000000E+00  0.00000000000E+00  0.11732773094E+03  0.11732773105E+03  0.50400000000E-02 0.  1.
          1   -1    0    0  501    0  0.00000000000E+00 -0.00000000000E+00 -0.13913995675E+03  0.13913995684E+03  0.50400000000E-02 0. -1.
    5000001    1    1    2    0    0 -0.22434842264E+02 -0.98614618255E+02  0.20951568483E+01  0.12712810375E+03  0.77000000000E+02 0.  0.
   -5000001    1    1    2    0    0  0.22434842264E+02  0.98614618255E+02 -0.23907382653E+02  0.12933958414E+03  0.77000000000E+02 0.  0.
<mgrwt>
<rscale>  0 0.25553845E+03</rscale>
<asrwt>0</asrwt>
<pdfrwt beam="1">  1        1 0.21406147E-01 0.25553845E+03</pdfrwt>
<pdfrwt beam="2">  1       -1 0.18050420E-01 0.25553845E+03</pdfrwt>
<totfact> 0.55114666E+03</totfact>
</mgrwt>
</event>
<event>
 4    1  0.3147937E-004  0.2172661E+03  0.7818608E-02  0.1135938E+00
         -1   -1    0    0    0  501 -0.00000000000E+00  0.00000000000E+00  0.12678431676E+02  0.12678432677E+02  0.50400000000E-02 0.  1.
          1   -1    0    0  501    0  0.00000000000E+00 -0.00000000000E+00 -0.93080471976E+03  0.93080471977E+03  0.50400000000E-02 0. -1.
    5000001    1    1    2    0    0  0.74171219507E+02  0.18491754128E+02 -0.43574668961E+03  0.44905177015E+03  0.77000000000E+02 0.  0.
   -5000001    1    1    2    0    0 -0.74171219507E+02 -0.18491754128E+02 -0.48237959848E+03  0.49443138230E+03  0.77000000000E+02 0.  0.
<mgrwt>
<rscale>  0 0.21726615E+03</rscale>
<asrwt>0</asrwt>
<pdfrwt beam="1">  1        1 0.14320067E+00 0.21726615E+03</pdfrwt>
<pdfrwt beam="2">  1       -1 0.19505288E-02 0.21726615E+03</pdfrwt>
<totfact> 0.12681062E+04</totfact>
</mgrwt>
</event>
<event>
 4    1  0.3147937E-004  0.1807401E+03  0.7818608E-02  0.1167089E+00
         -1   -1    0    0    0  501 -0.00000000000E+00  0.00000000000E+00  0.19616288930E+02  0.19616289578E+02  0.50400000000E-02 0.  1.
          1   -1    0    0  501    0  0.00000000000E+00 -0.00000000000E+00 -0.41632492366E+03  0.41632492370E+03  0.50400000000E-02 0. -1.
    5000001    1    1    2    0    0 -0.18850479278E+02 -0.28047747573E+02 -0.11851335672E+03  0.14531494222E+03  0.77000000000E+02 0.  0.
   -5000001    1    1    2    0    0  0.18850479278E+02  0.28047747573E+02 -0.27819527802E+03  0.29062627105E+03  0.77000000000E+02 0.  0.
<mgrwt>
<rscale>  0 0.18074015E+03</rscale>
<asrwt>0</asrwt>
<pdfrwt beam="1">  1        1 0.64049981E-01 0.18074015E+03</pdfrwt>
<pdfrwt beam="2">  1       -1 0.30178910E-02 0.18074015E+03</pdfrwt>
<totfact> 0.20685833E+04</totfact>
</mgrwt>
</event>
<event>
 4    1  0.3147937E-004  0.4055239E+03  0.7818608E-02  0.1041884E+00
          1   -1    0    0  501    0  0.00000000000E+00  0.00000000000E+00  0.76997525807E+03  0.76997525809E+03  0.50400000000E-02 0. -1.
         -1   -1    0    0    0  501 -0.00000000000E+00 -0.00000000000E+00 -0.53394456635E+02  0.53394456873E+02  0.50400000000E-02 0.  1.
    5000001    1    1    2    0    0 -0.41877111517E+02 -0.18204767893E+03  0.39276875300E+03  0.44169145702E+03  0.77000000000E+02 0.  0.
   -5000001    1    1    2    0    0  0.41877111517E+02  0.18204767893E+03  0.32381204843E+03  0.38167825794E+03  0.77000000000E+02 0.  0.
<mgrwt>
<rscale>  0 0.40552391E+03</rscale>
<asrwt>0</asrwt>
<pdfrwt beam="1">  1        1 0.11845773E+00 0.40552391E+03</pdfrwt>
<pdfrwt beam="2">  1       -1 0.82145320E-02 0.40552391E+03</pdfrwt>
<totfact> 0.20255236E+03</totfact>
</mgrwt>
</event>
<event>
 4    1  0.3147937E-004  0.1859736E+03  0.7818608E-02  0.1162144E+00
          1   -1    0    0  501    0  0.00000000000E+00  0.00000000000E+00  0.23246919645E+03  0.23246919650E+03  0.50400000000E-02 0.  1.
         -1   -1    0    0    0  501 -0.00000000000E+00 -0.00000000000E+00 -0.37194382998E+02  0.37194383340E+02  0.50400000000E-02 0. -1.
    5000001    1    1    2    0    0  0.27962076621E+02  0.28243834382E+02  0.48723343902E+02  0.99411046421E+02  0.77000000000E+02 0.  0.
   -5000001    1    1    2    0    0 -0.27962076621E+02 -0.28243834382E+02  0.14655146955E+03  0.17025253342E+03  0.77000000000E+02 0.  0.
<mgrwt>
<rscale>  0 0.18597364E+03</rscale>
<asrwt>0</asrwt>
<pdfrwt beam="1">  1        1 0.35764492E-01 0.18597364E+03</pdfrwt>
<pdfrwt beam="2">  1       -1 0.57222128E-02 0.18597364E+03</pdfrwt>
<totfact> 0.16700479E+04</totfact>
</mgrwt>
</event>
<event>
 4    1  0.3147937E-004  0.7118565E+03  0.7818608E-02  0.9697168E-01
          1   -1    0    0  501    0  0.00000000000E+00  0.00000000000E+00  0.13878258915E+04  0.13878258915E+04  0.50400000000E-02 0. -1.
         -1   -1    0    0    0  501 -0.00000000000E+00 -0.00000000000E+00 -0.91283003371E+02  0.91283003511E+02  0.50400000000E-02 0.  1.
    5000001    1    1    2    0    0 -0.15679334276E+03 -0.28554982157E+03  0.39692351187E+03  0.51923032193E+03  0.77000000000E+02 0.  0.
   -5000001    1    1    2    0    0  0.15679334276E+03  0.28554982157E+03  0.89961937627E+03  0.95987857310E+03  0.77000000000E+02 0.  0.
<mgrwt>
<rscale>  0 0.71185649E+03</rscale>
<asrwt>0</asrwt>
<pdfrwt beam="1">  1        1 0.21351167E+00 0.71185649E+03</pdfrwt>
<pdfrwt beam="2">  1       -1 0.14043540E-01 0.71185649E+03</pdfrwt>
<totfact> 0.29220560E+02</totfact>
</mgrwt>
</event>
<event>
 4    1  0.3147937E-004  0.2731819E+03  0.7818608E-02  0.1099472E+00
         -1   -1    0    0    0  501 -0.00000000000E+00  0.00000000000E+00  0.54526133942E+03  0.54526133945E+03  0.50400000000E-02 0. -1.
          1   -1    0    0  501    0  0.00000000000E+00 -0.00000000000E+00 -0.34216790336E+02  0.34216790707E+02  0.50400000000E-02 0.  1.
    5000001    1    1    2    0    0 -0.22322513863E+02  0.10936028551E+03  0.22065896933E+03  0.25899294859E+03  0.77000000000E+02 0.  0.
   -5000001    1    1    2    0    0  0.22322513863E+02 -0.10936028551E+03  0.29038557976E+03  0.32048518157E+03  0.77000000000E+02 0.  0.
<mgrwt>
<rscale>  0 0.27318194E+03</rscale>
<asrwt>0</asrwt>
<pdfrwt beam="1">  1        1 0.52641220E-02 0.27318194E+03</pdfrwt>
<pdfrwt beam="2">  1       -1 0.83886354E-01 0.27318194E+03</pdfrwt>
<totfact> 0.22835940E+03</totfact>
</mgrwt>
</event>
<event>
 4    1  0.3147937E-004  0.1751744E+03  0.7818608E-02  0.1172557E+00
          1   -1    0    0  501    0  0.00000000000E+00  0.00000000000E+00  0.30861333525E+02  0.30861333937E+02  0.50400000000E-02 0. -1.
         -1   -1    0    0    0  501 -0.00000000000E+00 -0.00000000000E+00 -0.24858025841E+03  0.24858025846E+03  0.50400000000E-02 0.  1.
    5000001    1    1    2    0    0 -0.36778980387E+02  0.16184691811E+02 -0.12689889435E+03  0.15377570365E+03  0.77000000000E+02 0.  0.
   -5000001    1    1    2    0    0  0.36778980387E+02 -0.16184691811E+02 -0.90820030539E+02  0.12566588875E+03  0.77000000000E+02 0.  0.
<mgrwt>
<rscale>  0 0.17517441E+03</rscale>
<asrwt>0</asrwt>
<pdfrwt beam="1">  1        1 0.47478977E-02 0.17517441E+03</pdfrwt>
<pdfrwt beam="2">  1       -1 0.38243115E-01 0.17517441E+03</pdfrwt>
<totfact> 0.11479581E+04</totfact>
</mgrwt>
</event>
<event>
 4    1  0.3147937E-004  0.2506384E+03  0.7818608E-02  0.1112902E+00
         -1   -1    0    0    0  501 -0.00000000000E+00  0.00000000000E+00  0.21529330040E+03  0.21529330046E+03  0.50400000000E-02 0.  1.
          1   -1    0    0  501    0  0.00000000000E+00 -0.00000000000E+00 -0.72946534095E+02  0.72946534269E+02  0.50400000000E-02 0. -1.
    5000001    1    1    2    0    0 -0.76364657334E+01 -0.64896410361E+02 -0.14161404673E+02  0.10197747334E+03  0.77000000000E+02 0.  0.
   -5000001    1    1    2    0    0  0.76364657334E+01  0.64896410361E+02  0.15650817098E+03  0.18626236139E+03  0.77000000000E+02 0.  0.
<mgrwt>
<rscale>  0 0.25063839E+03</rscale>
<asrwt>0</asrwt>
<pdfrwt beam="1">  1        1 0.11222544E-01 0.25063839E+03</pdfrwt>
<pdfrwt beam="2">  1       -1 0.33122046E-01 0.25063839E+03</pdfrwt>
<totfact> 0.46779793E+03</totfact>
</mgrwt>
</event>
<event>
 4    1  0.3147937E-004  0.2483674E+03  0.7818608E-02  0.1114341E+00
          1   -1    0    0  501    0  0.00000000000E+00  0.00000000000E+00  0.39637193621E+02  0.39637193941E+02  0.50400000000E-02 0.  1.
         -1   -1    0    0    0  501 -0.00000000000E+00 -0.00000000000E+00 -0.38906860368E+03  0.38906860371E+03  0.50400000000E-02 0. -1.
    5000001    1    1    2    0    0  0.20234383492E+02 -0.92206520290E+02 -0.21632552702E+03  0.24826841583E+03  0.77000000000E+02 0.  0.
   -5000001    1    1    2    0    0 -0.20234383492E+02  0.92206520290E+02 -0.13310588304E+03  0.18043738182E+03  0.77000000000E+02 0.  0.
<mgrwt>
<rscale>  0 0.24836737E+03</rscale>
<asrwt>0</asrwt>
<pdfrwt beam="1">  1        1 0.60980301E-02 0.24836737E+03</pdfrwt>
<pdfrwt beam="2">  1       -1 0.59856706E-01 0.24836737E+03</pdfrwt>
<totfact> 0.36594825E+03</totfact>
</mgrwt>
</event>
<event>
 4    1  0.3147937E-004  0.2245625E+03  0.7818608E-02  0.1130527E+00
          1   -1    0    0  501    0  0.00000000000E+00  0.00000000000E+00  0.18391031940E+03  0.18391031947E+03  0.50400000000E-02 0.  1.
         -1   -1    0    0    0  501 -0.00000000000E+00 -0.00000000000E+00 -0.68550119015E+02  0.68550119200E+02  0.50400000000E-02 0. -1.
    5000001    1    1    2    0    0  0.63013497299E+02  0.26242431541E+00  0.11617590782E+03  0.15295950859E+03  0.77000000000E+02 0.  0.
   -5000001    1    1    2    0    0 -0.63013497299E+02 -0.26242431541E+00 -0.81570743998E+00  0.99500930081E+02  0.77000000000E+02 0.  0.
<mgrwt>
<rscale>  0 0.22456246E+03</rscale>
<asrwt>0</asrwt>
<pdfrwt beam="1">  1        1 0.28293895E-01 0.22456246E+03</pdfrwt>
<pdfrwt beam="2">  1       -1 0.10546172E-01 0.22456246E+03</pdfrwt>
<totfact> 0.89584543E+03</totfact>
</mgrwt>
</event>
<event>
 4    1  0.3147937E-004  0.2102595E+03  0.7818608E-02  0.1141361E+00
          1   -1    0    0  501    0  0.00000000000E+00  0.00000000000E+00  0.29372734382E+02  0.29372734815E+02  0.50400000000E-02 0. -1.
         -1   -1    0    0    0  501 -0.00000000000E+00 -0.00000000000E+00 -0.37627644263E+03  0.37627644267E+03  0.50400000000E-02 0.  1.
    5000001    1    1    2    0    0  0.37848407920E+02 -0.54568238478E+02 -0.22497021495E+03  0.24688214243E+03  0.77000000000E+02 0.  0.
   -5000001    1    1    2    0    0 -0.37848407920E+02  0.54568238478E+02 -0.12193349330E+03  0.15876703506E+03  0.77000000000E+02 0.  0.
<mgrwt>
<rscale>  0 0.21025954E+03</rscale>
<asrwt>0</asrwt>
<pdfrwt beam="1">  1        1 0.45188825E-02 0.21025954E+03</pdfrwt>
<pdfrwt beam="2">  1       -1 0.57888680E-01 0.21025954E+03</pdfrwt>
<totfact> 0.58530166E+03</totfact>
</mgrwt>
</event>
<event>
 4    1  0.3147937E-004  0.2509505E+03  0.7818608E-02  0.1112706E+00
         -1   -1    0    0    0  501 -0.00000000000E+00  0.00000000000E+00  0.23758693784E+02  0.23758694319E+02  0.50400000000E-02 0. -1.
          1   -1    0    0  501    0  0.00000000000E+00 -0.00000000000E+00 -0.66266408377E+03  0.66266408379E+03  0.50400000000E-02 0.  1.
    5000001    1    1    2    0    0 -0.14951338455E+02 -0.90374004734E+02 -0.21623283658E+03  0.24713689095E+03  0.77000000000E+02 0.  0.
   -5000001    1    1    2    0    0  0.14951338455E+02  0.90374004734E+02 -0.42267255340E+03  0.43928588716E+03  0.77000000000E+02 0.  0.
<mgrwt>
<rscale>  0 0.25095046E+03</rscale>
<asrwt>0</asrwt>
<pdfrwt beam="1">  1        1 0.10194831E+00 0.25095046E+03</pdfrwt>
<pdfrwt beam="2">  1       -1 0.36551842E-02 0.25095046E+03</pdfrwt>
<totfact> 0.85266433E+03</totfact>
</mgrwt>
</event>
<event>
 4    1  0.3147937E-004  0.2593204E+03  0.7818608E-02  0.1107552E+00
         -1   -1    0    0    0  501 -0.00000000000E+00  0.00000000000E+00  0.90899611023E+01  0.90899624995E+01  0.50400000000E-02 0.  1.
          1   -1    0    0  501    0  0.00000000000E+00 -0.00000000000E+00 -0.18494864688E+04  0.18494864688E+04  0.50400000000E-02 0. -1.
    5000001    1    1    2    0    0  0.50645746651E+02 -0.59256273530E+02 -0.14170841361E+04  0.14213137396E+04  0.77000000000E+02 0.  0.
   -5000001    1    1    2    0    0 -0.50645746651E+02  0.59256273530E+02 -0.42331237164E+03  0.43726269175E+03  0.77000000000E+02 0.  0.
<mgrwt>
<rscale>  0 0.25932035E+03</rscale>
<asrwt>0</asrwt>
<pdfrwt beam="1">  1        1 0.28453608E+00 0.25932035E+03</pdfrwt>
<pdfrwt beam="2">  1       -1 0.13984571E-02 0.25932035E+03</pdfrwt>
<totfact> 0.48819327E+03</totfact>
</mgrwt>
</event>
<event>
 4    1  0.3147937E-004  0.2090875E+03  0.7818608E-02  0.1142291E+00
         -1   -1    0    0    0  501 -0.00000000000E+00  0.00000000000E+00  0.28752735976E+03  0.28752735981E+03  0.50400000000E-02 0. -1.
          1   -1    0    0  501    0  0.00000000000E+00 -0.00000000000E+00 -0.38011683310E+02  0.38011683645E+02  0.50400000000E-02 0.  1.
    5000001    1    1    2    0    0 -0.37121510319E+02 -0.33323606022E+02  0.20279090800E+03  0.22257947258E+03  0.77000000000E+02 0.  0.
   -5000001    1    1    2    0    0  0.37121510319E+02  0.33323606022E+02  0.46724768448E+02  0.10295957087E+03  0.77000000000E+02 0.  0.
<mgrwt>
<rscale>  0 0.20908753E+03</rscale>
<asrwt>0</asrwt>
<pdfrwt beam="1">  1        1 0.58479516E-02 0.20908753E+03</pdfrwt>
<pdfrwt beam="2">  1       -1 0.44234976E-01 0.20908753E+03</pdfrwt>
<totfact> 0.67401222E+03</totfact>
</mgrwt>
</event>
<event>
 4    1  0.3147937E-004  0.3837389E+03  0.7818608E-02  0.1049560E+00
          1   -1    0    0  501    0  0.00000000000E+00  0.00000000000E+00  0.19471265117E+04  0.19471265117E+04  0.50400000000E-02 0.  1.
         -1   -1    0    0    0  501 -0.00000000000E+00 -0.00000000000E+00 -0.18906771472E+02  0.18906772144E+02  0.50400000000E-02 0. -1.
    5000001    1    1    2    0    0 -0.15293609235E+03 -0.78546295116E+02  0.77755277899E+03  0.80004768166E+03  0.77000000000E+02 0.  0.
   -5000001    1    1    2    0    0  0.15293609235E+03  0.78546295116E+02  0.11506669612E+04  0.11659856022E+04  0.77000000000E+02 0.  0.
<mgrwt>
<rscale>  0 0.38373885E+03</rscale>
<asrwt>0</asrwt>
<pdfrwt beam="1">  1        1 0.29955801E+00 0.38373885E+03</pdfrwt>
<pdfrwt beam="2">  1       -1 0.29087333E-02 0.38373885E+03</pdfrwt>
<totfact> 0.14320465E+03</totfact>
</mgrwt>
</event>
<event>
 4    1  0.3147937E-004  0.2911849E+03  0.7818608E-02  0.1089732E+00
         -1   -1    0    0    0  501 -0.00000000000E+00  0.00000000000E+00  0.13340168339E+03  0.13340168349E+03  0.50400000000E-02 0. -1.
          1   -1    0    0  501    0  0.00000000000E+00 -0.00000000000E+00 -0.15889726859E+03  0.15889726867E+03  0.50400000000E-02 0.  1.
    5000001    1    1    2    0    0  0.38580454062E+02 -0.73412586622E+02 -0.10469684028E+03  0.15416967171E+03  0.77000000000E+02 0.  0.
   -5000001    1    1    2    0    0 -0.38580454062E+02  0.73412586622E+02  0.79201255086E+02  0.13812928045E+03  0.77000000000E+02 0.  0.
<mgrwt>
<rscale>  0 0.29118491E+03</rscale>
<asrwt>0</asrwt>
<pdfrwt beam="1">  1        1 0.24445734E-01 0.29118491E+03</pdfrwt>
<pdfrwt beam="2">  1       -1 0.20523336E-01 0.29118491E+03</pdfrwt>
<totfact> 0.37929582E+03</totfact>
</mgrwt>
</event>
<event>
 4    1  0.3147937E-004  0.1862657E+03  0.7818608E-02  0.1161873E+00
          1   -1    0    0  501    0  0.00000000000E+00  0.00000000000E+00  0.16873444321E+02  0.16873445074E+02  0.50400000000E-02 0. -1.
         -1   -1    0    0    0  501 -0.00000000000E+00 -0.00000000000E+00 -0.51404585468E+03  0.51404585471E+03  0.50400000000E-02 0.  1.
    5000001    1    1    2    0    0 -0.61233227457E+01  0.33287854820E+02 -0.36256919210E+03  0.37219752205E+03  0.77000000000E+02 0.  0.
   -5000001    1    1    2    0    0  0.61233227457E+01 -0.33287854820E+02 -0.13460321827E+03  0.15872177774E+03  0.77000000000E+02 0.  0.
<mgrwt>
<rscale>  0 0.18626566E+03</rscale>
<asrwt>0</asrwt>
<pdfrwt beam="1">  1        1 0.25959150E-02 0.18626566E+03</pdfrwt>
<pdfrwt beam="2">  1       -1 0.79083966E-01 0.18626566E+03</pdfrwt>
<totfact> 0.67931840E+03</totfact>
</mgrwt>
</event>
<event>
 4    1  0.3147937E-004  0.2403720E+03  0.7818608E-02  0.1119545E+00
          1   -1    0    0  501    0  0.00000000000E+00  0.00000000000E+00  0.36327208561E+04  0.36327208561E+04  0.50400000000E-02 0. -1.
         -1   -1    0    0    0  501 -0.00000000000E+00 -0.00000000000E+00 -0.39762686073E+01  0.39762718015E+01  0.50400000000E-02 0.  1.
    5000001    1    1    2    0    0  0.74149160358E+02 -0.26981070638E+01  0.26444680805E+04  0.26466291404E+04  0.77000000000E+02 0.  0.
   -5000001    1    1    2    0    0 -0.74149160358E+02  0.26981070638E+01  0.98427650691E+03  0.99006798747E+03  0.77000000000E+02 0.  0.
<mgrwt>
<rscale>  0 0.24037204E+03</rscale>
<asrwt>0</asrwt>
<pdfrwt beam="1">  1        1 0.55888431E+00 0.24037204E+03</pdfrwt>
<pdfrwt beam="2">  1       -1 0.61172930E-03 0.24037204E+03</pdfrwt>
<totfact> 0.95423067E+02</totfact>
</mgrwt>
</event>
<event>
 4    1  0.3147937E-004  0.2054780E+03  0.7818608E-02  0.1145198E+00
         -1   -1    0    0    0  501 -0.00000000000E+00  0.00000000000E+00  0.71204774591E+01  0.71204792428E+01  0.50400000000E-02 0. -1.
          1   -1    0    0  501    0  0.00000000000E+00 -0.00000000000E+00 -0.14823864952E+04  0.14823864952E+04  0.50400000000E-02 0.  1.
    5000001    1    1    2    0    0 -0.46313639463E+02 -0.36960518325E+02 -0.97971742062E+03  0.98452336558E+03  0.77000000000E+02 0.  0.
   -5000001    1    1    2    0    0  0.46313639463E+02  0.36960518325E+02 -0.49554859708E+03  0.50498360883E+03  0.77000000000E+02 0.  0.
<mgrwt>
<rscale>  0 0.20547799E+03</rscale>
<asrwt>0</asrwt>
<pdfrwt beam="1">  1        1 0.22805922E+00 0.20547799E+03</pdfrwt>
<pdfrwt beam="2">  1       -1 0.10954594E-02 0.20547799E+03</pdfrwt>
<totfact> 0.11990464E+04</totfact>
</mgrwt>
</event>
<event>
 4    1  0.3147937E-004  0.3427295E+03  0.7818608E-02  0.1065639E+00
          1   -1    0    0  501    0  0.00000000000E+00  0.00000000000E+00  0.37339118320E+03  0.37339118323E+03  0.50400000000E-02 0.  1.
         -1   -1    0    0    0  501 -0.00000000000E+00 -0.00000000000E+00 -0.78646416525E+02  0.78646416686E+02  0.50400000000E-02 0. -1.
    5000001    1    1    2    0    0 -0.72595780892E+02 -0.10385129216E+03  0.34054225924E+02  0.15213128734E+03  0.77000000000E+02 0.  0.
   -5000001    1    1    2    0    0  0.72595780892E+02  0.10385129216E+03  0.26069054075E+03  0.29990631257E+03  0.77000000000E+02 0.  0.
<mgrwt>
<rscale>  0 0.34272951E+03</rscale>
<asrwt>0</asrwt>
<pdfrwt beam="1">  1        1 0.57444797E-01 0.34272951E+03</pdfrwt>
<pdfrwt beam="2">  1       -1 0.12099449E-01 0.34272951E+03</pdfrwt>
<totfact> 0.30019692E+03</totfact>
</mgrwt>
</event>
<event>
 4    1  0.3147937E-004  0.1612152E+03  0.7818608E-02  0.1187332E+00
          1   -1    0    0  501    0  0.00000000000E+00  0.00000000000E+00  0.59980299715E+02  0.59980299926E+02  0.50400000000E-02 0. -1.
         -1   -1    0    0    0  501 -0.00000000000E+00 -0.00000000000E+00 -0.10832862490E+03  0.10832862502E+03  0.50400000000E-02 0.  1.
    5000001    1    1    2    0    0 -0.16395114437E+02 -0.15003648500E+02 -0.15152503252E+02  0.81562905788E+02  0.77000000000E+02 0.  0.
   -5000001    1    1    2    0    0  0.16395114437E+02  0.15003648500E+02 -0.33195821935E+02  0.86746019158E+02  0.77000000000E+02 0.  0.
<mgrwt>
<rscale>  0 0.16121518E+03</rscale>
<asrwt>0</asrwt>
<pdfrwt beam="1">  1        1 0.92277384E-02 0.16121518E+03</pdfrwt>
<pdfrwt beam="2">  1       -1 0.16665942E-01 0.16121518E+03</pdfrwt>
<totfact> 0.18305472E+04</totfact>
</mgrwt>
</event>
<event>
 4    1  0.3147937E-004  0.1848662E+03  0.7818608E-02  0.1163175E+00
         -1   -1    0    0    0  501 -0.00000000000E+00  0.00000000000E+00  0.58848563984E+01  0.58848585566E+01  0.50400000000E-02 0. -1.
          1   -1    0    0  501    0  0.00000000000E+00 -0.00000000000E+00 -0.14518414800E+04  0.14518414800E+04  0.50400000000E-02 0.  1.
    5000001    1    1    2    0    0  0.35159568638E+02  0.36116285271E+02 -0.65500952063E+03  0.66144315964E+03  0.77000000000E+02 0.  0.
   -5000001    1    1    2    0    0 -0.35159568638E+02 -0.36116285271E+02 -0.79094710299E+03  0.79628317894E+03  0.77000000000E+02 0.  0.
<mgrwt>
<rscale>  0 0.18486622E+03</rscale>
<asrwt>0</asrwt>
<pdfrwt beam="1">  1        1 0.22335994E+00 0.18486622E+03</pdfrwt>
<pdfrwt beam="2">  1       -1 0.90536384E-03 0.18486622E+03</pdfrwt>
<totfact> 0.16436452E+04</totfact>
</mgrwt>
</event>
<event>
 4    1  0.3147937E-004  0.2309252E+03  0.7818608E-02  0.1125990E+00
         -1   -1    0    0    0  501 -0.00000000000E+00  0.00000000000E+00  0.23933699488E+03  0.23933699493E+03  0.50400000000E-02 0.  1.
          1   -1    0    0  501    0  0.00000000000E+00 -0.00000000000E+00 -0.55702253450E+02  0.55702253678E+02  0.50400000000E-02 0. -1.
    5000001    1    1    2    0    0  0.53903796016E+02  0.66795717513E+02  0.84223965192E+02  0.14279342918E+03  0.77000000000E+02 0.  0.
   -5000001    1    1    2    0    0 -0.53903796016E+02 -0.66795717513E+02  0.99410776233E+02  0.15224581943E+03  0.77000000000E+02 0.  0.
<mgrwt>
<rscale>  0 0.23092518E+03</rscale>
<asrwt>0</asrwt>
<pdfrwt beam="1">  1        1 0.85695775E-02 0.23092518E+03</pdfrwt>
<pdfrwt beam="2">  1       -1 0.36821076E-01 0.23092518E+03</pdfrwt>
<totfact> 0.55731751E+03</totfact>
</mgrwt>
</event>
<event>
 4    1  0.3147937E-004  0.1893034E+03  0.7818608E-02  0.1159091E+00
         -1   -1    0    0    0  501 -0.00000000000E+00  0.00000000000E+00  0.17458710607E+02  0.17458711334E+02  0.50400000000E-02 0.  1.
          1   -1    0    0  501    0  0.00000000000E+00 -0.00000000000E+00 -0.51315019467E+03  0.51315019470E+03  0.50400000000E-02 0. -1.
    5000001    1    1    2    0    0 -0.29289578629E+02 -0.45541588076E+02 -0.22009431886E+03  0.23937924900E+03  0.77000000000E+02 0.  0.
   -5000001    1    1    2    0    0  0.29289578629E+02  0.45541588076E+02 -0.27559716521E+03  0.29122965703E+03  0.77000000000E+02 0.  0.
<mgrwt>
<rscale>  0 0.18930336E+03</rscale>
<asrwt>0</asrwt>
<pdfrwt beam="1">  1        1 0.78946172E-01 0.18930336E+03</pdfrwt>
<pdfrwt beam="2">  1       -1 0.26859559E-02 0.18930336E+03</pdfrwt>
<totfact> 0.18765066E+04</totfact>
</mgrwt>
</event>
<event>
 4    1  0.3147937E-004  0.2296164E+03  0.7818608E-02  0.1126910E+00
          1   -1    0    0  501    0  0.00000000000E+00  0.00000000000E+00  0.17330225074E+04  0.17330225074E+04  0.50400000000E-02 0.  1.
         -1   -1    0    0    0  501 -0.00000000000E+00 -0.00000000000E+00 -0.76057418055E+01  0.76057434754E+01  0.50400000000E-02 0. -1.
    5000001    1    1    2    0    0 -0.58955454381E+02 -0.51939811660E+02  0.11116513228E+04  0.11170815338E+04  0.77000000000E+02 0.  0.
   -5000001    1    1    2    0    0  0.58955454381E+02  0.51939811660E+02  0.61376544278E+03  0.62354671709E+03  0.77000000000E+02 0.  0.
<mgrwt>
<rscale>  0 0.22961640E+03</rscale>
<asrwt>0</asrwt>
<pdfrwt beam="1">  1        1 0.26661895E+00 0.22961640E+03</pdfrwt>
<pdfrwt beam="2">  1       -1 0.11701138E-02 0.22961640E+03</pdfrwt>
<totfact> 0.75071514E+03</totfact>
</mgrwt>
</event>
<event>
 4    1  0.3147937E-004  0.3326916E+03  0.7818608E-02  0.1069952E+00
         -1   -1    0    0    0  501 -0.00000000000E+00  0.00000000000E+00  0.40793357214E+02  0.40793357526E+02  0.50400000000E-02 0. -1.
          1   -1    0    0  501    0  0.00000000000E+00 -0.00000000000E+00 -0.67831952312E+03  0.67831952314E+03  0.50400000000E-02 0.  1.
    5000001    1    1    2    0    0 -0.70272895055E+02  0.11963045222E+03 -0.21085669770E+03  0.26389253844E+03  0.77000000000E+02 0.  0.
   -5000001    1    1    2    0    0  0.70272895055E+02 -0.11963045222E+03 -0.42666946820E+03  0.45522034223E+03  0.77000000000E+02 0.  0.
<mgrwt>
<rscale>  0 0.33269163E+03</rscale>
<asrwt>0</asrwt>
<pdfrwt beam="1">  1        1 0.10435684E+00 0.33269163E+03</pdfrwt>
<pdfrwt beam="2">  1       -1 0.62759016E-02 0.33269163E+03</pdfrwt>
<totfact> 0.36923019E+03</totfact>
</mgrwt>
</event>
<event>
 4    1  0.3147937E-004  0.1789272E+03  0.7818608E-02  0.1168845E+00
         -1   -1    0    0    0  501 -0.00000000000E+00  0.00000000000E+00  0.41029357777E+02  0.41029358086E+02  0.50400000000E-02 0.  1.
          1   -1    0    0  501    0  0.00000000000E+00 -0.00000000000E+00 -0.19507345663E+03  0.19507345670E+03  0.50400000000E-02 0. -1.
    5000001    1    1    2    0    0 -0.35301456458E+02 -0.27075690680E+02 -0.89914014947E+02  0.12646270572E+03  0.77000000000E+02 0.  0.
   -5000001    1    1    2    0    0  0.35301456458E+02  0.27075690680E+02 -0.64130083910E+02  0.10964010907E+03  0.77000000000E+02 0.  0.
<mgrwt>
<rscale>  0 0.17892723E+03</rscale>
<asrwt>0</asrwt>
<pdfrwt beam="1">  1        1 0.30011301E-01 0.17892723E+03</pdfrwt>
<pdfrwt beam="2">  1       -1 0.63122090E-02 0.17892723E+03</pdfrwt>
<totfact> 0.17892609E+04</totfact>
</mgrwt>
</event>
<event>
 4    1  0.3147937E-004  0.1604167E+03  0.7818608E-02  0.1188227E+00
         -1   -1    0    0    0  501 -0.00000000000E+00  0.00000000000E+00  0.73204766167E+01  0.73204783516E+01  0.50400000000E-02 0.  1.
          1   -1    0    0  501    0  0.00000000000E+00 -0.00000000000E+00 -0.87882018015E+03  0.87882018017E+03  0.50400000000E-02 0. -1.
    5000001    1    1    2    0    0 -0.16295941278E+02 -0.15368474761E+02 -0.44471785246E+03  0.45189015924E+03  0.77000000000E+02 0.  0.
   -5000001    1    1    2    0    0  0.16295941278E+02  0.15368474761E+02 -0.42678185108E+03  0.43425049928E+03  0.77000000000E+02 0.  0.
<mgrwt>
<rscale>  0 0.16041675E+03</rscale>
<asrwt>0</asrwt>
<pdfrwt beam="1">  1        1 0.13520302E+00 0.16041675E+03</pdfrwt>
<pdfrwt beam="2">  1       -1 0.11262280E-02 0.16041675E+03</pdfrwt>
<totfact> 0.30154082E+04</totfact>
</mgrwt>
</event>
<event>
 4    1  0.3147937E-004  0.1759722E+03  0.7818608E-02  0.1171759E+00
          1   -1    0    0  501    0  0.00000000000E+00  0.00000000000E+00  0.73204620751E+01  0.73204638101E+01  0.50400000000E-02 0.  1.
         -1   -1    0    0    0  501 -0.00000000000E+00 -0.00000000000E+00 -0.10575218348E+04  0.10575218348E+04  0.50400000000E-02 0. -1.
    5000001    1    1    2    0    0 -0.14849216888E+02 -0.33321925145E+02 -0.65791027789E+03  0.66340469074E+03  0.77000000000E+02 0.  0.
   -5000001    1    1    2    0    0  0.14849216888E+02  0.33321925145E+02 -0.39229109479E+03  0.40143760784E+03  0.77000000000E+02 0.  0.
<mgrwt>
<rscale>  0 0.17597215E+03</rscale>
<asrwt>0</asrwt>
<pdfrwt beam="1">  1        1 0.11262259E-02 0.17597215E+03</pdfrwt>
<pdfrwt beam="2">  1       -1 0.16269555E+00 0.17597215E+03</pdfrwt>
<totfact> 0.40565930E+03</totfact>
</mgrwt>
</event>
<event>
 4    1  0.3147937E-004  0.2037910E+03  0.7818608E-02  0.1146579E+00
         -1   -1    0    0    0  501 -0.00000000000E+00  0.00000000000E+00  0.11195208906E+02  0.11195210040E+02  0.50400000000E-02 0. -1.
          1   -1    0    0  501    0  0.00000000000E+00 -0.00000000000E+00 -0.92742295955E+03  0.92742295957E+03  0.50400000000E-02 0.  1.
    5000001    1    1    2    0    0 -0.14270722297E+02 -0.38195271381E+02 -0.21478342899E+03  0.23178320396E+03  0.77000000000E+02 0.  0.
   -5000001    1    1    2    0    0  0.14270722297E+02  0.38195271381E+02 -0.70144432166E+03  0.70683496565E+03  0.77000000000E+02 0.  0.
<mgrwt>
<rscale>  0 0.20379101E+03</rscale>
<asrwt>0</asrwt>
<pdfrwt beam="1">  1        1 0.14268040E+00 0.20379101E+03</pdfrwt>
<pdfrwt beam="2">  1       -1 0.17223406E-02 0.20379101E+03</pdfrwt>
<totfact> 0.15234377E+04</totfact>
</mgrwt>
</event>
<event>
 4    1  0.3147937E-004  0.1691991E+03  0.7818608E-02  0.1178686E+00
         -1   -1    0    0    0  501 -0.00000000000E+00  0.00000000000E+00  0.36190246372E+03  0.36190246376E+03  0.50400000000E-02 0.  1.
          1   -1    0    0  501    0  0.00000000000E+00 -0.00000000000E+00 -0.19776272769E+02  0.19776273411E+02  0.50400000000E-02 0. -1.
    5000001    1    1    2    0    0 -0.17946756291E+02 -0.28276987706E+02  0.19433258497E+03  0.21169749096E+03  0.77000000000E+02 0.  0.
   -5000001    1    1    2    0    0  0.17946756291E+02  0.28276987706E+02  0.14779360598E+03  0.16998124621E+03  0.77000000000E+02 0.  0.
<mgrwt>
<rscale>  0 0.16919908E+03</rscale>
<asrwt>0</asrwt>
<pdfrwt beam="1">  1        1 0.30425035E-02 0.16919908E+03</pdfrwt>
<pdfrwt beam="2">  1       -1 0.55677304E-01 0.16919908E+03</pdfrwt>
<totfact> 0.10750576E+04</totfact>
</mgrwt>
</event>
<event>
 4    1  0.3147937E-004  0.1682578E+03  0.7818608E-02  0.1179677E+00
         -1   -1    0    0    0  501 -0.00000000000E+00  0.00000000000E+00  0.34594247582E+01  0.34594284295E+01  0.50400000000E-02 0. -1.
          1   -1    0    0  501    0  0.00000000000E+00 -0.00000000000E+00 -0.20459101365E+04  0.20459101366E+04  0.50400000000E-02 0.  1.
    5000001    1    1    2    0    0 -0.33219034720E+02 -0.61980892086E+01 -0.98956837284E+03  0.99313467622E+03  0.77000000000E+02 0.  0.
   -5000001    1    1    2    0    0  0.33219034720E+02  0.61980892086E+01 -0.10528823389E+04  0.10562348888E+04  0.77000000000E+02 0.  0.
<mgrwt>
<rscale>  0 0.16825785E+03</rscale>
<asrwt>0</asrwt>
<pdfrwt beam="1">  1        1 0.31475444E+00 0.16825785E+03</pdfrwt>
<pdfrwt beam="2">  1       -1 0.53222111E-03 0.16825785E+03</pdfrwt>
<totfact> 0.14456960E+04</totfact>
</mgrwt>
</event>
<event>
 4    1  0.3147937E-004  0.1790553E+03  0.7818608E-02  0.1168720E+00
         -1   -1    0    0    0  501 -0.00000000000E+00  0.00000000000E+00  0.11789175618E+04  0.11789175618E+04  0.50400000000E-02 0.  1.
          1   -1    0    0  501    0  0.00000000000E+00 -0.00000000000E+00 -0.67987779337E+01  0.67987798018E+01  0.50400000000E-02 0. -1.
    5000001    1    1    2    0    0  0.16584854639E+02 -0.40277353809E+02  0.49505059274E+03  0.50289304231E+03  0.77000000000E+02 0.  0.
   -5000001    1    1    2    0    0 -0.16584854639E+02  0.40277353809E+02  0.67706819114E+03  0.68282329931E+03  0.77000000000E+02 0.  0.
<mgrwt>
<rscale>  0 0.17905530E+03</rscale>
<asrwt>0</asrwt>
<pdfrwt beam="1">  1        1 0.10459658E-02 0.17905530E+03</pdfrwt>
<pdfrwt beam="2">  1       -1 0.18137197E+00 0.17905530E+03</pdfrwt>
<totfact> 0.33275742E+03</totfact>
</mgrwt>
</event>
<event>
 4    1  0.3147937E-004  0.2755465E+03  0.7818608E-02  0.1098147E+00
          1   -1    0    0  501    0  0.00000000000E+00  0.00000000000E+00  0.39642200016E+03  0.39642200019E+03  0.50400000000E-02 0.  1.
         -1   -1    0    0    0  501 -0.00000000000E+00 -0.00000000000E+00 -0.47881970732E+02  0.47881970997E+02  0.50400000000E-02 0. -1.
    5000001    1    1    2    0    0  0.97805337623E+02 -0.46830929094E+02  0.11627915029E+03  0.17666029769E+03  0.77000000000E+02 0.  0.
   -5000001    1    1    2    0    0 -0.97805337623E+02  0.46830929094E+02  0.23226087913E+03  0.26764367350E+03  0.77000000000E+02 0.  0.
<mgrwt>
<rscale>  0 0.27554649E+03</rscale>
<asrwt>0</asrwt>
<pdfrwt beam="1">  1        1 0.60987997E-01 0.27554649E+03</pdfrwt>
<pdfrwt beam="2">  1       -1 0.73664575E-02 0.27554649E+03</pdfrwt>
<totfact> 0.59563351E+03</totfact>
</mgrwt>
</event>
<event>
 4    1  0.3147937E-004  0.2223621E+03  0.7818608E-02  0.1132134E+00
          1   -1    0    0  501    0  0.00000000000E+00  0.00000000000E+00  0.31844579690E+03  0.31844579694E+03  0.50400000000E-02 0. -1.
         -1   -1    0    0    0  501 -0.00000000000E+00 -0.00000000000E+00 -0.38817351164E+02  0.38817351491E+02  0.50400000000E-02 0.  1.
    5000001    1    1    2    0    0 -0.78987069427E+02  0.69519520452E+00  0.16212222658E+03  0.19609196002E+03  0.77000000000E+02 0.  0.
   -5000001    1    1    2    0    0  0.78987069427E+02 -0.69519520452E+00  0.11750621915E+03  0.16117118841E+03  0.77000000000E+02 0.  0.
<mgrwt>
<rscale>  0 0.22236207E+03</rscale>
<asrwt>0</asrwt>
<pdfrwt beam="1">  1        1 0.48991660E-01 0.22236207E+03</pdfrwt>
<pdfrwt beam="2">  1       -1 0.59719003E-02 0.22236207E+03</pdfrwt>
<totfact> 0.10699078E+04</totfact>
</mgrwt>
</event>
<event>
 4    1  0.3147937E-004  0.1635384E+03  0.7818608E-02  0.1184759E+00
         -1   -1    0    0    0  501 -0.00000000000E+00  0.00000000000E+00  0.48654490822E+01  0.48654516926E+01  0.50400000000E-02 0. -1.
          1   -1    0    0  501    0  0.00000000000E+00 -0.00000000000E+00 -0.13742206419E+04  0.13742206419E+04  0.50400000000E-02 0.  1.
    5000001    1    1    2    0    0 -0.21492767348E+02 -0.10538835218E+02 -0.79912660688E+03  0.80318449930E+03  0.77000000000E+02 0.  0.
   -5000001    1    1    2    0    0  0.21492767348E+02  0.10538835218E+02 -0.57022858593E+03  0.57590159429E+03  0.77000000000E+02 0.  0.
<mgrwt>
<rscale>  0 0.16353840E+03</rscale>
<asrwt>0</asrwt>
<pdfrwt beam="1">  1        1 0.21141825E+00 0.16353840E+03</pdfrwt>
<pdfrwt beam="2">  1       -1 0.74853192E-03 0.16353840E+03</pdfrwt>
<totfact> 0.24105993E+04</totfact>
</mgrwt>
</event>
<event>
 4    1  0.3147937E-004  0.2278359E+03  0.7818608E-02  0.1128172E+00
          1   -1    0    0  501    0  0.00000000000E+00  0.00000000000E+00  0.26436848918E+03  0.26436848923E+03  0.50400000000E-02 0.  1.
         -1   -1    0    0    0  501 -0.00000000000E+00 -0.00000000000E+00 -0.49087912791E+02  0.49087913050E+02  0.50400000000E-02 0. -1.
    5000001    1    1    2    0    0  0.81168671085E+02 -0.20195594115E+02  0.11756915513E+03  0.16354730638E+03  0.77000000000E+02 0.  0.
   -5000001    1    1    2    0    0 -0.81168671085E+02  0.20195594115E+02  0.97711421259E+02  0.14990909589E+03  0.77000000000E+02 0.  0.
<mgrwt>
<rscale>  0 0.22783588E+03</rscale>
<asrwt>0</asrwt>
<pdfrwt beam="1">  1        1 0.40672076E-01 0.22783588E+03</pdfrwt>
<pdfrwt beam="2">  1       -1 0.75519865E-02 0.22783588E+03</pdfrwt>
<totfact> 0.94859983E+03</totfact>
</mgrwt>
</event>
<event>
 4    1  0.3147937E-004  0.2810268E+03  0.7818608E-02  0.1095129E+00
         -1   -1    0    0    0  501 -0.00000000000E+00  0.00000000000E+00  0.42746297789E+02  0.42746298086E+02  0.50400000000E-02 0. -1.
          1   -1    0    0  501    0  0.00000000000E+00 -0.00000000000E+00 -0.46188838494E+03  0.46188838496E+03  0.50400000000E-02 0.  1.
    5000001    1    1    2    0    0  0.82522735232E+02  0.77664078291E+02 -0.26559249958E+03  0.29884793244E+03  0.77000000000E+02 0.  0.
   -5000001    1    1    2    0    0 -0.82522735232E+02 -0.77664078291E+02 -0.15354958756E+03  0.20578675061E+03  0.77000000000E+02 0.  0.
<mgrwt>
<rscale>  0 0.28102682E+03</rscale>
<asrwt>0</asrwt>
<pdfrwt beam="1">  1        1 0.71059748E-01 0.28102682E+03</pdfrwt>
<pdfrwt beam="2">  1       -1 0.65763539E-02 0.28102682E+03</pdfrwt>
<totfact> 0.58089424E+03</totfact>
</mgrwt>
</event>
<event>
 4    1  0.3147937E-004  0.1682054E+03  0.7818608E-02  0.1179732E+00
          1   -1    0    0  501    0  0.00000000000E+00  0.00000000000E+00  0.75743174294E+03  0.75743174296E+03  0.50400000000E-02 0. -1.
         -1   -1    0    0    0  501 -0.00000000000E+00 -0.00000000000E+00 -0.93384797617E+01  0.93384811217E+01  0.50400000000E-02 0.  1.
    5000001    1    1    2    0    0 -0.63894254556E+01 -0.23498078827E+02  0.26701544313E+03  0.27896098533E+03  0.77000000000E+02 0.  0.
   -5000001    1    1    2    0    0  0.63894254556E+01  0.23498078827E+02  0.48107782005E+03  0.48780923875E+03  0.77000000000E+02 0.  0.
<mgrwt>
<rscale>  0 0.16820537E+03</rscale>
<asrwt>0</asrwt>
<pdfrwt beam="1">  1        1 0.11652796E+00 0.16820537E+03</pdfrwt>
<pdfrwt beam="2">  1       -1 0.14366893E-02 0.16820537E+03</pdfrwt>
<totfact> 0.26787403E+04</totfact>
</mgrwt>
</event>
<event>
 4    1  0.3147937E-004  0.2106333E+03  0.7818608E-02  0.1141065E+00
          1   -1    0    0  501    0  0.00000000000E+00  0.00000000000E+00  0.95066472706E+02  0.95066472839E+02  0.50400000000E-02 0.  1.
         -1   -1    0    0    0  501 -0.00000000000E+00 -0.00000000000E+00 -0.11667200662E+03  0.11667200672E+03  0.50400000000E-02 0. -1.
    5000001    1    1    2    0    0 -0.53650252275E+02  0.39291634363E+02  0.16550556320E+02  0.10307814033E+03  0.77000000000E+02 0.  0.
   -5000001    1    1    2    0    0  0.53650252275E+02 -0.39291634363E+02 -0.38156090230E+02  0.10866033923E+03  0.77000000000E+02 0.  0.
<mgrwt>
<rscale>  0 0.21063329E+03</rscale>
<asrwt>0</asrwt>
<pdfrwt beam="1">  1        1 0.14625611E-01 0.21063329E+03</pdfrwt>
<pdfrwt beam="2">  1       -1 0.17949539E-01 0.21063329E+03</pdfrwt>
<totfact> 0.90219576E+03</totfact>
</mgrwt>
</event>
<event>
 4    1  0.3147937E-004  0.2220649E+03  0.7818608E-02  0.1132353E+00
          1   -1    0    0  501    0  0.00000000000E+00  0.00000000000E+00  0.52780632502E+03  0.52780632505E+03  0.50400000000E-02 0.  1.
         -1   -1    0    0    0  501 -0.00000000000E+00 -0.00000000000E+00 -0.23357447234E+02  0.23357447777E+02  0.50400000000E-02 0. -1.
    5000001    1    1    2    0    0  0.42967077866E+02  0.63090190563E+02  0.19282920237E+03  0.22122080194E+03  0.77000000000E+02 0.  0.
   -5000001    1    1    2    0    0 -0.42967077866E+02 -0.63090190563E+02  0.31161967542E+03  0.32994297088E+03  0.77000000000E+02 0.  0.
<mgrwt>
<rscale>  0 0.22206493E+03</rscale>
<asrwt>0</asrwt>
<pdfrwt beam="1">  1        1 0.81200961E-01 0.22206493E+03</pdfrwt>
<pdfrwt beam="2">  1       -1 0.35934540E-02 0.22206493E+03</pdfrwt>
<totfact> 0.11903033E+04</totfact>
</mgrwt>
</event>
<event>
 4    1  0.3147937E-004  0.2509757E+03  0.7818608E-02  0.1112690E+00
          1   -1    0    0  501    0  0.00000000000E+00  0.00000000000E+00  0.11113972142E+04  0.11113972142E+04  0.50400000000E-02 0. -1.
         -1   -1    0    0    0  501 -0.00000000000E+00 -0.00000000000E+00 -0.14168835270E+02  0.14168836166E+02  0.50400000000E-02 0.  1.
    5000001    1    1    2    0    0  0.57929224904E+02  0.36845014908E+02  0.22818584033E+03  0.25042189990E+03  0.77000000000E+02 0.  0.
   -5000001    1    1    2    0    0 -0.57929224904E+02 -0.36845014908E+02  0.86904253859E+03  0.87514415047E+03  0.77000000000E+02 0.  0.
<mgrwt>
<rscale>  0 0.25097573E+03</rscale>
<asrwt>0</asrwt>
<pdfrwt beam="1">  1        1 0.17098427E+00 0.25097573E+03</pdfrwt>
<pdfrwt beam="2">  1       -1 0.21798198E-02 0.25097573E+03</pdfrwt>
<totfact> 0.79706919E+03</totfact>
</mgrwt>
</event>
<event>
 4    1  0.3147937E-004  0.5142058E+03  0.7818608E-02  0.1010136E+00
         -1   -1    0    0    0  501 -0.00000000000E+00  0.00000000000E+00  0.51524391979E+03  0.51524391981E+03  0.50400000000E-02 0. -1.
          1   -1    0    0  501    0  0.00000000000E+00 -0.00000000000E+00 -0.12829246616E+03  0.12829246626E+03  0.50400000000E-02 0.  1.
    5000001    1    1    2    0    0  0.21656831845E+03 -0.95784019408E+02  0.27357756525E+03  0.36993256026E+03  0.77000000000E+02 0.  0.
   -5000001    1    1    2    0    0 -0.21656831845E+03  0.95784019408E+02  0.11337388838E+03  0.27360382581E+03  0.77000000000E+02 0.  0.
<mgrwt>
<rscale>  0 0.51420585E+03</rscale>
<asrwt>0</asrwt>
<pdfrwt beam="1">  1        1 0.19737302E-01 0.51420585E+03</pdfrwt>
<pdfrwt beam="2">  1       -1 0.79268297E-01 0.51420585E+03</pdfrwt>
<totfact> 0.43065008E+02</totfact>
</mgrwt>
</event>
<event>
 4    1  0.3147937E-004  0.1983038E+03  0.7818608E-02  0.1151178E+00
         -1   -1    0    0    0  501 -0.00000000000E+00  0.00000000000E+00  0.32299319000E+02  0.32299319394E+02  0.50400000000E-02 0. -1.
          1   -1    0    0  501    0  0.00000000000E+00 -0.00000000000E+00 -0.30437478523E+03  0.30437478528E+03  0.50400000000E-02 0.  1.
    5000001    1    1    2    0    0 -0.30756040273E+01 -0.58049069540E+02 -0.17486229067E+03  0.19971222925E+03  0.77000000000E+02 0.  0.
   -5000001    1    1    2    0    0  0.30756040273E+01  0.58049069540E+02 -0.97213175566E+02  0.13696187542E+03  0.77000000000E+02 0.  0.
<mgrwt>
<rscale>  0 0.19830379E+03</rscale>
<asrwt>0</asrwt>
<pdfrwt beam="1">  1        1 0.46826888E-01 0.19830379E+03</pdfrwt>
<pdfrwt beam="2">  1       -1 0.49691262E-02 0.19830379E+03</pdfrwt>
<totfact> 0.14801637E+04</totfact>
</mgrwt>
</event>
<event>
 4    1  0.3147937E-004  0.2612117E+03  0.7818608E-02  0.1106417E+00
         -1   -1    0    0    0  501 -0.00000000000E+00  0.00000000000E+00  0.90727060171E+02  0.90727060311E+02  0.50400000000E-02 0. -1.
          1   -1    0    0  501    0  0.00000000000E+00 -0.00000000000E+00 -0.18801323742E+03  0.18801323749E+03  0.50400000000E-02 0.  1.
    5000001    1    1    2    0    0  0.75141312127E+02 -0.38459281112E+01 -0.12755028867E+03  0.16691040738E+03  0.77000000000E+02 0.  0.
   -5000001    1    1    2    0    0 -0.75141312127E+02  0.38459281112E+01  0.30264111422E+02  0.11182989042E+03  0.77000000000E+02 0.  0.
<mgrwt>
<rscale>  0 0.26121170E+03</rscale>
<asrwt>0</asrwt>
<pdfrwt beam="1">  1        1 0.28925113E-01 0.26121170E+03</pdfrwt>
<pdfrwt beam="2">  1       -1 0.13958009E-01 0.26121170E+03</pdfrwt>
<totfact> 0.56642994E+03</totfact>
</mgrwt>
</event>
<event>
 4    1  0.3147937E-004  0.1971167E+03  0.7818608E-02  0.1152195E+00
          1   -1    0    0  501    0  0.00000000000E+00  0.00000000000E+00  0.67889297645E+03  0.67889297647E+03  0.50400000000E-02 0.  1.
         -1   -1    0    0    0  501 -0.00000000000E+00 -0.00000000000E+00 -0.14308217025E+02  0.14308217913E+02  0.50400000000E-02 0. -1.
    5000001    1    1    2    0    0  0.52606849638E+02  0.16262037321E+01  0.22027426100E+03  0.23920676250E+03  0.77000000000E+02 0.  0.
   -5000001    1    1    2    0    0 -0.52606849638E+02 -0.16262037321E+01  0.44431049842E+03  0.45399443188E+03  0.77000000000E+02 0.  0.
<mgrwt>
<rscale>  0 0.19711670E+03</rscale>
<asrwt>0</asrwt>
<pdfrwt beam="1">  1        1 0.10444508E+00 0.19711670E+03</pdfrwt>
<pdfrwt beam="2">  1       -1 0.22012641E-02 0.19711670E+03</pdfrwt>
<totfact> 0.17131698E+04</totfact>
</mgrwt>
</event>
<event>
 4    1  0.3147937E-004  0.2056327E+03  0.7818608E-02  0.1145072E+00
          1   -1    0    0  501    0  0.00000000000E+00  0.00000000000E+00  0.30964004116E+03  0.30964004120E+03  0.50400000000E-02 0. -1.
         -1   -1    0    0    0  501 -0.00000000000E+00 -0.00000000000E+00 -0.34140299126E+02  0.34140299498E+02  0.50400000000E-02 0.  1.
    5000001    1    1    2    0    0 -0.32779444193E+02  0.58178507785E+02  0.16036412614E+03  0.19001285136E+03  0.77000000000E+02 0.  0.
   -5000001    1    1    2    0    0  0.32779444193E+02 -0.58178507785E+02  0.11513561589E+03  0.15376748934E+03  0.77000000000E+02 0.  0.
<mgrwt>
<rscale>  0 0.20563272E+03</rscale>
<asrwt>0</asrwt>
<pdfrwt beam="1">  1        1 0.47636931E-01 0.20563272E+03</pdfrwt>
<pdfrwt beam="2">  1       -1 0.52523536E-02 0.20563272E+03</pdfrwt>
<totfact> 0.13369505E+04</totfact>
</mgrwt>
</event>
<event>
 4    1  0.3147937E-004  0.2239829E+03  0.7818608E-02  0.1130948E+00
          1   -1    0    0  501    0  0.00000000000E+00  0.00000000000E+00  0.64613723321E+03  0.64613723323E+03  0.50400000000E-02 0.  1.
         -1   -1    0    0    0  501 -0.00000000000E+00 -0.00000000000E+00 -0.19410874523E+02  0.19410875177E+02  0.50400000000E-02 0. -1.
    5000001    1    1    2    0    0  0.53204867481E+02 -0.19238341679E+02  0.13978990461E+03  0.16932539427E+03  0.77000000000E+02 0.  0.
   -5000001    1    1    2    0    0 -0.53204867481E+02  0.19238341679E+02  0.48693645408E+03  0.49622271414E+03  0.77000000000E+02 0.  0.
<mgrwt>
<rscale>  0 0.22398294E+03</rscale>
<asrwt>0</asrwt>
<pdfrwt beam="1">  1        1 0.99405731E-01 0.22398294E+03</pdfrwt>
<pdfrwt beam="2">  1       -1 0.29862883E-02 0.22398294E+03</pdfrwt>
<totfact> 0.11850209E+04</totfact>
</mgrwt>
</event>
<event>
 4    1  0.3147937E-004  0.2378730E+03  0.7818608E-02  0.1121218E+00
         -1   -1    0    0    0  501 -0.00000000000E+00  0.00000000000E+00  0.87949013012E+03  0.87949013013E+03  0.50400000000E-02 0. -1.
          1   -1    0    0  501    0  0.00000000000E+00 -0.00000000000E+00 -0.16084199196E+02  0.16084199986E+02  0.50400000000E-02 0.  1.
    5000001    1    1    2    0    0  0.27531102373E+02  0.83750770884E+02  0.35230483111E+03  0.37124095577E+03  0.77000000000E+02 0.  0.
   -5000001    1    1    2    0    0 -0.27531102373E+02 -0.83750770884E+02  0.51110109982E+03  0.52433337435E+03  0.77000000000E+02 0.  0.
<mgrwt>
<rscale>  0 0.23787303E+03</rscale>
<asrwt>0</asrwt>
<pdfrwt beam="1">  1        1 0.24744916E-02 0.23787303E+03</pdfrwt>
<pdfrwt beam="2">  1       -1 0.13530621E+00 0.23787303E+03</pdfrwt>
<totfact> 0.21920050E+03</totfact>
</mgrwt>
</event>
<event>
 4    1  0.3147937E-004  0.3741641E+03  0.7818608E-02  0.1053112E+00
          1   -1    0    0  501    0  0.00000000000E+00  0.00000000000E+00  0.16061666048E+03  0.16061666056E+03  0.50400000000E-02 0. -1.
         -1   -1    0    0    0  501 -0.00000000000E+00 -0.00000000000E+00 -0.21790818837E+03  0.21790818843E+03  0.50400000000E-02 0.  1.
    5000001    1    1    2    0    0  0.77027426402E+02  0.12805861294E+03  0.54399032002E+02  0.17669320148E+03  0.77000000000E+02 0.  0.
   -5000001    1    1    2    0    0 -0.77027426402E+02 -0.12805861294E+03 -0.11169055990E+03  0.20183164751E+03  0.77000000000E+02 0.  0.
<mgrwt>
<rscale>  0 0.37416406E+03</rscale>
<asrwt>0</asrwt>
<pdfrwt beam="1">  1        1 0.24710256E-01 0.37416406E+03</pdfrwt>
<pdfrwt beam="2">  1       -1 0.33524337E-01 0.37416406E+03</pdfrwt>
<totfact> 0.16450446E+03</totfact>
</mgrwt>
</event>
<event>
 4    1  0.3147937E-004  0.2332905E+03  0.7818608E-02  0.1124345E+00
          1   -1    0    0  501    0  0.00000000000E+00  0.00000000000E+00  0.14695915280E+03  0.14695915289E+03  0.50400000000E-02 0.  1.
         -1   -1    0    0    0  501 -0.00000000000E+00 -0.00000000000E+00 -0.92584326584E+02  0.92584326721E+02  0.50400000000E-02 0. -1.
    5000001    1    1    2    0    0 -0.60549931835E+02 -0.46083188501E+02 -0.17418417480E+02  0.10964650371E+03  0.77000000000E+02 0.  0.
   -5000001    1    1    2    0    0  0.60549931835E+02  0.46083188501E+02  0.71793243695E+02  0.12989697590E+03  0.77000000000E+02 0.  0.
<mgrwt>
<rscale>  0 0.23329050E+03</rscale>
<asrwt>0</asrwt>
<pdfrwt beam="1">  1        1 0.22609100E-01 0.23329050E+03</pdfrwt>
<pdfrwt beam="2">  1       -1 0.14243743E-01 0.23329050E+03</pdfrwt>
<totfact> 0.74641565E+03</totfact>
</mgrwt>
</event>
<event>
 4    1  0.3147937E-004  0.2158159E+03  0.7818608E-02  0.1137041E+00
          1   -1    0    0  501    0  0.00000000000E+00  0.00000000000E+00  0.40832603918E+03  0.40832603921E+03  0.50400000000E-02 0.  1.
         -1   -1    0    0    0  501 -0.00000000000E+00 -0.00000000000E+00 -0.28516727123E+02  0.28516727568E+02  0.50400000000E-02 0. -1.
    5000001    1    1    2    0    0  0.51735341333E+02  0.47597916482E+02  0.24618228277E+03  0.26735149812E+03  0.77000000000E+02 0.  0.
   -5000001    1    1    2    0    0 -0.51735341333E+02 -0.47597916482E+02  0.13362702929E+03  0.16949126866E+03  0.77000000000E+02 0.  0.
<mgrwt>
<rscale>  0 0.21581587E+03</rscale>
<asrwt>0</asrwt>
<pdfrwt beam="1">  1        1 0.62819384E-01 0.21581587E+03</pdfrwt>
<pdfrwt beam="2">  1       -1 0.43871893E-02 0.21581587E+03</pdfrwt>
<totfact> 0.12360967E+04</totfact>
</mgrwt>
</event>
<event>
 4    1  0.3147937E-004  0.1817813E+03  0.7818608E-02  0.1166090E+00
          1   -1    0    0  501    0  0.00000000000E+00  0.00000000000E+00  0.29939251129E+03  0.29939251133E+03  0.50400000000E-02 0. -1.
         -1   -1    0    0    0  501 -0.00000000000E+00 -0.00000000000E+00 -0.27592904703E+02  0.27592905164E+02  0.50400000000E-02 0.  1.
    5000001    1    1    2    0    0  0.47071770369E+02  0.94954770013E+01  0.12669370320E+03  0.15584033521E+03  0.77000000000E+02 0.  0.
   -5000001    1    1    2    0    0 -0.47071770369E+02 -0.94954770013E+01  0.14510590339E+03  0.17114508128E+03  0.77000000000E+02 0.  0.
<mgrwt>
<rscale>  0 0.18178129E+03</rscale>
<asrwt>0</asrwt>
<pdfrwt beam="1">  1        1 0.46060387E-01 0.18178129E+03</pdfrwt>
<pdfrwt beam="2">  1       -1 0.42450622E-02 0.18178129E+03</pdfrwt>
<totfact> 0.18967363E+04</totfact>
</mgrwt>
</event>
<event>
 4    1  0.3147937E-004  0.1809912E+03  0.7818608E-02  0.1166847E+00
          1   -1    0    0  501    0  0.00000000000E+00  0.00000000000E+00  0.93113896132E+02  0.93113896268E+02  0.50400000000E-02 0.  1.
         -1   -1    0    0    0  501 -0.00000000000E+00 -0.00000000000E+00 -0.87950936683E+02  0.87950936827E+02  0.50400000000E-02 0. -1.
    5000001    1    1    2    0    0  0.44681684191E+02  0.78830687898E+01  0.16794958961E+02  0.90937705723E+02  0.77000000000E+02 0.  0.
   -5000001    1    1    2    0    0 -0.44681684191E+02 -0.78830687898E+01 -0.11631999512E+02  0.90127127372E+02  0.77000000000E+02 0.  0.
<mgrwt>
<rscale>  0 0.18099121E+03</rscale>
<asrwt>0</asrwt>
<pdfrwt beam="1">  1        1 0.14325215E-01 0.18099121E+03</pdfrwt>
<pdfrwt beam="2">  1       -1 0.13530913E-01 0.18099121E+03</pdfrwt>
<totfact> 0.14348691E+04</totfact>
</mgrwt>
</event>
<event>
 4    1  0.3147937E-004  0.2979690E+03  0.7818608E-02  0.1086260E+00
          1   -1    0    0  501    0  0.00000000000E+00  0.00000000000E+00  0.12049648575E+02  0.12049649629E+02  0.50400000000E-02 0.  1.
         -1   -1    0    0    0  501 -0.00000000000E+00 -0.00000000000E+00 -0.18420765165E+04  0.18420765165E+04  0.50400000000E-02 0. -1.
    5000001    1    1    2    0    0 -0.11913882312E+03 -0.45526701960E+02 -0.91005140633E+03  0.92216555018E+03  0.77000000000E+02 0.  0.
   -5000001    1    1    2    0    0  0.11913882312E+03  0.45526701960E+02 -0.91997546155E+03  0.93196061592E+03  0.77000000000E+02 0.  0.
<mgrwt>
<rscale>  0 0.29796896E+03</rscale>
<asrwt>0</asrwt>
<pdfrwt beam="1">  1        1 0.18537936E-02 0.29796896E+03</pdfrwt>
<pdfrwt beam="2">  1       -1 0.28339616E+00 0.29796896E+03</pdfrwt>
<totfact> 0.32998314E+02</totfact>
</mgrwt>
</event>
<event>
 4    1  0.3147937E-004  0.1832035E+03  0.7818608E-02  0.1164738E+00
         -1   -1    0    0    0  501 -0.00000000000E+00  0.00000000000E+00  0.25489522527E+02  0.25489523025E+02  0.50400000000E-02 0.  1.
          1   -1    0    0  501    0  0.00000000000E+00 -0.00000000000E+00 -0.32918954418E+03  0.32918954422E+03  0.50400000000E-02 0. -1.
    5000001    1    1    2    0    0 -0.48842004634E+02 -0.20531346272E+01 -0.16829192930E+03  0.19141820772E+03  0.77000000000E+02 0.  0.
   -5000001    1    1    2    0    0  0.48842004634E+02  0.20531346272E+01 -0.13540809236E+03  0.16326085953E+03  0.77000000000E+02 0.  0.
<mgrwt>
<rscale>  0 0.18320354E+03</rscale>
<asrwt>0</asrwt>
<pdfrwt beam="1">  1        1 0.50644542E-01 0.18320354E+03</pdfrwt>
<pdfrwt beam="2">  1       -1 0.39214653E-02 0.18320354E+03</pdfrwt>
<totfact> 0.18953172E+04</totfact>
</mgrwt>
</event>
<event>
 4    1  0.3147937E-004  0.1658187E+03  0.7818608E-02  0.1182280E+00
          1   -1    0    0  501    0  0.00000000000E+00  0.00000000000E+00  0.35604742333E+03  0.35604742337E+03  0.50400000000E-02 0. -1.
         -1   -1    0    0    0  501 -0.00000000000E+00 -0.00000000000E+00 -0.19306311337E+02  0.19306311995E+02  0.50400000000E-02 0.  1.
    5000001    1    1    2    0    0 -0.29529656358E+02 -0.63910183568E+01  0.18119898293E+03  0.19918563486E+03  0.77000000000E+02 0.  0.
   -5000001    1    1    2    0    0  0.29529656358E+02  0.63910183568E+01  0.15554212907E+03  0.17616810050E+03  0.77000000000E+02 0.  0.
<mgrwt>
<rscale>  0 0.16581873E+03</rscale>
<asrwt>0</asrwt>
<pdfrwt beam="1">  1        1 0.54776524E-01 0.16581873E+03</pdfrwt>
<pdfrwt beam="2">  1       -1 0.29702019E-02 0.16581873E+03</pdfrwt>
<totfact> 0.25620706E+04</totfact>
</mgrwt>
</event>
<event>
 4    1  0.3147937E-004  0.2174603E+03  0.7818608E-02  0.1135791E+00
         -1   -1    0    0    0  501 -0.00000000000E+00  0.00000000000E+00  0.38301372094E+02  0.38301372425E+02  0.50400000000E-02 0. -1.
          1   -1    0    0  501    0  0.00000000000E+00 -0.00000000000E+00 -0.30866367098E+03  0.30866367102E+03  0.50400000000E-02 0.  1.
    5000001    1    1    2    0    0 -0.23872891587E+02  0.62021121543E+02 -0.73868078124E+02  0.12570611535E+03  0.77000000000E+02 0.  0.
   -5000001    1    1    2    0    0  0.23872891587E+02 -0.62021121543E+02 -0.19649422076E+03  0.22125892810E+03  0.77000000000E+02 0.  0.
<mgrwt>
<rscale>  0 0.21746027E+03</rscale>
<asrwt>0</asrwt>
<pdfrwt beam="1">  1        1 0.47486717E-01 0.21746027E+03</pdfrwt>
<pdfrwt beam="2">  1       -1 0.58925190E-02 0.21746027E+03</pdfrwt>
<totfact> 0.11337498E+04</totfact>
</mgrwt>
</event>
<event>
 4    1  0.3147937E-004  0.1805318E+03  0.7818608E-02  0.1167289E+00
         -1   -1    0    0    0  501 -0.00000000000E+00  0.00000000000E+00  0.50862445885E+02  0.50862446134E+02  0.50400000000E-02 0.  1.
          1   -1    0    0  501    0  0.00000000000E+00 -0.00000000000E+00 -0.16019553458E+03  0.16019553466E+03  0.50400000000E-02 0. -1.
    5000001    1    1    2    0    0  0.33443393813E+02  0.11077738909E+02 -0.91222998128E+02  0.12446610895E+03  0.77000000000E+02 0.  0.
   -5000001    1    1    2    0    0 -0.33443393813E+02 -0.11077738909E+02 -0.18110090565E+02  0.86591871843E+02  0.77000000000E+02 0.  0.
<mgrwt>
<rscale>  0 0.18053184E+03</rscale>
<asrwt>0</asrwt>
<pdfrwt beam="1">  1        1 0.24645467E-01 0.18053184E+03</pdfrwt>
<pdfrwt beam="2">  1       -1 0.78249918E-02 0.18053184E+03</pdfrwt>
<totfact> 0.16590955E+04</totfact>
</mgrwt>
</event>
<event>
 4    1  0.3147937E-004  0.2277525E+03  0.7818608E-02  0.1128232E+00
         -1   -1    0    0    0  501 -0.00000000000E+00  0.00000000000E+00  0.59393840269E+03  0.59393840271E+03  0.50400000000E-02 0.  1.
          1   -1    0    0  501    0  0.00000000000E+00 -0.00000000000E+00 -0.21833575527E+02  0.21833576109E+02  0.50400000000E-02 0. -1.
    5000001    1    1    2    0    0  0.77502775877E+02 -0.25113468246E+02  0.34022294668E+03  0.35821504715E+03  0.77000000000E+02 0.  0.
   -5000001    1    1    2    0    0 -0.77502775877E+02  0.25113468246E+02  0.23188188049E+03  0.25755693168E+03  0.77000000000E+02 0.  0.
<mgrwt>
<rscale>  0 0.22775249E+03</rscale>
<asrwt>0</asrwt>
<pdfrwt beam="1">  1        1 0.33590125E-02 0.22775249E+03</pdfrwt>
<pdfrwt beam="2">  1       -1 0.91375117E-01 0.22775249E+03</pdfrwt>
<totfact> 0.35355795E+03</totfact>
</mgrwt>
</event>
<event>
 4    1  0.3147937E-004  0.3670843E+03  0.7818608E-02  0.1055813E+00
          1   -1    0    0  501    0  0.00000000000E+00  0.00000000000E+00  0.91376547442E+02  0.91376547581E+02  0.50400000000E-02 0. -1.
         -1   -1    0    0    0  501 -0.00000000000E+00 -0.00000000000E+00 -0.36866928423E+03  0.36866928426E+03  0.50400000000E-02 0.  1.
    5000001    1    1    2    0    0  0.76923863954E+02  0.11910841243E+03 -0.28999204777E+02  0.16393306144E+03  0.77000000000E+02 0.  0.
   -5000001    1    1    2    0    0 -0.76923863954E+02 -0.11910841243E+03 -0.24829353201E+03  0.29611277040E+03  0.77000000000E+02 0.  0.
<mgrwt>
<rscale>  0 0.36708433E+03</rscale>
<asrwt>0</asrwt>
<pdfrwt beam="1">  1        1 0.14057931E-01 0.36708433E+03</pdfrwt>
<pdfrwt beam="2">  1       -1 0.56718351E-01 0.36708433E+03</pdfrwt>
<totfact> 0.13204410E+03</totfact>
</mgrwt>
</event>
<event>
 4    1  0.3147937E-004  0.3162043E+03  0.7818608E-02  0.1077410E+00
          1   -1    0    0  501    0  0.00000000000E+00  0.00000000000E+00  0.11871796479E+03  0.11871796490E+03  0.50400000000E-02 0.  1.
         -1   -1    0    0    0  501 -0.00000000000E+00 -0.00000000000E+00 -0.21055181706E+03  0.21055181712E+03  0.50400000000E-02 0. -1.
    5000001    1    1    2    0    0 -0.76335623117E+02 -0.48378963481E+02 -0.15463207754E+03  0.19495571515E+03  0.77000000000E+02 0.  0.
   -5000001    1    1    2    0    0  0.76335623117E+02  0.48378963481E+02  0.62798225265E+02  0.13431406688E+03  0.77000000000E+02 0.  0.
<mgrwt>
<rscale>  0 0.31620426E+03</rscale>
<asrwt>0</asrwt>
<pdfrwt beam="1">  1        1 0.18264302E-01 0.31620426E+03</pdfrwt>
<pdfrwt beam="2">  1       -1 0.32392587E-01 0.31620426E+03</pdfrwt>
<totfact> 0.25753292E+03</totfact>
</mgrwt>
</event>
<event>
 4    1  0.3147937E-004  0.3185094E+03  0.7818608E-02  0.1076337E+00
         -1   -1    0    0    0  501 -0.00000000000E+00  0.00000000000E+00  0.82146242272E+02  0.82146242426E+02  0.50400000000E-02 0. -1.
          1   -1    0    0  501    0  0.00000000000E+00 -0.00000000000E+00 -0.30874279835E+03  0.30874279839E+03  0.50400000000E-02 0.  1.
    5000001    1    1    2    0    0  0.52950339290E+02 -0.73807791294E+02 -0.24307170527E+03  0.27067357165E+03  0.77000000000E+02 0.  0.
   -5000001    1    1    2    0    0 -0.52950339290E+02  0.73807791294E+02  0.16475149190E+02  0.12021546917E+03  0.77000000000E+02 0.  0.
<mgrwt>
<rscale>  0 0.31850941E+03</rscale>
<asrwt>0</asrwt>
<pdfrwt beam="1">  1        1 0.47498892E-01 0.31850941E+03</pdfrwt>
<pdfrwt beam="2">  1       -1 0.12637884E-01 0.31850941E+03</pdfrwt>
<totfact> 0.35665018E+03</totfact>
</mgrwt>
</event>
<event>
 4    1  0.3147937E-004  0.2068219E+03  0.7818608E-02  0.1144108E+00
          1   -1    0    0  501    0  0.00000000000E+00  0.00000000000E+00  0.22060247092E+03  0.22060247097E+03  0.50400000000E-02 0.  1.
         -1   -1    0    0    0  501 -0.00000000000E+00 -0.00000000000E+00 -0.48475537808E+02  0.48475538070E+02  0.50400000000E-02 0. -1.
    5000001    1    1    2    0    0 -0.46999584674E+02  0.49495043866E+02  0.99464732140E+02  0.14311168110E+03  0.77000000000E+02 0.  0.
   -5000001    1    1    2    0    0  0.46999584674E+02 -0.49495043866E+02  0.72662200970E+02  0.12596632795E+03  0.77000000000E+02 0.  0.
<mgrwt>
<rscale>  0 0.20682189E+03</rscale>
<asrwt>0</asrwt>
<pdfrwt beam="1">  1        1 0.33938842E-01 0.20682189E+03</pdfrwt>
<pdfrwt beam="2">  1       -1 0.74577751E-02 0.20682189E+03</pdfrwt>
<totfact> 0.12054918E+04</totfact>
</mgrwt>
</event>
<event>
 4    1  0.3147937E-004  0.3030801E+03  0.7818608E-02  0.1083711E+00
         -1   -1    0    0    0  501 -0.00000000000E+00  0.00000000000E+00  0.82844750438E+02  0.82844750591E+02  0.50400000000E-02 0.  1.
          1   -1    0    0  501    0  0.00000000000E+00 -0.00000000000E+00 -0.27719782496E+03  0.27719782501E+03  0.50400000000E-02 0. -1.
    5000001    1    1    2    0    0  0.31924722243E+02 -0.12253864066E+03 -0.59601423927E+02  0.15973802327E+03  0.77000000000E+02 0.  0.
   -5000001    1    1    2    0    0 -0.31924722243E+02  0.12253864066E+03 -0.13475165060E+03  0.20030455233E+03  0.77000000000E+02 0.  0.
<mgrwt>
<rscale>  0 0.30308009E+03</rscale>
<asrwt>0</asrwt>
<pdfrwt beam="1">  1        1 0.42645819E-01 0.30308009E+03</pdfrwt>
<pdfrwt beam="2">  1       -1 0.12745346E-01 0.30308009E+03</pdfrwt>
<totfact> 0.40274536E+03</totfact>
</mgrwt>
</event>
<event>
 4    1  0.3147937E-004  0.2898929E+03  0.7818608E-02  0.1090405E+00
          1   -1    0    0  501    0  0.00000000000E+00  0.00000000000E+00  0.15462365703E+02  0.15462366524E+02  0.50400000000E-02 0.  1.
         -1   -1    0    0    0  501 -0.00000000000E+00 -0.00000000000E+00 -0.13587493050E+04  0.13587493050E+04  0.50400000000E-02 0. -1.
    5000001    1    1    2    0    0  0.12242984019E+03  0.95527724806E+01 -0.67352770885E+03  0.68894767278E+03  0.77000000000E+02 0.  0.
   -5000001    1    1    2    0    0 -0.12242984019E+03 -0.95527724806E+01 -0.66975923047E+03  0.68526399878E+03  0.77000000000E+02 0.  0.
<mgrwt>
<rscale>  0 0.28989294E+03</rscale>
<asrwt>0</asrwt>
<pdfrwt beam="1">  1        1 0.23788266E-02 0.28989294E+03</pdfrwt>
<pdfrwt beam="2">  1       -1 0.20903826E+00 0.28989294E+03</pdfrwt>
<totfact> 0.68837453E+02</totfact>
</mgrwt>
</event>
<event>
 4    1  0.3147937E-004  0.1758040E+03  0.7818608E-02  0.1171927E+00
          1   -1    0    0  501    0  0.00000000000E+00  0.00000000000E+00  0.24271843919E+03  0.24271843924E+03  0.50400000000E-02 0.  1.
         -1   -1    0    0    0  501 -0.00000000000E+00 -0.00000000000E+00 -0.31834253516E+02  0.31834253915E+02  0.50400000000E-02 0. -1.
    5000001    1    1    2    0    0 -0.17092882436E+02 -0.33005069243E+02  0.13730452275E+03  0.16174990941E+03  0.77000000000E+02 0.  0.
   -5000001    1    1    2    0    0  0.17092882436E+02  0.33005069243E+02  0.73579662928E+02  0.11280278375E+03  0.77000000000E+02 0.  0.
<mgrwt>
<rscale>  0 0.17580399E+03</rscale>
<asrwt>0</asrwt>
<pdfrwt beam="1">  1        1 0.37341299E-01 0.17580399E+03</pdfrwt>
<pdfrwt beam="2">  1       -1 0.48975774E-02 0.17580399E+03</pdfrwt>
<totfact> 0.19869129E+04</totfact>
</mgrwt>
</event>
<event>
 4    1  0.3147937E-004  0.3659181E+03  0.7818608E-02  0.1056265E+00
          1   -1    0    0  501    0  0.00000000000E+00  0.00000000000E+00  0.40412510509E+03  0.40412510512E+03  0.50400000000E-02 0.  1.
         -1   -1    0    0    0  501 -0.00000000000E+00 -0.00000000000E+00 -0.82830839742E+02  0.82830839896E+02  0.50400000000E-02 0. -1.
    5000001    1    1    2    0    0  0.70383928388E+02  0.63556962441E+02  0.34190499256E+03  0.36307218124E+03  0.77000000000E+02 0.  0.
   -5000001    1    1    2    0    0 -0.70383928388E+02 -0.63556962441E+02 -0.20610727221E+02  0.12388376377E+03  0.77000000000E+02 0.  0.
<mgrwt>
<rscale>  0 0.36591814E+03</rscale>
<asrwt>0</asrwt>
<pdfrwt beam="1">  1        1 0.62173093E-01 0.36591814E+03</pdfrwt>
<pdfrwt beam="2">  1       -1 0.12743206E-01 0.36591814E+03</pdfrwt>
<totfact> 0.25001609E+03</totfact>
</mgrwt>
</event>
<event>
 4    1  0.3147937E-004  0.1949103E+03  0.7818608E-02  0.1154106E+00
          1   -1    0    0  501    0  0.00000000000E+00  0.00000000000E+00  0.70504387408E+03  0.70504387410E+03  0.50400000000E-02 0.  1.
         -1   -1    0    0    0  501 -0.00000000000E+00 -0.00000000000E+00 -0.13470806697E+02  0.13470807639E+02  0.50400000000E-02 0. -1.
    5000001    1    1    2    0    0 -0.37179683653E+02  0.46619970242E+02  0.33261855789E+03  0.34658311493E+03  0.77000000000E+02 0.  0.
   -5000001    1    1    2    0    0  0.37179683653E+02 -0.46619970242E+02  0.35895450949E+03  0.37193156681E+03  0.77000000000E+02 0.  0.
<mgrwt>
<rscale>  0 0.19491034E+03</rscale>
<asrwt>0</asrwt>
<pdfrwt beam="1">  1        1 0.10846832E+00 0.19491034E+03</pdfrwt>
<pdfrwt beam="2">  1       -1 0.20724312E-02 0.19491034E+03</pdfrwt>
<totfact> 0.17699558E+04</totfact>
</mgrwt>
</event>
<event>
 4    1  0.3147937E-004  0.2110270E+03  0.7818608E-02  0.1140755E+00
         -1   -1    0    0    0  501 -0.00000000000E+00  0.00000000000E+00  0.10155118975E+04  0.10155118975E+04  0.50400000000E-02 0. -1.
          1   -1    0    0  501    0  0.00000000000E+00 -0.00000000000E+00 -0.10963042637E+02  0.10963043795E+02  0.50400000000E-02 0.  1.
    5000001    1    1    2    0    0 -0.11671482922E+02  0.42899243891E+02  0.22593326756E+03  0.24279911456E+03  0.77000000000E+02 0.  0.
   -5000001    1    1    2    0    0  0.11671482922E+02 -0.42899243891E+02  0.77861558732E+03  0.78367582677E+03  0.77000000000E+02 0.  0.
<mgrwt>
<rscale>  0 0.21102702E+03</rscale>
<asrwt>0</asrwt>
<pdfrwt beam="1">  1        1 0.16866209E-02 0.21102702E+03</pdfrwt>
<pdfrwt beam="2">  1       -1 0.15623270E+00 0.21102702E+03</pdfrwt>
<totfact> 0.25843015E+03</totfact>
</mgrwt>
</event>
<event>
 4    1  0.3147937E-004  0.2455126E+03  0.7818608E-02  0.1116174E+00
         -1   -1    0    0    0  501 -0.00000000000E+00  0.00000000000E+00  0.63658606545E+01  0.63658626497E+01  0.50400000000E-02 0. -1.
          1   -1    0    0  501    0  0.00000000000E+00 -0.00000000000E+00 -0.23671748198E+04  0.23671748198E+04  0.50400000000E-02 0.  1.
    5000001    1    1    2    0    0 -0.81383943124E+02 -0.48557996337E+02 -0.10585446509E+04  0.10655641713E+04  0.77000000000E+02 0.  0.
   -5000001    1    1    2    0    0  0.81383943124E+02  0.48557996337E+02 -0.13022643083E+04  0.13079765112E+04  0.77000000000E+02 0.  0.
<mgrwt>
<rscale>  0 0.24551259E+03</rscale>
<asrwt>0</asrwt>
<pdfrwt beam="1">  1        1 0.36418004E+00 0.24551259E+03</pdfrwt>
<pdfrwt beam="2">  1       -1 0.97936522E-03 0.24551259E+03</pdfrwt>
<totfact> 0.37651557E+03</totfact>
</mgrwt>
</event>
<event>
 4    1  0.3147937E-004  0.2379246E+03  0.7818608E-02  0.1121183E+00
         -1   -1    0    0    0  501 -0.00000000000E+00  0.00000000000E+00  0.33638866804E+03  0.33638866807E+03  0.50400000000E-02 0.  1.
          1   -1    0    0  501    0  0.00000000000E+00 -0.00000000000E+00 -0.42070484831E+02  0.42070485133E+02  0.50400000000E-02 0. -1.
    5000001    1    1    2    0    0 -0.30277902992E+02 -0.48760484198E+02  0.35486732180E+02  0.10238478593E+03  0.77000000000E+02 0.  0.
   -5000001    1    1    2    0    0  0.30277902992E+02  0.48760484198E+02  0.25883145102E+03  0.27607436728E+03  0.77000000000E+02 0.  0.
<mgrwt>
<rscale>  0 0.23792465E+03</rscale>
<asrwt>0</asrwt>
<pdfrwt beam="1">  1        1 0.64723821E-02 0.23792465E+03</pdfrwt>
<pdfrwt beam="2">  1       -1 0.51752105E-01 0.23792465E+03</pdfrwt>
<totfact> 0.44310601E+03</totfact>
</mgrwt>
</event>
<event>
 4    1  0.3147937E-004  0.2888463E+03  0.7818608E-02  0.1090953E+00
          1   -1    0    0  501    0  0.00000000000E+00  0.00000000000E+00  0.81939748009E+03  0.81939748011E+03  0.50400000000E-02 0.  1.
         -1   -1    0    0    0  501 -0.00000000000E+00 -0.00000000000E+00 -0.25455339331E+02  0.25455339830E+02  0.50400000000E-02 0. -1.
    5000001    1    1    2    0    0 -0.72625916713E+02 -0.45504625383E+02  0.65168873672E+03  0.66179483549E+03  0.77000000000E+02 0.  0.
   -5000001    1    1    2    0    0  0.72625916713E+02  0.45504625383E+02  0.14225340404E+03  0.18305798445E+03  0.77000000000E+02 0.  0.
<mgrwt>
<rscale>  0 0.28884626E+03</rscale>
<asrwt>0</asrwt>
<pdfrwt beam="1">  1        1 0.12606116E+00 0.28884626E+03</pdfrwt>
<pdfrwt beam="2">  1       -1 0.39162059E-02 0.28884626E+03</pdfrwt>
<totfact> 0.56329188E+03</totfact>
</mgrwt>
</event>
<event>
 4    1  0.3147937E-004  0.3320858E+03  0.7818608E-02  0.1070218E+00
          1   -1    0    0  501    0  0.00000000000E+00  0.00000000000E+00  0.44265512698E+04  0.44265512699E+04  0.50400000000E-02 0.  1.
         -1   -1    0    0    0  501 -0.00000000000E+00 -0.00000000000E+00 -0.62283781292E+01  0.62283801683E+01  0.50400000000E-02 0. -1.
    5000001    1    1    2    0    0  0.97129106276E+02  0.10787544566E+03  0.18914571585E+04  0.18985811433E+04  0.77000000000E+02 0.  0.
   -5000001    1    1    2    0    0 -0.97129106276E+02 -0.10787544566E+03  0.25288657332E+04  0.25341985068E+04  0.77000000000E+02 0.  0.
<mgrwt>
<rscale>  0 0.33208577E+03</rscale>
<asrwt>0</asrwt>
<pdfrwt beam="1">  1        1 0.68100859E+00 0.33208577E+03</pdfrwt>
<pdfrwt beam="2">  1       -1 0.95821119E-03 0.33208577E+03</pdfrwt>
<totfact> 0.10232652E+02</totfact>
</mgrwt>
</event>
<event>
 4    1  0.3147937E-004  0.3571667E+03  0.7818608E-02  0.1059711E+00
         -1   -1    0    0    0  501 -0.00000000000E+00  0.00000000000E+00  0.24191120580E+02  0.24191121105E+02  0.50400000000E-02 0. -1.
          1   -1    0    0  501    0  0.00000000000E+00 -0.00000000000E+00 -0.13183352658E+04  0.13183352658E+04  0.50400000000E-02 0.  1.
    5000001    1    1    2    0    0 -0.10181851131E+03  0.11233413656E+03 -0.44198217987E+03  0.47356437239E+03  0.77000000000E+02 0.  0.
   -5000001    1    1    2    0    0  0.10181851131E+03 -0.11233413656E+03 -0.85216196531E+03  0.86896201448E+03  0.77000000000E+02 0.  0.
<mgrwt>
<rscale>  0 0.35716667E+03</rscale>
<asrwt>0</asrwt>
<pdfrwt beam="1">  1        1 0.20282075E+00 0.35716667E+03</pdfrwt>
<pdfrwt beam="2">  1       -1 0.37217119E-02 0.35716667E+03</pdfrwt>
<totfact> 0.25992791E+03</totfact>
</mgrwt>
</event>
<event>
 4    1  0.3147937E-004  0.1866231E+03  0.7818608E-02  0.1161543E+00
         -1   -1    0    0    0  501 -0.00000000000E+00  0.00000000000E+00  0.35520787965E+03  0.35520787969E+03  0.50400000000E-02 0.  1.
          1   -1    0    0  501    0  0.00000000000E+00 -0.00000000000E+00 -0.24512532281E+02  0.24512532799E+02  0.50400000000E-02 0. -1.
    5000001    1    1    2    0    0 -0.48278599075E+02  0.77706009977E+01  0.12532888999E+03  0.15500818054E+03  0.77000000000E+02 0.  0.
   -5000001    1    1    2    0    0  0.48278599075E+02 -0.77706009977E+01  0.20536645738E+03  0.22471223195E+03  0.77000000000E+02 0.  0.
<mgrwt>
<rscale>  0 0.18662309E+03</rscale>
<asrwt>0</asrwt>
<pdfrwt beam="1">  1        1 0.37711590E-02 0.18662309E+03</pdfrwt>
<pdfrwt beam="2">  1       -1 0.54647363E-01 0.18662309E+03</pdfrwt>
<totfact> 0.83218330E+03</totfact>
</mgrwt>
</event>
<event>
 4    1  0.3147937E-004  0.4790026E+03  0.7818608E-02  0.1019410E+00
          1   -1    0    0  501    0  0.00000000000E+00  0.00000000000E+00  0.19397063268E+03  0.19397063275E+03  0.50400000000E-02 0.  1.
         -1   -1    0    0    0  501 -0.00000000000E+00 -0.00000000000E+00 -0.29571932988E+03  0.29571932993E+03  0.50400000000E-02 0. -1.
    5000001    1    1    2    0    0 -0.20675745712E+03  0.89332740746E+02 -0.77977776914E+02  0.25047658241E+03  0.77000000000E+02 0.  0.
   -5000001    1    1    2    0    0  0.20675745712E+03 -0.89332740746E+02 -0.23770920287E+02  0.23921338026E+03  0.77000000000E+02 0.  0.
<mgrwt>
<rscale>  0 0.47900257E+03</rscale>
<asrwt>0</asrwt>
<pdfrwt beam="1">  1        1 0.29841636E-01 0.47900257E+03</pdfrwt>
<pdfrwt beam="2">  1       -1 0.45495281E-01 0.47900257E+03</pdfrwt>
<totfact> 0.74763154E+02</totfact>
</mgrwt>
</event>
<event>
 4    1  0.3147937E-004  0.1760331E+03  0.7818608E-02  0.1171698E+00
         -1   -1    0    0    0  501 -0.00000000000E+00  0.00000000000E+00  0.39719918464E+01  0.39719950440E+01  0.50400000000E-02 0. -1.
          1   -1    0    0  501    0  0.00000000000E+00 -0.00000000000E+00 -0.19503838314E+04  0.19503838315E+04  0.50400000000E-02 0.  1.
    5000001    1    1    2    0    0  0.17633094495E+02  0.38541928922E+02 -0.10246913223E+04  0.10284540400E+04  0.77000000000E+02 0.  0.
   -5000001    1    1    2    0    0 -0.17633094495E+02 -0.38541928922E+02 -0.92172051727E+03  0.92590178651E+03  0.77000000000E+02 0.  0.
<mgrwt>
<rscale>  0 0.17603309E+03</rscale>
<asrwt>0</asrwt>
<pdfrwt beam="1">  1        1 0.30005829E+00 0.17603309E+03</pdfrwt>
<pdfrwt beam="2">  1       -1 0.61107747E-03 0.17603309E+03</pdfrwt>
<totfact> 0.13699356E+04</totfact>
</mgrwt>
</event>
<event>
 4    1  0.3147937E-004  0.1882989E+03  0.7818608E-02  0.1160005E+00
         -1   -1    0    0    0  501 -0.00000000000E+00  0.00000000000E+00  0.12179257783E+03  0.12179257793E+03  0.50400000000E-02 0. -1.
          1   -1    0    0  501    0  0.00000000000E+00 -0.00000000000E+00 -0.72780426299E+02  0.72780426473E+02  0.50400000000E-02 0.  1.
    5000001    1    1    2    0    0 -0.42011769789E+02  0.33347186697E+02  0.16630298632E+02  0.95302625850E+02  0.77000000000E+02 0.  0.
   -5000001    1    1    2    0    0  0.42011769789E+02 -0.33347186697E+02  0.32381852897E+02  0.99270378555E+02  0.77000000000E+02 0.  0.
<mgrwt>
<rscale>  0 0.18829887E+03</rscale>
<asrwt>0</asrwt>
<pdfrwt beam="1">  1        1 0.11196989E-01 0.18829887E+03</pdfrwt>
<pdfrwt beam="2">  1       -1 0.18737319E-01 0.18829887E+03</pdfrwt>
<totfact> 0.11885948E+04</totfact>
</mgrwt>
</event>
<event>
 4    1  0.3147937E-004  0.1955750E+03  0.7818608E-02  0.1153527E+00
         -1   -1    0    0    0  501 -0.00000000000E+00  0.00000000000E+00  0.10554055151E+02  0.10554056355E+02  0.50400000000E-02 0.  1.
          1   -1    0    0  501    0  0.00000000000E+00 -0.00000000000E+00 -0.90604009321E+03  0.90604009322E+03  0.50400000000E-02 0. -1.
    5000001    1    1    2    0    0 -0.53959179504E+02 -0.99941709228E+01 -0.33086540060E+03  0.34411101380E+03  0.77000000000E+02 0.  0.
   -5000001    1    1    2    0    0  0.53959179504E+02  0.99941709228E+01 -0.56462063746E+03  0.57248313578E+03  0.77000000000E+02 0.  0.
<mgrwt>
<rscale>  0 0.19557503E+03</rscale>
<asrwt>0</asrwt>
<pdfrwt beam="1">  1        1 0.13939072E+00 0.19557503E+03</pdfrwt>
<pdfrwt beam="2">  1       -1 0.16237016E-02 0.19557503E+03</pdfrwt>
<totfact> 0.17195591E+04</totfact>
</mgrwt>
</event>
<event>
 4    1  0.3147937E-004  0.5565081E+03  0.7818608E-02  0.9999987E-01
         -1   -1    0    0    0  501 -0.00000000000E+00  0.00000000000E+00  0.12436768858E+04  0.12436768858E+04  0.50400000000E-02 0. -1.
          1   -1    0    0  501    0  0.00000000000E+00 -0.00000000000E+00 -0.62255176166E+02  0.62255176370E+02  0.50400000000E-02 0.  1.
    5000001    1    1    2    0    0  0.69988034276E+02  0.25563533303E+03  0.67363031138E+03  0.72797976953E+03  0.77000000000E+02 0.  0.
   -5000001    1    1    2    0    0 -0.69988034276E+02 -0.25563533303E+03  0.50779139820E+03  0.57795229260E+03  0.77000000000E+02 0.  0.
<mgrwt>
<rscale>  0 0.55650813E+03</rscale>
<asrwt>0</asrwt>
<pdfrwt beam="1">  1        1 0.95777195E-02 0.55650813E+03</pdfrwt>
<pdfrwt beam="2">  1       -1 0.19133490E+00 0.55650813E+03</pdfrwt>
<totfact> 0.12718087E+02</totfact>
</mgrwt>
</event>
<event>
 4    1  0.3147937E-004  0.2111178E+03  0.7818608E-02  0.1140684E+00
          1   -1    0    0  501    0  0.00000000000E+00  0.00000000000E+00  0.63332629577E+02  0.63332629778E+02  0.50400000000E-02 0.  1.
         -1   -1    0    0    0  501 -0.00000000000E+00 -0.00000000000E+00 -0.17593906476E+03  0.17593906483E+03  0.50400000000E-02 0. -1.
    5000001    1    1    2    0    0  0.69361656059E+02  0.48025073579E+01 -0.34222243511E+02  0.10924406327E+03  0.77000000000E+02 0.  0.
   -5000001    1    1    2    0    0 -0.69361656059E+02 -0.48025073579E+01 -0.78384191668E+02  0.13002763134E+03  0.77000000000E+02 0.  0.
<mgrwt>
<rscale>  0 0.21111782E+03</rscale>
<asrwt>0</asrwt>
<pdfrwt beam="1">  1        1 0.97434816E-02 0.21111782E+03</pdfrwt>
<pdfrwt beam="2">  1       -1 0.27067548E-01 0.21111782E+03</pdfrwt>
<totfact> 0.78929135E+03</totfact>
</mgrwt>
</event>
<event>
 4    1  0.3147937E-004  0.2521797E+03  0.7818608E-02  0.1111935E+00
          1   -1    0    0  501    0  0.00000000000E+00  0.00000000000E+00  0.97060192369E+03  0.97060192371E+03  0.50400000000E-02 0.  1.
         -1   -1    0    0    0  501 -0.00000000000E+00 -0.00000000000E+00 -0.16380191846E+02  0.16380192621E+02  0.50400000000E-02 0. -1.
    5000001    1    1    2    0    0  0.71491126778E+02 -0.68087264330E+02  0.41869290237E+03  0.43701213172E+03  0.77000000000E+02 0.  0.
   -5000001    1    1    2    0    0 -0.71491126778E+02  0.68087264330E+02  0.53552882948E+03  0.54996998461E+03  0.77000000000E+02 0.  0.
<mgrwt>
<rscale>  0 0.25217967E+03</rscale>
<asrwt>0</asrwt>
<pdfrwt beam="1">  1        1 0.14932340E+00 0.25217967E+03</pdfrwt>
<pdfrwt beam="2">  1       -1 0.25200290E-02 0.25217967E+03</pdfrwt>
<totfact> 0.81806622E+03</totfact>
</mgrwt>
</event>
<event>
 4    1  0.3147937E-004  0.1853653E+03  0.7818608E-02  0.1162709E+00
         -1   -1    0    0    0  501 -0.00000000000E+00  0.00000000000E+00  0.27781377476E+02  0.27781377933E+02  0.50400000000E-02 0. -1.
          1   -1    0    0  501    0  0.00000000000E+00 -0.00000000000E+00 -0.30920259896E+03  0.30920259900E+03  0.50400000000E-02 0.  1.
    5000001    1    1    2    0    0 -0.11403352657E+02 -0.45133954354E+02 -0.10030623419E+03  0.13474958592E+03  0.77000000000E+02 0.  0.
   -5000001    1    1    2    0    0  0.11403352657E+02  0.45133954354E+02 -0.18111498730E+03  0.20223439102E+03  0.77000000000E+02 0.  0.
<mgrwt>
<rscale>  0 0.18536531E+03</rscale>
<asrwt>0</asrwt>
<pdfrwt beam="1">  1        1 0.47569628E-01 0.18536531E+03</pdfrwt>
<pdfrwt beam="2">  1       -1 0.42740583E-02 0.18536531E+03</pdfrwt>
<totfact> 0.18064435E+04</totfact>
</mgrwt>
</event>
<event>
 4    1  0.3147937E-004  0.1726392E+03  0.7818608E-02  0.1175123E+00
         -1   -1    0    0    0  501 -0.00000000000E+00  0.00000000000E+00  0.42803655088E+03  0.42803655091E+03  0.50400000000E-02 0.  1.
          1   -1    0    0  501    0  0.00000000000E+00 -0.00000000000E+00 -0.17407562158E+02  0.17407562888E+02  0.50400000000E-02 0. -1.
    5000001    1    1    2    0    0  0.33615429864E+02 -0.44534639624E+01  0.25509586347E+03  0.26861260213E+03  0.77000000000E+02 0.  0.
   -5000001    1    1    2    0    0 -0.33615429864E+02  0.44534639624E+01  0.15553312525E+03  0.17683151166E+03  0.77000000000E+02 0.  0.
<mgrwt>
<rscale>  0 0.17263920E+03</rscale>
<asrwt>0</asrwt>
<pdfrwt beam="1">  1        1 0.26780867E-02 0.17263920E+03</pdfrwt>
<pdfrwt beam="2">  1       -1 0.65851774E-01 0.17263920E+03</pdfrwt>
<totfact> 0.93303745E+03</totfact>
</mgrwt>
</event>
<event>
 4    1  0.3147937E-004  0.2832266E+03  0.7818608E-02  0.1093940E+00
          1   -1    0    0  501    0  0.00000000000E+00  0.00000000000E+00  0.10495573536E+03  0.10495573548E+03  0.50400000000E-02 0.  1.
         -1   -1    0    0    0  501 -0.00000000000E+00 -0.00000000000E+00 -0.19107415395E+03  0.19107415402E+03  0.50400000000E-02 0. -1.
    5000001    1    1    2    0    0 -0.28270124369E+02 -0.10956099623E+03 -0.81069576230E+02  0.15907258726E+03  0.77000000000E+02 0.  0.
   -5000001    1    1    2    0    0  0.28270124369E+02  0.10956099623E+03 -0.50488423678E+01  0.13695730224E+03  0.77000000000E+02 0.  0.
<mgrwt>
<rscale>  0 0.28322661E+03</rscale>
<asrwt>0</asrwt>
<pdfrwt beam="1">  1        1 0.16147036E-01 0.28322661E+03</pdfrwt>
<pdfrwt beam="2">  1       -1 0.29396024E-01 0.28322661E+03</pdfrwt>
<totfact> 0.35624303E+03</totfact>
</mgrwt>
</event>
<event>
 4    1  0.3147937E-004  0.2650800E+03  0.7818608E-02  0.1104129E+00
          1   -1    0    0  501    0  0.00000000000E+00  0.00000000000E+00  0.60761842883E+02  0.60761843092E+02  0.50400000000E-02 0.  1.
         -1   -1    0    0    0  501 -0.00000000000E+00 -0.00000000000E+00 -0.28910990798E+03  0.28910990802E+03  0.50400000000E-02 0. -1.
    5000001    1    1    2    0    0  0.77387591882E+02 -0.73953583402E+02 -0.13187602398E+03  0.18648929615E+03  0.77000000000E+02 0.  0.
   -5000001    1    1    2    0    0 -0.77387591882E+02  0.73953583402E+02 -0.96472041114E+02  0.16338245497E+03  0.77000000000E+02 0.  0.
<mgrwt>
<rscale>  0 0.26507999E+03</rscale>
<asrwt>0</asrwt>
<pdfrwt beam="1">  1        1 0.93479760E-02 0.26507999E+03</pdfrwt>
<pdfrwt beam="2">  1       -1 0.44478446E-01 0.26507999E+03</pdfrwt>
<totfact> 0.35618369E+03</totfact>
</mgrwt>
</event>
<event>
 4    1  0.3147937E-004  0.2950343E+03  0.7818608E-02  0.1087750E+00
          1   -1    0    0  501    0  0.00000000000E+00  0.00000000000E+00  0.12410203244E+03  0.12410203254E+03  0.50400000000E-02 0.  1.
         -1   -1    0    0    0  501 -0.00000000000E+00 -0.00000000000E+00 -0.17535012092E+03  0.17535012100E+03  0.50400000000E-02 0. -1.
    5000001    1    1    2    0    0  0.12546704444E+03  0.73682140347E+01 -0.31716984049E+02  0.15076881937E+03  0.77000000000E+02 0.  0.
   -5000001    1    1    2    0    0 -0.12546704444E+03 -0.73682140347E+01 -0.19531104432E+02  0.14868333417E+03  0.77000000000E+02 0.  0.
<mgrwt>
<rscale>  0 0.29503428E+03</rscale>
<asrwt>0</asrwt>
<pdfrwt beam="1">  1        1 0.19092620E-01 0.29503428E+03</pdfrwt>
<pdfrwt beam="2">  1       -1 0.26976942E-01 0.29503428E+03</pdfrwt>
<totfact> 0.33150518E+03</totfact>
</mgrwt>
</event>
<event>
 4    1  0.3147937E-004  0.3564121E+03  0.7818608E-02  0.1060014E+00
         -1   -1    0    0    0  501 -0.00000000000E+00  0.00000000000E+00  0.84428002349E+03  0.84428002351E+03  0.50400000000E-02 0. -1.
          1   -1    0    0  501    0  0.00000000000E+00 -0.00000000000E+00 -0.37614770817E+02  0.37614771154E+02  0.50400000000E-02 0.  1.
    5000001    1    1    2    0    0  0.48580647032E+02  0.93623886736E+02  0.10330196121E+03  0.16651068021E+03  0.77000000000E+02 0.  0.
   -5000001    1    1    2    0    0 -0.48580647032E+02 -0.93623886736E+02  0.70336329146E+03  0.71538411445E+03  0.77000000000E+02 0.  0.
<mgrwt>
<rscale>  0 0.35641212E+03</rscale>
<asrwt>0</asrwt>
<pdfrwt beam="1">  1        1 0.57868884E-02 0.35641212E+03</pdfrwt>
<pdfrwt beam="2">  1       -1 0.12988922E+00 0.35641212E+03</pdfrwt>
<totfact> 0.74265744E+02</totfact>
</mgrwt>
</event>
<event>
 4    1  0.3147937E-004  0.3318285E+03  0.7818608E-02  0.1070331E+00
         -1   -1    0    0    0  501 -0.00000000000E+00  0.00000000000E+00  0.21515744281E+02  0.21515744871E+02  0.50400000000E-02 0.  1.
          1   -1    0    0  501    0  0.00000000000E+00 -0.00000000000E+00 -0.12794134133E+04  0.12794134133E+04  0.50400000000E-02 0. -1.
    5000001    1    1    2    0    0  0.85227933748E+02  0.10769121735E+03 -0.83406686960E+03  0.84879782160E+03  0.77000000000E+02 0.  0.
   -5000001    1    1    2    0    0 -0.85227933748E+02 -0.10769121735E+03 -0.42383079941E+03  0.45213133657E+03  0.77000000000E+02 0.  0.
<mgrwt>
<rscale>  0 0.33182846E+03</rscale>
<asrwt>0</asrwt>
<pdfrwt beam="1">  1        1 0.19683277E+00 0.33182846E+03</pdfrwt>
<pdfrwt beam="2">  1       -1 0.33101155E-02 0.33182846E+03</pdfrwt>
<totfact> 0.32934061E+03</totfact>
</mgrwt>
</event>
<event>
 4    1  0.3147937E-004  0.2101544E+03  0.7818608E-02  0.1141444E+00
          1   -1    0    0  501    0  0.00000000000E+00  0.00000000000E+00  0.66270797496E+03  0.66270797497E+03  0.50400000000E-02 0.  1.
         -1   -1    0    0    0  501 -0.00000000000E+00 -0.00000000000E+00 -0.16660763040E+02  0.16660763802E+02  0.50400000000E-02 0. -1.
    5000001    1    1    2    0    0 -0.12188214018E+02  0.44028497704E+02  0.50082745731E+03  0.50876733697E+03  0.77000000000E+02 0.  0.
   -5000001    1    1    2    0    0  0.12188214018E+02 -0.44028497704E+02  0.14521975460E+03  0.17060140180E+03  0.77000000000E+02 0.  0.
<mgrwt>
<rscale>  0 0.21015443E+03</rscale>
<asrwt>0</asrwt>
<pdfrwt beam="1">  1        1 0.10195507E+00 0.21015443E+03</pdfrwt>
<pdfrwt beam="2">  1       -1 0.25631946E-02 0.21015443E+03</pdfrwt>
<totfact> 0.14253943E+04</totfact>
</mgrwt>
</event>
<event>
 4    1  0.3147937E-004  0.2009018E+03  0.7818608E-02  0.1148980E+00
         -1   -1    0    0    0  501 -0.00000000000E+00  0.00000000000E+00  0.38705902685E+02  0.38705903013E+02  0.50400000000E-02 0. -1.
          1   -1    0    0  501    0  0.00000000000E+00 -0.00000000000E+00 -0.26069365796E+03  0.26069365801E+03  0.50400000000E-02 0.  1.
    5000001    1    1    2    0    0  0.49875498848E+02  0.31985555546E+02 -0.14901035181E+03  0.17788683508E+03  0.77000000000E+02 0.  0.
   -5000001    1    1    2    0    0 -0.49875498848E+02 -0.31985555546E+02 -0.72977403465E+02  0.12151272594E+03  0.77000000000E+02 0.  0.
<mgrwt>
<rscale>  0 0.20090180E+03</rscale>
<asrwt>0</asrwt>
<pdfrwt beam="1">  1        1 0.40106716E-01 0.20090180E+03</pdfrwt>
<pdfrwt beam="2">  1       -1 0.59547544E-02 0.20090180E+03</pdfrwt>
<totfact> 0.13713765E+04</totfact>
</mgrwt>
</event>
<event>
 4    1  0.3147937E-004  0.3386245E+03  0.7818608E-02  0.1067383E+00
         -1   -1    0    0    0  501 -0.00000000000E+00  0.00000000000E+00  0.33985655439E+03  0.33985655443E+03  0.50400000000E-02 0. -1.
          1   -1    0    0  501    0  0.00000000000E+00 -0.00000000000E+00 -0.84349251253E+02  0.84349251403E+02  0.50400000000E-02 0.  1.
    5000001    1    1    2    0    0  0.12534048008E+03 -0.55344800919E+01  0.22966685651E+02  0.14898770105E+03  0.77000000000E+02 0.  0.
   -5000001    1    1    2    0    0 -0.12534048008E+03  0.55344800919E+01  0.23254061749E+03  0.27521810478E+03  0.77000000000E+02 0.  0.
<mgrwt>
<rscale>  0 0.33862455E+03</rscale>
<asrwt>0</asrwt>
<pdfrwt beam="1">  1        1 0.12976808E-01 0.33862455E+03</pdfrwt>
<pdfrwt beam="2">  1       -1 0.52285624E-01 0.33862455E+03</pdfrwt>
<totfact> 0.17124563E+03</totfact>
</mgrwt>
</event>
<event>
 4    1  0.3147937E-004  0.2057146E+03  0.7818608E-02  0.1145005E+00
          1   -1    0    0  501    0  0.00000000000E+00  0.00000000000E+00  0.11956262717E+03  0.11956262727E+03  0.50400000000E-02 0.  1.
         -1   -1    0    0    0  501 -0.00000000000E+00 -0.00000000000E+00 -0.88486078661E+02  0.88486078805E+02  0.50400000000E-02 0. -1.
    5000001    1    1    2    0    0 -0.37493709985E+02 -0.32286625212E+02 -0.31924186373E+02  0.96934813826E+02  0.77000000000E+02 0.  0.
   -5000001    1    1    2    0    0  0.37493709985E+02  0.32286625212E+02  0.63000734878E+02  0.11111389225E+03  0.77000000000E+02 0.  0.
<mgrwt>
<rscale>  0 0.20571464E+03</rscale>
<asrwt>0</asrwt>
<pdfrwt beam="1">  1        1 0.18394250E-01 0.20571464E+03</pdfrwt>
<pdfrwt beam="2">  1       -1 0.13613243E-01 0.20571464E+03</pdfrwt>
<totfact> 0.10368200E+04</totfact>
</mgrwt>
</event>
<event>
 4    1  0.3147937E-004  0.2482809E+03  0.7818608E-02  0.1114396E+00
          1   -1    0    0  501    0  0.00000000000E+00  0.00000000000E+00  0.14405429860E+04  0.14405429860E+04  0.50400000000E-02 0. -1.
         -1   -1    0    0    0  501 -0.00000000000E+00 -0.00000000000E+00 -0.10697941814E+02  0.10697943001E+02  0.50400000000E-02 0.  1.
    5000001    1    1    2    0    0 -0.89605920746E+02 -0.36699184487E+02  0.77504381576E+03  0.78485538001E+03  0.77000000000E+02 0.  0.
   -5000001    1    1    2    0    0  0.89605920746E+02  0.36699184487E+02  0.65480122845E+03  0.66638554903E+03  0.77000000000E+02 0.  0.
<mgrwt>
<rscale>  0 0.24828086E+03</rscale>
<asrwt>0</asrwt>
<pdfrwt beam="1">  1        1 0.22162189E+00 0.24828086E+03</pdfrwt>
<pdfrwt beam="2">  1       -1 0.16458381E-02 0.24828086E+03</pdfrwt>
<totfact> 0.71311997E+03</totfact>
</mgrwt>
</event>
<event>
 4    1  0.3147937E-004  0.1749965E+03  0.7818608E-02  0.1172735E+00
         -1   -1    0    0    0  501 -0.00000000000E+00  0.00000000000E+00  0.84559795054E+02  0.84559795204E+02  0.50400000000E-02 0.  1.
          1   -1    0    0  501    0  0.00000000000E+00 -0.00000000000E+00 -0.90538865560E+02  0.90538865700E+02  0.50400000000E-02 0. -1.
    5000001    1    1    2    0    0 -0.15774316920E+02  0.18950478323E+02 -0.36460485690E+02  0.88692258511E+02  0.77000000000E+02 0.  0.
   -5000001    1    1    2    0    0  0.15774316920E+02 -0.18950478323E+02  0.30481415185E+02  0.86406402394E+02  0.77000000000E+02 0.  0.
<mgrwt>
<rscale>  0 0.17499655E+03</rscale>
<asrwt>0</asrwt>
<pdfrwt beam="1">  1        1 0.13929056E-01 0.17499655E+03</pdfrwt>
<pdfrwt beam="2">  1       -1 0.13009199E-01 0.17499655E+03</pdfrwt>
<totfact> 0.15784175E+04</totfact>
</mgrwt>
</event>
<event>
 4    1  0.3147937E-004  0.3763492E+03  0.7818608E-02  0.1052291E+00
          1   -1    0    0  501    0  0.00000000000E+00  0.00000000000E+00  0.82281837156E+03  0.82281837158E+03  0.50400000000E-02 0.  1.
         -1   -1    0    0    0  501 -0.00000000000E+00 -0.00000000000E+00 -0.43034634543E+02  0.43034634838E+02  0.50400000000E-02 0. -1.
    5000001    1    1    2    0    0 -0.15490048550E+03 -0.22530458604E+02  0.22755390629E+03  0.28672558700E+03  0.77000000000E+02 0.  0.
   -5000001    1    1    2    0    0  0.15490048550E+03  0.22530458604E+02  0.55222983073E+03  0.57912741942E+03  0.77000000000E+02 0.  0.
<mgrwt>
<rscale>  0 0.37634924E+03</rscale>
<asrwt>0</asrwt>
<pdfrwt beam="1">  1        1 0.12658744E+00 0.37634924E+03</pdfrwt>
<pdfrwt beam="2">  1       -1 0.66207134E-02 0.37634924E+03</pdfrwt>
<totfact> 0.25440930E+03</totfact>
</mgrwt>
</event>
<event>
 4    1  0.3147937E-004  0.2090254E+03  0.7818608E-02  0.1142340E+00
         -1   -1    0    0    0  501 -0.00000000000E+00  0.00000000000E+00  0.16929403321E+02  0.16929404071E+02  0.50400000000E-02 0. -1.
          1   -1    0    0  501    0  0.00000000000E+00 -0.00000000000E+00 -0.64520310100E+03  0.64520310102E+03  0.50400000000E-02 0.  1.
    5000001    1    1    2    0    0  0.51379016033E+02  0.37852911215E+02 -0.41028399560E+03  0.42229681886E+03  0.77000000000E+02 0.  0.
   -5000001    1    1    2    0    0 -0.51379016033E+02 -0.37852911215E+02 -0.21798970208E+03  0.23983568623E+03  0.77000000000E+02 0.  0.
<mgrwt>
<rscale>  0 0.20902539E+03</rscale>
<asrwt>0</asrwt>
<pdfrwt beam="1">  1        1 0.99261997E-01 0.20902539E+03</pdfrwt>
<pdfrwt beam="2">  1       -1 0.26045241E-02 0.20902539E+03</pdfrwt>
<totfact> 0.14457686E+04</totfact>
</mgrwt>
</event>
<event>
 4    1  0.3147937E-004  0.1974513E+03  0.7818608E-02  0.1151907E+00
         -1   -1    0    0    0  501 -0.00000000000E+00  0.00000000000E+00  0.50373970470E+01  0.50373995683E+01  0.50400000000E-02 0. -1.
          1   -1    0    0  501    0  0.00000000000E+00 -0.00000000000E+00 -0.19348785177E+04  0.19348785177E+04  0.50400000000E-02 0.  1.
    5000001    1    1    2    0    0 -0.47168588306E+02 -0.10826626403E+02 -0.58750796244E+03  0.59450542259E+03  0.77000000000E+02 0.  0.
   -5000001    1    1    2    0    0  0.47168588306E+02  0.10826626403E+02 -0.13423331583E+04  0.13454104947E+04  0.77000000000E+02 0.  0.
<mgrwt>
<rscale>  0 0.19745130E+03</rscale>
<asrwt>0</asrwt>
<pdfrwt beam="1">  1        1 0.29767303E+00 0.19745130E+03</pdfrwt>
<pdfrwt beam="2">  1       -1 0.77498590E-03 0.19745130E+03</pdfrwt>
<totfact> 0.10022514E+04</totfact>
</mgrwt>
</event>
<event>
 4    1  0.3147937E-004  0.2123428E+03  0.7818608E-02  0.1139724E+00
         -1   -1    0    0    0  501 -0.00000000000E+00  0.00000000000E+00  0.35308985289E+02  0.35308985648E+02  0.50400000000E-02 0. -1.
          1   -1    0    0  501    0  0.00000000000E+00 -0.00000000000E+00 -0.31924916074E+03  0.31924916078E+03  0.50400000000E-02 0.  1.
    5000001    1    1    2    0    0  0.51167922110E+01  0.72292596552E+02 -0.12604498845E+03  0.16452580403E+03  0.77000000000E+02 0.  0.
   -5000001    1    1    2    0    0 -0.51167922110E+01 -0.72292596552E+02 -0.15789518701E+03  0.19003234240E+03  0.77000000000E+02 0.  0.
<mgrwt>
<rscale>  0 0.21234278E+03</rscale>
<asrwt>0</asrwt>
<pdfrwt beam="1">  1        1 0.49115254E-01 0.21234278E+03</pdfrwt>
<pdfrwt beam="2">  1       -1 0.54321518E-02 0.21234278E+03</pdfrwt>
<totfact> 0.12260227E+04</totfact>
</mgrwt>
</event>
<event>
 4    1  0.3147937E-004  0.3446316E+03  0.7818608E-02  0.1064840E+00
         -1   -1    0    0    0  501 -0.00000000000E+00  0.00000000000E+00  0.24337535801E+03  0.24337535806E+03  0.50400000000E-02 0. -1.
          1   -1    0    0  501    0  0.00000000000E+00 -0.00000000000E+00 -0.12200385967E+03  0.12200385978E+03  0.50400000000E-02 0.  1.
    5000001    1    1    2    0    0  0.12015306150E+03 -0.48690677838E+02  0.14911064629E+03  0.21206255005E+03  0.77000000000E+02 0.  0.
   -5000001    1    1    2    0    0 -0.12015306150E+03  0.48690677838E+02 -0.27739147951E+02  0.15331666780E+03  0.77000000000E+02 0.  0.
<mgrwt>
<rscale>  0 0.34463159E+03</rscale>
<asrwt>0</asrwt>
<pdfrwt beam="1">  1        1 0.18769825E-01 0.34463159E+03</pdfrwt>
<pdfrwt beam="2">  1       -1 0.37442363E-01 0.34463159E+03</pdfrwt>
<totfact> 0.19327715E+03</totfact>
</mgrwt>
</event>
<event>
 4    1  0.3147937E-004  0.2178352E+03  0.7818608E-02  0.1135507E+00
         -1   -1    0    0    0  501 -0.00000000000E+00  0.00000000000E+00  0.61391191291E+02  0.61391191498E+02  0.50400000000E-02 0.  1.
          1   -1    0    0  501    0  0.00000000000E+00 -0.00000000000E+00 -0.19323697741E+03  0.19323697747E+03  0.50400000000E-02 0. -1.
    5000001    1    1    2    0    0 -0.43611794569E+02 -0.49626540096E+02 -0.11222775662E+03  0.15129061922E+03  0.77000000000E+02 0.  0.
   -5000001    1    1    2    0    0  0.43611794569E+02  0.49626540096E+02 -0.19618029497E+02  0.10333754975E+03  0.77000000000E+02 0.  0.
<mgrwt>
<rscale>  0 0.21783524E+03</rscale>
<asrwt>0</asrwt>
<pdfrwt beam="1">  1        1 0.29728765E-01 0.21783524E+03</pdfrwt>
<pdfrwt beam="2">  1       -1 0.94447988E-02 0.21783524E+03</pdfrwt>
<totfact> 0.99589752E+03</totfact>
</mgrwt>
</event>
<event>
 4    1  0.3147937E-004  0.2719131E+03  0.7818608E-02  0.1100190E+00
         -1   -1    0    0    0  501 -0.00000000000E+00  0.00000000000E+00  0.18727661151E+03  0.18727661158E+03  0.50400000000E-02 0. -1.
          1   -1    0    0  501    0  0.00000000000E+00 -0.00000000000E+00 -0.98699893655E+02  0.98699893784E+02  0.50400000000E-02 0.  1.
    5000001    1    1    2    0    0 -0.11022386482E+03  0.77851894305E+01  0.24745819392E+02  0.13693525889E+03  0.77000000000E+02 0.  0.
   -5000001    1    1    2    0    0  0.11022386482E+03 -0.77851894305E+01  0.63830898461E+02  0.14904124647E+03  0.77000000000E+02 0.  0.
<mgrwt>
<rscale>  0 0.27191309E+03</rscale>
<asrwt>0</asrwt>
<pdfrwt beam="1">  1        1 0.15184599E-01 0.27191309E+03</pdfrwt>
<pdfrwt beam="2">  1       -1 0.28811786E-01 0.27191309E+03</pdfrwt>
<totfact> 0.39898636E+03</totfact>
</mgrwt>
</event>
<event>
 4    1  0.3147937E-004  0.1961276E+03  0.7818608E-02  0.1153048E+00
          1   -1    0    0  501    0  0.00000000000E+00  0.00000000000E+00  0.46178135423E+03  0.46178135425E+03  0.50400000000E-02 0. -1.
         -1   -1    0    0    0  501 -0.00000000000E+00 -0.00000000000E+00 -0.20824818911E+02  0.20824819521E+02  0.50400000000E-02 0.  1.
    5000001    1    1    2    0    0  0.31130919439E+02 -0.42723476903E+02  0.14694224777E+03  0.17411333609E+03  0.77000000000E+02 0.  0.
   -5000001    1    1    2    0    0 -0.31130919439E+02  0.42723476903E+02  0.29401428754E+03  0.30849283769E+03  0.77000000000E+02 0.  0.
<mgrwt>
<rscale>  0 0.19612764E+03</rscale>
<asrwt>0</asrwt>
<pdfrwt beam="1">  1        1 0.71043284E-01 0.19612764E+03</pdfrwt>
<pdfrwt beam="2">  1       -1 0.32038184E-02 0.19612764E+03</pdfrwt>
<totfact> 0.16682751E+04</totfact>
</mgrwt>
</event>
<event>
 4    1  0.3147937E-004  0.2522601E+03  0.7818608E-02  0.1111885E+00
         -1   -1    0    0    0  501 -0.00000000000E+00  0.00000000000E+00  0.79639007921E+02  0.79639008080E+02  0.50400000000E-02 0. -1.
          1   -1    0    0  501    0  0.00000000000E+00 -0.00000000000E+00 -0.19976127631E+03  0.19976127637E+03  0.50400000000E-02 0.  1.
    5000001    1    1    2    0    0  0.76519571331E+02 -0.62873327202E+02 -0.45556811403E+02  0.13346431409E+03  0.77000000000E+02 0.  0.
   -5000001    1    1    2    0    0 -0.76519571331E+02  0.62873327202E+02 -0.74565456984E+02  0.14593597036E+03  0.77000000000E+02 0.  0.
<mgrwt>
<rscale>  0 0.25226010E+03</rscale>
<asrwt>0</asrwt>
<pdfrwt beam="1">  1        1 0.30732504E-01 0.25226010E+03</pdfrwt>
<pdfrwt beam="2">  1       -1 0.12252155E-01 0.25226010E+03</pdfrwt>
<totfact> 0.64303080E+03</totfact>
</mgrwt>
</event>
<event>
 4    1  0.3147937E-004  0.3054781E+03  0.7818608E-02  0.1082534E+00
          1   -1    0    0  501    0  0.00000000000E+00  0.00000000000E+00  0.56747596546E+03  0.56747596548E+03  0.50400000000E-02 0.  1.
         -1   -1    0    0    0  501 -0.00000000000E+00 -0.00000000000E+00 -0.41110487094E+02  0.41110487403E+02  0.50400000000E-02 0. -1.
    5000001    1    1    2    0    0  0.12952423596E+03  0.24922158791E+02  0.25998784006E+03  0.30152996315E+03  0.77000000000E+02 0.  0.
   -5000001    1    1    2    0    0 -0.12952423596E+03 -0.24922158791E+02  0.26637763831E+03  0.30705648974E+03  0.77000000000E+02 0.  0.
<mgrwt>
<rscale>  0 0.30547807E+03</rscale>
<asrwt>0</asrwt>
<pdfrwt beam="1">  1        1 0.87304001E-01 0.30547807E+03</pdfrwt>
<pdfrwt beam="2">  1       -1 0.63246899E-02 0.30547807E+03</pdfrwt>
<totfact> 0.46870394E+03</totfact>
</mgrwt>
</event>
<event>
 4    1  0.3147937E-004  0.4406574E+03  0.7818608E-02  0.1030545E+00
         -1   -1    0    0    0  501 -0.00000000000E+00  0.00000000000E+00  0.10828077128E+03  0.10828077139E+03  0.50400000000E-02 0.  1.
          1   -1    0    0  501    0  0.00000000000E+00 -0.00000000000E+00 -0.44832269362E+03  0.44832269365E+03  0.50400000000E-02 0. -1.
    5000001    1    1    2    0    0  0.15783982042E+03  0.11653316179E+03 -0.88921717839E+02  0.22875633021E+03  0.77000000000E+02 0.  0.
   -5000001    1    1    2    0    0 -0.15783982042E+03 -0.11653316179E+03 -0.25112020451E+03  0.32784713484E+03  0.77000000000E+02 0.  0.
<mgrwt>
<rscale>  0 0.44065736E+03</rscale>
<asrwt>0</asrwt>
<pdfrwt beam="1">  1        1 0.68972721E-01 0.44065736E+03</pdfrwt>
<pdfrwt beam="2">  1       -1 0.16658580E-01 0.44065736E+03</pdfrwt>
<totfact> 0.14229427E+03</totfact>
</mgrwt>
</event>
<event>
 4    1  0.3147937E-004  0.5440320E+03  0.7818608E-02  0.1002885E+00
          1   -1    0    0  501    0  0.00000000000E+00  0.00000000000E+00  0.75547194610E+03  0.75547194611E+03  0.50400000000E-02 0.  1.
         -1   -1    0    0    0  501 -0.00000000000E+00 -0.00000000000E+00 -0.97942360816E+02  0.97942360945E+02  0.50400000000E-02 0. -1.
    5000001    1    1    2    0    0 -0.16630220438E+03  0.47540414210E+02  0.22380317601E+02  0.19064729943E+03  0.77000000000E+02 0.  0.
   -5000001    1    1    2    0    0  0.16630220438E+03 -0.47540414210E+02  0.63514926768E+03  0.66276700763E+03  0.77000000000E+02 0.  0.
<mgrwt>
<rscale>  0 0.54403201E+03</rscale>
<asrwt>0</asrwt>
<pdfrwt beam="1">  1        1 0.11622646E+00 0.54403201E+03</pdfrwt>
<pdfrwt beam="2">  1       -1 0.15068055E-01 0.54403201E+03</pdfrwt>
<totfact> 0.79834189E+02</totfact>
</mgrwt>
</event>
<event>
 4    1  0.3147937E-004  0.3208887E+03  0.7818608E-02  0.1075241E+00
         -1   -1    0    0    0  501 -0.00000000000E+00  0.00000000000E+00  0.17632756690E+04  0.17632756690E+04  0.50400000000E-02 0. -1.
          1   -1    0    0  501    0  0.00000000000E+00 -0.00000000000E+00 -0.14599188422E+02  0.14599189292E+02  0.50400000000E-02 0.  1.
    5000001    1    1    2    0    0  0.11945592807E+03 -0.74444346150E+02  0.88159411590E+03  0.89607414014E+03  0.77000000000E+02 0.  0.
   -5000001    1    1    2    0    0 -0.11945592807E+03  0.74444346150E+02  0.86708236471E+03  0.88180071820E+03  0.77000000000E+02 0.  0.
<mgrwt>
<rscale>  0 0.32088873E+03</rscale>
<asrwt>0</asrwt>
<pdfrwt beam="1">  1        1 0.22460281E-02 0.32088873E+03</pdfrwt>
<pdfrwt beam="2">  1       -1 0.27127329E+00 0.32088873E+03</pdfrwt>
<totfact> 0.29887782E+02</totfact>
</mgrwt>
</event>
<event>
 4    1  0.3147937E-004  0.1712750E+03  0.7818608E-02  0.1176525E+00
          1   -1    0    0  501    0  0.00000000000E+00  0.00000000000E+00  0.82466384289E+02  0.82466384443E+02  0.50400000000E-02 0. -1.
         -1   -1    0    0    0  501 -0.00000000000E+00 -0.00000000000E+00 -0.88930564710E+02  0.88930564853E+02  0.50400000000E-02 0.  1.
    5000001    1    1    2    0    0 -0.26176110079E+02  0.24294087508E+02  0.81510126298E+01  0.85269164612E+02  0.77000000000E+02 0.  0.
   -5000001    1    1    2    0    0  0.26176110079E+02 -0.24294087508E+02 -0.14615193050E+02  0.86127784684E+02  0.77000000000E+02 0.  0.
<mgrwt>
<rscale>  0 0.17127501E+03</rscale>
<asrwt>0</asrwt>
<pdfrwt beam="1">  1        1 0.12687136E-01 0.17127501E+03</pdfrwt>
<pdfrwt beam="2">  1       -1 0.13681625E-01 0.17127501E+03</pdfrwt>
<totfact> 0.16460529E+04</totfact>
</mgrwt>
</event>
<event>
 4    1  0.3147937E-004  0.6166598E+03  0.7818608E-02  0.9871433E-01
          1   -1    0    0  501    0  0.00000000000E+00  0.00000000000E+00  0.19871342088E+03  0.19871342094E+03  0.50400000000E-02 0.  1.
         -1   -1    0    0    0  501 -0.00000000000E+00 -0.00000000000E+00 -0.47841421638E+03  0.47841421640E+03  0.50400000000E-02 0. -1.
    5000001    1    1    2    0    0 -0.17622017712E+03 -0.15614853921E+03  0.61733284944E+02  0.25529574143E+03  0.77000000000E+02 0.  0.
   -5000001    1    1    2    0    0  0.17622017712E+03  0.15614853921E+03 -0.34143408045E+03  0.42183189592E+03  0.77000000000E+02 0.  0.
<mgrwt>
<rscale>  0 0.61665979E+03</rscale>
<asrwt>0</asrwt>
<pdfrwt beam="1">  1        1 0.30571296E-01 0.61665979E+03</pdfrwt>
<pdfrwt beam="2">  1       -1 0.73602187E-01 0.61665979E+03</pdfrwt>
<totfact> 0.28320753E+02</totfact>
</mgrwt>
</event>
<event>
 4    1  0.3147937E-004  0.3919277E+03  0.7818608E-02  0.1046611E+00
         -1   -1    0    0    0  501 -0.00000000000E+00  0.00000000000E+00  0.66408790532E+02  0.66408790723E+02  0.50400000000E-02 0. -1.
          1   -1    0    0  501    0  0.00000000000E+00 -0.00000000000E+00 -0.57826429600E+03  0.57826429603E+03  0.50400000000E-02 0.  1.
    5000001    1    1    2    0    0  0.89205552397E+02 -0.98551743097E+02 -0.55801133575E+02  0.16344064107E+03  0.77000000000E+02 0.  0.
   -5000001    1    1    2    0    0 -0.89205552397E+02  0.98551743097E+02 -0.45605437190E+03  0.48123244568E+03  0.77000000000E+02 0.  0.
<mgrwt>
<rscale>  0 0.39192771E+03</rscale>
<asrwt>0</asrwt>
<pdfrwt beam="1">  1        1 0.88963734E-01 0.39192771E+03</pdfrwt>
<pdfrwt beam="2">  1       -1 0.10216737E-01 0.39192771E+03</pdfrwt>
<totfact> 0.21911581E+03</totfact>
</mgrwt>
</event>
<event>
 4    1  0.3147937E-004  0.2781409E+03  0.7818608E-02  0.1096709E+00
          1   -1    0    0  501    0  0.00000000000E+00  0.00000000000E+00  0.26446674094E+03  0.26446674099E+03  0.50400000000E-02 0.  1.
         -1   -1    0    0    0  501 -0.00000000000E+00 -0.00000000000E+00 -0.73130530678E+02  0.73130530851E+02  0.50400000000E-02 0. -1.
    5000001    1    1    2    0    0  0.23778087592E+02 -0.11213297269E+03  0.75635781848E+02  0.15744514127E+03  0.77000000000E+02 0.  0.
   -5000001    1    1    2    0    0 -0.23778087592E+02  0.11213297269E+03  0.11570042842E+03  0.18015213057E+03  0.77000000000E+02 0.  0.
<mgrwt>
<rscale>  0 0.27814092E+03</rscale>
<asrwt>0</asrwt>
<pdfrwt beam="1">  1        1 0.40687190E-01 0.27814092E+03</pdfrwt>
<pdfrwt beam="2">  1       -1 0.11250851E-01 0.27814092E+03</pdfrwt>
<totfact> 0.51810844E+03</totfact>
</mgrwt>
</event>
<event>
 4    1  0.3147937E-004  0.3265877E+03  0.7818608E-02  0.1072657E+00
         -1   -1    0    0    0  501 -0.00000000000E+00  0.00000000000E+00  0.40344758284E+02  0.40344758599E+02  0.50400000000E-02 0. -1.
          1   -1    0    0  501    0  0.00000000000E+00 -0.00000000000E+00 -0.66092557121E+03  0.66092557123E+03  0.50400000000E-02 0.  1.
    5000001    1    1    2    0    0  0.72620418681E+02  0.11594853927E+03 -0.21382840246E+03  0.26527226517E+03  0.77000000000E+02 0.  0.
   -5000001    1    1    2    0    0 -0.72620418681E+02 -0.11594853927E+03 -0.40675241046E+03  0.43599806466E+03  0.77000000000E+02 0.  0.
<mgrwt>
<rscale>  0 0.32658771E+03</rscale>
<asrwt>0</asrwt>
<pdfrwt beam="1">  1        1 0.10168085E+00 0.32658771E+03</pdfrwt>
<pdfrwt beam="2">  1       -1 0.62068864E-02 0.32658771E+03</pdfrwt>
<totfact> 0.38975916E+03</totfact>
</mgrwt>
</event>
<event>
 4    1  0.3147937E-004  0.1948764E+03  0.7818608E-02  0.1154135E+00
         -1   -1    0    0    0  501 -0.00000000000E+00  0.00000000000E+00  0.77680000853E+02  0.77680001016E+02  0.50400000000E-02 0.  1.
          1   -1    0    0  501    0  0.00000000000E+00 -0.00000000000E+00 -0.12222198526E+03  0.12222198537E+03  0.50400000000E-02 0. -1.
    5000001    1    1    2    0    0  0.29462485516E+02 -0.46906763587E+02 -0.45137597527E+02  0.10504611003E+03  0.77000000000E+02 0.  0.
   -5000001    1    1    2    0    0 -0.29462485516E+02  0.46906763587E+02  0.59561311465E+00  0.94855876349E+02  0.77000000000E+02 0.  0.
<mgrwt>
<rscale>  0 0.19487641E+03</rscale>
<asrwt>0</asrwt>
<pdfrwt beam="1">  1        1 0.18803382E-01 0.19487641E+03</pdfrwt>
<pdfrwt beam="2">  1       -1 0.11950769E-01 0.19487641E+03</pdfrwt>
<totfact> 0.12306725E+04</totfact>
</mgrwt>
</event>
<event>
 4    1  0.3147937E-004  0.2172507E+03  0.7818608E-02  0.1135950E+00
         -1   -1    0    0    0  501 -0.00000000000E+00  0.00000000000E+00  0.29005583117E+03  0.29005583121E+03  0.50400000000E-02 0. -1.
          1   -1    0    0  501    0  0.00000000000E+00 -0.00000000000E+00 -0.40679968373E+02  0.40679968685E+02  0.50400000000E-02 0.  1.
    5000001    1    1    2    0    0  0.69918823418E+02  0.22541579103E+02  0.91554178771E+02  0.14038494331E+03  0.77000000000E+02 0.  0.
   -5000001    1    1    2    0    0 -0.69918823418E+02 -0.22541579103E+02  0.15782168402E+03  0.19035085659E+03  0.77000000000E+02 0.  0.
<mgrwt>
<rscale>  0 0.21725066E+03</rscale>
<asrwt>0</asrwt>
<pdfrwt beam="1">  1        1 0.62584566E-02 0.21725066E+03</pdfrwt>
<pdfrwt beam="2">  1       -1 0.44623975E-01 0.21725066E+03</pdfrwt>
<totfact> 0.60584922E+03</totfact>
</mgrwt>
</event>
<event>
 4    1  0.3147937E-004  0.1957183E+03  0.7818608E-02  0.1153403E+00
         -1   -1    0    0    0  501 -0.00000000000E+00  0.00000000000E+00  0.21220649128E+03  0.21220649134E+03  0.50400000000E-02 0. -1.
          1   -1    0    0  501    0  0.00000000000E+00 -0.00000000000E+00 -0.45127784454E+02  0.45127784735E+02  0.50400000000E-02 0.  1.
    5000001    1    1    2    0    0 -0.16218244322E+02  0.58069585801E+02  0.88150717503E+02  0.13166114552E+03  0.77000000000E+02 0.  0.
   -5000001    1    1    2    0    0  0.16218244322E+02 -0.58069585801E+02  0.78927989320E+02  0.12567313055E+03  0.77000000000E+02 0.  0.
<mgrwt>
<rscale>  0 0.19571826E+03</rscale>
<asrwt>0</asrwt>
<pdfrwt beam="1">  1        1 0.69427360E-02 0.19571826E+03</pdfrwt>
<pdfrwt beam="2">  1       -1 0.32647153E-01 0.19571826E+03</pdfrwt>
<totfact> 0.90432620E+03</totfact>
</mgrwt>
</event>
<event>
 4    1  0.3147937E-004  0.2490261E+03  0.7818608E-02  0.1113922E+00
         -1   -1    0    0    0  501 -0.00000000000E+00  0.00000000000E+00  0.23416823655E+02  0.23416824198E+02  0.50400000000E-02 0.  1.
          1   -1    0    0  501    0  0.00000000000E+00 -0.00000000000E+00 -0.66206680336E+03  0.66206680338E+03  0.50400000000E-02 0. -1.
    5000001    1    1    2    0    0 -0.68683726471E+02  0.69614543685E+02 -0.31025257111E+03  0.33428924131E+03  0.77000000000E+02 0.  0.
   -5000001    1    1    2    0    0  0.68683726471E+02 -0.69614543685E+02 -0.32839740859E+03  0.35119438626E+03  0.77000000000E+02 0.  0.
<mgrwt>
<rscale>  0 0.24902612E+03</rscale>
<asrwt>0</asrwt>
<pdfrwt beam="1">  1        1 0.10185642E+00 0.24902612E+03</pdfrwt>
<pdfrwt beam="2">  1       -1 0.36025888E-02 0.24902612E+03</pdfrwt>
<totfact> 0.87203127E+03</totfact>
</mgrwt>
</event>
<event>
 4    1  0.3147937E-004  0.2239983E+03  0.7818608E-02  0.1130937E+00
          1   -1    0    0  501    0  0.00000000000E+00  0.00000000000E+00  0.52852788879E+02  0.52852789119E+02  0.50400000000E-02 0.  1.
         -1   -1    0    0    0  501 -0.00000000000E+00 -0.00000000000E+00 -0.23733479109E+03  0.23733479115E+03  0.50400000000E-02 0. -1.
    5000001    1    1    2    0    0 -0.60746660702E+01 -0.77664288722E+02 -0.61965241920E+02  0.12584647201E+03  0.77000000000E+02 0.  0.
   -5000001    1    1    2    0    0  0.60746660702E+01  0.77664288722E+02 -0.12251676029E+03  0.16434110826E+03  0.77000000000E+02 0.  0.
<mgrwt>
<rscale>  0 0.22399826E+03</rscale>
<asrwt>0</asrwt>
<pdfrwt beam="1">  1        1 0.81311984E-02 0.22399826E+03</pdfrwt>
<pdfrwt beam="2">  1       -1 0.36513044E-01 0.22399826E+03</pdfrwt>
<totfact> 0.60625240E+03</totfact>
</mgrwt>
</event>
<event>
 4    1  0.3147937E-004  0.3014330E+03  0.7818608E-02  0.1084526E+00
         -1   -1    0    0    0  501 -0.00000000000E+00  0.00000000000E+00  0.44175302370E+03  0.44175302373E+03  0.50400000000E-02 0. -1.
          1   -1    0    0  501    0  0.00000000000E+00 -0.00000000000E+00 -0.51421179488E+02  0.51421179735E+02  0.50400000000E-02 0.  1.
    5000001    1    1    2    0    0 -0.11728516365E+03 -0.45404326349E+02  0.14423357693E+03  0.20627575519E+03  0.77000000000E+02 0.  0.
   -5000001    1    1    2    0    0  0.11728516365E+03  0.45404326349E+02  0.24609826728E+03  0.28689844827E+03  0.77000000000E+02 0.  0.
<mgrwt>
<rscale>  0 0.30143299E+03</rscale>
<asrwt>0</asrwt>
<pdfrwt beam="1">  1        1 0.79109512E-02 0.30143299E+03</pdfrwt>
<pdfrwt beam="2">  1       -1 0.67962000E-01 0.30143299E+03</pdfrwt>
<totfact> 0.20095411E+03</totfact>
</mgrwt>
</event>
<event>
 4    1  0.3147937E-004  0.1871709E+03  0.7818608E-02  0.1161038E+00
          1   -1    0    0  501    0  0.00000000000E+00  0.00000000000E+00  0.13834037975E+02  0.13834038893E+02  0.50400000000E-02 0.  1.
         -1   -1    0    0    0  501 -0.00000000000E+00 -0.00000000000E+00 -0.63309299210E+03  0.63309299212E+03  0.50400000000E-02 0. -1.
    5000001    1    1    2    0    0 -0.26442043588E+02 -0.39926334656E+02 -0.22961386859E+03  0.24687005189E+03  0.77000000000E+02 0.  0.
   -5000001    1    1    2    0    0  0.26442043588E+02  0.39926334656E+02 -0.38964508553E+03  0.40005697913E+03  0.77000000000E+02 0.  0.
<mgrwt>
<rscale>  0 0.18717086E+03</rscale>
<asrwt>0</asrwt>
<pdfrwt beam="1">  1        1 0.21283141E-02 0.18717086E+03</pdfrwt>
<pdfrwt beam="2">  1       -1 0.97398899E-01 0.18717086E+03</pdfrwt>
<totfact> 0.57715632E+03</totfact>
</mgrwt>
</event>
<event>
 4    1  0.3147937E-004  0.1777968E+03  0.7818608E-02  0.1169952E+00
         -1   -1    0    0    0  501 -0.00000000000E+00  0.00000000000E+00  0.15350418045E+03  0.15350418054E+03  0.50400000000E-02 0.  1.
          1   -1    0    0  501    0  0.00000000000E+00 -0.00000000000E+00 -0.51483475394E+02  0.51483475641E+02  0.50400000000E-02 0. -1.
    5000001    1    1    2    0    0  0.31299036100E+02  0.23463774241E+02  0.75297306223E+02  0.11458124928E+03  0.77000000000E+02 0.  0.
   -5000001    1    1    2    0    0 -0.31299036100E+02 -0.23463774241E+02  0.26723398836E+02  0.90406406895E+02  0.77000000000E+02 0.  0.
<mgrwt>
<rscale>  0 0.17779684E+03</rscale>
<asrwt>0</asrwt>
<pdfrwt beam="1">  1        1 0.79205348E-02 0.17779684E+03</pdfrwt>
<pdfrwt beam="2">  1       -1 0.23616027E-01 0.17779684E+03</pdfrwt>
<totfact> 0.12919256E+04</totfact>
</mgrwt>
</event>
<event>
 4    1  0.3147937E-004  0.2139923E+03  0.7818608E-02  0.1138443E+00
          1   -1    0    0  501    0  0.00000000000E+00  0.00000000000E+00  0.26662479910E+03  0.26662479915E+03  0.50400000000E-02 0.  1.
         -1   -1    0    0    0  501 -0.00000000000E+00 -0.00000000000E+00 -0.42937390016E+02  0.42937390312E+02  0.50400000000E-02 0. -1.
    5000001    1    1    2    0    0 -0.73480981254E+02 -0.84620236067E+01  0.12187782227E+03  0.16203167595E+03  0.77000000000E+02 0.  0.
   -5000001    1    1    2    0    0  0.73480981254E+02  0.84620236067E+01  0.10180958681E+03  0.14753051351E+03  0.77000000000E+02 0.  0.
<mgrwt>
<rscale>  0 0.21399227E+03</rscale>
<asrwt>0</asrwt>
<pdfrwt beam="1">  1        1 0.41019200E-01 0.21399227E+03</pdfrwt>
<pdfrwt beam="2">  1       -1 0.66057523E-02 0.21399227E+03</pdfrwt>
<totfact> 0.11452976E+04</totfact>
</mgrwt>
</event>
<event>
 4    1  0.3147937E-004  0.1604766E+03  0.7818608E-02  0.1188160E+00
          1   -1    0    0  501    0  0.00000000000E+00  0.00000000000E+00  0.17111774729E+03  0.17111774736E+03  0.50400000000E-02 0. -1.
         -1   -1    0    0    0  501 -0.00000000000E+00 -0.00000000000E+00 -0.37624280510E+02  0.37624280847E+02  0.50400000000E-02 0.  1.
    5000001    1    1    2    0    0  0.29638051666E+01 -0.20710969190E+02  0.77742129533E+02  0.11140272479E+03  0.77000000000E+02 0.  0.
   -5000001    1    1    2    0    0 -0.29638051666E+01  0.20710969190E+02  0.55751337244E+02  0.97339303420E+02  0.77000000000E+02 0.  0.
<mgrwt>
<rscale>  0 0.16047657E+03</rscale>
<asrwt>0</asrwt>
<pdfrwt beam="1">  1        1 0.26325807E-01 0.16047657E+03</pdfrwt>
<pdfrwt beam="2">  1       -1 0.57883510E-02 0.16047657E+03</pdfrwt>
<totfact> 0.23782169E+04</totfact>
</mgrwt>
</event>
<event>
 4    1  0.3147937E-004  0.2565106E+03  0.7818608E-02  0.1109258E+00
          1   -1    0    0  501    0  0.00000000000E+00  0.00000000000E+00  0.37642411023E+03  0.37642411026E+03  0.50400000000E-02 0. -1.
         -1   -1    0    0    0  501 -0.00000000000E+00 -0.00000000000E+00 -0.43699161990E+02  0.43699162281E+02  0.50400000000E-02 0.  1.
    5000001    1    1    2    0    0 -0.52609028109E+02  0.87921082619E+02  0.15857771351E+03  0.20389634089E+03  0.77000000000E+02 0.  0.
   -5000001    1    1    2    0    0  0.52609028109E+02 -0.87921082619E+02  0.17414723473E+03  0.21622693165E+03  0.77000000000E+02 0.  0.
<mgrwt>
<rscale>  0 0.25651057E+03</rscale>
<asrwt>0</asrwt>
<pdfrwt beam="1">  1        1 0.57911398E-01 0.25651057E+03</pdfrwt>
<pdfrwt beam="2">  1       -1 0.67229485E-02 0.25651057E+03</pdfrwt>
<totfact> 0.72919803E+03</totfact>
</mgrwt>
</event>
<event>
 4    1  0.3147937E-004  0.2333454E+03  0.7818608E-02  0.1124307E+00
          1   -1    0    0  501    0  0.00000000000E+00  0.00000000000E+00  0.43774348396E+03  0.43774348399E+03  0.50400000000E-02 0.  1.
         -1   -1    0    0    0  501 -0.00000000000E+00 -0.00000000000E+00 -0.31097033885E+02  0.31097034293E+02  0.50400000000E-02 0. -1.
    5000001    1    1    2    0    0  0.76083390080E+02 -0.29888088745E+02  0.13973732544E+03  0.17926935102E+03  0.77000000000E+02 0.  0.
   -5000001    1    1    2    0    0 -0.76083390080E+02  0.29888088745E+02  0.26690912464E+03  0.28957116726E+03  0.77000000000E+02 0.  0.
<mgrwt>
<rscale>  0 0.23334544E+03</rscale>
<asrwt>0</asrwt>
<pdfrwt beam="1">  1        1 0.67345149E-01 0.23334544E+03</pdfrwt>
<pdfrwt beam="2">  1       -1 0.47841593E-02 0.23334544E+03</pdfrwt>
<totfact> 0.99776115E+03</totfact>
</mgrwt>
</event>
<event>
 4    1  0.3147937E-004  0.1624026E+03  0.7818608E-02  0.1186011E+00
         -1   -1    0    0    0  501 -0.00000000000E+00  0.00000000000E+00  0.33176382484E+02  0.33176382867E+02  0.50400000000E-02 0.  1.
          1   -1    0    0  501    0  0.00000000000E+00 -0.00000000000E+00 -0.19874541107E+03  0.19874541113E+03  0.50400000000E-02 0. -1.
    5000001    1    1    2    0    0 -0.14186921069E+02 -0.60491816269E+01 -0.53282145768E+02  0.94899148497E+02  0.77000000000E+02 0.  0.
   -5000001    1    1    2    0    0  0.14186921069E+02  0.60491816269E+01 -0.11228688282E+03  0.13702264550E+03  0.77000000000E+02 0.  0.
<mgrwt>
<rscale>  0 0.16240263E+03</rscale>
<asrwt>0</asrwt>
<pdfrwt beam="1">  1        1 0.30576216E-01 0.16240263E+03</pdfrwt>
<pdfrwt beam="2">  1       -1 0.51040590E-02 0.16240263E+03</pdfrwt>
<totfact> 0.23806849E+04</totfact>
</mgrwt>
</event>
<event>
 4    1  0.3147937E-004  0.4815372E+03  0.7818608E-02  0.1018714E+00
          1   -1    0    0  501    0  0.00000000000E+00  0.00000000000E+00  0.41468170264E+03  0.41468170267E+03  0.50400000000E-02 0. -1.
         -1   -1    0    0    0  501 -0.00000000000E+00 -0.00000000000E+00 -0.13979280097E+03  0.13979280106E+03  0.50400000000E-02 0.  1.
    5000001    1    1    2    0    0  0.33142989622E+02 -0.20796389194E+03  0.36448995564E+02  0.22716726742E+03  0.77000000000E+02 0.  0.
   -5000001    1    1    2    0    0 -0.33142989622E+02  0.20796389194E+03  0.23843990611E+03  0.32730723630E+03  0.77000000000E+02 0.  0.
<mgrwt>
<rscale>  0 0.48153719E+03</rscale>
<asrwt>0</asrwt>
<pdfrwt beam="1">  1        1 0.63797185E-01 0.48153719E+03</pdfrwt>
<pdfrwt beam="2">  1       -1 0.21506585E-01 0.48153719E+03</pdfrwt>
<totfact> 0.10371301E+03</totfact>
</mgrwt>
</event>
<event>
 4    1  0.3147937E-004  0.2763390E+03  0.7818608E-02  0.1097705E+00
         -1   -1    0    0    0  501 -0.00000000000E+00  0.00000000000E+00  0.24032658036E+02  0.24032658565E+02  0.50400000000E-02 0. -1.
          1   -1    0    0  501    0  0.00000000000E+00 -0.00000000000E+00 -0.79436974910E+03  0.79436974912E+03  0.50400000000E-02 0.  1.
    5000001    1    1    2    0    0  0.15853466811E+02  0.11064382887E+03 -0.46173733767E+03  0.48127305999E+03  0.77000000000E+02 0.  0.
   -5000001    1    1    2    0    0 -0.15853466811E+02 -0.11064382887E+03 -0.30859975340E+03  0.33712934769E+03  0.77000000000E+02 0.  0.
<mgrwt>
<rscale>  0 0.27633904E+03</rscale>
<asrwt>0</asrwt>
<pdfrwt beam="1">  1        1 0.12221071E+00 0.27633904E+03</pdfrwt>
<pdfrwt beam="2">  1       -1 0.36973327E-02 0.27633904E+03</pdfrwt>
<totfact> 0.64308246E+03</totfact>
</mgrwt>
</event>
<event>
 4    1  0.3147937E-004  0.1886567E+03  0.7818608E-02  0.1159678E+00
          1   -1    0    0  501    0  0.00000000000E+00  0.00000000000E+00  0.30323335428E+03  0.30323335432E+03  0.50400000000E-02 0.  1.
         -1   -1    0    0    0  501 -0.00000000000E+00 -0.00000000000E+00 -0.29343210784E+02  0.29343211216E+02  0.50400000000E-02 0. -1.
    5000001    1    1    2    0    0 -0.46075617571E+01 -0.31387459172E+02  0.21503901048E+03  0.23060177416E+03  0.77000000000E+02 0.  0.
   -5000001    1    1    2    0    0  0.46075617571E+01  0.31387459172E+02  0.58851133014E+02  0.10197479137E+03  0.77000000000E+02 0.  0.
<mgrwt>
<rscale>  0 0.18865673E+03</rscale>
<asrwt>0</asrwt>
<pdfrwt beam="1">  1        1 0.46651285E-01 0.18865673E+03</pdfrwt>
<pdfrwt beam="2">  1       -1 0.45143401E-02 0.18865673E+03</pdfrwt>
<totfact> 0.17091309E+04</totfact>
</mgrwt>
</event>
<event>
 4    1  0.3147937E-004  0.1688740E+03  0.7818608E-02  0.1179027E+00
          1   -1    0    0  501    0  0.00000000000E+00  0.00000000000E+00  0.22839581026E+02  0.22839581582E+02  0.50400000000E-02 0. -1.
         -1   -1    0    0    0  501 -0.00000000000E+00 -0.00000000000E+00 -0.31216021374E+03  0.31216021378E+03  0.50400000000E-02 0.  1.
    5000001    1    1    2    0    0 -0.29345816694E+02  0.10779767735E+02 -0.11502181268E+03  0.14190277567E+03  0.77000000000E+02 0.  0.
   -5000001    1    1    2    0    0  0.29345816694E+02 -0.10779767735E+02 -0.17429882003E+03  0.19309701969E+03  0.77000000000E+02 0.  0.
<mgrwt>
<rscale>  0 0.16887402E+03</rscale>
<asrwt>0</asrwt>
<pdfrwt beam="1">  1        1 0.35137820E-02 0.16887402E+03</pdfrwt>
<pdfrwt beam="2">  1       -1 0.48024645E-01 0.16887402E+03</pdfrwt>
<totfact> 0.11561463E+04</totfact>
</mgrwt>
</event>
<event>
 4    1  0.3147937E-004  0.4126575E+03  0.7818608E-02  0.1039483E+00
          1   -1    0    0  501    0  0.00000000000E+00  0.00000000000E+00  0.36941698147E+03  0.36941698151E+03  0.50400000000E-02 0. -1.
         -1   -1    0    0    0  501 -0.00000000000E+00 -0.00000000000E+00 -0.11523982323E+03  0.11523982334E+03  0.50400000000E-02 0.  1.
    5000001    1    1    2    0    0  0.17311732998E+03  0.79248151666E+02  0.10381530617E+03  0.23012278739E+03  0.77000000000E+02 0.  0.
   -5000001    1    1    2    0    0 -0.17311732998E+03 -0.79248151666E+02  0.15036185208E+03  0.25453401746E+03  0.77000000000E+02 0.  0.
<mgrwt>
<rscale>  0 0.41265747E+03</rscale>
<asrwt>0</asrwt>
<pdfrwt beam="1">  1        1 0.56833380E-01 0.41265747E+03</pdfrwt>
<pdfrwt beam="2">  1       -1 0.17729204E-01 0.41265747E+03</pdfrwt>
<totfact> 0.16560651E+03</totfact>
</mgrwt>
</event>
<event>
 4    1  0.3147937E-004  0.2193397E+03  0.7818608E-02  0.1134376E+00
         -1   -1    0    0    0  501 -0.00000000000E+00  0.00000000000E+00  0.45095320740E+03  0.45095320743E+03  0.50400000000E-02 0.  1.
          1   -1    0    0  501    0  0.00000000000E+00 -0.00000000000E+00 -0.26671217214E+02  0.26671217690E+02  0.50400000000E-02 0. -1.
    5000001    1    1    2    0    0 -0.38916274170E+02 -0.64883661571E+02  0.17002314387E+03  0.20139820105E+03  0.77000000000E+02 0.  0.
   -5000001    1    1    2    0    0  0.38916274170E+02  0.64883661571E+02  0.25425884631E+03  0.27622622407E+03  0.77000000000E+02 0.  0.
<mgrwt>
<rscale>  0 0.21933966E+03</rscale>
<asrwt>0</asrwt>
<pdfrwt beam="1">  1        1 0.41032642E-02 0.21933966E+03</pdfrwt>
<pdfrwt beam="2">  1       -1 0.69377418E-01 0.21933966E+03</pdfrwt>
<totfact> 0.47175658E+03</totfact>
</mgrwt>
</event>
<event>
 4    1  0.3147937E-004  0.2995476E+03  0.7818608E-02  0.1085467E+00
         -1   -1    0    0    0  501 -0.00000000000E+00  0.00000000000E+00  0.30338966333E+03  0.30338966337E+03  0.50400000000E-02 0. -1.
          1   -1    0    0  501    0  0.00000000000E+00 -0.00000000000E+00 -0.73938537402E+02  0.73938537574E+02  0.50400000000E-02 0.  1.
    5000001    1    1    2    0    0 -0.98387084125E+02 -0.80561511544E+02  0.13771263983E+03  0.20264241075E+03  0.77000000000E+02 0.  0.
   -5000001    1    1    2    0    0  0.98387084125E+02  0.80561511544E+02  0.91738486094E+02  0.17468579019E+03  0.77000000000E+02 0.  0.
<mgrwt>
<rscale>  0 0.29954758E+03</rscale>
<asrwt>0</asrwt>
<pdfrwt beam="1">  1        1 0.11375160E-01 0.29954758E+03</pdfrwt>
<pdfrwt beam="2">  1       -1 0.46675333E-01 0.29954758E+03</pdfrwt>
<totfact> 0.25144600E+03</totfact>
</mgrwt>
</event>
<event>
 4    1  0.3147937E-004  0.1810264E+03  0.7818608E-02  0.1166813E+00
         -1   -1    0    0    0  501 -0.00000000000E+00  0.00000000000E+00  0.16822663800E+02  0.16822664555E+02  0.50400000000E-02 0. -1.
          1   -1    0    0  501    0  0.00000000000E+00 -0.00000000000E+00 -0.48700022468E+03  0.48700022471E+03  0.50400000000E-02 0.  1.
    5000001    1    1    2    0    0 -0.44560130490E+02 -0.30036977955E+00 -0.28148856715E+03  0.29521265028E+03  0.77000000000E+02 0.  0.
   -5000001    1    1    2    0    0  0.44560130490E+02  0.30036977955E+00 -0.18868899373E+03  0.20861023898E+03  0.77000000000E+02 0.  0.
<mgrwt>
<rscale>  0 0.18102642E+03</rscale>
<asrwt>0</asrwt>
<pdfrwt beam="1">  1        1 0.74923101E-01 0.18102642E+03</pdfrwt>
<pdfrwt beam="2">  1       -1 0.25881026E-02 0.18102642E+03</pdfrwt>
<totfact> 0.21150390E+04</totfact>
</mgrwt>
</event>
<event>
 4    1  0.3147937E-004  0.1723688E+03  0.7818608E-02  0.1175400E+00
         -1   -1    0    0    0  501 -0.00000000000E+00  0.00000000000E+00  0.15713172724E+02  0.15713173532E+02  0.50400000000E-02 0.  1.
          1   -1    0    0  501    0  0.00000000000E+00 -0.00000000000E+00 -0.47270844604E+03  0.47270844607E+03  0.50400000000E-02 0. -1.
    5000001    1    1    2    0    0  0.18120710629E+02 -0.32523247302E+02 -0.25856942387E+03  0.27234769823E+03  0.77000000000E+02 0.  0.
   -5000001    1    1    2    0    0 -0.18120710629E+02  0.32523247302E+02 -0.19842584945E+03  0.21607392137E+03  0.77000000000E+02 0.  0.
<mgrwt>
<rscale>  0 0.17236879E+03</rscale>
<asrwt>0</asrwt>
<pdfrwt beam="1">  1        1 0.72724366E-01 0.17236879E+03</pdfrwt>
<pdfrwt beam="2">  1       -1 0.24174116E-02 0.17236879E+03</pdfrwt>
<totfact> 0.24191305E+04</totfact>
</mgrwt>
</event>
<event>
 4    1  0.3147937E-004  0.4615884E+03  0.7818608E-02  0.1024322E+00
          1   -1    0    0  501    0  0.00000000000E+00  0.00000000000E+00  0.10866003888E+04  0.10866003888E+04  0.50400000000E-02 0.  1.
         -1   -1    0    0    0  501 -0.00000000000E+00 -0.00000000000E+00 -0.49020751139E+02  0.49020751398E+02  0.50400000000E-02 0. -1.
    5000001    1    1    2    0    0  0.85364183043E+02  0.17470942074E+03  0.75891969989E+03  0.78720933450E+03  0.77000000000E+02 0.  0.
   -5000001    1    1    2    0    0 -0.85364183043E+02 -0.17470942074E+03  0.27865993780E+03  0.34841180574E+03  0.77000000000E+02 0.  0.
<mgrwt>
<rscale>  0 0.46158842E+03</rscale>
<asrwt>0</asrwt>
<pdfrwt beam="1">  1        1 0.16716929E+00 0.46158842E+03</pdfrwt>
<pdfrwt beam="2">  1       -1 0.75416542E-02 0.46158842E+03</pdfrwt>
<totfact> 0.12960031E+03</totfact>
</mgrwt>
</event>
<event>
 4    1  0.3147937E-004  0.1709273E+03  0.7818608E-02  0.1176884E+00
          1   -1    0    0  501    0  0.00000000000E+00  0.00000000000E+00  0.35683382761E+03  0.35683382764E+03  0.50400000000E-02 0. -1.
         -1   -1    0    0    0  501 -0.00000000000E+00 -0.00000000000E+00 -0.20469021464E+02  0.20469022085E+02  0.50400000000E-02 0.  1.
    5000001    1    1    2    0    0 -0.33958221865E+02  0.94667235886E+01  0.19356828894E+03  0.21128289607E+03  0.77000000000E+02 0.  0.
   -5000001    1    1    2    0    0  0.33958221865E+02 -0.94667235886E+01  0.14279651721E+03  0.16601995366E+03  0.77000000000E+02 0.  0.
<mgrwt>
<rscale>  0 0.17092735E+03</rscale>
<asrwt>0</asrwt>
<pdfrwt beam="1">  1        1 0.54897508E-01 0.17092735E+03</pdfrwt>
<pdfrwt beam="2">  1       -1 0.31490805E-02 0.17092735E+03</pdfrwt>
<totfact> 0.23515969E+04</totfact>
</mgrwt>
</event>
<event>
 4    1  0.3147937E-004  0.1662301E+03  0.7818608E-02  0.1181837E+00
          1   -1    0    0  501    0  0.00000000000E+00  0.00000000000E+00  0.60150395279E+03  0.60150395281E+03  0.50400000000E-02 0. -1.
         -1   -1    0    0    0  501 -0.00000000000E+00 -0.00000000000E+00 -0.11484732752E+02  0.11484733858E+02  0.50400000000E-02 0.  1.
    5000001    1    1    2    0    0 -0.79164303363E+00  0.27021667335E+02  0.23690046405E+03  0.25056262106E+03  0.77000000000E+02 0.  0.
   -5000001    1    1    2    0    0  0.79164303363E+00 -0.27021667335E+02  0.35311875599E+03  0.36242606561E+03  0.77000000000E+02 0.  0.
<mgrwt>
<rscale>  0 0.16623011E+03</rscale>
<asrwt>0</asrwt>
<pdfrwt beam="1">  1        1 0.92539055E-01 0.16623011E+03</pdfrwt>
<pdfrwt beam="2">  1       -1 0.17668823E-02 0.16623011E+03</pdfrwt>
<totfact> 0.27564649E+04</totfact>
</mgrwt>
</event>
<event>
 4    1  0.3147937E-004  0.2002732E+03  0.7818608E-02  0.1149509E+00
         -1   -1    0    0    0  501 -0.00000000000E+00  0.00000000000E+00  0.78635084578E+03  0.78635084580E+03  0.50400000000E-02 0. -1.
          1   -1    0    0  501    0  0.00000000000E+00 -0.00000000000E+00 -0.12751731058E+02  0.12751732054E+02  0.50400000000E-02 0.  1.
    5000001    1    1    2    0    0  0.30105148403E+02 -0.37081601886E+02  0.55687970497E+03  0.56420330642E+03  0.77000000000E+02 0.  0.
   -5000001    1    1    2    0    0 -0.30105148403E+02  0.37081601886E+02  0.21671940975E+03  0.23489927144E+03  0.77000000000E+02 0.  0.
<mgrwt>
<rscale>  0 0.20027316E+03</rscale>
<asrwt>0</asrwt>
<pdfrwt beam="1">  1        1 0.19618040E-02 0.20027316E+03</pdfrwt>
<pdfrwt beam="2">  1       -1 0.12097711E+00 0.20027316E+03</pdfrwt>
<totfact> 0.39621600E+03</totfact>
</mgrwt>
</event>
<event>
 4    1  0.3147937E-004  0.1659217E+03  0.7818608E-02  0.1182169E+00
          1   -1    0    0  501    0  0.00000000000E+00  0.00000000000E+00  0.12668339974E+04  0.12668339974E+04  0.50400000000E-02 0.  1.
         -1   -1    0    0    0  501 -0.00000000000E+00 -0.00000000000E+00 -0.54328382969E+01  0.54328406347E+01  0.50400000000E-02 0. -1.
    5000001    1    1    2    0    0 -0.23672964090E+02  0.19532120974E+02  0.60459288274E+03  0.61024869261E+03  0.77000000000E+02 0.  0.
   -5000001    1    1    2    0    0  0.23672964090E+02 -0.19532120974E+02  0.65680827632E+03  0.66201814539E+03  0.77000000000E+02 0.  0.
<mgrwt>
<rscale>  0 0.16592174E+03</rscale>
<asrwt>0</asrwt>
<pdfrwt beam="1">  1        1 0.19489753E+00 0.16592174E+03</pdfrwt>
<pdfrwt beam="2">  1       -1 0.83582150E-03 0.16592174E+03</pdfrwt>
<totfact> 0.24331341E+04</totfact>
</mgrwt>
</event>
<event>
 4    1  0.3147937E-004  0.2144551E+03  0.7818608E-02  0.1138086E+00
         -1   -1    0    0    0  501 -0.00000000000E+00  0.00000000000E+00  0.74745061225E+01  0.74745078217E+01  0.50400000000E-02 0.  1.
          1   -1    0    0  501    0  0.00000000000E+00 -0.00000000000E+00 -0.15382623466E+04  0.15382623466E+04  0.50400000000E-02 0. -1.
    5000001    1    1    2    0    0 -0.58410548307E+02 -0.34428160936E+02 -0.99006995251E+03  0.99537158954E+03  0.77000000000E+02 0.  0.
   -5000001    1    1    2    0    0  0.58410548307E+02  0.34428160936E+02 -0.54071788797E+03  0.55036526488E+03  0.77000000000E+02 0.  0.
<mgrwt>
<rscale>  0 0.21445515E+03</rscale>
<asrwt>0</asrwt>
<pdfrwt beam="1">  1        1 0.23665549E+00 0.21445515E+03</pdfrwt>
<pdfrwt beam="2">  1       -1 0.11499254E-02 0.21445515E+03</pdfrwt>
<totfact> 0.10290321E+04</totfact>
</mgrwt>
</event>
<event>
 4    1  0.3147937E-004  0.2690046E+03  0.7818608E-02  0.1101851E+00
          1   -1    0    0  501    0  0.00000000000E+00  0.00000000000E+00  0.52283428376E+03  0.52283428379E+03  0.50400000000E-02 0.  1.
         -1   -1    0    0    0  501 -0.00000000000E+00 -0.00000000000E+00 -0.34601540448E+02  0.34601540815E+02  0.50400000000E-02 0. -1.
    5000001    1    1    2    0    0 -0.49123755938E+02 -0.94582452959E+02  0.18539954241E+03  0.22729050603E+03  0.77000000000E+02 0.  0.
   -5000001    1    1    2    0    0  0.49123755938E+02  0.94582452959E+02  0.30283320091E+03  0.33014531857E+03  0.77000000000E+02 0.  0.
<mgrwt>
<rscale>  0 0.26900462E+03</rscale>
<asrwt>0</asrwt>
<pdfrwt beam="1">  1        1 0.80436043E-01 0.26900462E+03</pdfrwt>
<pdfrwt beam="2">  1       -1 0.53233140E-02 0.26900462E+03</pdfrwt>
<totfact> 0.67705314E+03</totfact>
</mgrwt>
</event>
<event>
 4    1  0.3147937E-004  0.3810218E+03  0.7818608E-02  0.1050557E+00
         -1   -1    0    0    0  501 -0.00000000000E+00  0.00000000000E+00  0.85061428725E+02  0.85061428875E+02  0.50400000000E-02 0. -1.
          1   -1    0    0  501    0  0.00000000000E+00 -0.00000000000E+00 -0.42668465159E+03  0.42668465162E+03  0.50400000000E-02 0.  1.
    5000001    1    1    2    0    0 -0.13159519267E+03  0.11396570110E+03 -0.16041413029E+03  0.24893205691E+03  0.77000000000E+02 0.  0.
   -5000001    1    1    2    0    0  0.13159519267E+03 -0.11396570110E+03 -0.18120909258E+03  0.26281402359E+03  0.77000000000E+02 0.  0.
<mgrwt>
<rscale>  0 0.38102182E+03</rscale>
<asrwt>0</asrwt>
<pdfrwt beam="1">  1        1 0.65643791E-01 0.38102182E+03</pdfrwt>
<pdfrwt beam="2">  1       -1 0.13086374E-01 0.38102182E+03</pdfrwt>
<totfact> 0.22343107E+03</totfact>
</mgrwt>
</event>
<event>
 4    1  0.3147937E-004  0.1882319E+03  0.7818608E-02  0.1160066E+00
          1   -1    0    0  501    0  0.00000000000E+00  0.00000000000E+00  0.73226340274E+03  0.73226340276E+03  0.50400000000E-02 0. -1.
         -1   -1    0    0    0  501 -0.00000000000E+00 -0.00000000000E+00 -0.12096477325E+02  0.12096478374E+02  0.50400000000E-02 0.  1.
    5000001    1    1    2    0    0  0.66986839112E+01 -0.48677163748E+02  0.27038817912E+03  0.28539990547E+03  0.77000000000E+02 0.  0.
   -5000001    1    1    2    0    0 -0.66986839112E+01  0.48677163748E+02  0.44977874630E+03  0.45895997566E+03  0.77000000000E+02 0.  0.
<mgrwt>
<rscale>  0 0.18823186E+03</rscale>
<asrwt>0</asrwt>
<pdfrwt beam="1">  1        1 0.11265590E+00 0.18823186E+03</pdfrwt>
<pdfrwt beam="2">  1       -1 0.18609967E-02 0.18823186E+03</pdfrwt>
<totfact> 0.19534876E+04</totfact>
</mgrwt>
</event>
<event>
 4    1  0.3147937E-004  0.2388605E+03  0.7818608E-02  0.1120554E+00
          1   -1    0    0  501    0  0.00000000000E+00  0.00000000000E+00  0.89777021357E+03  0.89777021359E+03  0.50400000000E-02 0.  1.
         -1   -1    0    0    0  501 -0.00000000000E+00 -0.00000000000E+00 -0.15887783656E+02  0.15887784456E+02  0.50400000000E-02 0. -1.
    5000001    1    1    2    0    0 -0.39770920700E+02  0.80512897688E+02  0.37802765110E+03  0.39610346858E+03  0.77000000000E+02 0.  0.
   -5000001    1    1    2    0    0  0.39770920700E+02 -0.80512897688E+02  0.50385477882E+03  0.51755452946E+03  0.77000000000E+02 0.  0.
<mgrwt>
<rscale>  0 0.23886046E+03</rscale>
<asrwt>0</asrwt>
<pdfrwt beam="1">  1        1 0.13811851E+00 0.23886046E+03</pdfrwt>
<pdfrwt beam="2">  1       -1 0.24442742E-02 0.23886046E+03</pdfrwt>
<totfact> 0.97156360E+03</totfact>
</mgrwt>
</event>
<event>
 4    1  0.3147937E-004  0.2143544E+03  0.7818608E-02  0.1138163E+00
          1   -1    0    0  501    0  0.00000000000E+00  0.00000000000E+00  0.13049630215E+04  0.13049630215E+04  0.50400000000E-02 0.  1.
         -1   -1    0    0    0  501 -0.00000000000E+00 -0.00000000000E+00 -0.88025118424E+01  0.88025132853E+01  0.50400000000E-02 0. -1.
    5000001    1    1    2    0    0  0.43808466073E+02  0.58282193080E+02  0.55274464689E+03  0.56282469775E+03  0.77000000000E+02 0.  0.
   -5000001    1    1    2    0    0 -0.43808466073E+02 -0.58282193080E+02  0.74341586275E+03  0.75094083703E+03  0.77000000000E+02 0.  0.
<mgrwt>
<rscale>  0 0.21435441E+03</rscale>
<asrwt>0</asrwt>
<pdfrwt beam="1">  1        1 0.20076354E+00 0.21435441E+03</pdfrwt>
<pdfrwt beam="2">  1       -1 0.13542327E-02 0.21435441E+03</pdfrwt>
<totfact> 0.11617274E+04</totfact>
</mgrwt>
</event>
<event>
 4    1  0.3147937E-004  0.6439619E+03  0.7818608E-02  0.9818176E-01
          1   -1    0    0  501    0  0.00000000000E+00  0.00000000000E+00  0.31174609295E+03  0.31174609299E+03  0.50400000000E-02 0.  1.
         -1   -1    0    0    0  501 -0.00000000000E+00 -0.00000000000E+00 -0.33255182950E+03  0.33255182954E+03  0.50400000000E-02 0. -1.
    5000001    1    1    2    0    0 -0.18111355528E+03 -0.10826865378E+03  0.22040888492E+03  0.31469556376E+03  0.77000000000E+02 0.  0.
   -5000001    1    1    2    0    0  0.18111355528E+03  0.10826865378E+03 -0.24121462147E+03  0.32960235877E+03  0.77000000000E+02 0.  0.
<mgrwt>
<rscale>  0 0.64396190E+03</rscale>
<asrwt>0</asrwt>
<pdfrwt beam="1">  1        1 0.47960937E-01 0.64396190E+03</pdfrwt>
<pdfrwt beam="2">  1       -1 0.51161820E-01 0.64396190E+03</pdfrwt>
<totfact> 0.32471463E+02</totfact>
</mgrwt>
</event>
<event>
 4    1  0.3147937E-004  0.1967053E+03  0.7818608E-02  0.1152549E+00
         -1   -1    0    0    0  501 -0.00000000000E+00  0.00000000000E+00  0.64608529220E+02  0.64608529417E+02  0.50400000000E-02 0.  1.
          1   -1    0    0  501    0  0.00000000000E+00 -0.00000000000E+00 -0.14972087743E+03  0.14972087752E+03  0.50400000000E-02 0. -1.
    5000001    1    1    2    0    0  0.31524978483E+02 -0.44236001094E+01  0.14383481340E+02  0.84553397576E+02  0.77000000000E+02 0.  0.
   -5000001    1    1    2    0    0 -0.31524978483E+02  0.44236001094E+01 -0.99495829552E+02  0.12977600936E+03  0.77000000000E+02 0.  0.
<mgrwt>
<rscale>  0 0.19670532E+03</rscale>
<asrwt>0</asrwt>
<pdfrwt beam="1">  1        1 0.23033981E-01 0.19670532E+03</pdfrwt>
<pdfrwt beam="2">  1       -1 0.99397738E-02 0.19670532E+03</pdfrwt>
<totfact> 0.12629202E+04</totfact>
</mgrwt>
</event>
<event>
 4    1  0.3147937E-004  0.2574413E+03  0.7818608E-02  0.1108690E+00
          1   -1    0    0  501    0  0.00000000000E+00  0.00000000000E+00  0.12796916810E+04  0.12796916810E+04  0.50400000000E-02 0.  1.
         -1   -1    0    0    0  501 -0.00000000000E+00 -0.00000000000E+00 -0.12947650034E+02  0.12947651015E+02  0.50400000000E-02 0. -1.
    5000001    1    1    2    0    0  0.61297893411E+02 -0.80158580863E+02  0.52601300984E+03  0.54111137147E+03  0.77000000000E+02 0.  0.
   -5000001    1    1    2    0    0 -0.61297893411E+02  0.80158580863E+02  0.74073102110E+03  0.75152796052E+03  0.77000000000E+02 0.  0.
<mgrwt>
<rscale>  0 0.25744126E+03</rscale>
<asrwt>0</asrwt>
<pdfrwt beam="1">  1        1 0.19687571E+00 0.25744126E+03</pdfrwt>
<pdfrwt beam="2">  1       -1 0.19919455E-02 0.25744126E+03</pdfrwt>
<totfact> 0.69380955E+03</totfact>
</mgrwt>
</event>
<event>
 4    1  0.3147937E-004  0.3496017E+03  0.7818608E-02  0.1062779E+00
          1   -1    0    0  501    0  0.00000000000E+00  0.00000000000E+00  0.20578885118E+03  0.20578885124E+03  0.50400000000E-02 0.  1.
         -1   -1    0    0    0  501 -0.00000000000E+00 -0.00000000000E+00 -0.14847903912E+03  0.14847903920E+03  0.50400000000E-02 0. -1.
    5000001    1    1    2    0    0  0.29275076930E+02 -0.13457811286E+03  0.10487877902E+03  0.18946465866E+03  0.77000000000E+02 0.  0.
   -5000001    1    1    2    0    0 -0.29275076930E+02  0.13457811286E+03 -0.47568966964E+02  0.16480323179E+03  0.77000000000E+02 0.  0.
<mgrwt>
<rscale>  0 0.34960166E+03</rscale>
<asrwt>0</asrwt>
<pdfrwt beam="1">  1        1 0.31659823E-01 0.34960166E+03</pdfrwt>
<pdfrwt beam="2">  1       -1 0.22842929E-01 0.34960166E+03</pdfrwt>
<totfact> 0.22971119E+03</totfact>
</mgrwt>
</event>
<event>
 4    1  0.3147937E-004  0.1825969E+03  0.7818608E-02  0.1165313E+00
         -1   -1    0    0    0  501 -0.00000000000E+00  0.00000000000E+00  0.40499901998E+03  0.40499902001E+03  0.50400000000E-02 0. -1.
          1   -1    0    0  501    0  0.00000000000E+00 -0.00000000000E+00 -0.20581307628E+02  0.20581308245E+02  0.50400000000E-02 0.  1.
    5000001    1    1    2    0    0  0.77362991315E+01  0.39271719783E+02  0.25830783529E+03  0.27249597441E+03  0.77000000000E+02 0.  0.
   -5000001    1    1    2    0    0 -0.77362991315E+01 -0.39271719783E+02  0.12610987707E+03  0.15308435385E+03  0.77000000000E+02 0.  0.
<mgrwt>
<rscale>  0 0.18259693E+03</rscale>
<asrwt>0</asrwt>
<pdfrwt beam="1">  1        1 0.31663554E-02 0.18259693E+03</pdfrwt>
<pdfrwt beam="2">  1       -1 0.62307534E-01 0.18259693E+03</pdfrwt>
<totfact> 0.82585131E+03</totfact>
</mgrwt>
</event>
<event>
 4    1  0.3147937E-004  0.2820553E+03  0.7818608E-02  0.1094572E+00
          1   -1    0    0  501    0  0.00000000000E+00  0.00000000000E+00  0.90914651803E+02  0.90914651943E+02  0.50400000000E-02 0.  1.
         -1   -1    0    0    0  501 -0.00000000000E+00 -0.00000000000E+00 -0.21876347343E+03  0.21876347348E+03  0.50400000000E-02 0. -1.
    5000001    1    1    2    0    0 -0.10199929903E+03  0.48838759621E+02 -0.10149113922E+03  0.17034826909E+03  0.77000000000E+02 0.  0.
   -5000001    1    1    2    0    0  0.10199929903E+03 -0.48838759621E+02 -0.26357682407E+02  0.13932985633E+03  0.77000000000E+02 0.  0.
<mgrwt>
<rscale>  0 0.28205535E+03</rscale>
<asrwt>0</asrwt>
<pdfrwt beam="1">  1        1 0.13986870E-01 0.28205535E+03</pdfrwt>
<pdfrwt beam="2">  1       -1 0.33655919E-01 0.28205535E+03</pdfrwt>
<totfact> 0.34112128E+03</totfact>
</mgrwt>
</event>
<event>
 4    1  0.3147937E-004  0.1970250E+03  0.7818608E-02  0.1152274E+00
          1   -1    0    0  501    0  0.00000000000E+00  0.00000000000E+00  0.62647028466E+03  0.62647028468E+03  0.50400000000E-02 0.  1.
         -1   -1    0    0    0  501 -0.00000000000E+00 -0.00000000000E+00 -0.15491101691E+02  0.15491102511E+02  0.50400000000E-02 0. -1.
    5000001    1    1    2    0    0  0.12222062452E+02 -0.51611485809E+02  0.20439954748E+03  0.22476943584E+03  0.77000000000E+02 0.  0.
   -5000001    1    1    2    0    0 -0.12222062452E+02  0.51611485809E+02  0.40657963549E+03  0.41719195135E+03  0.77000000000E+02 0.  0.
<mgrwt>
<rscale>  0 0.19702503E+03</rscale>
<asrwt>0</asrwt>
<pdfrwt beam="1">  1        1 0.96380043E-01 0.19702503E+03</pdfrwt>
<pdfrwt beam="2">  1       -1 0.23832465E-02 0.19702503E+03</pdfrwt>
<totfact> 0.17092300E+04</totfact>
</mgrwt>
</event>
<event>
 4    1  0.3147937E-004  0.2695902E+03  0.7818608E-02  0.1101514E+00
          1   -1    0    0  501    0  0.00000000000E+00  0.00000000000E+00  0.28263570947E+03  0.28263570951E+03  0.50400000000E-02 0. -1.
         -1   -1    0    0    0  501 -0.00000000000E+00 -0.00000000000E+00 -0.64286722846E+02  0.64286723044E+02  0.50400000000E-02 0.  1.
    5000001    1    1    2    0    0  0.64906350335E+01  0.58840206117E+02 -0.11105975682E+02  0.97758073298E+02  0.77000000000E+02 0.  0.
   -5000001    1    1    2    0    0 -0.64906350335E+01 -0.58840206117E+02  0.22945496230E+03  0.24916435926E+03  0.77000000000E+02 0.  0.
<mgrwt>
<rscale>  0 0.26959023E+03</rscale>
<asrwt>0</asrwt>
<pdfrwt beam="1">  1        1 0.43482417E-01 0.26959023E+03</pdfrwt>
<pdfrwt beam="2">  1       -1 0.98902651E-02 0.26959023E+03</pdfrwt>
<totfact> 0.58147656E+03</totfact>
</mgrwt>
</event>
<event>
 4    1  0.3147937E-004  0.2008081E+03  0.7818608E-02  0.1149059E+00
         -1   -1    0    0    0  501 -0.00000000000E+00  0.00000000000E+00  0.10117547918E+02  0.10117549173E+02  0.50400000000E-02 0. -1.
          1   -1    0    0  501    0  0.00000000000E+00 -0.00000000000E+00 -0.99638501912E+03  0.99638501913E+03  0.50400000000E-02 0.  1.
    5000001    1    1    2    0    0  0.20918250608E+02 -0.60258391285E+02 -0.53888743575E+03  0.54808513512E+03  0.77000000000E+02 0.  0.
   -5000001    1    1    2    0    0 -0.20918250608E+02  0.60258391285E+02 -0.44738003545E+03  0.45841743318E+03  0.77000000000E+02 0.  0.
<mgrwt>
<rscale>  0 0.20080811E+03</rscale>
<asrwt>0</asrwt>
<pdfrwt beam="1">  1        1 0.15328992E+00 0.20080811E+03</pdfrwt>
<pdfrwt beam="2">  1       -1 0.15565467E-02 0.20080811E+03</pdfrwt>
<totfact> 0.15635086E+04</totfact>
</mgrwt>
</event>
<event>
 4    1  0.3147937E-004  0.3583554E+03  0.7818608E-02  0.1059237E+00
          1   -1    0    0  501    0  0.00000000000E+00  0.00000000000E+00  0.30352922624E+03  0.30352922629E+03  0.50400000000E-02 0. -1.
         -1   -1    0    0    0  501 -0.00000000000E+00 -0.00000000000E+00 -0.10577121440E+03  0.10577121452E+03  0.50400000000E-02 0.  1.
    5000001    1    1    2    0    0 -0.87189893599E+02  0.19537058112E+02 -0.55172877930E+02  0.13021835756E+03  0.77000000000E+02 0.  0.
   -5000001    1    1    2    0    0  0.87189893599E+02 -0.19537058112E+02  0.25293088978E+03  0.27908208325E+03  0.77000000000E+02 0.  0.
<mgrwt>
<rscale>  0 0.35835544E+03</rscale>
<asrwt>0</asrwt>
<pdfrwt beam="1">  1        1 0.46696804E-01 0.35835544E+03</pdfrwt>
<pdfrwt beam="2">  1       -1 0.16272495E-01 0.35835544E+03</pdfrwt>
<totfact> 0.24427958E+03</totfact>
</mgrwt>
</event>
<event>
 4    1  0.3147937E-004  0.2262599E+03  0.7818608E-02  0.1129300E+00
          1   -1    0    0  501    0  0.00000000000E+00  0.00000000000E+00  0.11396251471E+03  0.11396251482E+03  0.50400000000E-02 0.  1.
         -1   -1    0    0    0  501 -0.00000000000E+00 -0.00000000000E+00 -0.11230350545E+03  0.11230350556E+03  0.50400000000E-02 0. -1.
    5000001    1    1    2    0    0  0.14148111853E+02 -0.58202190579E+02 -0.56458384971E+02  0.11271296860E+03  0.77000000000E+02 0.  0.
   -5000001    1    1    2    0    0 -0.14148111853E+02  0.58202190579E+02  0.58117394232E+02  0.11355305178E+03  0.77000000000E+02 0.  0.
<mgrwt>
<rscale>  0 0.22625994E+03</rscale>
<asrwt>0</asrwt>
<pdfrwt beam="1">  1        1 0.17532695E-01 0.22625994E+03</pdfrwt>
<pdfrwt beam="2">  1       -1 0.17277462E-01 0.22625994E+03</pdfrwt>
<totfact> 0.76049095E+03</totfact>
</mgrwt>
</event>
<event>
 4    1  0.3147937E-004  0.2295667E+03  0.7818608E-02  0.1126945E+00
         -1   -1    0    0    0  501 -0.00000000000E+00  0.00000000000E+00  0.80563387443E+01  0.80563403208E+01  0.50400000000E-02 0. -1.
          1   -1    0    0  501    0  0.00000000000E+00 -0.00000000000E+00 -0.16353847876E+04  0.16353847876E+04  0.50400000000E-02 0.  1.
    5000001    1    1    2    0    0 -0.37640995977E+02  0.31290303178E+02 -0.31509090048E+03  0.32803536885E+03  0.77000000000E+02 0.  0.
   -5000001    1    1    2    0    0  0.37640995977E+02 -0.31290303178E+02 -0.13122375484E+04  0.13154057591E+04  0.77000000000E+02 0.  0.
<mgrwt>
<rscale>  0 0.22956668E+03</rscale>
<asrwt>0</asrwt>
<pdfrwt beam="1">  1        1 0.25159740E+00 0.22956668E+03</pdfrwt>
<pdfrwt beam="2">  1       -1 0.12394382E-02 0.22956668E+03</pdfrwt>
<totfact> 0.79945059E+03</totfact>
</mgrwt>
</event>
<event>
 4    1  0.3147937E-004  0.2217740E+03  0.7818608E-02  0.1132567E+00
         -1   -1    0    0    0  501 -0.00000000000E+00  0.00000000000E+00  0.11861094771E+02  0.11861095842E+02  0.50400000000E-02 0. -1.
          1   -1    0    0  501    0  0.00000000000E+00 -0.00000000000E+00 -0.10366605154E+04  0.10366605154E+04  0.50400000000E-02 0.  1.
    5000001    1    1    2    0    0  0.59389290084E+02 -0.37053735979E+02 -0.69347590189E+03  0.70124025386E+03  0.77000000000E+02 0.  0.
   -5000001    1    1    2    0    0 -0.59389290084E+02  0.37053735979E+02 -0.33132351876E+03  0.34728135742E+03  0.77000000000E+02 0.  0.
<mgrwt>
<rscale>  0 0.22177402E+03</rscale>
<asrwt>0</asrwt>
<pdfrwt beam="1">  1        1 0.15948616E+00 0.22177402E+03</pdfrwt>
<pdfrwt beam="2">  1       -1 0.18247847E-02 0.22177402E+03</pdfrwt>
<totfact> 0.11649860E+04</totfact>
</mgrwt>
</event>
<event>
 4    1  0.3147937E-004  0.3943430E+03  0.7818608E-02  0.1045756E+00
         -1   -1    0    0    0  501 -0.00000000000E+00  0.00000000000E+00  0.24968574703E+03  0.24968574708E+03  0.50400000000E-02 0. -1.
          1   -1    0    0  501    0  0.00000000000E+00 -0.00000000000E+00 -0.15570209297E+03  0.15570209305E+03  0.50400000000E-02 0.  1.
    5000001    1    1    2    0    0 -0.73164554761E+02  0.16313917129E+03  0.14807578963E+02  0.19523244013E+03  0.77000000000E+02 0.  0.
   -5000001    1    1    2    0    0  0.73164554761E+02 -0.16313917129E+03  0.79176075099E+02  0.21015540001E+03  0.77000000000E+02 0.  0.
<mgrwt>
<rscale>  0 0.39434296E+03</rscale>
<asrwt>0</asrwt>
<pdfrwt beam="1">  1        1 0.23954169E-01 0.39434296E+03</pdfrwt>
<pdfrwt beam="2">  1       -1 0.38413191E-01 0.39434296E+03</pdfrwt>
<totfact> 0.13479308E+03</totfact>
</mgrwt>
</event>
<event>
 4    1  0.3147937E-004  0.3774334E+03  0.7818608E-02  0.1051886E+00
         -1   -1    0    0    0  501 -0.00000000000E+00  0.00000000000E+00  0.21380610780E+02  0.21380611374E+02  0.50400000000E-02 0. -1.
          1   -1    0    0  501    0  0.00000000000E+00 -0.00000000000E+00 -0.16657147714E+04  0.16657147714E+04  0.50400000000E-02 0.  1.
    5000001    1    1    2    0    0 -0.16633944034E+02 -0.16234310527E+03 -0.57518545520E+03  0.60282607757E+03  0.77000000000E+02 0.  0.
   -5000001    1    1    2    0    0  0.16633944034E+02  0.16234310527E+03 -0.10691487054E+04  0.10842693052E+04  0.77000000000E+02 0.  0.
<mgrwt>
<rscale>  0 0.37743344E+03</rscale>
<asrwt>0</asrwt>
<pdfrwt beam="1">  1        1 0.25626371E+00 0.37743344E+03</pdfrwt>
<pdfrwt beam="2">  1       -1 0.32893261E-02 0.37743344E+03</pdfrwt>
<totfact> 0.18258080E+03</totfact>
</mgrwt>
</event>
<event>
 4    1  0.3147937E-004  0.2595824E+03  0.7818608E-02  0.1107394E+00
          1   -1    0    0  501    0  0.00000000000E+00  0.00000000000E+00  0.14625659908E+02  0.14625660777E+02  0.50400000000E-02 0.  1.
         -1   -1    0    0    0  501 -0.00000000000E+00 -0.00000000000E+00 -0.11517941511E+04  0.11517941511E+04  0.50400000000E-02 0. -1.
    5000001    1    1    2    0    0  0.45401073417E+02  0.92366335132E+02 -0.48770808427E+03  0.50436194622E+03  0.77000000000E+02 0.  0.
   -5000001    1    1    2    0    0 -0.45401073417E+02 -0.92366335132E+02 -0.64946040694E+03  0.66205786568E+03  0.77000000000E+02 0.  0.
<mgrwt>
<rscale>  0 0.25958236E+03</rscale>
<asrwt>0</asrwt>
<pdfrwt beam="1">  1        1 0.22501025E-02 0.25958236E+03</pdfrwt>
<pdfrwt beam="2">  1       -1 0.17719903E+00 0.25958236E+03</pdfrwt>
<totfact> 0.12229822E+03</totfact>
</mgrwt>
</event>
<event>
 4    1  0.3147937E-004  0.3012475E+03  0.7818608E-02  0.1084619E+00
         -1   -1    0    0    0  501 -0.00000000000E+00  0.00000000000E+00  0.30959371401E+02  0.30959371812E+02  0.50400000000E-02 0. -1.
          1   -1    0    0  501    0  0.00000000000E+00 -0.00000000000E+00 -0.73281590624E+03  0.73281590626E+03  0.50400000000E-02 0.  1.
    5000001    1    1    2    0    0  0.95625642531E+02 -0.44560926773E+02 -0.16071468678E+03  0.20709454423E+03  0.77000000000E+02 0.  0.
   -5000001    1    1    2    0    0 -0.95625642531E+02  0.44560926773E+02 -0.54114184806E+03  0.55668073384E+03  0.77000000000E+02 0.  0.
<mgrwt>
<rscale>  0 0.30124754E+03</rscale>
<asrwt>0</asrwt>
<pdfrwt beam="1">  1        1 0.11274090E+00 0.30124754E+03</pdfrwt>
<pdfrwt beam="2">  1       -1 0.47629808E-02 0.30124754E+03</pdfrwt>
<totfact> 0.49885503E+03</totfact>
</mgrwt>
</event>
<event>
 4    1  0.3147937E-004  0.2598743E+03  0.7818608E-02  0.1107219E+00
         -1   -1    0    0    0  501 -0.00000000000E+00  0.00000000000E+00  0.27007147353E+03  0.27007147358E+03  0.50400000000E-02 0.  1.
          1   -1    0    0  501    0  0.00000000000E+00 -0.00000000000E+00 -0.62515547816E+02  0.62515548019E+02  0.50400000000E-02 0. -1.
    5000001    1    1    2    0    0  0.30755074064E+02  0.90251625374E+02  0.15902374537E+03  0.20077047107E+03  0.77000000000E+02 0.  0.
   -5000001    1    1    2    0    0 -0.30755074064E+02 -0.90251625374E+02  0.48532180349E+02  0.13181655053E+03  0.77000000000E+02 0.  0.
<mgrwt>
<rscale>  0 0.25987432E+03</rscale>
<asrwt>0</asrwt>
<pdfrwt beam="1">  1        1 0.96177766E-02 0.25987432E+03</pdfrwt>
<pdfrwt beam="2">  1       -1 0.41549458E-01 0.25987432E+03</pdfrwt>
<totfact> 0.38716977E+03</totfact>
</mgrwt>
</event>
<event>
 4    1  0.3147937E-004  0.1888147E+03  0.7818608E-02  0.1159535E+00
          1   -1    0    0  501    0  0.00000000000E+00  0.00000000000E+00  0.46398232802E+03  0.46398232805E+03  0.50400000000E-02 0.  1.
         -1   -1    0    0    0  501 -0.00000000000E+00 -0.00000000000E+00 -0.19209242618E+02  0.19209243279E+02  0.50400000000E-02 0. -1.
    5000001    1    1    2    0    0  0.42190737535E+02  0.34604007767E+02  0.21598701151E+03  0.23570508019E+03  0.77000000000E+02 0.  0.
   -5000001    1    1    2    0    0 -0.42190737535E+02 -0.34604007767E+02  0.22878607390E+03  0.24748649114E+03  0.77000000000E+02 0.  0.
<mgrwt>
<rscale>  0 0.18881472E+03</rscale>
<asrwt>0</asrwt>
<pdfrwt beam="1">  1        1 0.71381892E-01 0.18881472E+03</pdfrwt>
<pdfrwt beam="2">  1       -1 0.29552684E-02 0.18881472E+03</pdfrwt>
<totfact> 0.18615599E+04</totfact>
</mgrwt>
</event>
<event>
 4    1  0.3147937E-004  0.2106595E+03  0.7818608E-02  0.1141045E+00
          1   -1    0    0  501    0  0.00000000000E+00  0.00000000000E+00  0.10776192051E+03  0.10776192063E+03  0.50400000000E-02 0.  1.
         -1   -1    0    0    0  501 -0.00000000000E+00 -0.00000000000E+00 -0.10295246936E+03  0.10295246949E+03  0.50400000000E-02 0. -1.
    5000001    1    1    2    0    0 -0.55231947270E+02  0.45149838526E+02 -0.63313883355E+01  0.10515779760E+03  0.77000000000E+02 0.  0.
   -5000001    1    1    2    0    0  0.55231947270E+02 -0.45149838526E+02  0.11140839480E+02  0.10555659251E+03  0.77000000000E+02 0.  0.
<mgrwt>
<rscale>  0 0.21065950E+03</rscale>
<asrwt>0</asrwt>
<pdfrwt beam="1">  1        1 0.16578757E-01 0.21065950E+03</pdfrwt>
<pdfrwt beam="2">  1       -1 0.15838841E-01 0.21065950E+03</pdfrwt>
<totfact> 0.93539354E+03</totfact>
</mgrwt>
</event>
<event>
 4    1  0.3147937E-004  0.2122273E+03  0.7818608E-02  0.1139814E+00
         -1   -1    0    0    0  501 -0.00000000000E+00  0.00000000000E+00  0.12512070107E+02  0.12512071122E+02  0.50400000000E-02 0. -1.
          1   -1    0    0  501    0  0.00000000000E+00 -0.00000000000E+00 -0.89993971329E+03  0.89993971330E+03  0.50400000000E-02 0.  1.
    5000001    1    1    2    0    0 -0.31192288445E+02 -0.51725769871E+02 -0.26735449154E+03  0.28470324598E+03  0.77000000000E+02 0.  0.
   -5000001    1    1    2    0    0  0.31192288445E+02  0.51725769871E+02 -0.62007315165E+03  0.62774853844E+03  0.77000000000E+02 0.  0.
<mgrwt>
<rscale>  0 0.21222732E+03</rscale>
<asrwt>0</asrwt>
<pdfrwt beam="1">  1        1 0.13845221E+00 0.21222732E+03</pdfrwt>
<pdfrwt beam="2">  1       -1 0.19249346E-02 0.21222732E+03</pdfrwt>
<totfact> 0.13642169E+04</totfact>
</mgrwt>
</event>
<event>
 4    1  0.3147937E-004  0.2147538E+03  0.7818608E-02  0.1137856E+00
          1   -1    0    0  501    0  0.00000000000E+00  0.00000000000E+00  0.65693890736E+03  0.65693890738E+03  0.50400000000E-02 0.  1.
         -1   -1    0    0    0  501 -0.00000000000E+00 -0.00000000000E+00 -0.17550798653E+02  0.17550799377E+02  0.50400000000E-02 0. -1.
    5000001    1    1    2    0    0  0.31165532252E+02 -0.67794689918E+02  0.30154483522E+03  0.32004015065E+03  0.77000000000E+02 0.  0.
   -5000001    1    1    2    0    0 -0.31165532252E+02  0.67794689918E+02  0.33784327348E+03  0.35444955610E+03  0.77000000000E+02 0.  0.
<mgrwt>
<rscale>  0 0.21475384E+03</rscale>
<asrwt>0</asrwt>
<pdfrwt beam="1">  1        1 0.10106752E+00 0.21475384E+03</pdfrwt>
<pdfrwt beam="2">  1       -1 0.27001230E-02 0.21475384E+03</pdfrwt>
<totfact> 0.13389584E+04</totfact>
</mgrwt>
</event>
<event>
 4    1  0.3147937E-004  0.2562269E+03  0.7818608E-02  0.1109432E+00
          1   -1    0    0  501    0  0.00000000000E+00  0.00000000000E+00  0.10047950515E+04  0.10047950515E+04  0.50400000000E-02 0. -1.
         -1   -1    0    0    0  501 -0.00000000000E+00 -0.00000000000E+00 -0.16334732389E+02  0.16334733166E+02  0.50400000000E-02 0.  1.
    5000001    1    1    2    0    0  0.95198603093E+02  0.26624733972E+02  0.38785979745E+03  0.40759768519E+03  0.77000000000E+02 0.  0.
   -5000001    1    1    2    0    0 -0.95198603093E+02 -0.26624733972E+02  0.60060052166E+03  0.61353209950E+03  0.77000000000E+02 0.  0.
<mgrwt>
<rscale>  0 0.25622692E+03</rscale>
<asrwt>0</asrwt>
<pdfrwt beam="1">  1        1 0.15458388E+00 0.25622692E+03</pdfrwt>
<pdfrwt beam="2">  1       -1 0.25130354E-02 0.25622692E+03</pdfrwt>
<totfact> 0.77461308E+03</totfact>
</mgrwt>
</event>
<event>
 4    1  0.3147937E-004  0.5131120E+03  0.7818608E-02  0.1010412E+00
          1   -1    0    0  501    0  0.00000000000E+00  0.00000000000E+00  0.28275055230E+02  0.28275055679E+02  0.50400000000E-02 0.  1.
         -1   -1    0    0    0  501 -0.00000000000E+00 -0.00000000000E+00 -0.23278817805E+04  0.23278817805E+04  0.50400000000E-02 0. -1.
    5000001    1    1    2    0    0 -0.22081979598E+03  0.28457789695E+02 -0.68330748359E+03  0.72277890480E+03  0.77000000000E+02 0.  0.
   -5000001    1    1    2    0    0  0.22081979598E+03 -0.28457789695E+02 -0.16162992417E+04  0.16333779314E+04  0.77000000000E+02 0.  0.
<mgrwt>
<rscale>  0 0.51311202E+03</rscale>
<asrwt>0</asrwt>
<pdfrwt beam="1">  1        1 0.43500104E-02 0.51311202E+03</pdfrwt>
<pdfrwt beam="2">  1       -1 0.35813551E+00 0.51311202E+03</pdfrwt>
<totfact> 0.32128840E+01</totfact>
</mgrwt>
</event>
<event>
 4    1  0.3147937E-004  0.2451726E+03  0.7818608E-02  0.1116394E+00
          1   -1    0    0  501    0  0.00000000000E+00  0.00000000000E+00  0.91052667510E+03  0.91052667511E+03  0.50400000000E-02 0.  1.
         -1   -1    0    0    0  501 -0.00000000000E+00 -0.00000000000E+00 -0.16504072420E+02  0.16504073189E+02  0.50400000000E-02 0. -1.
    5000001    1    1    2    0    0 -0.39966014830E+02  0.72633259794E+02  0.26863442439E+03  0.29148983985E+03  0.77000000000E+02 0.  0.
   -5000001    1    1    2    0    0  0.39966014830E+02 -0.72633259794E+02  0.62538817829E+03  0.63554090845E+03  0.77000000000E+02 0.  0.
<mgrwt>
<rscale>  0 0.24517258E+03</rscale>
<asrwt>0</asrwt>
<pdfrwt beam="1">  1        1 0.14008102E+00 0.24517258E+03</pdfrwt>
<pdfrwt beam="2">  1       -1 0.25390882E-02 0.24517258E+03</pdfrwt>
<totfact> 0.89885510E+03</totfact>
</mgrwt>
</event>
<event>
 4    1  0.3147937E-004  0.2955771E+03  0.7818608E-02  0.1087473E+00
         -1   -1    0    0    0  501 -0.00000000000E+00  0.00000000000E+00  0.32478399462E+02  0.32478399853E+02  0.50400000000E-02 0.  1.
          1   -1    0    0  501    0  0.00000000000E+00 -0.00000000000E+00 -0.67249183280E+03  0.67249183282E+03  0.50400000000E-02 0. -1.
    5000001    1    1    2    0    0 -0.77134879181E+02 -0.89609604417E+02 -0.42486241720E+03  0.44767928737E+03  0.77000000000E+02 0.  0.
   -5000001    1    1    2    0    0  0.77134879181E+02  0.89609604417E+02 -0.21515101614E+03  0.25729094531E+03  0.77000000000E+02 0.  0.
<mgrwt>
<rscale>  0 0.29557712E+03</rscale>
<asrwt>0</asrwt>
<pdfrwt beam="1">  1        1 0.10346027E+00 0.29557712E+03</pdfrwt>
<pdfrwt beam="2">  1       -1 0.49966774E-02 0.29557712E+03</pdfrwt>
<totfact> 0.52635907E+03</totfact>
</mgrwt>
</event>
<event>
 4    1  0.3147937E-004  0.2574043E+03  0.7818608E-02  0.1108713E+00
         -1   -1    0    0    0  501 -0.00000000000E+00  0.00000000000E+00  0.17510130117E+02  0.17510130842E+02  0.50400000000E-02 0.  1.
          1   -1    0    0  501    0  0.00000000000E+00 -0.00000000000E+00 -0.94598066803E+03  0.94598066804E+03  0.50400000000E-02 0. -1.
    5000001    1    1    2    0    0  0.98602874149E+02 -0.26065188758E+02 -0.52141097553E+03  0.53684292513E+03  0.77000000000E+02 0.  0.
   -5000001    1    1    2    0    0 -0.98602874149E+02  0.26065188758E+02 -0.40705956238E+03  0.42664787376E+03  0.77000000000E+02 0.  0.
<mgrwt>
<rscale>  0 0.25740431E+03</rscale>
<asrwt>0</asrwt>
<pdfrwt beam="1">  1        1 0.14553545E+00 0.25740431E+03</pdfrwt>
<pdfrwt beam="2">  1       -1 0.26938670E-02 0.25740431E+03</pdfrwt>
<totfact> 0.77490896E+03</totfact>
</mgrwt>
</event>
<event>
 4    1  0.3147937E-004  0.2483512E+03  0.7818608E-02  0.1114351E+00
         -1   -1    0    0    0  501 -0.00000000000E+00  0.00000000000E+00  0.85292250536E+02  0.85292250685E+02  0.50400000000E-02 0. -1.
          1   -1    0    0  501    0  0.00000000000E+00 -0.00000000000E+00 -0.18078518467E+03  0.18078518474E+03  0.50400000000E-02 0.  1.
    5000001    1    1    2    0    0  0.40323512236E+01 -0.86169710746E+02 -0.96244378723E+02  0.15044420674E+03  0.77000000000E+02 0.  0.
   -5000001    1    1    2    0    0 -0.40323512236E+01  0.86169710746E+02  0.75144459062E+00  0.11563322868E+03  0.77000000000E+02 0.  0.
<mgrwt>
<rscale>  0 0.24835117E+03</rscale>
<asrwt>0</asrwt>
<pdfrwt beam="1">  1        1 0.27813105E-01 0.24835117E+03</pdfrwt>
<pdfrwt beam="2">  1       -1 0.13121885E-01 0.24835117E+03</pdfrwt>
<totfact> 0.65461734E+03</totfact>
</mgrwt>
</event>
<event>
 4    1  0.3147937E-004  0.2114486E+03  0.7818608E-02  0.1140424E+00
         -1   -1    0    0    0  501 -0.00000000000E+00  0.00000000000E+00  0.77023351790E+02  0.77023351955E+02  0.50400000000E-02 0. -1.
          1   -1    0    0  501    0  0.00000000000E+00 -0.00000000000E+00 -0.14512001609E+03  0.14512001618E+03  0.50400000000E-02 0.  1.
    5000001    1    1    2    0    0 -0.44975970549E+02 -0.53298539801E+02 -0.54663717509E+02  0.11739120190E+03  0.77000000000E+02 0.  0.
   -5000001    1    1    2    0    0  0.44975970549E+02  0.53298539801E+02 -0.13432946795E+02  0.10475216624E+03  0.77000000000E+02 0.  0.
<mgrwt>
<rscale>  0 0.21144862E+03</rscale>
<asrwt>0</asrwt>
<pdfrwt beam="1">  1        1 0.22326156E-01 0.21144862E+03</pdfrwt>
<pdfrwt beam="2">  1       -1 0.11849746E-01 0.21144862E+03</pdfrwt>
<totfact> 0.10061849E+04</totfact>
</mgrwt>
</event>
<event>
 4    1  0.3147937E-004  0.1729895E+03  0.7818608E-02  0.1174766E+00
         -1   -1    0    0    0  501 -0.00000000000E+00  0.00000000000E+00  0.15072564397E+03  0.15072564406E+03  0.50400000000E-02 0.  1.
          1   -1    0    0  501    0  0.00000000000E+00 -0.00000000000E+00 -0.49635503797E+02  0.49635504053E+02  0.50400000000E-02 0. -1.
    5000001    1    1    2    0    0 -0.45652082485E+00  0.39393204069E+02  0.49899812165E+02  0.99855015859E+02  0.77000000000E+02 0.  0.
   -5000001    1    1    2    0    0  0.45652082485E+00 -0.39393204069E+02  0.51190328011E+02  0.10050613225E+03  0.77000000000E+02 0.  0.
<mgrwt>
<rscale>  0 0.17298952E+03</rscale>
<asrwt>0</asrwt>
<pdfrwt beam="1">  1        1 0.76362313E-02 0.17298952E+03</pdfrwt>
<pdfrwt beam="2">  1       -1 0.23188561E-01 0.17298952E+03</pdfrwt>
<totfact> 0.13954779E+04</totfact>
</mgrwt>
</event>
<event>
 4    1  0.3147937E-004  0.2550326E+03  0.7818608E-02  0.1110165E+00
          1   -1    0    0  501    0  0.00000000000E+00  0.00000000000E+00  0.80782189411E+03  0.80782189413E+03  0.50400000000E-02 0.  1.
         -1   -1    0    0    0  501 -0.00000000000E+00 -0.00000000000E+00 -0.20128694921E+02  0.20128695552E+02  0.50400000000E-02 0. -1.
    5000001    1    1    2    0    0 -0.36784745230E+02 -0.94275790799E+02  0.42470641609E+03  0.44333461638E+03  0.77000000000E+02 0.  0.
   -5000001    1    1    2    0    0  0.36784745230E+02  0.94275790799E+02  0.36298678310E+03  0.38461597330E+03  0.77000000000E+02 0.  0.
<mgrwt>
<rscale>  0 0.25503255E+03</rscale>
<asrwt>0</asrwt>
<pdfrwt beam="1">  1        1 0.12428027E+00 0.25503255E+03</pdfrwt>
<pdfrwt beam="2">  1       -1 0.30967230E-02 0.25503255E+03</pdfrwt>
<totfact> 0.81268421E+03</totfact>
</mgrwt>
</event>
<event>
 4    1  0.3147937E-004  0.2677042E+03  0.7818608E-02  0.1102601E+00
         -1   -1    0    0    0  501 -0.00000000000E+00  0.00000000000E+00  0.41672949627E+02  0.41672949932E+02  0.50400000000E-02 0.  1.
          1   -1    0    0  501    0  0.00000000000E+00 -0.00000000000E+00 -0.42992827185E+03  0.42992827188E+03  0.50400000000E-02 0. -1.
    5000001    1    1    2    0    0 -0.23191276311E+02 -0.10531265097E+03 -0.22749639209E+03  0.26327209910E+03  0.77000000000E+02 0.  0.
   -5000001    1    1    2    0    0  0.23191276311E+02  0.10531265097E+03 -0.16075893014E+03  0.20832912271E+03  0.77000000000E+02 0.  0.
<mgrwt>
<rscale>  0 0.26770416E+03</rscale>
<asrwt>0</asrwt>
<pdfrwt beam="1">  1        1 0.66142808E-01 0.26770416E+03</pdfrwt>
<pdfrwt beam="2">  1       -1 0.64112233E-02 0.26770416E+03</pdfrwt>
<totfact> 0.66172991E+03</totfact>
</mgrwt>
</event>
<event>
 4    1  0.3147937E-004  0.1662086E+03  0.7818608E-02  0.1181860E+00
          1   -1    0    0  501    0  0.00000000000E+00  0.00000000000E+00  0.28983156088E+03  0.28983156093E+03  0.50400000000E-02 0. -1.
         -1   -1    0    0    0  501 -0.00000000000E+00 -0.00000000000E+00 -0.23828760068E+02  0.23828760601E+02  0.50400000000E-02 0.  1.
    5000001    1    1    2    0    0  0.30523770428E+02 -0.68366790357E+00  0.14568310028E+03  0.16758500431E+03  0.77000000000E+02 0.  0.
   -5000001    1    1    2    0    0 -0.30523770428E+02  0.68366790357E+00  0.12031970054E+03  0.14607531722E+03  0.77000000000E+02 0.  0.
<mgrwt>
<rscale>  0 0.16620863E+03</rscale>
<asrwt>0</asrwt>
<pdfrwt beam="1">  1        1 0.44589468E-01 0.16620863E+03</pdfrwt>
<pdfrwt beam="2">  1       -1 0.36659634E-02 0.16620863E+03</pdfrwt>
<totfact> 0.24335029E+04</totfact>
</mgrwt>
</event>
<event>
 4    1  0.3147937E-004  0.1930802E+03  0.7818608E-02  0.1155712E+00
          1   -1    0    0  501    0  0.00000000000E+00  0.00000000000E+00  0.42582573472E+02  0.42582573770E+02  0.50400000000E-02 0.  1.
         -1   -1    0    0    0  501 -0.00000000000E+00 -0.00000000000E+00 -0.21886858934E+03  0.21886858940E+03  0.50400000000E-02 0. -1.
    5000001    1    1    2    0    0  0.13501091899E+02  0.56081637749E+02 -0.77347603881E+02  0.12344667432E+03  0.77000000000E+02 0.  0.
   -5000001    1    1    2    0    0 -0.13501091899E+02 -0.56081637749E+02 -0.98938411986E+02  0.13800448885E+03  0.77000000000E+02 0.  0.
<mgrwt>
<rscale>  0 0.19308017E+03</rscale>
<asrwt>0</asrwt>
<pdfrwt beam="1">  1        1 0.65511653E-02 0.19308017E+03</pdfrwt>
<pdfrwt beam="2">  1       -1 0.33672090E-01 0.19308017E+03</pdfrwt>
<totfact> 0.92737552E+03</totfact>
</mgrwt>
</event>
<event>
 4    1  0.3147937E-004  0.4209723E+03  0.7818608E-02  0.1036750E+00
          1   -1    0    0  501    0  0.00000000000E+00  0.00000000000E+00  0.14322976416E+03  0.14322976424E+03  0.50400000000E-02 0.  1.
         -1   -1    0    0    0  501 -0.00000000000E+00 -0.00000000000E+00 -0.30932408589E+03  0.30932408593E+03  0.50400000000E-02 0. -1.
    5000001    1    1    2    0    0  0.89101252521E+02 -0.12459288516E+03 -0.21432735389E+03  0.27445880357E+03  0.77000000000E+02 0.  0.
   -5000001    1    1    2    0    0 -0.89101252521E+02  0.12459288516E+03  0.48233032158E+02  0.17809504660E+03  0.77000000000E+02 0.  0.
<mgrwt>
<rscale>  0 0.42097228E+03</rscale>
<asrwt>0</asrwt>
<pdfrwt beam="1">  1        1 0.22035348E-01 0.42097228E+03</pdfrwt>
<pdfrwt beam="2">  1       -1 0.47588321E-01 0.42097228E+03</pdfrwt>
<totfact> 0.10182233E+03</totfact>
</mgrwt>
</event>
<event>
 4    1  0.3147937E-004  0.1848384E+03  0.7818608E-02  0.1163201E+00
         -1   -1    0    0    0  501 -0.00000000000E+00  0.00000000000E+00  0.28892962314E+03  0.28892962318E+03  0.50400000000E-02 0.  1.
          1   -1    0    0  501    0  0.00000000000E+00 -0.00000000000E+00 -0.29561889808E+02  0.29561890238E+02  0.50400000000E-02 0. -1.
    5000001    1    1    2    0    0  0.84192597624E+01  0.50269608866E+02  0.12314790241E+03  0.15392310865E+03  0.77000000000E+02 0.  0.
   -5000001    1    1    2    0    0 -0.84192597624E+01 -0.50269608866E+02  0.13621983092E+03  0.16456840477E+03  0.77000000000E+02 0.  0.
<mgrwt>
<rscale>  0 0.18483837E+03</rscale>
<asrwt>0</asrwt>
<pdfrwt beam="1">  1        1 0.45479832E-02 0.18483837E+03</pdfrwt>
<pdfrwt beam="2">  1       -1 0.44450710E-01 0.18483837E+03</pdfrwt>
<totfact> 0.93687084E+03</totfact>
</mgrwt>
</event>
<event>
 4    1  0.3147937E-004  0.3678333E+03  0.7818608E-02  0.1055525E+00
         -1   -1    0    0    0  501 -0.00000000000E+00  0.00000000000E+00  0.72731377105E+02  0.72731377279E+02  0.50400000000E-02 0. -1.
          1   -1    0    0  501    0  0.00000000000E+00 -0.00000000000E+00 -0.46507209010E+03  0.46507209012E+03  0.50400000000E-02 0.  1.
    5000001    1    1    2    0    0  0.73272456645E+02 -0.14998898267E+03 -0.18805798660E+03  0.26298356251E+03  0.77000000000E+02 0.  0.
   -5000001    1    1    2    0    0 -0.73272456645E+02  0.14998898267E+03 -0.20428272639E+03  0.27481990489E+03  0.77000000000E+02 0.  0.
<mgrwt>
<rscale>  0 0.36783330E+03</rscale>
<asrwt>0</asrwt>
<pdfrwt beam="1">  1        1 0.71549550E-01 0.36783330E+03</pdfrwt>
<pdfrwt beam="2">  1       -1 0.11189443E-01 0.36783330E+03</pdfrwt>
<totfact> 0.25523856E+03</totfact>
</mgrwt>
</event>
<event>
 4    1  0.3147937E-004  0.2163998E+03  0.7818608E-02  0.1136596E+00
          1   -1    0    0  501    0  0.00000000000E+00  0.00000000000E+00  0.15202255592E+04  0.15202255593E+04  0.50400000000E-02 0.  1.
         -1   -1    0    0    0  501 -0.00000000000E+00 -0.00000000000E+00 -0.77009755810E+01  0.77009772302E+01  0.50400000000E-02 0. -1.
    5000001    1    1    2    0    0  0.74905889101E+02 -0.21209887172E+01  0.66616468436E+03  0.67477387139E+03  0.77000000000E+02 0.  0.
   -5000001    1    1    2    0    0 -0.74905889101E+02  0.21209887172E+01  0.84635989930E+03  0.85315266510E+03  0.77000000000E+02 0.  0.
<mgrwt>
<rscale>  0 0.21639983E+03</rscale>
<asrwt>0</asrwt>
<pdfrwt beam="1">  1        1 0.23388062E+00 0.21639983E+03</pdfrwt>
<pdfrwt beam="2">  1       -1 0.11847668E-02 0.21639983E+03</pdfrwt>
<totfact> 0.10131898E+04</totfact>
</mgrwt>
</event>
<event>
 4    1  0.3147937E-004  0.2981636E+03  0.7818608E-02  0.1086162E+00
         -1   -1    0    0    0  501 -0.00000000000E+00  0.00000000000E+00  0.33159538636E+03  0.33159538640E+03  0.50400000000E-02 0.  1.
          1   -1    0    0  501    0  0.00000000000E+00 -0.00000000000E+00 -0.67025622793E+02  0.67025622983E+02  0.50400000000E-02 0. -1.
    5000001    1    1    2    0    0 -0.12002757552E+03  0.15722110293E+02  0.18646865854E+03  0.23527295691E+03  0.77000000000E+02 0.  0.
   -5000001    1    1    2    0    0  0.12002757552E+03 -0.15722110293E+02  0.78101105034E+02  0.16334805247E+03  0.77000000000E+02 0.  0.
<mgrwt>
<rscale>  0 0.29816363E+03</rscale>
<asrwt>0</asrwt>
<pdfrwt beam="1">  1        1 0.10311634E-01 0.29816363E+03</pdfrwt>
<pdfrwt beam="2">  1       -1 0.51014675E-01 0.29816363E+03</pdfrwt>
<totfact> 0.24344144E+03</totfact>
</mgrwt>
</event>
<event>
 4    1  0.3147937E-004  0.1856727E+03  0.7818608E-02  0.1162423E+00
          1   -1    0    0  501    0  0.00000000000E+00  0.00000000000E+00  0.90503449016E+03  0.90503449017E+03  0.50400000000E-02 0.  1.
         -1   -1    0    0    0  501 -0.00000000000E+00 -0.00000000000E+00 -0.95229381816E+01  0.95229395153E+01  0.50400000000E-02 0. -1.
    5000001    1    1    2    0    0  0.44328028133E+02  0.13781989725E+01  0.58017356734E+03  0.58693887395E+03  0.77000000000E+02 0.  0.
   -5000001    1    1    2    0    0 -0.44328028133E+02 -0.13781989725E+01  0.31533798464E+03  0.32761855574E+03  0.77000000000E+02 0.  0.
<mgrwt>
<rscale>  0 0.18567270E+03</rscale>
<asrwt>0</asrwt>
<pdfrwt beam="1">  1        1 0.13923612E+00 0.18567270E+03</pdfrwt>
<pdfrwt beam="2">  1       -1 0.14650670E-02 0.18567270E+03</pdfrwt>
<totfact> 0.19921447E+04</totfact>
</mgrwt>
</event>
<event>
 4    1  0.3147937E-004  0.1948754E+03  0.7818608E-02  0.1154136E+00
          1   -1    0    0  501    0  0.00000000000E+00  0.00000000000E+00  0.96387516260E+03  0.96387516261E+03  0.50400000000E-02 0.  1.
         -1   -1    0    0    0  501 -0.00000000000E+00 -0.00000000000E+00 -0.98499343637E+01  0.98499356531E+01  0.50400000000E-02 0. -1.
    5000001    1    1    2    0    0 -0.41492098167E+01  0.41847142545E+02  0.68880878057E+03  0.69437377217E+03  0.77000000000E+02 0.  0.
   -5000001    1    1    2    0    0  0.41492098167E+01 -0.41847142545E+02  0.26521644766E+03  0.27935132610E+03  0.77000000000E+02 0.  0.
<mgrwt>
<rscale>  0 0.19487542E+03</rscale>
<asrwt>0</asrwt>
<pdfrwt beam="1">  1        1 0.14828853E+00 0.19487542E+03</pdfrwt>
<pdfrwt beam="2">  1       -1 0.15153742E-02 0.19487542E+03</pdfrwt>
<totfact> 0.17160117E+04</totfact>
</mgrwt>
</event>
<event>
 4    1  0.3147937E-004  0.2333016E+03  0.7818608E-02  0.1124337E+00
         -1   -1    0    0    0  501 -0.00000000000E+00  0.00000000000E+00  0.84350394294E+02  0.84350394445E+02  0.50400000000E-02 0.  1.
          1   -1    0    0  501    0  0.00000000000E+00 -0.00000000000E+00 -0.16131999071E+03  0.16131999079E+03  0.50400000000E-02 0. -1.
    5000001    1    1    2    0    0 -0.73011489757E+02  0.45868153751E+02 -0.22041559769E+02  0.11768345475E+03  0.77000000000E+02 0.  0.
   -5000001    1    1    2    0    0  0.73011489757E+02 -0.45868153751E+02 -0.54928036651E+02  0.12798693049E+03  0.77000000000E+02 0.  0.
<mgrwt>
<rscale>  0 0.23330156E+03</rscale>
<asrwt>0</asrwt>
<pdfrwt beam="1">  1        1 0.24818460E-01 0.23330156E+03</pdfrwt>
<pdfrwt beam="2">  1       -1 0.12976984E-01 0.23330156E+03</pdfrwt>
<totfact> 0.76737755E+03</totfact>
</mgrwt>
</event>
<event>
 4    1  0.3147937E-004  0.6752032E+03  0.7818608E-02  0.9760604E-01
         -1   -1    0    0    0  501 -0.00000000000E+00  0.00000000000E+00  0.35120935598E+03  0.35120935601E+03  0.50400000000E-02 0.  1.
          1   -1    0    0  501    0  0.00000000000E+00 -0.00000000000E+00 -0.32452112124E+03  0.32452112128E+03  0.50400000000E-02 0. -1.
    5000001    1    1    2    0    0  0.10093858427E+03 -0.31244315340E+03  0.28735727353E+02  0.33847313620E+03  0.77000000000E+02 0.  0.
   -5000001    1    1    2    0    0 -0.10093858427E+03  0.31244315340E+03 -0.20474926190E+01  0.33725734110E+03  0.77000000000E+02 0.  0.
<mgrwt>
<rscale>  0 0.67520324E+03</rscale>
<asrwt>0</asrwt>
<pdfrwt beam="1">  1        1 0.49926326E-01 0.67520324E+03</pdfrwt>
<pdfrwt beam="2">  1       -1 0.54032209E-01 0.67520324E+03</pdfrwt>
<totfact> 0.27740347E+02</totfact>
</mgrwt>
</event>
<event>
 4    1  0.3147937E-004  0.2039147E+03  0.7818608E-02  0.1146478E+00
          1   -1    0    0  501    0  0.00000000000E+00  0.00000000000E+00  0.26584245732E+02  0.26584246210E+02  0.50400000000E-02 0.  1.
         -1   -1    0    0    0  501 -0.00000000000E+00 -0.00000000000E+00 -0.39103227176E+03  0.39103227180E+03  0.50400000000E-02 0. -1.
    5000001    1    1    2    0    0 -0.18713605522E+02  0.34474189381E+02 -0.71411898049E+02  0.11210409425E+03  0.77000000000E+02 0.  0.
   -5000001    1    1    2    0    0  0.18713605522E+02 -0.34474189381E+02 -0.29303612798E+03  0.30551242375E+03  0.77000000000E+02 0.  0.
<mgrwt>
<rscale>  0 0.20391467E+03</rscale>
<asrwt>0</asrwt>
<pdfrwt beam="1">  1        1 0.40898843E-02 0.20391467E+03</pdfrwt>
<pdfrwt beam="2">  1       -1 0.60158807E-01 0.20391467E+03</pdfrwt>
<totfact> 0.62341349E+03</totfact>
</mgrwt>
</event>
<event>
 4    1  0.3147937E-004  0.3667463E+03  0.7818608E-02  0.1055944E+00
         -1   -1    0    0    0  501 -0.00000000000E+00  0.00000000000E+00  0.33392806408E+02  0.33392806788E+02  0.50400000000E-02 0.  1.
          1   -1    0    0  501    0  0.00000000000E+00 -0.00000000000E+00 -0.10069747348E+04  0.10069747348E+04  0.50400000000E-02 0. -1.
    5000001    1    1    2    0    0  0.11184217877E+03  0.12220813563E+03 -0.53193106423E+03  0.56242613601E+03  0.77000000000E+02 0.  0.
   -5000001    1    1    2    0    0 -0.11184217877E+03 -0.12220813563E+03 -0.44165086414E+03  0.47794140557E+03  0.77000000000E+02 0.  0.
<mgrwt>
<rscale>  0 0.36674630E+03</rscale>
<asrwt>0</asrwt>
<pdfrwt beam="1">  1        1 0.15491917E+00 0.36674630E+03</pdfrwt>
<pdfrwt beam="2">  1       -1 0.51373556E-02 0.36674630E+03</pdfrwt>
<totfact> 0.26756294E+03</totfact>
</mgrwt>
</event>
<event>
 4    1  0.3147937E-004  0.2433994E+03  0.7818608E-02  0.1117549E+00
          1   -1    0    0  501    0  0.00000000000E+00  0.00000000000E+00  0.49086366755E+03  0.49086366758E+03  0.50400000000E-02 0.  1.
         -1   -1    0    0    0  501 -0.00000000000E+00 -0.00000000000E+00 -0.30172968684E+02  0.30172969105E+02  0.50400000000E-02 0. -1.
    5000001    1    1    2    0    0 -0.72638460128E+02 -0.35627387703E+02  0.12687882457E+03  0.16903518204E+03  0.77000000000E+02 0.  0.
   -5000001    1    1    2    0    0  0.72638460128E+02  0.35627387703E+02  0.33381187430E+03  0.35200145464E+03  0.77000000000E+02 0.  0.
<mgrwt>
<rscale>  0 0.24339938E+03</rscale>
<asrwt>0</asrwt>
<pdfrwt beam="1">  1        1 0.75517486E-01 0.24339938E+03</pdfrwt>
<pdfrwt beam="2">  1       -1 0.46419953E-02 0.24339938E+03</pdfrwt>
<totfact> 0.90038011E+03</totfact>
</mgrwt>
</event>
<event>
 4    1  0.3147937E-004  0.1930188E+03  0.7818608E-02  0.1155766E+00
         -1   -1    0    0    0  501 -0.00000000000E+00  0.00000000000E+00  0.91979787933E+01  0.91979801742E+01  0.50400000000E-02 0.  1.
          1   -1    0    0  501    0  0.00000000000E+00 -0.00000000000E+00 -0.10126210742E+04  0.10126210742E+04  0.50400000000E-02 0. -1.
    5000001    1    1    2    0    0 -0.45948052259E+02 -0.12463955482E+02 -0.32466348975E+03  0.33704889151E+03  0.77000000000E+02 0.  0.
   -5000001    1    1    2    0    0  0.45948052259E+02  0.12463955482E+02 -0.67875960566E+03  0.68477016288E+03  0.77000000000E+02 0.  0.
<mgrwt>
<rscale>  0 0.19301884E+03</rscale>
<asrwt>0</asrwt>
<pdfrwt beam="1">  1        1 0.15578777E+00 0.19301884E+03</pdfrwt>
<pdfrwt beam="2">  1       -1 0.14150746E-02 0.19301884E+03</pdfrwt>
<totfact> 0.17415862E+04</totfact>
</mgrwt>
</event>
<event>
 4    1  0.3147937E-004  0.2279798E+03  0.7818608E-02  0.1128070E+00
         -1   -1    0    0    0  501 -0.00000000000E+00  0.00000000000E+00  0.52709058022E+02  0.52709058263E+02  0.50400000000E-02 0.  1.
          1   -1    0    0  501    0  0.00000000000E+00 -0.00000000000E+00 -0.24651727652E+03  0.24651727658E+03  0.50400000000E-02 0. -1.
    5000001    1    1    2    0    0  0.31362336171E+02 -0.76423295007E+02 -0.11726190980E+03  0.16279886867E+03  0.77000000000E+02 0.  0.
   -5000001    1    1    2    0    0 -0.31362336171E+02  0.76423295007E+02 -0.76546308703E+02  0.13642746617E+03  0.77000000000E+02 0.  0.
<mgrwt>
<rscale>  0 0.22797977E+03</rscale>
<asrwt>0</asrwt>
<pdfrwt beam="1">  1        1 0.37925734E-01 0.22797977E+03</pdfrwt>
<pdfrwt beam="2">  1       -1 0.81090860E-02 0.22797977E+03</pdfrwt>
<totfact> 0.92905563E+03</totfact>
</mgrwt>
</event>
<event>
 4    1  0.3147937E-004  0.4465646E+03  0.7818608E-02  0.1028751E+00
         -1   -1    0    0    0  501 -0.00000000000E+00  0.00000000000E+00  0.42706624803E+02  0.42706625101E+02  0.50400000000E-02 0. -1.
          1   -1    0    0  501    0  0.00000000000E+00 -0.00000000000E+00 -0.11673830801E+04  0.11673830801E+04  0.50400000000E-02 0.  1.
    5000001    1    1    2    0    0 -0.20050719685E+03 -0.38364058547E+02 -0.69090426081E+03  0.72453615133E+03  0.77000000000E+02 0.  0.
   -5000001    1    1    2    0    0  0.20050719685E+03  0.38364058547E+02 -0.43377219448E+03  0.48555355388E+03  0.77000000000E+02 0.  0.
<mgrwt>
<rscale>  0 0.44656463E+03</rscale>
<asrwt>0</asrwt>
<pdfrwt beam="1">  1        1 0.17959737E+00 0.44656463E+03</pdfrwt>
<pdfrwt beam="2">  1       -1 0.65702509E-02 0.44656463E+03</pdfrwt>
<totfact> 0.14003122E+03</totfact>
</mgrwt>
</event>
<event>
 4    1  0.3147937E-004  0.4522622E+03  0.7818608E-02  0.1027050E+00
         -1   -1    0    0    0  501 -0.00000000000E+00  0.00000000000E+00  0.12146890763E+03  0.12146890773E+03  0.50400000000E-02 0. -1.
          1   -1    0    0  501    0  0.00000000000E+00 -0.00000000000E+00 -0.42097416658E+03  0.42097416661E+03  0.50400000000E-02 0.  1.
    5000001    1    1    2    0    0  0.15315964870E+03 -0.13170685390E+03 -0.70178105471E+02  0.22728515095E+03  0.77000000000E+02 0.  0.
   -5000001    1    1    2    0    0 -0.15315964870E+03  0.13170685390E+03 -0.22932715348E+03  0.31515792339E+03  0.77000000000E+02 0.  0.
<mgrwt>
<rscale>  0 0.45226219E+03</rscale>
<asrwt>0</asrwt>
<pdfrwt beam="1">  1        1 0.64765256E-01 0.45226219E+03</pdfrwt>
<pdfrwt beam="2">  1       -1 0.18687525E-01 0.45226219E+03</pdfrwt>
<totfact> 0.12822323E+03</totfact>
</mgrwt>
</event>
<event>
 4    1  0.3147937E-004  0.2138075E+03  0.7818608E-02  0.1138586E+00
         -1   -1    0    0    0  501 -0.00000000000E+00  0.00000000000E+00  0.12533069963E+03  0.12533069974E+03  0.50400000000E-02 0. -1.
          1   -1    0    0  501    0  0.00000000000E+00 -0.00000000000E+00 -0.91186072806E+02  0.91186072945E+02  0.50400000000E-02 0.  1.
    5000001    1    1    2    0    0  0.10062555392E+02 -0.51954027394E+02  0.69681918600E+02  0.11655490450E+03  0.77000000000E+02 0.  0.
   -5000001    1    1    2    0    0 -0.10062555392E+02  0.51954027394E+02 -0.35537291772E+02  0.99961868180E+02  0.77000000000E+02 0.  0.
<mgrwt>
<rscale>  0 0.21380752E+03</rscale>
<asrwt>0</asrwt>
<pdfrwt beam="1">  1        1 0.14028627E-01 0.21380752E+03</pdfrwt>
<pdfrwt beam="2">  1       -1 0.19281646E-01 0.21380752E+03</pdfrwt>
<totfact> 0.84994471E+03</totfact>
</mgrwt>
</event>
<event>
 4    1  0.3147937E-004  0.4330979E+03  0.7818608E-02  0.1032886E+00
         -1   -1    0    0    0  501 -0.00000000000E+00  0.00000000000E+00  0.23306833792E+03  0.23306833798E+03  0.50400000000E-02 0. -1.
          1   -1    0    0  501    0  0.00000000000E+00 -0.00000000000E+00 -0.20120042574E+03  0.20120042581E+03  0.50400000000E-02 0.  1.
    5000001    1    1    2    0    0  0.41220923576E+02 -0.16362399769E+03 -0.96137933974E+02  0.20891021878E+03  0.77000000000E+02 0.  0.
   -5000001    1    1    2    0    0 -0.41220923576E+02  0.16362399769E+03  0.12800584615E+03  0.22535854501E+03  0.77000000000E+02 0.  0.
<mgrwt>
<rscale>  0 0.43309791E+03</rscale>
<asrwt>0</asrwt>
<pdfrwt beam="1">  1        1 0.30953912E-01 0.43309791E+03</pdfrwt>
<pdfrwt beam="2">  1       -1 0.35856667E-01 0.43309791E+03</pdfrwt>
<totfact> 0.10960199E+03</totfact>
</mgrwt>
</event>
<event>
 4    1  0.3147937E-004  0.2308298E+03  0.7818608E-02  0.1126057E+00
         -1   -1    0    0    0  501 -0.00000000000E+00  0.00000000000E+00  0.10265885128E+02  0.10265886365E+02  0.50400000000E-02 0. -1.
          1   -1    0    0  501    0  0.00000000000E+00 -0.00000000000E+00 -0.12975596985E+04  0.12975596985E+04  0.50400000000E-02 0.  1.
    5000001    1    1    2    0    0 -0.31026819046E+02 -0.73125793874E+02 -0.45731718746E+03  0.47050829449E+03  0.77000000000E+02 0.  0.
   -5000001    1    1    2    0    0  0.31026819046E+02  0.73125793874E+02 -0.82997662589E+03  0.83731729037E+03  0.77000000000E+02 0.  0.
<mgrwt>
<rscale>  0 0.23082980E+03</rscale>
<asrwt>0</asrwt>
<pdfrwt beam="1">  1        1 0.19962444E+00 0.23082980E+03</pdfrwt>
<pdfrwt beam="2">  1       -1 0.15793681E-02 0.23082980E+03</pdfrwt>
<totfact> 0.94303748E+03</totfact>
</mgrwt>
</event>
<event>
 4    1  0.3147937E-004  0.3686178E+03  0.7818608E-02  0.1055223E+00
          1   -1    0    0  501    0  0.00000000000E+00  0.00000000000E+00  0.73548072153E+03  0.73548072155E+03  0.50400000000E-02 0.  1.
         -1   -1    0    0    0  501 -0.00000000000E+00 -0.00000000000E+00 -0.46187168883E+02  0.46187169158E+02  0.50400000000E-02 0. -1.
    5000001    1    1    2    0    0  0.14947396699E+03 -0.20649914052E+02  0.19067930038E+03  0.25506172067E+03  0.77000000000E+02 0.  0.
   -5000001    1    1    2    0    0 -0.14947396699E+03  0.20649914052E+02  0.49861425227E+03  0.52660617004E+03  0.77000000000E+02 0.  0.
<mgrwt>
<rscale>  0 0.36861781E+03</rscale>
<asrwt>0</asrwt>
<pdfrwt beam="1">  1        1 0.11315088E+00 0.36861781E+03</pdfrwt>
<pdfrwt beam="2">  1       -1 0.71057185E-02 0.36861781E+03</pdfrwt>
<totfact> 0.27135370E+03</totfact>
</mgrwt>
</event>
<event>
 4    1  0.3147937E-004  0.1951668E+03  0.7818608E-02  0.1153882E+00
          1   -1    0    0  501    0  0.00000000000E+00  0.00000000000E+00  0.27899238040E+03  0.27899238045E+03  0.50400000000E-02 0.  1.
         -1   -1    0    0    0  501 -0.00000000000E+00 -0.00000000000E+00 -0.34131823427E+02  0.34131823799E+02  0.50400000000E-02 0. -1.
    5000001    1    1    2    0    0  0.34843034530E+02  0.45566252093E+02  0.94493640524E+02  0.13471588060E+03  0.77000000000E+02 0.  0.
   -5000001    1    1    2    0    0 -0.34843034530E+02 -0.45566252093E+02  0.15036691645E+03  0.17840832365E+03  0.77000000000E+02 0.  0.
<mgrwt>
<rscale>  0 0.19516679E+03</rscale>
<asrwt>0</asrwt>
<pdfrwt beam="1">  1        1 0.42921906E-01 0.19516679E+03</pdfrwt>
<pdfrwt beam="2">  1       -1 0.52510496E-02 0.19516679E+03</pdfrwt>
<totfact> 0.15181012E+04</totfact>
</mgrwt>
</event>
<event>
 4    1  0.3147937E-004  0.4793179E+03  0.7818608E-02  0.1019323E+00
          1   -1    0    0  501    0  0.00000000000E+00  0.00000000000E+00  0.28972518502E+03  0.28972518507E+03  0.50400000000E-02 0.  1.
         -1   -1    0    0    0  501 -0.00000000000E+00 -0.00000000000E+00 -0.19824444540E+03  0.19824444547E+03  0.50400000000E-02 0. -1.
    5000001    1    1    2    0    0  0.19400689762E+03 -0.11710208786E+03  0.33031721781E+02  0.24160229708E+03  0.77000000000E+02 0.  0.
   -5000001    1    1    2    0    0 -0.19400689762E+03  0.11710208786E+03  0.58449017841E+02  0.24636733346E+03  0.77000000000E+02 0.  0.
<mgrwt>
<rscale>  0 0.47931788E+03</rscale>
<asrwt>0</asrwt>
<pdfrwt beam="1">  1        1 0.44573106E-01 0.47931788E+03</pdfrwt>
<pdfrwt beam="2">  1       -1 0.30499145E-01 0.47931788E+03</pdfrwt>
<totfact> 0.91251256E+02</totfact>
</mgrwt>
</event>
<event>
 4    1  0.3147937E-004  0.3645702E+03  0.7818608E-02  0.1056789E+00
          1   -1    0    0  501    0  0.00000000000E+00  0.00000000000E+00  0.28090133416E+04  0.28090133416E+04  0.50400000000E-02 0.  1.
         -1   -1    0    0    0  501 -0.00000000000E+00 -0.00000000000E+00 -0.11829013961E+02  0.11829015035E+02  0.50400000000E-02 0. -1.
    5000001    1    1    2    0    0 -0.86412843976E+02 -0.13584407028E+03  0.11113600173E+04  0.11255980096E+04  0.77000000000E+02 0.  0.
   -5000001    1    1    2    0    0  0.86412843976E+02  0.13584407028E+03  0.16858243103E+04  0.16952443471E+04  0.77000000000E+02 0.  0.
<mgrwt>
<rscale>  0 0.36457021E+03</rscale>
<asrwt>0</asrwt>
<pdfrwt beam="1">  1        1 0.43215674E+00 0.36457021E+03</pdfrwt>
<pdfrwt beam="2">  1       -1 0.18198449E-02 0.36457021E+03</pdfrwt>
<totfact> 0.76332251E+02</totfact>
</mgrwt>
</event>
<event>
 4    1  0.3147937E-004  0.2304574E+03  0.7818608E-02  0.1126318E+00
         -1   -1    0    0    0  501 -0.00000000000E+00  0.00000000000E+00  0.18949814142E+02  0.18949814812E+02  0.50400000000E-02 0. -1.
          1   -1    0    0  501    0  0.00000000000E+00 -0.00000000000E+00 -0.70067437153E+03  0.70067437155E+03  0.50400000000E-02 0.  1.
    5000001    1    1    2    0    0 -0.15911100345E+02 -0.77283754675E+02 -0.44549041082E+03  0.45892989441E+03  0.77000000000E+02 0.  0.
   -5000001    1    1    2    0    0  0.15911100345E+02  0.77283754675E+02 -0.23623414657E+03  0.26069429195E+03  0.77000000000E+02 0.  0.
<mgrwt>
<rscale>  0 0.23045737E+03</rscale>
<asrwt>0</asrwt>
<pdfrwt beam="1">  1        1 0.10779604E+00 0.23045737E+03</pdfrwt>
<pdfrwt beam="2">  1       -1 0.29153566E-02 0.23045737E+03</pdfrwt>
<totfact> 0.10946012E+04</totfact>
</mgrwt>
</event>
<event>
 4    1  0.3147937E-004  0.1688274E+03  0.7818608E-02  0.1179076E+00
          1   -1    0    0  501    0  0.00000000000E+00  0.00000000000E+00  0.55818930251E+03  0.55818930254E+03  0.50400000000E-02 0.  1.
         -1   -1    0    0    0  501 -0.00000000000E+00 -0.00000000000E+00 -0.12765696395E+02  0.12765697390E+02  0.50400000000E-02 0. -1.
    5000001    1    1    2    0    0 -0.15616811510E+02  0.30585218696E+02  0.28679241249E+03  0.29892846680E+03  0.77000000000E+02 0.  0.
   -5000001    1    1    2    0    0  0.15616811510E+02 -0.30585218696E+02  0.25863119363E+03  0.27202653312E+03  0.77000000000E+02 0.  0.
<mgrwt>
<rscale>  0 0.16882743E+03</rscale>
<asrwt>0</asrwt>
<pdfrwt beam="1">  1        1 0.85875267E-01 0.16882743E+03</pdfrwt>
<pdfrwt beam="2">  1       -1 0.19639536E-02 0.16882743E+03</pdfrwt>
<totfact> 0.26214940E+04</totfact>
</mgrwt>
</event>
<event>
 4    1  0.3147937E-004  0.1949899E+03  0.7818608E-02  0.1154036E+00
         -1   -1    0    0    0  501 -0.00000000000E+00  0.00000000000E+00  0.63656562984E+02  0.63656563183E+02  0.50400000000E-02 0. -1.
          1   -1    0    0  501    0  0.00000000000E+00 -0.00000000000E+00 -0.14932109467E+03  0.14932109476E+03  0.50400000000E-02 0.  1.
    5000001    1    1    2    0    0 -0.23662872137E+02  0.53973910943E+02 -0.31738907178E+02  0.10202682397E+03  0.77000000000E+02 0.  0.
   -5000001    1    1    2    0    0  0.23662872137E+02 -0.53973910943E+02 -0.53925624511E+02  0.11095083397E+03  0.77000000000E+02 0.  0.
<mgrwt>
<rscale>  0 0.19498992E+03</rscale>
<asrwt>0</asrwt>
<pdfrwt beam="1">  1        1 0.22972476E-01 0.19498992E+03</pdfrwt>
<pdfrwt beam="2">  1       -1 0.97933174E-02 0.19498992E+03</pdfrwt>
<totfact> 0.12956687E+04</totfact>
</mgrwt>
</event>
<event>
 4    1  0.3147937E-004  0.1621570E+03  0.7818608E-02  0.1186283E+00
          1   -1    0    0  501    0  0.00000000000E+00  0.00000000000E+00  0.27197972089E+02  0.27197972556E+02  0.50400000000E-02 0.  1.
         -1   -1    0    0    0  501 -0.00000000000E+00 -0.00000000000E+00 -0.24169890193E+03  0.24169890198E+03  0.50400000000E-02 0. -1.
    5000001    1    1    2    0    0  0.16239423395E+02  0.19378638967E+02 -0.11112862276E+03  0.13754207108E+03  0.77000000000E+02 0.  0.
   -5000001    1    1    2    0    0 -0.16239423395E+02 -0.19378638967E+02 -0.10337230708E+03  0.13135480346E+03  0.77000000000E+02 0.  0.
<mgrwt>
<rscale>  0 0.16215696E+03</rscale>
<asrwt>0</asrwt>
<pdfrwt beam="1">  1        1 0.41843036E-02 0.16215696E+03</pdfrwt>
<pdfrwt beam="2">  1       -1 0.37184445E-01 0.16215696E+03</pdfrwt>
<totfact> 0.14257829E+04</totfact>
</mgrwt>
</event>
<event>
 4    1  0.3147937E-004  0.2954924E+03  0.7818608E-02  0.1087516E+00
          1   -1    0    0  501    0  0.00000000000E+00  0.00000000000E+00  0.14603724130E+04  0.14603724130E+04  0.50400000000E-02 0.  1.
         -1   -1    0    0    0  501 -0.00000000000E+00 -0.00000000000E+00 -0.14947510337E+02  0.14947511187E+02  0.50400000000E-02 0. -1.
    5000001    1    1    2    0    0  0.88520467758E+02 -0.44786142336E+02  0.33410247977E+03  0.35692455609E+03  0.77000000000E+02 0.  0.
   -5000001    1    1    2    0    0 -0.88520467758E+02  0.44786142336E+02  0.11113224229E+04  0.11183953681E+04  0.77000000000E+02 0.  0.
<mgrwt>
<rscale>  0 0.29549235E+03</rscale>
<asrwt>0</asrwt>
<pdfrwt beam="1">  1        1 0.22467267E+00 0.29549235E+03</pdfrwt>
<pdfrwt beam="2">  1       -1 0.22996172E-02 0.29549235E+03</pdfrwt>
<totfact> 0.42513454E+03</totfact>
</mgrwt>
</event>
<event>
 4    1  0.3147937E-004  0.4271269E+03  0.7818608E-02  0.1034771E+00
          1   -1    0    0  501    0  0.00000000000E+00  0.00000000000E+00  0.16164998335E+04  0.16164998335E+04  0.50400000000E-02 0. -1.
         -1   -1    0    0    0  501 -0.00000000000E+00 -0.00000000000E+00 -0.28214882575E+02  0.28214883025E+02  0.50400000000E-02 0.  1.
    5000001    1    1    2    0    0  0.16946500374E+03  0.10227722911E+03  0.88036035231E+03  0.90561712054E+03  0.77000000000E+02 0.  0.
   -5000001    1    1    2    0    0 -0.16946500374E+03 -0.10227722911E+03  0.70792459858E+03  0.73909759596E+03  0.77000000000E+02 0.  0.
<mgrwt>
<rscale>  0 0.42712693E+03</rscale>
<asrwt>0</asrwt>
<pdfrwt beam="1">  1        1 0.24869231E+00 0.42712693E+03</pdfrwt>
<pdfrwt beam="2">  1       -1 0.43407506E-02 0.42712693E+03</pdfrwt>
<totfact> 0.12949421E+03</totfact>
</mgrwt>
</event>
<event>
 4    1  0.3147937E-004  0.1633048E+03  0.7818608E-02  0.1185015E+00
         -1   -1    0    0    0  501 -0.00000000000E+00  0.00000000000E+00  0.15361105344E+03  0.15361105352E+03  0.50400000000E-02 0.  1.
          1   -1    0    0  501    0  0.00000000000E+00 -0.00000000000E+00 -0.43402567572E+02  0.43402567864E+02  0.50400000000E-02 0. -1.
    5000001    1    1    2    0    0 -0.24674726915E+02 -0.30261807335E+01  0.41882321526E+02  0.91110530536E+02  0.77000000000E+02 0.  0.
   -5000001    1    1    2    0    0  0.24674726915E+02  0.30261807335E+01  0.68326164343E+02  0.10590309085E+03  0.77000000000E+02 0.  0.
<mgrwt>
<rscale>  0 0.16330480E+03</rscale>
<asrwt>0</asrwt>
<pdfrwt beam="1">  1        1 0.66773182E-02 0.16330480E+03</pdfrwt>
<pdfrwt beam="2">  1       -1 0.23632470E-01 0.16330480E+03</pdfrwt>
<totfact> 0.16145558E+04</totfact>
</mgrwt>
</event>
<event>
 4    1  0.3147937E-004  0.1610521E+03  0.7818608E-02  0.1187514E+00
         -1   -1    0    0    0  501 -0.00000000000E+00  0.00000000000E+00  0.98540542176E+01  0.98540555064E+01  0.50400000000E-02 0.  1.
          1   -1    0    0  501    0  0.00000000000E+00 -0.00000000000E+00 -0.65804833090E+03  0.65804833092E+03  0.50400000000E-02 0. -1.
    5000001    1    1    2    0    0  0.23261989170E+02 -0.37017635477E+01 -0.32082860301E+03  0.33077910409E+03  0.77000000000E+02 0.  0.
   -5000001    1    1    2    0    0 -0.23261989170E+02  0.37017635477E+01 -0.32736567367E+03  0.33712328233E+03  0.77000000000E+02 0.  0.
<mgrwt>
<rscale>  0 0.16105210E+03</rscale>
<asrwt>0</asrwt>
<pdfrwt beam="1">  1        1 0.10123817E+00 0.16105210E+03</pdfrwt>
<pdfrwt beam="2">  1       -1 0.15160090E-02 0.16105210E+03</pdfrwt>
<totfact> 0.30264543E+04</totfact>
</mgrwt>
</event>
<event>
 4    1  0.3147937E-004  0.1913670E+03  0.7818608E-02  0.1157234E+00
         -1   -1    0    0    0  501 -0.00000000000E+00  0.00000000000E+00  0.64453243361E+02  0.64453243558E+02  0.50400000000E-02 0.  1.
          1   -1    0    0  501    0  0.00000000000E+00 -0.00000000000E+00 -0.14204617126E+03  0.14204617135E+03  0.50400000000E-02 0. -1.
    5000001    1    1    2    0    0  0.61350458158E+01 -0.46688356476E+02 -0.73071243628E+02  0.11612858418E+03  0.77000000000E+02 0.  0.
   -5000001    1    1    2    0    0 -0.61350458158E+01  0.46688356476E+02 -0.45216842682E+01  0.90370830727E+02  0.77000000000E+02 0.  0.
<mgrwt>
<rscale>  0 0.19136704E+03</rscale>
<asrwt>0</asrwt>
<pdfrwt beam="1">  1        1 0.21853257E-01 0.19136704E+03</pdfrwt>
<pdfrwt beam="2">  1       -1 0.99158837E-02 0.19136704E+03</pdfrwt>
<totfact> 0.13527581E+04</totfact>
</mgrwt>
</event>
<event>
 4    1  0.3147937E-004  0.2826512E+03  0.7818608E-02  0.1094250E+00
          1   -1    0    0  501    0  0.00000000000E+00  0.00000000000E+00  0.18395253627E+04  0.18395253627E+04  0.50400000000E-02 0.  1.
         -1   -1    0    0    0  501 -0.00000000000E+00 -0.00000000000E+00 -0.10857651417E+02  0.10857652587E+02  0.50400000000E-02 0. -1.
    5000001    1    1    2    0    0  0.10163305147E+03 -0.53675799987E+02  0.72532654854E+03  0.73840230950E+03  0.77000000000E+02 0.  0.
   -5000001    1    1    2    0    0 -0.10163305147E+03  0.53675799987E+02  0.11033411627E+04  0.11119807058E+04  0.77000000000E+02 0.  0.
<mgrwt>
<rscale>  0 0.28265121E+03</rscale>
<asrwt>0</asrwt>
<pdfrwt beam="1">  1        1 0.28300389E+00 0.28265121E+03</pdfrwt>
<pdfrwt beam="2">  1       -1 0.16704081E-02 0.28265121E+03</pdfrwt>
<totfact> 0.38264602E+03</totfact>
</mgrwt>
</event>
<event>
 4    1  0.3147937E-004  0.2989917E+03  0.7818608E-02  0.1085746E+00
          1   -1    0    0  501    0  0.00000000000E+00  0.00000000000E+00  0.27293464577E+04  0.27293464577E+04  0.50400000000E-02 0.  1.
         -1   -1    0    0    0  501 -0.00000000000E+00 -0.00000000000E+00 -0.81884088397E+01  0.81884103908E+01  0.50400000000E-02 0. -1.
    5000001    1    1    2    0    0 -0.58740686053E+02  0.84609099799E+02  0.20585220389E+04  0.20625351276E+04  0.77000000000E+02 0.  0.
   -5000001    1    1    2    0    0  0.58740686053E+02 -0.84609099799E+02  0.66263600998E+03  0.67499974051E+03  0.77000000000E+02 0.  0.
<mgrwt>
<rscale>  0 0.29899168E+03</rscale>
<asrwt>0</asrwt>
<pdfrwt beam="1">  1        1 0.41989957E+00 0.29899168E+03</pdfrwt>
<pdfrwt beam="2">  1       -1 0.12597550E-02 0.29899168E+03</pdfrwt>
<totfact> 0.14931725E+03</totfact>
</mgrwt>
</event>
<event>
 4    1  0.3147937E-004  0.3712874E+03  0.7818608E-02  0.1054202E+00
         -1   -1    0    0    0  501 -0.00000000000E+00  0.00000000000E+00  0.87989217550E+03  0.87989217552E+03  0.50400000000E-02 0. -1.
          1   -1    0    0  501    0  0.00000000000E+00 -0.00000000000E+00 -0.39167951944E+02  0.39167952268E+02  0.50400000000E-02 0.  1.
    5000001    1    1    2    0    0 -0.71530571816E+02  0.93139404181E+02  0.11980517887E+03  0.18459104041E+03  0.77000000000E+02 0.  0.
   -5000001    1    1    2    0    0  0.71530571816E+02 -0.93139404181E+02  0.72091904469E+03  0.73446908738E+03  0.77000000000E+02 0.  0.
<mgrwt>
<rscale>  0 0.37128735E+03</rscale>
<asrwt>0</asrwt>
<pdfrwt beam="1">  1        1 0.60258389E-02 0.37128735E+03</pdfrwt>
<pdfrwt beam="2">  1       -1 0.13536802E+00 0.37128735E+03</pdfrwt>
<totfact> 0.63317947E+02</totfact>
</mgrwt>
</event>
<event>
 4    1  0.3147937E-004  0.2095177E+03  0.7818608E-02  0.1141948E+00
          1   -1    0    0  501    0  0.00000000000E+00  0.00000000000E+00  0.14236094668E+03  0.14236094677E+03  0.50400000000E-02 0.  1.
         -1   -1    0    0    0  501 -0.00000000000E+00 -0.00000000000E+00 -0.77088710759E+02  0.77088710923E+02  0.50400000000E-02 0. -1.
    5000001    1    1    2    0    0  0.20104633392E+02  0.64609131609E+02  0.10004303598E+02  0.10299331173E+03  0.77000000000E+02 0.  0.
   -5000001    1    1    2    0    0 -0.20104633392E+02 -0.64609131609E+02  0.55267932322E+02  0.11645634596E+03  0.77000000000E+02 0.  0.
<mgrwt>
<rscale>  0 0.20951775E+03</rscale>
<asrwt>0</asrwt>
<pdfrwt beam="1">  1        1 0.21901684E-01 0.20951775E+03</pdfrwt>
<pdfrwt beam="2">  1       -1 0.11859802E-01 0.20951775E+03</pdfrwt>
<totfact> 0.10291869E+04</totfact>
</mgrwt>
</event>
<event>
 4    1  0.3147937E-004  0.2429074E+03  0.7818608E-02  0.1117871E+00
          1   -1    0    0  501    0  0.00000000000E+00  0.00000000000E+00  0.17864867955E+03  0.17864867962E+03  0.50400000000E-02 0.  1.
         -1   -1    0    0    0  501 -0.00000000000E+00 -0.00000000000E+00 -0.82569853111E+02  0.82569853264E+02  0.50400000000E-02 0. -1.
    5000001    1    1    2    0    0 -0.88693477322E+02 -0.27242849366E+02  0.32334047152E+02  0.12483267347E+03  0.77000000000E+02 0.  0.
   -5000001    1    1    2    0    0  0.88693477322E+02  0.27242849366E+02  0.63744779284E+02  0.13638585941E+03  0.77000000000E+02 0.  0.
<mgrwt>
<rscale>  0 0.24290735E+03</rscale>
<asrwt>0</asrwt>
<pdfrwt beam="1">  1        1 0.27484412E-01 0.24290735E+03</pdfrwt>
<pdfrwt beam="2">  1       -1 0.12703055E-01 0.24290735E+03</pdfrwt>
<totfact> 0.69851377E+03</totfact>
</mgrwt>
</event>
<event>
 4    1  0.3147937E-004  0.2832270E+03  0.7818608E-02  0.1093939E+00
         -1   -1    0    0    0  501 -0.00000000000E+00  0.00000000000E+00  0.19735328814E+02  0.19735329457E+02  0.50400000000E-02 0.  1.
          1   -1    0    0  501    0  0.00000000000E+00 -0.00000000000E+00 -0.10161667145E+04  0.10161667145E+04  0.50400000000E-02 0. -1.
    5000001    1    1    2    0    0  0.72431189355E+02  0.92833065413E+02 -0.43911237344E+03  0.46109969826E+03  0.77000000000E+02 0.  0.
   -5000001    1    1    2    0    0 -0.72431189355E+02 -0.92833065413E+02 -0.55731901226E+03  0.57480234573E+03  0.77000000000E+02 0.  0.
<mgrwt>
<rscale>  0 0.28322701E+03</rscale>
<asrwt>0</asrwt>
<pdfrwt beam="1">  1        1 0.15633330E+00 0.28322701E+03</pdfrwt>
<pdfrwt beam="2">  1       -1 0.30362053E-02 0.28322701E+03</pdfrwt>
<totfact> 0.57637464E+03</totfact>
</mgrwt>
</event>
<event>
 4    1  0.3147937E-004  0.2019350E+03  0.7818608E-02  0.1148117E+00
         -1   -1    0    0    0  501 -0.00000000000E+00  0.00000000000E+00  0.28119018449E+03  0.28119018454E+03  0.50400000000E-02 0. -1.
          1   -1    0    0  501    0  0.00000000000E+00 -0.00000000000E+00 -0.36254596192E+02  0.36254596542E+02  0.50400000000E-02 0.  1.
    5000001    1    1    2    0    0 -0.12739165715E+02  0.29215660519E+02  0.21208083856E+03  0.22786645924E+03  0.77000000000E+02 0.  0.
   -5000001    1    1    2    0    0  0.12739165715E+02 -0.29215660519E+02  0.32854749738E+02  0.89578321837E+02  0.77000000000E+02 0.  0.
<mgrwt>
<rscale>  0 0.20193501E+03</rscale>
<asrwt>0</asrwt>
<pdfrwt beam="1">  1        1 0.55776303E-02 0.20193501E+03</pdfrwt>
<pdfrwt beam="2">  1       -1 0.43260028E-01 0.20193501E+03</pdfrwt>
<totfact> 0.74706289E+03</totfact>
</mgrwt>
</event>
<event>
 4    1  0.3147937E-004  0.2731134E+03  0.7818608E-02  0.1099511E+00
          1   -1    0    0  501    0  0.00000000000E+00  0.00000000000E+00  0.18113129066E+03  0.18113129073E+03  0.50400000000E-02 0.  1.
         -1   -1    0    0    0  501 -0.00000000000E+00 -0.00000000000E+00 -0.10295147833E+03  0.10295147845E+03  0.50400000000E-02 0. -1.
    5000001    1    1    2    0    0 -0.10299310021E+03  0.10517800938E+02  0.85613637878E+02  0.15484475392E+03  0.77000000000E+02 0.  0.
   -5000001    1    1    2    0    0  0.10299310021E+03 -0.10517800938E+02 -0.74338255386E+01  0.12923801526E+03  0.77000000000E+02 0.  0.
<mgrwt>
<rscale>  0 0.27311341E+03</rscale>
<asrwt>0</asrwt>
<pdfrwt beam="1">  1        1 0.27866352E-01 0.27311341E+03</pdfrwt>
<pdfrwt beam="2">  1       -1 0.15838689E-01 0.27311341E+03</pdfrwt>
<totfact> 0.48671581E+03</totfact>
</mgrwt>
</event>
<event>
 4    1  0.3147937E-004  0.1291066E+04  0.7818608E-02  0.9036680E-01
         -1   -1    0    0    0  501 -0.00000000000E+00  0.00000000000E+00  0.26480114222E+03  0.26480114227E+03  0.50400000000E-02 0. -1.
          1   -1    0    0  501    0  0.00000000000E+00 -0.00000000000E+00 -0.15736817646E+04  0.15736817646E+04  0.50400000000E-02 0.  1.
    5000001    1    1    2    0    0 -0.60905790089E+03 -0.19067623888E+03 -0.57049924030E+03  0.85948085371E+03  0.77000000000E+02 0.  0.
   -5000001    1    1    2    0    0  0.60905790089E+03  0.19067623888E+03 -0.73838138210E+03  0.97900205319E+03  0.77000000000E+02 0.  0.
<mgrwt>
<rscale>  0 0.12910658E+04</rscale>
<asrwt>0</asrwt>
<pdfrwt beam="1">  1        1 0.24210488E+00 0.12910658E+04</pdfrwt>
<pdfrwt beam="2">  1       -1 0.40738638E-01 0.12910658E+04</pdfrwt>
<totfact> 0.33686084E+01</totfact>
</mgrwt>
</event>
<event>
 4    1  0.3147937E-004  0.1966595E+03  0.7818608E-02  0.1152588E+00
          1   -1    0    0  501    0  0.00000000000E+00  0.00000000000E+00  0.27850171805E+03  0.27850171810E+03  0.50400000000E-02 0. -1.
         -1   -1    0    0    0  501 -0.00000000000E+00 -0.00000000000E+00 -0.34716999506E+02  0.34716999872E+02  0.50400000000E-02 0.  1.
    5000001    1    1    2    0    0  0.15080232158E+02 -0.44872094419E+02  0.18355303241E+03  0.20460115828E+03  0.77000000000E+02 0.  0.
   -5000001    1    1    2    0    0 -0.15080232158E+02  0.44872094419E+02  0.60231686131E+02  0.10861755969E+03  0.77000000000E+02 0.  0.
<mgrwt>
<rscale>  0 0.19665954E+03</rscale>
<asrwt>0</asrwt>
<pdfrwt beam="1">  1        1 0.42846419E-01 0.19665954E+03</pdfrwt>
<pdfrwt beam="2">  1       -1 0.53410768E-02 0.19665954E+03</pdfrwt>
<totfact> 0.14840876E+04</totfact>
</mgrwt>
</event>
<event>
 4    1  0.3147937E-004  0.1902431E+03  0.7818608E-02  0.1158242E+00
         -1   -1    0    0    0  501 -0.00000000000E+00  0.00000000000E+00  0.15144774617E+03  0.15144774625E+03  0.50400000000E-02 0.  1.
          1   -1    0    0  501    0  0.00000000000E+00 -0.00000000000E+00 -0.59744094565E+02  0.59744094777E+02  0.50400000000E-02 0. -1.
    5000001    1    1    2    0    0 -0.14277354608E+02 -0.53974090602E+02  0.47446374322E+02  0.10628830485E+03  0.77000000000E+02 0.  0.
   -5000001    1    1    2    0    0  0.14277354608E+02  0.53974090602E+02  0.44257277279E+02  0.10490353618E+03  0.77000000000E+02 0.  0.
<mgrwt>
<rscale>  0 0.19024309E+03</rscale>
<asrwt>0</asrwt>
<pdfrwt beam="1">  1        1 0.91913994E-02 0.19024309E+03</pdfrwt>
<pdfrwt beam="2">  1       -1 0.23299653E-01 0.19024309E+03</pdfrwt>
<totfact> 0.10867136E+04</totfact>
</mgrwt>
</event>
<event>
 4    1  0.3147937E-004  0.2135465E+03  0.7818608E-02  0.1138788E+00
         -1   -1    0    0    0  501 -0.00000000000E+00  0.00000000000E+00  0.69700172100E+02  0.69700172282E+02  0.50400000000E-02 0.  1.
          1   -1    0    0  501    0  0.00000000000E+00 -0.00000000000E+00 -0.16356522395E+03  0.16356522403E+03  0.50400000000E-02 0. -1.
    5000001    1    1    2    0    0  0.66908948026E+02 -0.27133919030E+02 -0.64493993190E+02  0.12369936154E+03  0.77000000000E+02 0.  0.
   -5000001    1    1    2    0    0 -0.66908948026E+02  0.27133919030E+02 -0.29371058659E+02  0.10956603477E+03  0.77000000000E+02 0.  0.
<mgrwt>
<rscale>  0 0.21354648E+03</rscale>
<asrwt>0</asrwt>
<pdfrwt beam="1">  1        1 0.25163880E-01 0.21354648E+03</pdfrwt>
<pdfrwt beam="2">  1       -1 0.10723103E-01 0.21354648E+03</pdfrwt>
<totfact> 0.10095997E+04</totfact>
</mgrwt>
</event>
<event>
 4    1  0.3147937E-004  0.3052526E+03  0.7818608E-02  0.1082644E+00
          1   -1    0    0  501    0  0.00000000000E+00  0.00000000000E+00  0.24186866993E+02  0.24186867518E+02  0.50400000000E-02 0.  1.
         -1   -1    0    0    0  501 -0.00000000000E+00 -0.00000000000E+00 -0.96311736507E+03  0.96311736508E+03  0.50400000000E-02 0. -1.
    5000001    1    1    2    0    0 -0.33727391552E+02 -0.12735818646E+03 -0.46023320732E+03  0.48487240561E+03  0.77000000000E+02 0.  0.
   -5000001    1    1    2    0    0  0.33727391552E+02  0.12735818646E+03 -0.47869729075E+03  0.50243182699E+03  0.77000000000E+02 0.  0.
<mgrwt>
<rscale>  0 0.30525263E+03</rscale>
<asrwt>0</asrwt>
<pdfrwt beam="1">  1        1 0.37210573E-02 0.30525263E+03</pdfrwt>
<pdfrwt beam="2">  1       -1 0.14817187E+00 0.30525263E+03</pdfrwt>
<totfact> 0.98409676E+02</totfact>
</mgrwt>
</event>
<event>
 4    1  0.3147937E-004  0.2426705E+03  0.7818608E-02  0.1118026E+00
         -1   -1    0    0    0  501 -0.00000000000E+00  0.00000000000E+00  0.43871461117E+02  0.43871461407E+02  0.50400000000E-02 0. -1.
          1   -1    0    0  501    0  0.00000000000E+00 -0.00000000000E+00 -0.33557681268E+03  0.33557681272E+03  0.50400000000E-02 0.  1.
    5000001    1    1    2    0    0  0.79365269341E+02 -0.48518809427E+02 -0.12733007296E+03  0.17548466692E+03  0.77000000000E+02 0.  0.
   -5000001    1    1    2    0    0 -0.79365269341E+02  0.48518809427E+02 -0.16437527860E+03  0.20396360720E+03  0.77000000000E+02 0.  0.
<mgrwt>
<rscale>  0 0.24267052E+03</rscale>
<asrwt>0</asrwt>
<pdfrwt beam="1">  1        1 0.51627200E-01 0.24267052E+03</pdfrwt>
<pdfrwt beam="2">  1       -1 0.67494558E-02 0.24267052E+03</pdfrwt>
<totfact> 0.83650647E+03</totfact>
</mgrwt>
</event>
<event>
 4    1  0.3147937E-004  0.7833911E+03  0.7818608E-02  0.9584374E-01
          1   -1    0    0  501    0  0.00000000000E+00  0.00000000000E+00  0.86611244189E+02  0.86611244335E+02  0.50400000000E-02 0. -1.
         -1   -1    0    0    0  501 -0.00000000000E+00 -0.00000000000E+00 -0.17714260558E+04  0.17714260558E+04  0.50400000000E-02 0.  1.
    5000001    1    1    2    0    0 -0.28684984383E+03  0.20652783741E+03 -0.48616654455E+03  0.60598967778E+03  0.77000000000E+02 0.  0.
   -5000001    1    1    2    0    0  0.28684984383E+03 -0.20652783741E+03 -0.11986482670E+04  0.12520476223E+04  0.77000000000E+02 0.  0.
<mgrwt>
<rscale>  0 0.78339113E+03</rscale>
<asrwt>0</asrwt>
<pdfrwt beam="1">  1        1 0.13324808E-01 0.78339113E+03</pdfrwt>
<pdfrwt beam="2">  1       -1 0.27252706E+00 0.78339113E+03</pdfrwt>
<totfact> 0.23265156E+01</totfact>
</mgrwt>
</event>
<event>
 4    1  0.3147937E-004  0.2147410E+03  0.7818608E-02  0.1137866E+00
         -1   -1    0    0    0  501 -0.00000000000E+00  0.00000000000E+00  0.46511769568E+03  0.46511769570E+03  0.50400000000E-02 0. -1.
          1   -1    0    0  501    0  0.00000000000E+00 -0.00000000000E+00 -0.24786026295E+02  0.24786026807E+02  0.50400000000E-02 0.  1.
    5000001    1    1    2    0    0  0.18739065178E+02 -0.64872721176E+02  0.14660101963E+03  0.17883087394E+03  0.77000000000E+02 0.  0.
   -5000001    1    1    2    0    0 -0.18739065178E+02  0.64872721176E+02  0.29373064975E+03  0.31107284857E+03  0.77000000000E+02 0.  0.
<mgrwt>
<rscale>  0 0.21474096E+03</rscale>
<asrwt>0</asrwt>
<pdfrwt beam="1">  1        1 0.38132349E-02 0.21474096E+03</pdfrwt>
<pdfrwt beam="2">  1       -1 0.71556567E-01 0.21474096E+03</pdfrwt>
<totfact> 0.49059185E+03</totfact>
</mgrwt>
</event>
<event>
 4    1  0.3147937E-004  0.1739173E+03  0.7818608E-02  0.1173823E+00
          1   -1    0    0  501    0  0.00000000000E+00  0.00000000000E+00  0.35895259109E+03  0.35895259113E+03  0.50400000000E-02 0.  1.
         -1   -1    0    0    0  501 -0.00000000000E+00 -0.00000000000E+00 -0.21066320158E+02  0.21066320761E+02  0.50400000000E-02 0. -1.
    5000001    1    1    2    0    0 -0.48334495624E+01  0.38737274741E+02  0.19174234041E+03  0.21028091638E+03  0.77000000000E+02 0.  0.
   -5000001    1    1    2    0    0  0.48334495624E+01 -0.38737274741E+02  0.14614393053E+03  0.16973799551E+03  0.77000000000E+02 0.  0.
<mgrwt>
<rscale>  0 0.17391734E+03</rscale>
<asrwt>0</asrwt>
<pdfrwt beam="1">  1        1 0.55223471E-01 0.17391734E+03</pdfrwt>
<pdfrwt beam="2">  1       -1 0.32409727E-02 0.17391734E+03</pdfrwt>
<totfact> 0.22410695E+04</totfact>
</mgrwt>
</event>
<event>
 4    1  0.3147937E-004  0.2384632E+03  0.7818608E-02  0.1120821E+00
          1   -1    0    0  501    0  0.00000000000E+00  0.00000000000E+00  0.20773741233E+03  0.20773741239E+03  0.50400000000E-02 0.  1.
         -1   -1    0    0    0  501 -0.00000000000E+00 -0.00000000000E+00 -0.68433395301E+02  0.68433395486E+02  0.50400000000E-02 0. -1.
    5000001    1    1    2    0    0  0.34622713454E+02 -0.83181640096E+02  0.54584820798E+02  0.13048532560E+03  0.77000000000E+02 0.  0.
   -5000001    1    1    2    0    0 -0.34622713454E+02  0.83181640096E+02  0.84719196233E+02  0.14568548228E+03  0.77000000000E+02 0.  0.
<mgrwt>
<rscale>  0 0.23846322E+03</rscale>
<asrwt>0</asrwt>
<pdfrwt beam="1">  1        1 0.31959602E-01 0.23846322E+03</pdfrwt>
<pdfrwt beam="2">  1       -1 0.10528215E-01 0.23846322E+03</pdfrwt>
<totfact> 0.77294250E+03</totfact>
</mgrwt>
</event>
<event>
 4    1  0.3147937E-004  0.2127902E+03  0.7818608E-02  0.1139375E+00
         -1   -1    0    0    0  501 -0.00000000000E+00  0.00000000000E+00  0.66992217556E+02  0.66992217746E+02  0.50400000000E-02 0. -1.
          1   -1    0    0  501    0  0.00000000000E+00 -0.00000000000E+00 -0.16897361285E+03  0.16897361293E+03  0.50400000000E-02 0.  1.
    5000001    1    1    2    0    0 -0.75101762499E+01 -0.70910789661E+02 -0.70394275425E+02  0.12636889194E+03  0.77000000000E+02 0.  0.
   -5000001    1    1    2    0    0  0.75101762499E+01  0.70910789661E+02 -0.31587119870E+02  0.10959693873E+03  0.77000000000E+02 0.  0.
<mgrwt>
<rscale>  0 0.21279020E+03</rscale>
<asrwt>0</asrwt>
<pdfrwt beam="1">  1        1 0.25995940E-01 0.21279020E+03</pdfrwt>
<pdfrwt beam="2">  1       -1 0.10306495E-01 0.21279020E+03</pdfrwt>
<totfact> 0.10297624E+04</totfact>
</mgrwt>
</event>
<event>
 4    1  0.3147937E-004  0.4883248E+03  0.7818608E-02  0.1016872E+00
         -1   -1    0    0    0  501 -0.00000000000E+00  0.00000000000E+00  0.96959453796E+02  0.96959453927E+02  0.50400000000E-02 0.  1.
          1   -1    0    0  501    0  0.00000000000E+00 -0.00000000000E+00 -0.61484746195E+03  0.61484746197E+03  0.50400000000E-02 0. -1.
    5000001    1    1    2    0    0  0.30880515288E+02  0.22955067457E+03 -0.26806518332E+03  0.36253973703E+03  0.77000000000E+02 0.  0.
   -5000001    1    1    2    0    0 -0.30880515288E+02 -0.22955067457E+03 -0.24982282484E+03  0.34926717886E+03  0.77000000000E+02 0.  0.
<mgrwt>
<rscale>  0 0.48832479E+03</rscale>
<asrwt>0</asrwt>
<pdfrwt beam="1">  1        1 0.94591915E-01 0.48832479E+03</pdfrwt>
<pdfrwt beam="2">  1       -1 0.14916839E-01 0.48832479E+03</pdfrwt>
<totfact> 0.11024845E+03</totfact>
</mgrwt>
</event>
<event>
 4    1  0.3147937E-004  0.2500339E+03  0.7818608E-02  0.1113283E+00
          1   -1    0    0  501    0  0.00000000000E+00  0.00000000000E+00  0.16350143522E+04  0.16350143522E+04  0.50400000000E-02 0.  1.
         -1   -1    0    0    0  501 -0.00000000000E+00 -0.00000000000E+00 -0.95590836934E+01  0.95590850220E+01  0.50400000000E-02 0. -1.
    5000001    1    1    2    0    0 -0.70934925827E+02 -0.62908228659E+02  0.98811514798E+03  0.99563535223E+03  0.77000000000E+02 0.  0.
   -5000001    1    1    2    0    0  0.70934925827E+02  0.62908228659E+02  0.63734012052E+03  0.64893808500E+03  0.77000000000E+02 0.  0.
<mgrwt>
<rscale>  0 0.25003392E+03</rscale>
<asrwt>0</asrwt>
<pdfrwt beam="1">  1        1 0.25154034E+00 0.25003392E+03</pdfrwt>
<pdfrwt beam="2">  1       -1 0.14706303E-02 0.25003392E+03</pdfrwt>
<totfact> 0.62536851E+03</totfact>
</mgrwt>
</event>
<event>
 4    1  0.3147937E-004  0.4031683E+03  0.7818608E-02  0.1042688E+00
         -1   -1    0    0    0  501 -0.00000000000E+00  0.00000000000E+00  0.33241343493E+02  0.33241343875E+02  0.50400000000E-02 0.  1.
          1   -1    0    0  501    0  0.00000000000E+00 -0.00000000000E+00 -0.12224589348E+04  0.12224589348E+04  0.50400000000E-02 0. -1.
    5000001    1    1    2    0    0 -0.10324434457E+03 -0.15426959552E+03 -0.64372394536E+03  0.67436490168E+03  0.77000000000E+02 0.  0.
   -5000001    1    1    2    0    0  0.10324434457E+03  0.15426959552E+03 -0.54549364593E+03  0.58133537699E+03  0.77000000000E+02 0.  0.
<mgrwt>
<rscale>  0 0.40316834E+03</rscale>
<asrwt>0</asrwt>
<pdfrwt beam="1">  1        1 0.18807057E+00 0.40316834E+03</pdfrwt>
<pdfrwt beam="2">  1       -1 0.51140538E-02 0.40316834E+03</pdfrwt>
<totfact> 0.18770760E+03</totfact>
</mgrwt>
</event>
<event>
 4    1  0.3147937E-004  0.3161497E+03  0.7818608E-02  0.1077435E+00
         -1   -1    0    0    0  501 -0.00000000000E+00  0.00000000000E+00  0.58140382967E+02  0.58140383185E+02  0.50400000000E-02 0. -1.
          1   -1    0    0  501    0  0.00000000000E+00 -0.00000000000E+00 -0.42978149873E+03  0.42978149876E+03  0.50400000000E-02 0.  1.
    5000001    1    1    2    0    0  0.11773917447E+03  0.71952765679E+02 -0.19253842049E+03  0.24907781326E+03  0.77000000000E+02 0.  0.
   -5000001    1    1    2    0    0 -0.11773917447E+03 -0.71952765679E+02 -0.17910269528E+03  0.23884406869E+03  0.77000000000E+02 0.  0.
<mgrwt>
<rscale>  0 0.31614972E+03</rscale>
<asrwt>0</asrwt>
<pdfrwt beam="1">  1        1 0.66120229E-01 0.31614972E+03</pdfrwt>
<pdfrwt beam="2">  1       -1 0.89446746E-02 0.31614972E+03</pdfrwt>
<totfact> 0.40001835E+03</totfact>
</mgrwt>
</event>
<event>
 4    1  0.3147937E-004  0.4194825E+03  0.7818608E-02  0.1037235E+00
          1   -1    0    0  501    0  0.00000000000E+00  0.00000000000E+00  0.48033713458E+03  0.48033713461E+03  0.50400000000E-02 0.  1.
         -1   -1    0    0    0  501 -0.00000000000E+00 -0.00000000000E+00 -0.91584423093E+02  0.91584423231E+02  0.50400000000E-02 0. -1.
    5000001    1    1    2    0    0 -0.17573381875E+03 -0.69468775421E+02  0.12822537453E+03  0.24099591799E+03  0.77000000000E+02 0.  0.
   -5000001    1    1    2    0    0  0.17573381875E+03  0.69468775421E+02  0.26052733696E+03  0.33092563986E+03  0.77000000000E+02 0.  0.
<mgrwt>
<rscale>  0 0.41948254E+03</rscale>
<asrwt>0</asrwt>
<pdfrwt beam="1">  1        1 0.73898021E-01 0.41948254E+03</pdfrwt>
<pdfrwt beam="2">  1       -1 0.14089911E-01 0.41948254E+03</pdfrwt>
<totfact> 0.16993052E+03</totfact>
</mgrwt>
</event>
<event>
 4    1  0.3147937E-004  0.3892038E+03  0.7818608E-02  0.1047583E+00
          1   -1    0    0  501    0  0.00000000000E+00  0.00000000000E+00  0.30997333310E+03  0.30997333315E+03  0.50400000000E-02 0.  1.
         -1   -1    0    0    0  501 -0.00000000000E+00 -0.00000000000E+00 -0.12217146081E+03  0.12217146091E+03  0.50400000000E-02 0. -1.
    5000001    1    1    2    0    0 -0.97555319674E+02  0.14946409590E+03  0.10409777134E+03  0.22050374681E+03  0.77000000000E+02 0.  0.
   -5000001    1    1    2    0    0  0.97555319674E+02 -0.14946409590E+03  0.83704100958E+02  0.21164104724E+03  0.77000000000E+02 0.  0.
<mgrwt>
<rscale>  0 0.38920378E+03</rscale>
<asrwt>0</asrwt>
<pdfrwt beam="1">  1        1 0.47688204E-01 0.38920378E+03</pdfrwt>
<pdfrwt beam="2">  1       -1 0.18795610E-01 0.38920378E+03</pdfrwt>
<totfact> 0.18848620E+03</totfact>
</mgrwt>
</event>
<event>
 4    1  0.3147937E-004  0.5706171E+03  0.7818608E-02  0.9968314E-01
          1   -1    0    0  501    0  0.00000000000E+00  0.00000000000E+00  0.18272542232E+04  0.18272542232E+04  0.50400000000E-02 0.  1.
         -1   -1    0    0    0  501 -0.00000000000E+00 -0.00000000000E+00 -0.44548240150E+02  0.44548240436E+02  0.50400000000E-02 0. -1.
    5000001    1    1    2    0    0  0.20622886549E+03  0.11420183923E+03  0.13540928818E+04  0.13766150288E+04  0.77000000000E+02 0.  0.
   -5000001    1    1    2    0    0 -0.20622886549E+03 -0.11420183923E+03  0.42861310129E+03  0.49518743486E+03  0.77000000000E+02 0.  0.
<mgrwt>
<rscale>  0 0.57061707E+03</rscale>
<asrwt>0</asrwt>
<pdfrwt beam="1">  1        1 0.28111602E+00 0.57061707E+03</pdfrwt>
<pdfrwt beam="2">  1       -1 0.68535758E-02 0.57061707E+03</pdfrwt>
<totfact> 0.46237303E+02</totfact>
</mgrwt>
</event>
<event>
 4    1  0.3147937E-004  0.2553569E+03  0.7818608E-02  0.1109965E+00
          1   -1    0    0  501    0  0.00000000000E+00  0.00000000000E+00  0.62464379532E+03  0.62464379534E+03  0.50400000000E-02 0.  1.
         -1   -1    0    0    0  501 -0.00000000000E+00 -0.00000000000E+00 -0.26097740734E+02  0.26097741221E+02  0.50400000000E-02 0. -1.
    5000001    1    1    2    0    0  0.61006915287E+02  0.49071090499E+02  0.13327758465E+03  0.17268969340E+03  0.77000000000E+02 0.  0.
   -5000001    1    1    2    0    0 -0.61006915287E+02 -0.49071090499E+02  0.46526846993E+03  0.47805184316E+03  0.77000000000E+02 0.  0.
<mgrwt>
<rscale>  0 0.25535694E+03</rscale>
<asrwt>0</asrwt>
<pdfrwt beam="1">  1        1 0.96099039E-01 0.25535694E+03</pdfrwt>
<pdfrwt beam="2">  1       -1 0.40150373E-02 0.25535694E+03</pdfrwt>
<totfact> 0.80703570E+03</totfact>
</mgrwt>
</event>
<event>
 4    1  0.3147937E-004  0.1768529E+03  0.7818608E-02  0.1170884E+00
         -1   -1    0    0    0  501 -0.00000000000E+00  0.00000000000E+00  0.76764081911E+02  0.76764082077E+02  0.50400000000E-02 0. -1.
          1   -1    0    0  501    0  0.00000000000E+00 -0.00000000000E+00 -0.10186059212E+03  0.10186059224E+03  0.50400000000E-02 0.  1.
    5000001    1    1    2    0    0 -0.27993481964E+01  0.22232751289E+02 -0.50178774777E+02  0.94599371131E+02  0.77000000000E+02 0.  0.
   -5000001    1    1    2    0    0  0.27993481964E+01 -0.22232751289E+02  0.25082264569E+02  0.84025303190E+02  0.77000000000E+02 0.  0.
<mgrwt>
<rscale>  0 0.17685288E+03</rscale>
<asrwt>0</asrwt>
<pdfrwt beam="1">  1        1 0.15670860E-01 0.17685288E+03</pdfrwt>
<pdfrwt beam="2">  1       -1 0.11809859E-01 0.17685288E+03</pdfrwt>
<totfact> 0.15747049E+04</totfact>
</mgrwt>
</event>
<event>
 4    1  0.3147937E-004  0.2410738E+03  0.7818608E-02  0.1119080E+00
          1   -1    0    0  501    0  0.00000000000E+00  0.00000000000E+00  0.41174211412E+02  0.41174211721E+02  0.50400000000E-02 0.  1.
         -1   -1    0    0    0  501 -0.00000000000E+00 -0.00000000000E+00 -0.35287014087E+03  0.35287014091E+03  0.50400000000E-02 0. -1.
    5000001    1    1    2    0    0 -0.38996369173E+02  0.68828426405E+02 -0.23495150917E+03  0.25959445439E+03  0.77000000000E+02 0.  0.
   -5000001    1    1    2    0    0  0.38996369173E+02 -0.68828426405E+02 -0.76744420290E+02  0.13444989824E+03  0.77000000000E+02 0.  0.
<mgrwt>
<rscale>  0 0.24107385E+03</rscale>
<asrwt>0</asrwt>
<pdfrwt beam="1">  1        1 0.63344943E-02 0.24107385E+03</pdfrwt>
<pdfrwt beam="2">  1       -1 0.54287712E-01 0.24107385E+03</pdfrwt>
<totfact> 0.41760276E+03</totfact>
</mgrwt>
</event>
<event>
 4    1  0.3147937E-004  0.1985432E+03  0.7818608E-02  0.1150974E+00
         -1   -1    0    0    0  501 -0.00000000000E+00  0.00000000000E+00  0.51019089361E+01  0.51019114256E+01  0.50400000000E-02 0. -1.
          1   -1    0    0  501    0  0.00000000000E+00 -0.00000000000E+00 -0.19316003812E+04  0.19316003812E+04  0.50400000000E-02 0.  1.
    5000001    1    1    2    0    0 -0.47288854523E+02  0.37937122043E+02 -0.80889558817E+03  0.81481073480E+03  0.77000000000E+02 0.  0.
   -5000001    1    1    2    0    0  0.47288854523E+02 -0.37937122043E+02 -0.11176028841E+04  0.11218915578E+04  0.77000000000E+02 0.  0.
<mgrwt>
<rscale>  0 0.19854321E+03</rscale>
<asrwt>0</asrwt>
<pdfrwt beam="1">  1        1 0.29716871E+00 0.19854321E+03</pdfrwt>
<pdfrwt beam="2">  1       -1 0.78491080E-03 0.19854321E+03</pdfrwt>
<totfact> 0.98910140E+03</totfact>
</mgrwt>
</event>
<event>
 4    1  0.3147937E-004  0.1827190E+03  0.7818608E-02  0.1165197E+00
         -1   -1    0    0    0  501 -0.00000000000E+00  0.00000000000E+00  0.68872498373E+01  0.68872516814E+01  0.50400000000E-02 0. -1.
          1   -1    0    0  501    0  0.00000000000E+00 -0.00000000000E+00 -0.12118849082E+04  0.12118849082E+04  0.50400000000E-02 0.  1.
    5000001    1    1    2    0    0  0.25956969528E+02  0.41675164017E+02 -0.58488684167E+03  0.59197314223E+03  0.77000000000E+02 0.  0.
   -5000001    1    1    2    0    0 -0.25956969528E+02 -0.41675164017E+02 -0.62011081672E+03  0.62679901768E+03  0.77000000000E+02 0.  0.
<mgrwt>
<rscale>  0 0.18271897E+03</rscale>
<asrwt>0</asrwt>
<pdfrwt beam="1">  1        1 0.18644366E+00 0.18271897E+03</pdfrwt>
<pdfrwt beam="2">  1       -1 0.10595780E-02 0.18271897E+03</pdfrwt>
<totfact> 0.19002817E+04</totfact>
</mgrwt>
</event>
<event>
 4    1  0.3147937E-004  0.2270988E+03  0.7818608E-02  0.1128699E+00
         -1   -1    0    0    0  501 -0.00000000000E+00  0.00000000000E+00  0.59959772776E+02  0.59959772988E+02  0.50400000000E-02 0.  1.
          1   -1    0    0  501    0  0.00000000000E+00 -0.00000000000E+00 -0.21503520397E+03  0.21503520403E+03  0.50400000000E-02 0. -1.
    5000001    1    1    2    0    0  0.53395518705E+02 -0.61906301705E+02 -0.57239599487E+02  0.12605095540E+03  0.77000000000E+02 0.  0.
   -5000001    1    1    2    0    0 -0.53395518705E+02  0.61906301705E+02 -0.97835831707E+02  0.14894402161E+03  0.77000000000E+02 0.  0.
<mgrwt>
<rscale>  0 0.22709876E+03</rscale>
<asrwt>0</asrwt>
<pdfrwt beam="1">  1        1 0.33082339E-01 0.22709876E+03</pdfrwt>
<pdfrwt beam="2">  1       -1 0.92245806E-02 0.22709876E+03</pdfrwt>
<totfact> 0.90507272E+03</totfact>
</mgrwt>
</event>
<event>
 4    1  0.3147937E-004  0.2564930E+03  0.7818608E-02  0.1109269E+00
         -1   -1    0    0    0  501 -0.00000000000E+00  0.00000000000E+00  0.66689434519E+02  0.66689434710E+02  0.50400000000E-02 0.  1.
          1   -1    0    0  501    0  0.00000000000E+00 -0.00000000000E+00 -0.24662332834E+03  0.24662332840E+03  0.50400000000E-02 0. -1.
    5000001    1    1    2    0    0 -0.14352234352E+02 -0.91611908180E+02 -0.14348372899E+03  0.18739079176E+03  0.77000000000E+02 0.  0.
   -5000001    1    1    2    0    0  0.14352234352E+02  0.91611908180E+02 -0.36450164836E+02  0.12592197135E+03  0.77000000000E+02 0.  0.
<mgrwt>
<rscale>  0 0.25649304E+03</rscale>
<asrwt>0</asrwt>
<pdfrwt beam="1">  1        1 0.37942050E-01 0.25649304E+03</pdfrwt>
<pdfrwt beam="2">  1       -1 0.10259913E-01 0.25649304E+03</pdfrwt>
<totfact> 0.65062993E+03</totfact>
</mgrwt>
</event>
<event>
 4    1  0.3147937E-004  0.3131329E+03  0.7818608E-02  0.1078854E+00
         -1   -1    0    0    0  501 -0.00000000000E+00  0.00000000000E+00  0.10764916557E+03  0.10764916569E+03  0.50400000000E-02 0. -1.
          1   -1    0    0  501    0  0.00000000000E+00 -0.00000000000E+00 -0.22771243520E+03  0.22771243526E+03  0.50400000000E-02 0.  1.
    5000001    1    1    2    0    0  0.88325065042E+02  0.99252751900E+02 -0.92720951981E+02  0.17938394803E+03  0.77000000000E+02 0.  0.
   -5000001    1    1    2    0    0 -0.88325065042E+02 -0.99252751900E+02 -0.27342317652E+02  0.15597765292E+03  0.77000000000E+02 0.  0.
<mgrwt>
<rscale>  0 0.31313290E+03</rscale>
<asrwt>0</asrwt>
<pdfrwt beam="1">  1        1 0.35032682E-01 0.31313290E+03</pdfrwt>
<pdfrwt beam="2">  1       -1 0.16561410E-01 0.31313290E+03</pdfrwt>
<totfact> 0.34066695E+03</totfact>
</mgrwt>
</event>
<event>
 4    1  0.3147937E-004  0.2211402E+03  0.7818608E-02  0.1133036E+00
         -1   -1    0    0    0  501 -0.00000000000E+00  0.00000000000E+00  0.72894183127E+01  0.72894200551E+01  0.50400000000E-02 0. -1.
          1   -1    0    0  501    0  0.00000000000E+00 -0.00000000000E+00 -0.16771905020E+04  0.16771905020E+04  0.50400000000E-02 0.  1.
    5000001    1    1    2    0    0  0.71165158402E+02 -0.31844206184E+02 -0.94747240014E+03  0.95378796505E+03  0.77000000000E+02 0.  0.
   -5000001    1    1    2    0    0 -0.71165158402E+02  0.31844206184E+02 -0.72242868353E+03  0.73069195700E+03  0.77000000000E+02 0.  0.
<mgrwt>
<rscale>  0 0.22114018E+03</rscale>
<asrwt>0</asrwt>
<pdfrwt beam="1">  1        1 0.25802900E+00 0.22114018E+03</pdfrwt>
<pdfrwt beam="2">  1       -1 0.11214504E-02 0.22114018E+03</pdfrwt>
<totfact> 0.86685609E+03</totfact>
</mgrwt>
</event>
<event>
 4    1  0.3147937E-004  0.1883733E+03  0.7818608E-02  0.1159937E+00
          1   -1    0    0  501    0  0.00000000000E+00  0.00000000000E+00  0.56156624953E+03  0.56156624955E+03  0.50400000000E-02 0.  1.
         -1   -1    0    0    0  501 -0.00000000000E+00 -0.00000000000E+00 -0.15797115005E+02  0.15797115809E+02  0.50400000000E-02 0. -1.
    5000001    1    1    2    0    0  0.38344718453E+02 -0.35440839182E+02  0.31790520330E+03  0.33123871875E+03  0.77000000000E+02 0.  0.
   -5000001    1    1    2    0    0 -0.38344718453E+02  0.35440839182E+02  0.22786393123E+03  0.24612464661E+03  0.77000000000E+02 0.  0.
<mgrwt>
<rscale>  0 0.18837332E+03</rscale>
<asrwt>0</asrwt>
<pdfrwt beam="1">  1        1 0.86394809E-01 0.18837332E+03</pdfrwt>
<pdfrwt beam="2">  1       -1 0.24303254E-02 0.18837332E+03</pdfrwt>
<totfact> 0.19241887E+04</totfact>
</mgrwt>
</event>
<event>
 4    1  0.3147937E-004  0.3130164E+03  0.7818608E-02  0.1078909E+00
          1   -1    0    0  501    0  0.00000000000E+00  0.00000000000E+00  0.17012219272E+03  0.17012219279E+03  0.50400000000E-02 0. -1.
         -1   -1    0    0    0  501 -0.00000000000E+00 -0.00000000000E+00 -0.14398368676E+03  0.14398368685E+03  0.50400000000E-02 0.  1.
    5000001    1    1    2    0    0  0.64959113719E+02 -0.63633967523E+02  0.11489583822E+03  0.16552649914E+03  0.77000000000E+02 0.  0.
   -5000001    1    1    2    0    0 -0.64959113719E+02  0.63633967523E+02 -0.88757332262E+02  0.14857938049E+03  0.77000000000E+02 0.  0.
<mgrwt>
<rscale>  0 0.31301642E+03</rscale>
<asrwt>0</asrwt>
<pdfrwt beam="1">  1        1 0.26172645E-01 0.31301642E+03</pdfrwt>
<pdfrwt beam="2">  1       -1 0.22151336E-01 0.31301642E+03</pdfrwt>
<totfact> 0.30726367E+03</totfact>
</mgrwt>
</event>
<event>
 4    1  0.3147937E-004  0.2050819E+03  0.7818608E-02  0.1145521E+00
          1   -1    0    0  501    0  0.00000000000E+00  0.00000000000E+00  0.14698832387E+03  0.14698832396E+03  0.50400000000E-02 0.  1.
         -1   -1    0    0    0  501 -0.00000000000E+00 -0.00000000000E+00 -0.71533906452E+02  0.71533906629E+02  0.50400000000E-02 0. -1.
    5000001    1    1    2    0    0  0.44062524482E+00  0.66664725747E+02  0.50391824700E+02  0.11363413134E+03  0.77000000000E+02 0.  0.
   -5000001    1    1    2    0    0 -0.44062524482E+00 -0.66664725747E+02  0.25062592723E+02  0.10488809925E+03  0.77000000000E+02 0.  0.
<mgrwt>
<rscale>  0 0.20508193E+03</rscale>
<asrwt>0</asrwt>
<pdfrwt beam="1">  1        1 0.22613588E-01 0.20508193E+03</pdfrwt>
<pdfrwt beam="2">  1       -1 0.11005216E-01 0.20508193E+03</pdfrwt>
<totfact> 0.11080673E+04</totfact>
</mgrwt>
</event>
<event>
 4    1  0.3147937E-004  0.2176851E+03  0.7818608E-02  0.1135621E+00
          1   -1    0    0  501    0  0.00000000000E+00  0.00000000000E+00  0.34923251993E+03  0.34923251997E+03  0.50400000000E-02 0.  1.
         -1   -1    0    0    0  501 -0.00000000000E+00 -0.00000000000E+00 -0.33922093378E+02  0.33922093752E+02  0.50400000000E-02 0. -1.
    5000001    1    1    2    0    0 -0.72049177129E+02 -0.21323626563E+02  0.12863077757E+03  0.16769215221E+03  0.77000000000E+02 0.  0.
   -5000001    1    1    2    0    0  0.72049177129E+02  0.21323626563E+02  0.18667964898E+03  0.21546246150E+03  0.77000000000E+02 0.  0.
<mgrwt>
<rscale>  0 0.21768508E+03</rscale>
<asrwt>0</asrwt>
<pdfrwt beam="1">  1        1 0.53728081E-01 0.21768508E+03</pdfrwt>
<pdfrwt beam="2">  1       -1 0.52187836E-02 0.21768508E+03</pdfrwt>
<totfact> 0.11644690E+04</totfact>
</mgrwt>
</event>
<event>
 4    1  0.3147937E-004  0.2858327E+03  0.7818608E-02  0.1092545E+00
         -1   -1    0    0    0  501 -0.00000000000E+00  0.00000000000E+00  0.12442853936E+02  0.12442854957E+02  0.50400000000E-02 0. -1.
          1   -1    0    0  501    0  0.00000000000E+00 -0.00000000000E+00 -0.16415114718E+04  0.16415114718E+04  0.50400000000E-02 0.  1.
    5000001    1    1    2    0    0  0.58643584407E+02 -0.10492403448E+03 -0.85460946612E+03  0.86644934219E+03  0.77000000000E+02 0.  0.
   -5000001    1    1    2    0    0 -0.58643584407E+02  0.10492403448E+03 -0.77445915172E+03  0.78750498454E+03  0.77000000000E+02 0.  0.
<mgrwt>
<rscale>  0 0.28583274E+03</rscale>
<asrwt>0</asrwt>
<pdfrwt beam="1">  1        1 0.25254006E+00 0.28583274E+03</pdfrwt>
<pdfrwt beam="2">  1       -1 0.19142866E-02 0.28583274E+03</pdfrwt>
<totfact> 0.42219233E+03</totfact>
</mgrwt>
</event>
<event>
 4    1  0.3147937E-004  0.3336288E+03  0.7818608E-02  0.1069542E+00
         -1   -1    0    0    0  501 -0.00000000000E+00  0.00000000000E+00  0.46946776130E+03  0.46946776133E+03  0.50400000000E-02 0. -1.
          1   -1    0    0  501    0  0.00000000000E+00 -0.00000000000E+00 -0.59273595779E+02  0.59273595993E+02  0.50400000000E-02 0.  1.
    5000001    1    1    2    0    0  0.42477112785E+01  0.14507221570E+03  0.25086658719E+03  0.29987836766E+03  0.77000000000E+02 0.  0.
   -5000001    1    1    2    0    0 -0.42477112785E+01 -0.14507221570E+03  0.15932757833E+03  0.22886298966E+03  0.77000000000E+02 0.  0.
<mgrwt>
<rscale>  0 0.33362879E+03</rscale>
<asrwt>0</asrwt>
<pdfrwt beam="1">  1        1 0.91190145E-02 0.33362879E+03</pdfrwt>
<pdfrwt beam="2">  1       -1 0.72225812E-01 0.33362879E+03</pdfrwt>
<totfact> 0.14676903E+03</totfact>
</mgrwt>
</event>
<event>
 4    1  0.3147937E-004  0.2226773E+03  0.7818608E-02  0.1131903E+00
         -1   -1    0    0    0  501 -0.00000000000E+00  0.00000000000E+00  0.93039707091E+02  0.93039707227E+02  0.50400000000E-02 0.  1.
          1   -1    0    0  501    0  0.00000000000E+00 -0.00000000000E+00 -0.13323665162E+03  0.13323665171E+03  0.50400000000E-02 0. -1.
    5000001    1    1    2    0    0  0.33925442243E+01  0.59311198191E+02 -0.75177586978E+02  0.12292272846E+03  0.77000000000E+02 0.  0.
   -5000001    1    1    2    0    0 -0.33925442243E+01 -0.59311198191E+02  0.34980642454E+02  0.10335363048E+03  0.77000000000E+02 0.  0.
<mgrwt>
<rscale>  0 0.22267734E+03</rscale>
<asrwt>0</asrwt>
<pdfrwt beam="1">  1        1 0.20497946E-01 0.22267734E+03</pdfrwt>
<pdfrwt beam="2">  1       -1 0.14313801E-01 0.22267734E+03</pdfrwt>
<totfact> 0.83754533E+03</totfact>
</mgrwt>
</event>
<event>
 4    1  0.3147937E-004  0.2574941E+03  0.7818608E-02  0.1108658E+00
          1   -1    0    0  501    0  0.00000000000E+00  0.00000000000E+00  0.33325042087E+03  0.33325042091E+03  0.50400000000E-02 0. -1.
         -1   -1    0    0    0  501 -0.00000000000E+00 -0.00000000000E+00 -0.49739763504E+02  0.49739763759E+02  0.50400000000E-02 0.  1.
    5000001    1    1    2    0    0 -0.23188029272E+02  0.98169887339E+02  0.10944861215E+03  0.16757986210E+03  0.77000000000E+02 0.  0.
   -5000001    1    1    2    0    0  0.23188029272E+02 -0.98169887339E+02  0.17406204522E+03  0.21541032257E+03  0.77000000000E+02 0.  0.
<mgrwt>
<rscale>  0 0.25749406E+03</rscale>
<asrwt>0</asrwt>
<pdfrwt beam="1">  1        1 0.51269298E-01 0.25749406E+03</pdfrwt>
<pdfrwt beam="2">  1       -1 0.76522710E-02 0.25749406E+03</pdfrwt>
<totfact> 0.69920365E+03</totfact>
</mgrwt>
</event>
<event>
 4    1  0.3147937E-004  0.1924107E+03  0.7818608E-02  0.1156305E+00
          1   -1    0    0  501    0  0.00000000000E+00  0.00000000000E+00  0.16632052312E+03  0.16632052320E+03  0.50400000000E-02 0. -1.
         -1   -1    0    0    0  501 -0.00000000000E+00 -0.00000000000E+00 -0.55648367884E+02  0.55648368112E+02  0.50400000000E-02 0.  1.
    5000001    1    1    2    0    0  0.32975917094E+02  0.47034325932E+02  0.61311204724E+02  0.11396360274E+03  0.77000000000E+02 0.  0.
   -5000001    1    1    2    0    0 -0.32975917094E+02 -0.47034325932E+02  0.49360950512E+02  0.10800528857E+03  0.77000000000E+02 0.  0.
<mgrwt>
<rscale>  0 0.19241066E+03</rscale>
<asrwt>0</asrwt>
<pdfrwt beam="1">  1        1 0.25587772E-01 0.19241066E+03</pdfrwt>
<pdfrwt beam="2">  1       -1 0.85612876E-02 0.19241066E+03</pdfrwt>
<totfact> 0.13869530E+04</totfact>
</mgrwt>
</event>
<event>
 4    1  0.3147937E-004  0.2078177E+03  0.7818608E-02  0.1143306E+00
          1   -1    0    0  501    0  0.00000000000E+00  0.00000000000E+00  0.23900175626E+03  0.23900175631E+03  0.50400000000E-02 0.  1.
         -1   -1    0    0    0  501 -0.00000000000E+00 -0.00000000000E+00 -0.45175599455E+02  0.45175599736E+02  0.50400000000E-02 0. -1.
    5000001    1    1    2    0    0  0.16447933151E+02  0.39189490280E+02  0.17257686453E+03  0.19369595975E+03  0.77000000000E+02 0.  0.
   -5000001    1    1    2    0    0 -0.16447933151E+02 -0.39189490280E+02  0.21249292272E+02  0.90481396294E+02  0.77000000000E+02 0.  0.
<mgrwt>
<rscale>  0 0.20781769E+03</rscale>
<asrwt>0</asrwt>
<pdfrwt beam="1">  1        1 0.36769501E-01 0.20781769E+03</pdfrwt>
<pdfrwt beam="2">  1       -1 0.69500922E-02 0.20781769E+03</pdfrwt>
<totfact> 0.12137811E+04</totfact>
</mgrwt>
</event>
<event>
 4    1  0.3147937E-004  0.2373051E+03  0.7818608E-02  0.1121601E+00
         -1   -1    0    0    0  501 -0.00000000000E+00  0.00000000000E+00  0.12380594194E+02  0.12380595220E+02  0.50400000000E-02 0. -1.
          1   -1    0    0  501    0  0.00000000000E+00 -0.00000000000E+00 -0.11371364743E+04  0.11371364743E+04  0.50400000000E-02 0.  1.
    5000001    1    1    2    0    0 -0.49006275753E+02  0.54500261653E+02 -0.81767036881E+03  0.82455183319E+03  0.77000000000E+02 0.  0.
   -5000001    1    1    2    0    0  0.49006275753E+02 -0.54500261653E+02 -0.30708551128E+03  0.32496523632E+03  0.77000000000E+02 0.  0.
<mgrwt>
<rscale>  0 0.23730508E+03</rscale>
<asrwt>0</asrwt>
<pdfrwt beam="1">  1        1 0.17494399E+00 0.23730508E+03</pdfrwt>
<pdfrwt beam="2">  1       -1 0.19047078E-02 0.23730508E+03</pdfrwt>
<totfact> 0.92885301E+03</totfact>
</mgrwt>
</event>
<event>
 4    1  0.3147937E-004  0.1961289E+03  0.7818608E-02  0.1153047E+00
          1   -1    0    0  501    0  0.00000000000E+00  0.00000000000E+00  0.17929130394E+04  0.17929130394E+04  0.50400000000E-02 0.  1.
         -1   -1    0    0    0  501 -0.00000000000E+00 -0.00000000000E+00 -0.53636933085E+01  0.53636956765E+01  0.50400000000E-02 0. -1.
    5000001    1    1    2    0    0 -0.59240725556E+02 -0.10125243605E+02  0.81402481038E+03  0.81986424244E+03  0.77000000000E+02 0.  0.
   -5000001    1    1    2    0    0  0.59240725556E+02  0.10125243605E+02  0.97352453568E+03  0.97841249261E+03  0.77000000000E+02 0.  0.
<mgrwt>
<rscale>  0 0.19612891E+03</rscale>
<asrwt>0</asrwt>
<pdfrwt beam="1">  1        1 0.27583278E+00 0.19612891E+03</pdfrwt>
<pdfrwt beam="2">  1       -1 0.82518376E-03 0.19612891E+03</pdfrwt>
<totfact> 0.11301136E+04</totfact>
</mgrwt>
</event>
<event>
 4    1  0.3147937E-004  0.4020275E+03  0.7818608E-02  0.1043080E+00
         -1   -1    0    0    0  501 -0.00000000000E+00  0.00000000000E+00  0.31957770360E+02  0.31957770758E+02  0.50400000000E-02 0.  1.
          1   -1    0    0  501    0  0.00000000000E+00 -0.00000000000E+00 -0.12643725662E+04  0.12643725662E+04  0.50400000000E-02 0. -1.
    5000001    1    1    2    0    0  0.51087359926E+02 -0.17059364513E+03 -0.44664078929E+03  0.48695903807E+03  0.77000000000E+02 0.  0.
   -5000001    1    1    2    0    0 -0.51087359926E+02  0.17059364513E+03 -0.78577400652E+03  0.80937129887E+03  0.77000000000E+02 0.  0.
<mgrwt>
<rscale>  0 0.40202750E+03</rscale>
<asrwt>0</asrwt>
<pdfrwt beam="1">  1        1 0.19451882E+00 0.40202750E+03</pdfrwt>
<pdfrwt beam="2">  1       -1 0.49165811E-02 0.40202750E+03</pdfrwt>
<totfact> 0.18620001E+03</totfact>
</mgrwt>
</event>
<event>
 4    1  0.3147937E-004  0.2709806E+03  0.7818608E-02  0.1100720E+00
          1   -1    0    0  501    0  0.00000000000E+00  0.00000000000E+00  0.17749042450E+04  0.17749042451E+04  0.50400000000E-02 0. -1.
         -1   -1    0    0    0  501 -0.00000000000E+00 -0.00000000000E+00 -0.10342879481E+02  0.10342880709E+02  0.50400000000E-02 0.  1.
    5000001    1    1    2    0    0 -0.32215579586E+02 -0.83537298408E+02  0.44466532365E+03  0.46007887785E+03  0.77000000000E+02 0.  0.
   -5000001    1    1    2    0    0  0.32215579586E+02  0.83537298408E+02  0.13198960419E+04  0.13251682479E+04  0.77000000000E+02 0.  0.
<mgrwt>
<rscale>  0 0.27098060E+03</rscale>
<asrwt>0</asrwt>
<pdfrwt beam="1">  1        1 0.27306239E+00 0.27098060E+03</pdfrwt>
<pdfrwt beam="2">  1       -1 0.15912112E-02 0.27098060E+03</pdfrwt>
<totfact> 0.45242609E+03</totfact>
</mgrwt>
</event>
<event>
 4    1  0.3147937E-004  0.1825210E+03  0.7818608E-02  0.1165385E+00
         -1   -1    0    0    0  501 -0.00000000000E+00  0.00000000000E+00  0.20680422377E+03  0.20680422383E+03  0.50400000000E-02 0. -1.
          1   -1    0    0  501    0  0.00000000000E+00 -0.00000000000E+00 -0.40272280649E+02  0.40272280965E+02  0.50400000000E-02 0.  1.
    5000001    1    1    2    0    0  0.48055997460E+01 -0.42306644844E+02  0.50481784524E+02  0.10144139469E+03  0.77000000000E+02 0.  0.
   -5000001    1    1    2    0    0 -0.48055997460E+01  0.42306644844E+02  0.11605015860E+03  0.14563511011E+03  0.77000000000E+02 0.  0.
<mgrwt>
<rscale>  0 0.18252099E+03</rscale>
<asrwt>0</asrwt>
<pdfrwt beam="1">  1        1 0.61957355E-02 0.18252099E+03</pdfrwt>
<pdfrwt beam="2">  1       -1 0.31816034E-01 0.18252099E+03</pdfrwt>
<totfact> 0.10981241E+04</totfact>
</mgrwt>
</event>
<event>
 4    1  0.3147937E-004  0.2208306E+03  0.7818608E-02  0.1133265E+00
          1   -1    0    0  501    0  0.00000000000E+00  0.00000000000E+00  0.16804287430E+03  0.16804287437E+03  0.50400000000E-02 0. -1.
         -1   -1    0    0    0  501 -0.00000000000E+00 -0.00000000000E+00 -0.72550158934E+02  0.72550159109E+02  0.50400000000E-02 0.  1.
    5000001    1    1    2    0    0  0.97855168017E+01 -0.67846359841E+02  0.90828165873E+02  0.13739592643E+03  0.77000000000E+02 0.  0.
   -5000001    1    1    2    0    0 -0.97855168017E+01  0.67846359841E+02  0.46645494909E+01  0.10319710706E+03  0.77000000000E+02 0.  0.
<mgrwt>
<rscale>  0 0.22083059E+03</rscale>
<asrwt>0</asrwt>
<pdfrwt beam="1">  1        1 0.25852750E-01 0.22083059E+03</pdfrwt>
<pdfrwt beam="2">  1       -1 0.11161563E-01 0.22083059E+03</pdfrwt>
<totfact> 0.91876992E+03</totfact>
</mgrwt>
</event>
<event>
 4    1  0.3147937E-004  0.1711032E+03  0.7818608E-02  0.1176702E+00
         -1   -1    0    0    0  501 -0.00000000000E+00  0.00000000000E+00  0.29620806440E+03  0.29620806444E+03  0.50400000000E-02 0. -1.
          1   -1    0    0  501    0  0.00000000000E+00 -0.00000000000E+00 -0.24709246159E+02  0.24709246673E+02  0.50400000000E-02 0.  1.
    5000001    1    1    2    0    0  0.24737115475E+02 -0.23203151169E+02  0.10670720133E+03  0.13588869681E+03  0.77000000000E+02 0.  0.
   -5000001    1    1    2    0    0 -0.24737115475E+02  0.23203151169E+02  0.16479161691E+03  0.18502861430E+03  0.77000000000E+02 0.  0.
<mgrwt>
<rscale>  0 0.17110322E+03</rscale>
<asrwt>0</asrwt>
<pdfrwt beam="1">  1        1 0.38014224E-02 0.17110322E+03</pdfrwt>
<pdfrwt beam="2">  1       -1 0.45570473E-01 0.17110322E+03</pdfrwt>
<totfact> 0.11411714E+04</totfact>
</mgrwt>
</event>
<event>
 4    1  0.3147937E-004  0.1849835E+03  0.7818608E-02  0.1163065E+00
          1   -1    0    0  501    0  0.00000000000E+00  0.00000000000E+00  0.31197533736E+02  0.31197534143E+02  0.50400000000E-02 0.  1.
         -1   -1    0    0    0  501 -0.00000000000E+00 -0.00000000000E+00 -0.27421146159E+03  0.27421146164E+03  0.50400000000E-02 0. -1.
    5000001    1    1    2    0    0  0.49645401725E+02 -0.11388365870E+02 -0.13075269163E+03  0.16006132312E+03  0.77000000000E+02 0.  0.
   -5000001    1    1    2    0    0 -0.49645401725E+02  0.11388365870E+02 -0.11226123623E+03  0.14534767266E+03  0.77000000000E+02 0.  0.
<mgrwt>
<rscale>  0 0.18498347E+03</rscale>
<asrwt>0</asrwt>
<pdfrwt beam="1">  1        1 0.47996208E-02 0.18498347E+03</pdfrwt>
<pdfrwt beam="2">  1       -1 0.42186377E-01 0.18498347E+03</pdfrwt>
<totfact> 0.95510919E+03</totfact>
</mgrwt>
</event>
<event>
 4    1  0.3147937E-004  0.1880360E+03  0.7818608E-02  0.1160245E+00
          1   -1    0    0  501    0  0.00000000000E+00  0.00000000000E+00  0.14722502897E+04  0.14722502897E+04  0.50400000000E-02 0.  1.
         -1   -1    0    0    0  501 -0.00000000000E+00 -0.00000000000E+00 -0.60039930787E+01  0.60039951941E+01  0.50400000000E-02 0. -1.
    5000001    1    1    2    0    0  0.23825904414E+02  0.39838631567E+02  0.51702461254E+03  0.52478399391E+03  0.77000000000E+02 0.  0.
   -5000001    1    1    2    0    0 -0.23825904414E+02 -0.39838631567E+02  0.94922168408E+03  0.95347029100E+03  0.77000000000E+02 0.  0.
<mgrwt>
<rscale>  0 0.18803598E+03</rscale>
<asrwt>0</asrwt>
<pdfrwt beam="1">  1        1 0.22650015E+00 0.18803598E+03</pdfrwt>
<pdfrwt beam="2">  1       -1 0.92369099E-03 0.18803598E+03</pdfrwt>
<totfact> 0.15497453E+04</totfact>
</mgrwt>
</event>
<event>
 4    1  0.3147937E-004  0.2170199E+03  0.7818608E-02  0.1136125E+00
         -1   -1    0    0    0  501 -0.00000000000E+00  0.00000000000E+00  0.73793700241E+01  0.73793717452E+01  0.50400000000E-02 0.  1.
          1   -1    0    0  501    0  0.00000000000E+00 -0.00000000000E+00 -0.15955841972E+04  0.15955841972E+04  0.50400000000E-02 0. -1.
    5000001    1    1    2    0    0 -0.75554748307E+01 -0.73529520762E+02 -0.64979010185E+03  0.65849817925E+03  0.77000000000E+02 0.  0.
   -5000001    1    1    2    0    0  0.75554748307E+01  0.73529520762E+02 -0.93841472529E+03  0.94446538966E+03  0.77000000000E+02 0.  0.
<mgrwt>
<rscale>  0 0.21701988E+03</rscale>
<asrwt>0</asrwt>
<pdfrwt beam="1">  1        1 0.24547422E+00 0.21701988E+03</pdfrwt>
<pdfrwt beam="2">  1       -1 0.11352891E-02 0.21701988E+03</pdfrwt>
<totfact> 0.96190893E+03</totfact>
</mgrwt>
</event>
<event>
 4    1  0.3147937E-004  0.2354665E+03  0.7818608E-02  0.1122850E+00
          1   -1    0    0  501    0  0.00000000000E+00  0.00000000000E+00  0.19785622864E+03  0.19785622871E+03  0.50400000000E-02 0.  1.
         -1   -1    0    0    0  501 -0.00000000000E+00 -0.00000000000E+00 -0.70056511735E+02  0.70056511916E+02  0.50400000000E-02 0. -1.
    5000001    1    1    2    0    0 -0.38629960428E+02 -0.50086812180E+02  0.13523841489E+03  0.16798628354E+03  0.77000000000E+02 0.  0.
   -5000001    1    1    2    0    0  0.38629960428E+02  0.50086812180E+02 -0.74386979797E+01  0.99926457081E+02  0.77000000000E+02 0.  0.
<mgrwt>
<rscale>  0 0.23546649E+03</rscale>
<asrwt>0</asrwt>
<pdfrwt beam="1">  1        1 0.30439420E-01 0.23546649E+03</pdfrwt>
<pdfrwt beam="2">  1       -1 0.10777925E-01 0.23546649E+03</pdfrwt>
<totfact> 0.79202890E+03</totfact>
</mgrwt>
</event>
<event>
 4    1  0.3147937E-004  0.2123364E+03  0.7818608E-02  0.1139729E+00
          1   -1    0    0  501    0  0.00000000000E+00  0.00000000000E+00  0.19696593573E+04  0.19696593574E+04  0.50400000000E-02 0. -1.
         -1   -1    0    0    0  501 -0.00000000000E+00 -0.00000000000E+00 -0.57226589731E+01  0.57226611924E+01  0.50400000000E-02 0.  1.
    5000001    1    1    2    0    0 -0.43382424932E+01  0.37639918962E+02  0.40046231734E+03  0.40955421064E+03  0.77000000000E+02 0.  0.
   -5000001    1    1    2    0    0  0.43382424932E+01 -0.37639918962E+02  0.15634743810E+04  0.15658278079E+04  0.77000000000E+02 0.  0.
<mgrwt>
<rscale>  0 0.21233644E+03</rscale>
<asrwt>0</asrwt>
<pdfrwt beam="1">  1        1 0.30302502E+00 0.21233644E+03</pdfrwt>
<pdfrwt beam="2">  1       -1 0.88040779E-03 0.21233644E+03</pdfrwt>
<totfact> 0.79426103E+03</totfact>
</mgrwt>
</event>
<event>
 4    1  0.3147937E-004  0.1762590E+03  0.7818608E-02  0.1171474E+00
         -1   -1    0    0    0  501 -0.00000000000E+00  0.00000000000E+00  0.17978130637E+02  0.17978131344E+02  0.50400000000E-02 0. -1.
          1   -1    0    0  501    0  0.00000000000E+00 -0.00000000000E+00 -0.43201415772E+03  0.43201415775E+03  0.50400000000E-02 0.  1.
    5000001    1    1    2    0    0 -0.15646696244E+02  0.32360322762E+02 -0.14737362346E+03  0.17011759017E+03  0.77000000000E+02 0.  0.
   -5000001    1    1    2    0    0  0.15646696244E+02 -0.32360322762E+02 -0.26666240362E+03  0.27987469892E+03  0.77000000000E+02 0.  0.
<mgrwt>
<rscale>  0 0.17625898E+03</rscale>
<asrwt>0</asrwt>
<pdfrwt beam="1">  1        1 0.66463709E-01 0.17625898E+03</pdfrwt>
<pdfrwt beam="2">  1       -1 0.27658666E-02 0.17625898E+03</pdfrwt>
<totfact> 0.22368792E+04</totfact>
</mgrwt>
</event>
<event>
 4    1  0.3147937E-004  0.1835895E+03  0.7818608E-02  0.1164374E+00
          1   -1    0    0  501    0  0.00000000000E+00  0.00000000000E+00  0.22652882594E+03  0.22652882600E+03  0.50400000000E-02 0. -1.
         -1   -1    0    0    0  501 -0.00000000000E+00 -0.00000000000E+00 -0.37197384466E+02  0.37197384807E+02  0.50400000000E-02 0.  1.
    5000001    1    1    2    0    0  0.18152088146E+02  0.40039220198E+02  0.60531333399E+02  0.10735771878E+03  0.77000000000E+02 0.  0.
   -5000001    1    1    2    0    0 -0.18152088146E+02 -0.40039220198E+02  0.12880010808E+03  0.15636849203E+03  0.77000000000E+02 0.  0.
<mgrwt>
<rscale>  0 0.18358954E+03</rscale>
<asrwt>0</asrwt>
<pdfrwt beam="1">  1        1 0.34850588E-01 0.18358954E+03</pdfrwt>
<pdfrwt beam="2">  1       -1 0.57226747E-02 0.18358954E+03</pdfrwt>
<totfact> 0.17228955E+04</totfact>
</mgrwt>
</event>
<event>
 4    1  0.3147937E-004  0.2353866E+03  0.7818608E-02  0.1122905E+00
          1   -1    0    0  501    0  0.00000000000E+00  0.00000000000E+00  0.47311890841E+03  0.47311890844E+03  0.50400000000E-02 0. -1.
         -1   -1    0    0    0  501 -0.00000000000E+00 -0.00000000000E+00 -0.29277434654E+02  0.29277435088E+02  0.50400000000E-02 0.  1.
    5000001    1    1    2    0    0  0.87574411206E+02  0.42515755748E+01  0.18917715401E+03  0.22227089101E+03  0.77000000000E+02 0.  0.
   -5000001    1    1    2    0    0 -0.87574411206E+02 -0.42515755748E+01  0.25466431975E+03  0.28012545251E+03  0.77000000000E+02 0.  0.
<mgrwt>
<rscale>  0 0.23538656E+03</rscale>
<asrwt>0</asrwt>
<pdfrwt beam="1">  1        1 0.72787524E-01 0.23538656E+03</pdfrwt>
<pdfrwt beam="2">  1       -1 0.45042208E-02 0.23538656E+03</pdfrwt>
<totfact> 0.98697912E+03</totfact>
</mgrwt>
</event>
<event>
 4    1  0.3147937E-004  0.2630686E+03  0.7818608E-02  0.1105313E+00
         -1   -1    0    0    0  501 -0.00000000000E+00  0.00000000000E+00  0.44865430612E+03  0.44865430615E+03  0.50400000000E-02 0.  1.
          1   -1    0    0  501    0  0.00000000000E+00 -0.00000000000E+00 -0.38562593726E+02  0.38562594055E+02  0.50400000000E-02 0. -1.
    5000001    1    1    2    0    0 -0.74652444448E+02 -0.61615092227E+02  0.12216020785E+03  0.17384338766E+03  0.77000000000E+02 0.  0.
   -5000001    1    1    2    0    0  0.74652444448E+02  0.61615092227E+02  0.28793150455E+03  0.31337351255E+03  0.77000000000E+02 0.  0.
<mgrwt>
<rscale>  0 0.26306861E+03</rscale>
<asrwt>0</asrwt>
<pdfrwt beam="1">  1        1 0.59327067E-02 0.26306861E+03</pdfrwt>
<pdfrwt beam="2">  1       -1 0.69023740E-01 0.26306861E+03</pdfrwt>
<totfact> 0.28819023E+03</totfact>
</mgrwt>
</event>
<event>
 4    1  0.3147937E-004  0.2793814E+03  0.7818608E-02  0.1096027E+00
         -1   -1    0    0    0  501 -0.00000000000E+00  0.00000000000E+00  0.12947973974E+02  0.12947974955E+02  0.50400000000E-02 0. -1.
          1   -1    0    0  501    0  0.00000000000E+00 -0.00000000000E+00 -0.15070691346E+04  0.15070691346E+04  0.50400000000E-02 0.  1.
    5000001    1    1    2    0    0  0.22417112610E+02 -0.10505397238E+03 -0.50098734864E+03  0.51812757844E+03  0.77000000000E+02 0.  0.
   -5000001    1    1    2    0    0 -0.22417112610E+02  0.10505397238E+03 -0.99313381195E+03  0.10018895311E+04  0.77000000000E+02 0.  0.
<mgrwt>
<rscale>  0 0.27938141E+03</rscale>
<asrwt>0</asrwt>
<pdfrwt beam="1">  1        1 0.23185665E+00 0.27938141E+03</pdfrwt>
<pdfrwt beam="2">  1       -1 0.19919973E-02 0.27938141E+03</pdfrwt>
<totfact> 0.48838495E+03</totfact>
</mgrwt>
</event>
<event>
 4    1  0.3147937E-004  0.2325830E+03  0.7818608E-02  0.1124835E+00
          1   -1    0    0  501    0  0.00000000000E+00  0.00000000000E+00  0.30182477319E+03  0.30182477323E+03  0.50400000000E-02 0. -1.
         -1   -1    0    0    0  501 -0.00000000000E+00 -0.00000000000E+00 -0.44806508544E+02  0.44806508827E+02  0.50400000000E-02 0.  1.
    5000001    1    1    2    0    0 -0.61252411349E+02  0.56260918624E+02  0.89715057619E+02  0.14455082298E+03  0.77000000000E+02 0.  0.
   -5000001    1    1    2    0    0  0.61252411349E+02 -0.56260918624E+02  0.16730320703E+03  0.20208045908E+03  0.77000000000E+02 0.  0.
<mgrwt>
<rscale>  0 0.23258301E+03</rscale>
<asrwt>0</asrwt>
<pdfrwt beam="1">  1        1 0.46434580E-01 0.23258301E+03</pdfrwt>
<pdfrwt beam="2">  1       -1 0.68933091E-02 0.23258301E+03</pdfrwt>
<totfact> 0.92390990E+03</totfact>
</mgrwt>
</event>
<event>
 4    1  0.3147937E-004  0.1786737E+03  0.7818608E-02  0.1169093E+00
          1   -1    0    0  501    0  0.00000000000E+00  0.00000000000E+00  0.17130928708E+03  0.17130928715E+03  0.50400000000E-02 0.  1.
         -1   -1    0    0    0  501 -0.00000000000E+00 -0.00000000000E+00 -0.46588650631E+02  0.46588650903E+02  0.50400000000E-02 0. -1.
    5000001    1    1    2    0    0 -0.40179789332E+02  0.19204121561E+02  0.72479834159E+02  0.11474118753E+03  0.77000000000E+02 0.  0.
   -5000001    1    1    2    0    0  0.40179789332E+02 -0.19204121561E+02  0.52240802289E+02  0.10315675053E+03  0.77000000000E+02 0.  0.
<mgrwt>
<rscale>  0 0.17867365E+03</rscale>
<asrwt>0</asrwt>
<pdfrwt beam="1">  1        1 0.26355275E-01 0.17867365E+03</pdfrwt>
<pdfrwt beam="2">  1       -1 0.71674848E-02 0.17867365E+03</pdfrwt>
<totfact> 0.17393652E+04</totfact>
</mgrwt>
</event>
<event>
 4    1  0.3147937E-004  0.2573201E+03  0.7818608E-02  0.1108764E+00
          1   -1    0    0  501    0  0.00000000000E+00  0.00000000000E+00  0.68035324312E+03  0.68035324314E+03  0.50400000000E-02 0.  1.
         -1   -1    0    0    0  501 -0.00000000000E+00 -0.00000000000E+00 -0.24330614614E+02  0.24330615136E+02  0.50400000000E-02 0. -1.
    5000001    1    1    2    0    0 -0.38275232785E+02  0.58638063111E+02  0.53514770782E+03  0.54517472894E+03  0.77000000000E+02 0.  0.
   -5000001    1    1    2    0    0  0.38275232785E+02 -0.58638063111E+02  0.12087492068E+03  0.15950912933E+03  0.77000000000E+02 0.  0.
<mgrwt>
<rscale>  0 0.25732013E+03</rscale>
<asrwt>0</asrwt>
<pdfrwt beam="1">  1        1 0.10466972E+00 0.25732013E+03</pdfrwt>
<pdfrwt beam="2">  1       -1 0.37431720E-02 0.25732013E+03</pdfrwt>
<totfact> 0.79328728E+03</totfact>
</mgrwt>
</event>
<event>
 4    1  0.3147937E-004  0.2656012E+03  0.7818608E-02  0.1103824E+00
         -1   -1    0    0    0  501 -0.00000000000E+00  0.00000000000E+00  0.60746167211E+03  0.60746167214E+03  0.50400000000E-02 0. -1.
          1   -1    0    0  501    0  0.00000000000E+00 -0.00000000000E+00 -0.29032289812E+02  0.29032290249E+02  0.50400000000E-02 0.  1.
    5000001    1    1    2    0    0 -0.69674924895E+02  0.82293585472E+02  0.31067229526E+03  0.33774710126E+03  0.77000000000E+02 0.  0.
   -5000001    1    1    2    0    0  0.69674924895E+02 -0.82293585472E+02  0.26775708705E+03  0.29874686113E+03  0.77000000000E+02 0.  0.
<mgrwt>
<rscale>  0 0.26560123E+03</rscale>
<asrwt>0</asrwt>
<pdfrwt beam="1">  1        1 0.44665063E-02 0.26560123E+03</pdfrwt>
<pdfrwt beam="2">  1       -1 0.93455638E-01 0.26560123E+03</pdfrwt>
<totfact> 0.22750691E+03</totfact>
</mgrwt>
</event>
<event>
 4    1  0.3147937E-004  0.2175295E+03  0.7818608E-02  0.1135738E+00
         -1   -1    0    0    0  501 -0.00000000000E+00  0.00000000000E+00  0.62539135664E+01  0.62539155973E+01  0.50400000000E-02 0.  1.
          1   -1    0    0  501    0  0.00000000000E+00 -0.00000000000E+00 -0.18915781118E+04  0.18915781118E+04  0.50400000000E-02 0. -1.
    5000001    1    1    2    0    0 -0.27184241977E+01  0.63662165197E+02 -0.56837196394E+03  0.57709267064E+03  0.77000000000E+02 0.  0.
   -5000001    1    1    2    0    0  0.27184241977E+01 -0.63662165197E+02 -0.13169522343E+04  0.13207393567E+04  0.77000000000E+02 0.  0.
<mgrwt>
<rscale>  0 0.21752947E+03</rscale>
<asrwt>0</asrwt>
<pdfrwt beam="1">  1        1 0.29101156E+00 0.21752947E+03</pdfrwt>
<pdfrwt beam="2">  1       -1 0.96214222E-03 0.21752947E+03</pdfrwt>
<totfact> 0.78537951E+03</totfact>
</mgrwt>
</event>
<event>
 4    1  0.3147937E-004  0.2413806E+03  0.7818608E-02  0.1118877E+00
          1   -1    0    0  501    0  0.00000000000E+00  0.00000000000E+00  0.20674640817E+04  0.20674640817E+04  0.50400000000E-02 0.  1.
         -1   -1    0    0    0  501 -0.00000000000E+00 -0.00000000000E+00 -0.70454163475E+01  0.70454181502E+01  0.50400000000E-02 0. -1.
    5000001    1    1    2    0    0  0.65317787375E+02  0.18864997072E+02  0.15747715592E+04  0.15781181088E+04  0.77000000000E+02 0.  0.
   -5000001    1    1    2    0    0 -0.65317787375E+02 -0.18864997072E+02  0.48564710615E+03  0.49639139112E+03  0.77000000000E+02 0.  0.
<mgrwt>
<rscale>  0 0.24138059E+03</rscale>
<asrwt>0</asrwt>
<pdfrwt beam="1">  1        1 0.31807153E+00 0.24138059E+03</pdfrwt>
<pdfrwt beam="2">  1       -1 0.10839099E-02 0.24138059E+03</pdfrwt>
<totfact> 0.50988678E+03</totfact>
</mgrwt>
</event>
<event>
 4    1  0.3147937E-004  0.4598906E+03  0.7818608E-02  0.1024813E+00
         -1   -1    0    0    0  501 -0.00000000000E+00  0.00000000000E+00  0.38323821062E+02  0.38323821394E+02  0.50400000000E-02 0. -1.
          1   -1    0    0  501    0  0.00000000000E+00 -0.00000000000E+00 -0.13796859273E+04  0.13796859273E+04  0.50400000000E-02 0.  1.
    5000001    1    1    2    0    0  0.20080227496E+03  0.87043823144E+01 -0.92019577695E+03  0.94503258558E+03  0.77000000000E+02 0.  0.
   -5000001    1    1    2    0    0 -0.20080227496E+03 -0.87043823144E+01 -0.42116632925E+03  0.47297716308E+03  0.77000000000E+02 0.  0.
<mgrwt>
<rscale>  0 0.45989058E+03</rscale>
<asrwt>0</asrwt>
<pdfrwt beam="1">  1        1 0.21225934E+00 0.45989058E+03</pdfrwt>
<pdfrwt beam="2">  1       -1 0.58959736E-02 0.45989058E+03</pdfrwt>
<totfact> 0.11729460E+03</totfact>
</mgrwt>
</event>
<event>
 4    1  0.3147937E-004  0.2172026E+03  0.7818608E-02  0.1135986E+00
          1   -1    0    0  501    0  0.00000000000E+00  0.00000000000E+00  0.85037021994E+02  0.85037022143E+02  0.50400000000E-02 0. -1.
         -1   -1    0    0    0  501 -0.00000000000E+00 -0.00000000000E+00 -0.13869536302E+03  0.13869536311E+03  0.50400000000E-02 0.  1.
    5000001    1    1    2    0    0  0.39833063200E+02  0.56440721436E+02  0.72254832409E+01  0.10369877322E+03  0.77000000000E+02 0.  0.
   -5000001    1    1    2    0    0 -0.39833063200E+02 -0.56440721436E+02 -0.60883824269E+02  0.12003361203E+03  0.77000000000E+02 0.  0.
<mgrwt>
<rscale>  0 0.21720258E+03</rscale>
<asrwt>0</asrwt>
<pdfrwt beam="1">  1        1 0.13082619E-01 0.21720258E+03</pdfrwt>
<pdfrwt beam="2">  1       -1 0.21337748E-01 0.21720258E+03</pdfrwt>
<totfact> 0.79119543E+03</totfact>
</mgrwt>
</event>
<event>
 4    1  0.3147937E-004  0.2449661E+03  0.7818608E-02  0.1116528E+00
          1   -1    0    0  501    0  0.00000000000E+00  0.00000000000E+00  0.69837630193E+03  0.69837630195E+03  0.50400000000E-02 0.  1.
         -1   -1    0    0    0  501 -0.00000000000E+00 -0.00000000000E+00 -0.21481391378E+02  0.21481391970E+02  0.50400000000E-02 0. -1.
    5000001    1    1    2    0    0 -0.92178696309E+02  0.14971650442E+02  0.39358305381E+03  0.41177382459E+03  0.77000000000E+02 0.  0.
   -5000001    1    1    2    0    0  0.92178696309E+02 -0.14971650442E+02  0.28331185674E+03  0.30808386932E+03  0.77000000000E+02 0.  0.
<mgrwt>
<rscale>  0 0.24496608E+03</rscale>
<asrwt>0</asrwt>
<pdfrwt beam="1">  1        1 0.10744250E+00 0.24496608E+03</pdfrwt>
<pdfrwt beam="2">  1       -1 0.33048297E-02 0.24496608E+03</pdfrwt>
<totfact> 0.91669998E+03</totfact>
</mgrwt>
</event>
<event>
 4    1  0.3147937E-004  0.2182886E+03  0.7818608E-02  0.1135165E+00
         -1   -1    0    0    0  501 -0.00000000000E+00  0.00000000000E+00  0.22458318217E+02  0.22458318783E+02  0.50400000000E-02 0. -1.
          1   -1    0    0  501    0  0.00000000000E+00 -0.00000000000E+00 -0.53042615000E+03  0.53042615003E+03  0.50400000000E-02 0.  1.
    5000001    1    1    2    0    0 -0.71519174365E+02 -0.24482495182E+02 -0.29553245618E+03  0.31461534853E+03  0.77000000000E+02 0.  0.
   -5000001    1    1    2    0    0  0.71519174365E+02  0.24482495182E+02 -0.21243537560E+03  0.23826912028E+03  0.77000000000E+02 0.  0.
<mgrwt>
<rscale>  0 0.21828861E+03</rscale>
<asrwt>0</asrwt>
<pdfrwt beam="1">  1        1 0.81604014E-01 0.21828861E+03</pdfrwt>
<pdfrwt beam="2">  1       -1 0.34551263E-02 0.21828861E+03</pdfrwt>
<totfact> 0.12518133E+04</totfact>
</mgrwt>
</event>
<event>
 4    1  0.3147937E-004  0.2669345E+03  0.7818608E-02  0.1103047E+00
         -1   -1    0    0    0  501 -0.00000000000E+00  0.00000000000E+00  0.20115758761E+02  0.20115759392E+02  0.50400000000E-02 0. -1.
          1   -1    0    0  501    0  0.00000000000E+00 -0.00000000000E+00 -0.88554956294E+03  0.88554956295E+03  0.50400000000E-02 0.  1.
    5000001    1    1    2    0    0  0.86074487441E+02 -0.35440592874E+02 -0.24020067795E+03  0.26886840405E+03  0.77000000000E+02 0.  0.
   -5000001    1    1    2    0    0 -0.86074487441E+02  0.35440592874E+02 -0.62523312623E+03  0.63679691829E+03  0.77000000000E+02 0.  0.
<mgrwt>
<rscale>  0 0.26693446E+03</rscale>
<asrwt>0</asrwt>
<pdfrwt beam="1">  1        1 0.13623836E+00 0.26693446E+03</pdfrwt>
<pdfrwt beam="2">  1       -1 0.30947329E-02 0.26693446E+03</pdfrwt>
<totfact> 0.70466962E+03</totfact>
</mgrwt>
</event>
<event>
 4    1  0.3147937E-004  0.2722316E+03  0.7818608E-02  0.1100009E+00
          1   -1    0    0  501    0  0.00000000000E+00  0.00000000000E+00  0.72157642706E+03  0.72157642708E+03  0.50400000000E-02 0. -1.
         -1   -1    0    0    0  501 -0.00000000000E+00 -0.00000000000E+00 -0.25676440574E+02  0.25676441069E+02  0.50400000000E-02 0.  1.
    5000001    1    1    2    0    0 -0.97092462129E+02 -0.40608734978E+00  0.50253050964E+03  0.51758383304E+03  0.77000000000E+02 0.  0.
   -5000001    1    1    2    0    0  0.97092462129E+02  0.40608734978E+00  0.19336947684E+03  0.22966903510E+03  0.77000000000E+02 0.  0.
<mgrwt>
<rscale>  0 0.27223163E+03</rscale>
<asrwt>0</asrwt>
<pdfrwt beam="1">  1        1 0.11101174E+00 0.27223163E+03</pdfrwt>
<pdfrwt beam="2">  1       -1 0.39502223E-02 0.27223163E+03</pdfrwt>
<totfact> 0.67330651E+03</totfact>
</mgrwt>
</event>
<event>
 4    1  0.3147937E-004  0.2578219E+03  0.7818608E-02  0.1108459E+00
         -1   -1    0    0    0  501 -0.00000000000E+00  0.00000000000E+00  0.49704758448E+02  0.49704758704E+02  0.50400000000E-02 0. -1.
          1   -1    0    0  501    0  0.00000000000E+00 -0.00000000000E+00 -0.33433497282E+03  0.33433497286E+03  0.50400000000E-02 0.  1.
    5000001    1    1    2    0    0  0.90418642206E+01  0.10115609602E+03 -0.17114973669E+03  0.21339058892E+03  0.77000000000E+02 0.  0.
   -5000001    1    1    2    0    0 -0.90418642206E+01 -0.10115609602E+03 -0.11348047768E+03  0.17064914264E+03  0.77000000000E+02 0.  0.
<mgrwt>
<rscale>  0 0.25782195E+03</rscale>
<asrwt>0</asrwt>
<pdfrwt beam="1">  1        1 0.51436148E-01 0.25782195E+03</pdfrwt>
<pdfrwt beam="2">  1       -1 0.76468862E-02 0.25782195E+03</pdfrwt>
<totfact> 0.69712268E+03</totfact>
</mgrwt>
</event>
<event>
 4    1  0.3147937E-004  0.2125915E+03  0.7818608E-02  0.1139530E+00
          1   -1    0    0  501    0  0.00000000000E+00  0.00000000000E+00  0.27098754017E+03  0.27098754022E+03  0.50400000000E-02 0.  1.
         -1   -1    0    0    0  501 -0.00000000000E+00 -0.00000000000E+00 -0.41694844993E+02  0.41694845298E+02  0.50400000000E-02 0. -1.
    5000001    1    1    2    0    0  0.22936665504E+02  0.69595844486E+02  0.11415556473E+03  0.15598129745E+03  0.77000000000E+02 0.  0.
   -5000001    1    1    2    0    0 -0.22936665504E+02 -0.69595844486E+02  0.11513713045E+03  0.15670108807E+03  0.77000000000E+02 0.  0.
<mgrwt>
<rscale>  0 0.21259147E+03</rscale>
<asrwt>0</asrwt>
<pdfrwt beam="1">  1        1 0.41690391E-01 0.21259147E+03</pdfrwt>
<pdfrwt beam="2">  1       -1 0.64145915E-02 0.21259147E+03</pdfrwt>
<totfact> 0.11726575E+04</totfact>
</mgrwt>
</event>
<event>
 4    1  0.3147937E-004  0.1843104E+03  0.7818608E-02  0.1163695E+00
          1   -1    0    0  501    0  0.00000000000E+00  0.00000000000E+00  0.10065725174E+04  0.10065725174E+04  0.50400000000E-02 0.  1.
         -1   -1    0    0    0  501 -0.00000000000E+00 -0.00000000000E+00 -0.84371227814E+01  0.84371242867E+01  0.50400000000E-02 0. -1.
    5000001    1    1    2    0    0  0.67119382346E+01  0.21569158411E+02  0.74861128987E+03  0.75289982204E+03  0.77000000000E+02 0.  0.
   -5000001    1    1    2    0    0 -0.67119382346E+01 -0.21569158411E+02  0.24952410471E+03  0.26210981962E+03  0.77000000000E+02 0.  0.
<mgrwt>
<rscale>  0 0.18431035E+03</rscale>
<asrwt>0</asrwt>
<pdfrwt beam="1">  1        1 0.15485722E+00 0.18431035E+03</pdfrwt>
<pdfrwt beam="2">  1       -1 0.12980198E-02 0.18431035E+03</pdfrwt>
<totfact> 0.19872393E+04</totfact>
</mgrwt>
</event>
<event>
 4    1  0.3147937E-004  0.2197367E+03  0.7818608E-02  0.1134080E+00
          1   -1    0    0  501    0  0.00000000000E+00  0.00000000000E+00  0.68948598766E+02  0.68948598950E+02  0.50400000000E-02 0.  1.
         -1   -1    0    0    0  501 -0.00000000000E+00 -0.00000000000E+00 -0.17507319355E+03  0.17507319363E+03  0.50400000000E-02 0. -1.
    5000001    1    1    2    0    0 -0.32742429081E+01  0.41984676000E+02 -0.12646264039E+03  0.15393256023E+03  0.77000000000E+02 0.  0.
   -5000001    1    1    2    0    0  0.32742429081E+01 -0.41984676000E+02  0.20338045601E+02  0.90089232344E+02  0.77000000000E+02 0.  0.
<mgrwt>
<rscale>  0 0.21973667E+03</rscale>
<asrwt>0</asrwt>
<pdfrwt beam="1">  1        1 0.10607477E-01 0.21973667E+03</pdfrwt>
<pdfrwt beam="2">  1       -1 0.26934337E-01 0.21973667E+03</pdfrwt>
<totfact> 0.71195636E+03</totfact>
</mgrwt>
</event>
<event>
 4    1  0.3147937E-004  0.3197094E+03  0.7818608E-02  0.1075783E+00
          1   -1    0    0  501    0  0.00000000000E+00  0.00000000000E+00  0.31210536260E+03  0.31210536264E+03  0.50400000000E-02 0.  1.
         -1   -1    0    0    0  501 -0.00000000000E+00 -0.00000000000E+00 -0.81874680538E+02  0.81874680693E+02  0.50400000000E-02 0. -1.
    5000001    1    1    2    0    0  0.28284731610E+02 -0.90178592289E+02  0.24254039453E+03  0.27145358264E+03  0.77000000000E+02 0.  0.
   -5000001    1    1    2    0    0 -0.28284731610E+02  0.90178592289E+02 -0.12309712467E+02  0.12252646070E+03  0.77000000000E+02 0.  0.
<mgrwt>
<rscale>  0 0.31970941E+03</rscale>
<asrwt>0</asrwt>
<pdfrwt beam="1">  1        1 0.48016210E-01 0.31970941E+03</pdfrwt>
<pdfrwt beam="2">  1       -1 0.12596105E-01 0.31970941E+03</pdfrwt>
<totfact> 0.35366017E+03</totfact>
</mgrwt>
</event>
<event>
 4    1  0.3147937E-004  0.2793040E+03  0.7818608E-02  0.1096070E+00
         -1   -1    0    0    0  501 -0.00000000000E+00  0.00000000000E+00  0.12204620561E+02  0.12204621602E+02  0.50400000000E-02 0. -1.
          1   -1    0    0  501    0  0.00000000000E+00 -0.00000000000E+00 -0.15979749836E+04  0.15979749837E+04  0.50400000000E-02 0.  1.
    5000001    1    1    2    0    0  0.54594621902E+01  0.76461505253E+02 -0.28709270449E+03  0.30696480007E+03  0.77000000000E+02 0.  0.
   -5000001    1    1    2    0    0 -0.54594621902E+01 -0.76461505253E+02 -0.12986776586E+04  0.13032148052E+04  0.77000000000E+02 0.  0.
<mgrwt>
<rscale>  0 0.27930399E+03</rscale>
<asrwt>0</asrwt>
<pdfrwt beam="1">  1        1 0.24584214E+00 0.27930399E+03</pdfrwt>
<pdfrwt beam="2">  1       -1 0.18776353E-02 0.27930399E+03</pdfrwt>
<totfact> 0.46378848E+03</totfact>
</mgrwt>
</event>
<event>
 4    1  0.3147937E-004  0.1738571E+03  0.7818608E-02  0.1173884E+00
          1   -1    0    0  501    0  0.00000000000E+00  0.00000000000E+00  0.16061850301E+04  0.16061850301E+04  0.50400000000E-02 0.  1.
         -1   -1    0    0    0  501 -0.00000000000E+00 -0.00000000000E+00 -0.47046718177E+01  0.47046745173E+01  0.50400000000E-02 0. -1.
    5000001    1    1    2    0    0  0.31952541302E+02  0.16533318531E+02  0.63159292208E+03  0.63728559904E+03  0.77000000000E+02 0.  0.
   -5000001    1    1    2    0    0 -0.31952541302E+02 -0.16533318531E+02  0.96988743624E+03  0.97360410563E+03  0.77000000000E+02 0.  0.
<mgrwt>
<rscale>  0 0.17385713E+03</rscale>
<asrwt>0</asrwt>
<pdfrwt beam="1">  1        1 0.24710533E+00 0.17385713E+03</pdfrwt>
<pdfrwt beam="2">  1       -1 0.72379604E-03 0.17385713E+03</pdfrwt>
<totfact> 0.17895144E+04</totfact>
</mgrwt>
</event>
<event>
 4    1  0.3147937E-004  0.1673140E+03  0.7818608E-02  0.1180678E+00
         -1   -1    0    0    0  501 -0.00000000000E+00  0.00000000000E+00  0.62804231779E+02  0.62804231981E+02  0.50400000000E-02 0. -1.
          1   -1    0    0  501    0  0.00000000000E+00 -0.00000000000E+00 -0.11143349540E+03  0.11143349551E+03  0.50400000000E-02 0.  1.
    5000001    1    1    2    0    0  0.24715243096E+02  0.18211013181E+02 -0.36050907320E+02  0.90394425497E+02  0.77000000000E+02 0.  0.
   -5000001    1    1    2    0    0 -0.24715243096E+02 -0.18211013181E+02 -0.12578356298E+02  0.83843301995E+02  0.77000000000E+02 0.  0.
<mgrwt>
<rscale>  0 0.16731402E+03</rscale>
<asrwt>0</asrwt>
<pdfrwt beam="1">  1        1 0.17143615E-01 0.16731402E+03</pdfrwt>
<pdfrwt beam="2">  1       -1 0.96621895E-02 0.16731402E+03</pdfrwt>
<totfact> 0.19005393E+04</totfact>
</mgrwt>
</event>
<event>
 4    1  0.3147937E-004  0.2090706E+03  0.7818608E-02  0.1142304E+00
          1   -1    0    0  501    0  0.00000000000E+00  0.00000000000E+00  0.16934232687E+04  0.16934232687E+04  0.50400000000E-02 0. -1.
         -1   -1    0    0    0  501 -0.00000000000E+00 -0.00000000000E+00 -0.64529810505E+01  0.64529830187E+01  0.50400000000E-02 0.  1.
    5000001    1    1    2    0    0  0.59848348001E+02 -0.30684588839E+02  0.66623340774E+03  0.67403213747E+03  0.77000000000E+02 0.  0.
   -5000001    1    1    2    0    0 -0.59848348001E+02  0.30684588839E+02  0.10207368799E+04  0.10258441142E+04  0.77000000000E+02 0.  0.
<mgrwt>
<rscale>  0 0.20907061E+03</rscale>
<asrwt>0</asrwt>
<pdfrwt beam="1">  1        1 0.26052678E+00 0.20907061E+03</pdfrwt>
<pdfrwt beam="2">  1       -1 0.99276601E-03 0.20907061E+03</pdfrwt>
<totfact> 0.10068835E+04</totfact>
</mgrwt>
</event>
<event>
 4    1  0.3147937E-004  0.2990721E+03  0.7818608E-02  0.1085705E+00
          1   -1    0    0  501    0  0.00000000000E+00  0.00000000000E+00  0.18668871259E+04  0.18668871259E+04  0.50400000000E-02 0.  1.
         -1   -1    0    0    0  501 -0.00000000000E+00 -0.00000000000E+00 -0.11977711140E+02  0.11977712200E+02  0.50400000000E-02 0. -1.
    5000001    1    1    2    0    0 -0.67742215059E+02  0.25043023893E+02  0.15927832657E+04  0.15962780749E+04  0.77000000000E+02 0.  0.
   -5000001    1    1    2    0    0  0.67742215059E+02 -0.25043023893E+02  0.26212614903E+03  0.28258676323E+03  0.77000000000E+02 0.  0.
<mgrwt>
<rscale>  0 0.29907214E+03</rscale>
<asrwt>0</asrwt>
<pdfrwt beam="1">  1        1 0.28721336E+00 0.29907214E+03</pdfrwt>
<pdfrwt beam="2">  1       -1 0.18427252E-02 0.29907214E+03</pdfrwt>
<totfact> 0.31813108E+03</totfact>
</mgrwt>
</event>
<event>
 4    1  0.3147937E-004  0.1943504E+03  0.7818608E-02  0.1154595E+00
          1   -1    0    0  501    0  0.00000000000E+00  0.00000000000E+00  0.37046919742E+03  0.37046919745E+03  0.50400000000E-02 0.  1.
         -1   -1    0    0    0  501 -0.00000000000E+00 -0.00000000000E+00 -0.25489351356E+02  0.25489351854E+02  0.50400000000E-02 0. -1.
    5000001    1    1    2    0    0 -0.26623581147E+02 -0.17625354639E+02  0.70733808691E+02  0.10932401333E+03  0.77000000000E+02 0.  0.
   -5000001    1    1    2    0    0  0.26623581147E+02  0.17625354639E+02  0.27424603737E+03  0.28663453598E+03  0.77000000000E+02 0.  0.
<mgrwt>
<rscale>  0 0.19435040E+03</rscale>
<asrwt>0</asrwt>
<pdfrwt beam="1">  1        1 0.56995266E-01 0.19435040E+03</pdfrwt>
<pdfrwt beam="2">  1       -1 0.39214384E-02 0.19435040E+03</pdfrwt>
<totfact> 0.16408378E+04</totfact>
</mgrwt>
</event>
<event>
 4    1  0.3147937E-004  0.2133116E+03  0.7818608E-02  0.1138970E+00
         -1   -1    0    0    0  501 -0.00000000000E+00  0.00000000000E+00  0.94203767530E+01  0.94203781012E+01  0.50400000000E-02 0. -1.
          1   -1    0    0  501    0  0.00000000000E+00 -0.00000000000E+00 -0.12075375050E+04  0.12075375050E+04  0.50400000000E-02 0.  1.
    5000001    1    1    2    0    0  0.41773879362E+02 -0.54776255068E+02 -0.75010445974E+03  0.75718636783E+03  0.77000000000E+02 0.  0.
   -5000001    1    1    2    0    0 -0.41773879362E+02  0.54776255068E+02 -0.44801266855E+03  0.45977151531E+03  0.77000000000E+02 0.  0.
<mgrwt>
<rscale>  0 0.21331159E+03</rscale>
<asrwt>0</asrwt>
<pdfrwt beam="1">  1        1 0.18577488E+00 0.21331159E+03</pdfrwt>
<pdfrwt beam="2">  1       -1 0.14492898E-02 0.21331159E+03</pdfrwt>
<totfact> 0.12278960E+04</totfact>
</mgrwt>
</event>
<event>
 4    1  0.3147937E-004  0.2641863E+03  0.7818608E-02  0.1104654E+00
         -1   -1    0    0    0  501 -0.00000000000E+00  0.00000000000E+00  0.37221276117E+02  0.37221276458E+02  0.50400000000E-02 0. -1.
          1   -1    0    0  501    0  0.00000000000E+00 -0.00000000000E+00 -0.46878030653E+03  0.46878030655E+03  0.50400000000E-02 0.  1.
    5000001    1    1    2    0    0 -0.10706153834E+03 -0.61824169100E+01 -0.22417335332E+03  0.26015973480E+03  0.77000000000E+02 0.  0.
   -5000001    1    1    2    0    0  0.10706153834E+03  0.61824169100E+01 -0.20738567709E+03  0.24584184822E+03  0.77000000000E+02 0.  0.
<mgrwt>
<rscale>  0 0.26418631E+03</rscale>
<asrwt>0</asrwt>
<pdfrwt beam="1">  1        1 0.72120043E-01 0.26418631E+03</pdfrwt>
<pdfrwt beam="2">  1       -1 0.57263505E-02 0.26418631E+03</pdfrwt>
<totfact> 0.70071717E+03</totfact>
</mgrwt>
</event>
<event>
 4    1  0.3147937E-004  0.7998476E+03  0.7818608E-02  0.9560238E-01
          1   -1    0    0  501    0  0.00000000000E+00  0.00000000000E+00  0.27176563285E+03  0.27176563289E+03  0.50400000000E-02 0.  1.
         -1   -1    0    0    0  501 -0.00000000000E+00 -0.00000000000E+00 -0.58851829918E+03  0.58851829921E+03  0.50400000000E-02 0. -1.
    5000001    1    1    2    0    0  0.10893510493E+03  0.29469400115E+03  0.94548676053E+02  0.33701611763E+03  0.77000000000E+02 0.  0.
   -5000001    1    1    2    0    0 -0.10893510493E+03 -0.29469400115E+03 -0.41130134239E+03  0.52326781446E+03  0.77000000000E+02 0.  0.
<mgrwt>
<rscale>  0 0.79984761E+03</rscale>
<asrwt>0</asrwt>
<pdfrwt beam="1">  1        1 0.41810097E-01 0.79984761E+03</pdfrwt>
<pdfrwt beam="2">  1       -1 0.90541277E-01 0.79984761E+03</pdfrwt>
<totfact> 0.12040072E+02</totfact>
</mgrwt>
</event>
<event>
 4    1  0.3147937E-004  0.2111458E+03  0.7818608E-02  0.1140662E+00
          1   -1    0    0  501    0  0.00000000000E+00  0.00000000000E+00  0.68973969798E+03  0.68973969800E+03  0.50400000000E-02 0.  1.
         -1   -1    0    0    0  501 -0.00000000000E+00 -0.00000000000E+00 -0.16159189032E+02  0.16159189818E+02  0.50400000000E-02 0. -1.
    5000001    1    1    2    0    0  0.52004740917E+02  0.25038219057E+02  0.48194864867E+03  0.49146200814E+03  0.77000000000E+02 0.  0.
   -5000001    1    1    2    0    0 -0.52004740917E+02 -0.25038219057E+02  0.19163186028E+03  0.21443687968E+03  0.77000000000E+02 0.  0.
<mgrwt>
<rscale>  0 0.21114577E+03</rscale>
<asrwt>0</asrwt>
<pdfrwt beam="1">  1        1 0.10611380E+00 0.21114577E+03</pdfrwt>
<pdfrwt beam="2">  1       -1 0.24860292E-02 0.21114577E+03</pdfrwt>
<totfact> 0.14079935E+04</totfact>
</mgrwt>
</event>
<event>
 4    1  0.3147937E-004  0.1646506E+03  0.7818608E-02  0.1183544E+00
         -1   -1    0    0    0  501 -0.00000000000E+00  0.00000000000E+00  0.65349750293E+01  0.65349769728E+01  0.50400000000E-02 0. -1.
          1   -1    0    0  501    0  0.00000000000E+00 -0.00000000000E+00 -0.10371049075E+04  0.10371049075E+04  0.50400000000E-02 0.  1.
    5000001    1    1    2    0    0  0.38208806016E+01  0.26650144196E+02 -0.58576123523E+03  0.59141360655E+03  0.77000000000E+02 0.  0.
   -5000001    1    1    2    0    0 -0.38208806016E+01 -0.26650144196E+02 -0.44480869726E+03  0.45222627795E+03  0.77000000000E+02 0.  0.
<mgrwt>
<rscale>  0 0.16465061E+03</rscale>
<asrwt>0</asrwt>
<pdfrwt beam="1">  1        1 0.15955447E+00 0.16465061E+03</pdfrwt>
<pdfrwt beam="2">  1       -1 0.10053817E-02 0.16465061E+03</pdfrwt>
<totfact> 0.27030310E+04</totfact>
</mgrwt>
</event>
<event>
 4    1  0.3147937E-004  0.1642741E+03  0.7818608E-02  0.1183954E+00
          1   -1    0    0  501    0  0.00000000000E+00  0.00000000000E+00  0.26706807786E+02  0.26706808261E+02  0.50400000000E-02 0.  1.
         -1   -1    0    0    0  501 -0.00000000000E+00 -0.00000000000E+00 -0.25261337091E+03  0.25261337096E+03  0.50400000000E-02 0. -1.
    5000001    1    1    2    0    0 -0.22570395606E+02 -0.15239058741E+02 -0.12776130354E+03  0.15163641499E+03  0.77000000000E+02 0.  0.
   -5000001    1    1    2    0    0  0.22570395606E+02  0.15239058741E+02 -0.98145259586E+02  0.12768376423E+03  0.77000000000E+02 0.  0.
<mgrwt>
<rscale>  0 0.16427412E+03</rscale>
<asrwt>0</asrwt>
<pdfrwt beam="1">  1        1 0.41087399E-02 0.16427412E+03</pdfrwt>
<pdfrwt beam="2">  1       -1 0.38863594E-01 0.16427412E+03</pdfrwt>
<totfact> 0.13551963E+04</totfact>
</mgrwt>
</event>
<event>
 4    1  0.3147937E-004  0.3830304E+03  0.7818608E-02  0.1049819E+00
         -1   -1    0    0    0  501 -0.00000000000E+00  0.00000000000E+00  0.11025761447E+03  0.11025761459E+03  0.50400000000E-02 0. -1.
          1   -1    0    0  501    0  0.00000000000E+00 -0.00000000000E+00 -0.33265787981E+03  0.33265787985E+03  0.50400000000E-02 0.  1.
    5000001    1    1    2    0    0  0.15947991248E+03  0.42048536873E+02 -0.42330624207E+02  0.18687643961E+03  0.77000000000E+02 0.  0.
   -5000001    1    1    2    0    0 -0.15947991248E+03 -0.42048536873E+02 -0.18006964113E+03  0.25603905482E+03  0.77000000000E+02 0.  0.
<mgrwt>
<rscale>  0 0.38303036E+03</rscale>
<asrwt>0</asrwt>
<pdfrwt beam="1">  1        1 0.51178135E-01 0.38303036E+03</pdfrwt>
<pdfrwt beam="2">  1       -1 0.16962710E-01 0.38303036E+03</pdfrwt>
<totfact> 0.20343919E+03</totfact>
</mgrwt>
</event>
<event>
 4    1  0.3147937E-004  0.3460311E+03  0.7818608E-02  0.1064256E+00
         -1   -1    0    0    0  501 -0.00000000000E+00  0.00000000000E+00  0.70159162649E+03  0.70159162651E+03  0.50400000000E-02 0. -1.
          1   -1    0    0  501    0  0.00000000000E+00 -0.00000000000E+00 -0.42666388770E+02  0.42666389067E+02  0.50400000000E-02 0.  1.
    5000001    1    1    2    0    0 -0.10504260557E+03  0.48960151705E+02  0.10828818171E+03  0.17631328860E+03  0.77000000000E+02 0.  0.
   -5000001    1    1    2    0    0  0.10504260557E+03 -0.48960151705E+02  0.55063705602E+03  0.56794472698E+03  0.77000000000E+02 0.  0.
<mgrwt>
<rscale>  0 0.34603110E+03</rscale>
<asrwt>0</asrwt>
<pdfrwt beam="1">  1        1 0.65640599E-02 0.34603110E+03</pdfrwt>
<pdfrwt beam="2">  1       -1 0.10793717E+00 0.34603110E+03</pdfrwt>
<totfact> 0.96981558E+02</totfact>
</mgrwt>
</event>
<event>
 4    1  0.3147937E-004  0.1971274E+03  0.7818608E-02  0.1152186E+00
         -1   -1    0    0    0  501 -0.00000000000E+00  0.00000000000E+00  0.43382450601E+02  0.43382450894E+02  0.50400000000E-02 0. -1.
          1   -1    0    0  501    0  0.00000000000E+00 -0.00000000000E+00 -0.22393390463E+03  0.22393390469E+03  0.50400000000E-02 0.  1.
    5000001    1    1    2    0    0  0.45980691783E+02 -0.24959124626E+02 -0.46363286876E+02  0.10399873215E+03  0.77000000000E+02 0.  0.
   -5000001    1    1    2    0    0 -0.45980691783E+02  0.24959124626E+02 -0.13418816716E+03  0.16331762343E+03  0.77000000000E+02 0.  0.
<mgrwt>
<rscale>  0 0.19712739E+03</rscale>
<asrwt>0</asrwt>
<pdfrwt beam="1">  1        1 0.34451369E-01 0.19712739E+03</pdfrwt>
<pdfrwt beam="2">  1       -1 0.66742233E-02 0.19712739E+03</pdfrwt>
<totfact> 0.13948004E+04</totfact>
</mgrwt>
</event>
<event>
 4    1  0.3147937E-004  0.1866376E+03  0.7818608E-02  0.1161529E+00
         -1   -1    0    0    0  501 -0.00000000000E+00  0.00000000000E+00  0.31525062872E+02  0.31525063275E+02  0.50400000000E-02 0.  1.
          1   -1    0    0  501    0  0.00000000000E+00 -0.00000000000E+00 -0.27623729140E+03  0.27623729145E+03  0.50400000000E-02 0. -1.
    5000001    1    1    2    0    0  0.19497259899E+02  0.46683099826E+02 -0.14681133183E+03  0.17332634568E+03  0.77000000000E+02 0.  0.
   -5000001    1    1    2    0    0 -0.19497259899E+02 -0.46683099826E+02 -0.97900896703E+02  0.13443600905E+03  0.77000000000E+02 0.  0.
<mgrwt>
<rscale>  0 0.18663760E+03</rscale>
<asrwt>0</asrwt>
<pdfrwt beam="1">  1        1 0.42498043E-01 0.18663760E+03</pdfrwt>
<pdfrwt beam="2">  1       -1 0.48500099E-02 0.18663760E+03</pdfrwt>
<totfact> 0.17243876E+04</totfact>
</mgrwt>
</event>
<event>
 4    1  0.3147937E-004  0.2595050E+03  0.7818608E-02  0.1107441E+00
         -1   -1    0    0    0  501 -0.00000000000E+00  0.00000000000E+00  0.57561160747E+01  0.57561182812E+01  0.50400000000E-02 0. -1.
          1   -1    0    0  501    0  0.00000000000E+00 -0.00000000000E+00 -0.29248377367E+04  0.29248377367E+04  0.50400000000E-02 0.  1.
    5000001    1    1    2    0    0  0.17043847181E+01  0.83445694312E+02 -0.21684526202E+04  0.21714239234E+04  0.77000000000E+02 0.  0.
   -5000001    1    1    2    0    0 -0.17043847181E+01 -0.83445694312E+02 -0.75062900043E+03  0.75916993164E+03  0.77000000000E+02 0.  0.
<mgrwt>
<rscale>  0 0.25950498E+03</rscale>
<asrwt>0</asrwt>
<pdfrwt beam="1">  1        1 0.44997385E+00 0.25950498E+03</pdfrwt>
<pdfrwt beam="2">  1       -1 0.88555883E-03 0.25950498E+03</pdfrwt>
<totfact> 0.18337408E+03</totfact>
</mgrwt>
</event>
<event>
 4    1  0.3147937E-004  0.2730895E+03  0.7818608E-02  0.1099524E+00
          1   -1    0    0  501    0  0.00000000000E+00  0.00000000000E+00  0.13334793839E+04  0.13334793839E+04  0.50400000000E-02 0.  1.
         -1   -1    0    0    0  501 -0.00000000000E+00 -0.00000000000E+00 -0.13981822010E+02  0.13981822918E+02  0.50400000000E-02 0. -1.
    5000001    1    1    2    0    0  0.10821087576E+03 -0.13957417466E+02  0.51922814703E+03  0.53612617154E+03  0.77000000000E+02 0.  0.
   -5000001    1    1    2    0    0 -0.10821087576E+03  0.13957417466E+02  0.80026941489E+03  0.81133503533E+03  0.77000000000E+02 0.  0.
<mgrwt>
<rscale>  0 0.27308952E+03</rscale>
<asrwt>0</asrwt>
<pdfrwt beam="1">  1        1 0.20515075E+00 0.27308952E+03</pdfrwt>
<pdfrwt beam="2">  1       -1 0.21510488E-02 0.27308952E+03</pdfrwt>
<totfact> 0.57040057E+03</totfact>
</mgrwt>
</event>
<event>
 4    1  0.3147937E-004  0.1741610E+03  0.7818608E-02  0.1173577E+00
          1   -1    0    0  501    0  0.00000000000E+00  0.00000000000E+00  0.68162785680E+03  0.68162785682E+03  0.50400000000E-02 0. -1.
         -1   -1    0    0    0  501 -0.00000000000E+00 -0.00000000000E+00 -0.11124861063E+02  0.11124862204E+02  0.50400000000E-02 0.  1.
    5000001    1    1    2    0    0  0.39689487163E+02 -0.14009298241E+01  0.30039360586E+03  0.31263802782E+03  0.77000000000E+02 0.  0.
   -5000001    1    1    2    0    0 -0.39689487163E+02  0.14009298241E+01  0.37010938988E+03  0.38011469121E+03  0.77000000000E+02 0.  0.
<mgrwt>
<rscale>  0 0.17416102E+03</rscale>
<asrwt>0</asrwt>
<pdfrwt beam="1">  1        1 0.10486585E+00 0.17416102E+03</pdfrwt>
<pdfrwt beam="2">  1       -1 0.17115168E-02 0.17416102E+03</pdfrwt>
<totfact> 0.24324096E+04</totfact>
</mgrwt>
</event>
<event>
 4    1  0.3147937E-004  0.2281863E+03  0.7818608E-02  0.1127923E+00
          1   -1    0    0  501    0  0.00000000000E+00  0.00000000000E+00  0.93476826105E+03  0.93476826106E+03  0.50400000000E-02 0. -1.
         -1   -1    0    0    0  501 -0.00000000000E+00 -0.00000000000E+00 -0.13925638135E+02  0.13925639047E+02  0.50400000000E-02 0.  1.
    5000001    1    1    2    0    0  0.70403463988E+02 -0.39814049601E+02  0.36323450844E+03  0.38001330820E+03  0.77000000000E+02 0.  0.
   -5000001    1    1    2    0    0 -0.70403463988E+02  0.39814049601E+02  0.55760811447E+03  0.56868059191E+03  0.77000000000E+02 0.  0.
<mgrwt>
<rscale>  0 0.22818628E+03</rscale>
<asrwt>0</asrwt>
<pdfrwt beam="1">  1        1 0.14381054E+00 0.22818628E+03</pdfrwt>
<pdfrwt beam="2">  1       -1 0.21424054E-02 0.22818628E+03</pdfrwt>
<totfact> 0.11007455E+04</totfact>
</mgrwt>
</event>
<event>
 4    1  0.3147937E-004  0.2121852E+03  0.7818608E-02  0.1139847E+00
         -1   -1    0    0    0  501 -0.00000000000E+00  0.00000000000E+00  0.11200579323E+02  0.11200580457E+02  0.50400000000E-02 0.  1.
          1   -1    0    0  501    0  0.00000000000E+00 -0.00000000000E+00 -0.10049161315E+04  0.10049161315E+04  0.50400000000E-02 0. -1.
    5000001    1    1    2    0    0  0.71563451485E+02  0.13991244439E+02 -0.51166515583E+03  0.52253929441E+03  0.77000000000E+02 0.  0.
   -5000001    1    1    2    0    0 -0.71563451485E+02 -0.13991244439E+02 -0.48205039637E+03  0.49357741759E+03  0.77000000000E+02 0.  0.
<mgrwt>
<rscale>  0 0.21218523E+03</rscale>
<asrwt>0</asrwt>
<pdfrwt beam="1">  1        1 0.15460241E+00 0.21218523E+03</pdfrwt>
<pdfrwt beam="2">  1       -1 0.17231669E-02 0.21218523E+03</pdfrwt>
<totfact> 0.13334944E+04</totfact>
</mgrwt>
</event>
<event>
 4    1  0.3147937E-004  0.2029956E+03  0.7818608E-02  0.1147236E+00
          1   -1    0    0  501    0  0.00000000000E+00  0.00000000000E+00  0.26715925896E+02  0.26715926371E+02  0.50400000000E-02 0.  1.
         -1   -1    0    0    0  501 -0.00000000000E+00 -0.00000000000E+00 -0.38560520651E+03  0.38560520654E+03  0.50400000000E-02 0. -1.
    5000001    1    1    2    0    0 -0.33359466565E+02  0.53210133928E+02 -0.13739239033E+03  0.16955778155E+03  0.77000000000E+02 0.  0.
   -5000001    1    1    2    0    0  0.33359466565E+02 -0.53210133928E+02 -0.22149689028E+03  0.24276335136E+03  0.77000000000E+02 0.  0.
<mgrwt>
<rscale>  0 0.20299557E+03</rscale>
<asrwt>0</asrwt>
<pdfrwt beam="1">  1        1 0.41101428E-02 0.20299557E+03</pdfrwt>
<pdfrwt beam="2">  1       -1 0.59323874E-01 0.20299557E+03</pdfrwt>
<totfact> 0.63576705E+03</totfact>
</mgrwt>
</event>
<event>
 4    1  0.3147937E-004  0.1887456E+03  0.7818608E-02  0.1159598E+00
         -1   -1    0    0    0  501 -0.00000000000E+00  0.00000000000E+00  0.60578988511E+02  0.60578988721E+02  0.50400000000E-02 0.  1.
          1   -1    0    0  501    0  0.00000000000E+00 -0.00000000000E+00 -0.14701835182E+03  0.14701835191E+03  0.50400000000E-02 0. -1.
    5000001    1    1    2    0    0  0.47560674596E+02 -0.14602437741E+02 -0.18577130342E+02  0.93538006862E+02  0.77000000000E+02 0.  0.
   -5000001    1    1    2    0    0 -0.47560674596E+02  0.14602437741E+02 -0.67862232969E+02  0.11405933377E+03  0.77000000000E+02 0.  0.
<mgrwt>
<rscale>  0 0.18874558E+03</rscale>
<asrwt>0</asrwt>
<pdfrwt beam="1">  1        1 0.22618208E-01 0.18874558E+03</pdfrwt>
<pdfrwt beam="2">  1       -1 0.93198445E-02 0.18874558E+03</pdfrwt>
<totfact> 0.14224209E+04</totfact>
</mgrwt>
</event>
<event>
 4    1  0.3147937E-004  0.2322377E+03  0.7818608E-02  0.1125075E+00
          1   -1    0    0  501    0  0.00000000000E+00  0.00000000000E+00  0.15477418437E+03  0.15477418445E+03  0.50400000000E-02 0. -1.
         -1   -1    0    0    0  501 -0.00000000000E+00 -0.00000000000E+00 -0.87117780113E+02  0.87117780259E+02  0.50400000000E-02 0.  1.
    5000001    1    1    2    0    0  0.75882875715E+01  0.75785834531E+02  0.77443890315E+02  0.13314515001E+03  0.77000000000E+02 0.  0.
   -5000001    1    1    2    0    0 -0.75882875715E+01 -0.75785834531E+02 -0.97874860617E+01  0.10874681470E+03  0.77000000000E+02 0.  0.
<mgrwt>
<rscale>  0 0.23223767E+03</rscale>
<asrwt>0</asrwt>
<pdfrwt beam="1">  1        1 0.23811413E-01 0.23223767E+03</pdfrwt>
<pdfrwt beam="2">  1       -1 0.13402736E-01 0.23223767E+03</pdfrwt>
<totfact> 0.76876048E+03</totfact>
</mgrwt>
</event>
<event>
 4    1  0.3147937E-004  0.1891799E+03  0.7818608E-02  0.1159203E+00
          1   -1    0    0  501    0  0.00000000000E+00  0.00000000000E+00  0.11804255068E+03  0.11804255079E+03  0.50400000000E-02 0.  1.
         -1   -1    0    0    0  501 -0.00000000000E+00 -0.00000000000E+00 -0.75796933011E+02  0.75796933179E+02  0.50400000000E-02 0. -1.
    5000001    1    1    2    0    0 -0.46050558451E+02 -0.11731462228E+02  0.49369582364E+02  0.10307587886E+03  0.77000000000E+02 0.  0.
   -5000001    1    1    2    0    0  0.46050558451E+02  0.11731462228E+02 -0.71239646933E+01  0.90763605110E+02  0.77000000000E+02 0.  0.
<mgrwt>
<rscale>  0 0.18917995E+03</rscale>
<asrwt>0</asrwt>
<pdfrwt beam="1">  1        1 0.18160392E-01 0.18917995E+03</pdfrwt>
<pdfrwt beam="2">  1       -1 0.11661067E-01 0.18917995E+03</pdfrwt>
<totfact> 0.13341352E+04</totfact>
</mgrwt>
</event>
<event>
 4    1  0.3147937E-004  0.4466543E+03  0.7818608E-02  0.1028724E+00
          1   -1    0    0  501    0  0.00000000000E+00  0.00000000000E+00  0.22919313704E+04  0.22919313704E+04  0.50400000000E-02 0. -1.
         -1   -1    0    0    0  501 -0.00000000000E+00 -0.00000000000E+00 -0.21761127396E+02  0.21761127979E+02  0.50400000000E-02 0.  1.
    5000001    1    1    2    0    0  0.84516065171E+02 -0.18738393953E+03  0.92211597194E+03  0.94788320577E+03  0.77000000000E+02 0.  0.
   -5000001    1    1    2    0    0 -0.84516065171E+02  0.18738393953E+03  0.13480542710E+04  0.13658092926E+04  0.77000000000E+02 0.  0.
<mgrwt>
<rscale>  0 0.44665428E+03</rscale>
<asrwt>0</asrwt>
<pdfrwt beam="1">  1        1 0.35260459E+00 0.44665428E+03</pdfrwt>
<pdfrwt beam="2">  1       -1 0.33478680E-02 0.44665428E+03</pdfrwt>
<totfact> 0.68412675E+02</totfact>
</mgrwt>
</event>
<event>
 4    1  0.3147937E-004  0.2627870E+03  0.7818608E-02  0.1105480E+00
         -1   -1    0    0    0  501 -0.00000000000E+00  0.00000000000E+00  0.17289532240E+02  0.17289532975E+02  0.50400000000E-02 0.  1.
          1   -1    0    0  501    0  0.00000000000E+00 -0.00000000000E+00 -0.99853810429E+03  0.99853810430E+03  0.50400000000E-02 0. -1.
    5000001    1    1    2    0    0 -0.10265968253E+03  0.21075396652E+02 -0.56315689231E+03  0.57797739413E+03  0.77000000000E+02 0.  0.
   -5000001    1    1    2    0    0  0.10265968253E+03 -0.21075396652E+02 -0.41809167974E+03  0.43785024315E+03  0.77000000000E+02 0.  0.
<mgrwt>
<rscale>  0 0.26278704E+03</rscale>
<asrwt>0</asrwt>
<pdfrwt beam="1">  1        1 0.15362120E+00 0.26278704E+03</pdfrwt>
<pdfrwt beam="2">  1       -1 0.26599289E-02 0.26278704E+03</pdfrwt>
<totfact> 0.72080375E+03</totfact>
</mgrwt>
</event>
<event>
 4    1  0.3147937E-004  0.6259284E+03  0.7818608E-02  0.9853027E-01
         -1   -1    0    0    0  501 -0.00000000000E+00  0.00000000000E+00  0.69522637351E+02  0.69522637534E+02  0.50400000000E-02 0. -1.
          1   -1    0    0  501    0  0.00000000000E+00 -0.00000000000E+00 -0.14088446743E+04  0.14088446743E+04  0.50400000000E-02 0.  1.
    5000001    1    1    2    0    0 -0.13440879338E+03  0.26650732201E+03 -0.79741491053E+03  0.85492187711E+03  0.77000000000E+02 0.  0.
   -5000001    1    1    2    0    0  0.13440879338E+03 -0.26650732201E+03 -0.54190712638E+03  0.62344543470E+03  0.77000000000E+02 0.  0.
<mgrwt>
<rscale>  0 0.62592842E+03</rscale>
<asrwt>0</asrwt>
<pdfrwt beam="1">  1        1 0.21674531E+00 0.62592842E+03</pdfrwt>
<pdfrwt beam="2">  1       -1 0.10695791E-01 0.62592842E+03</pdfrwt>
<totfact> 0.43938074E+02</totfact>
</mgrwt>
</event>
<event>
 4    1  0.3147937E-004  0.3398292E+03  0.7818608E-02  0.1066869E+00
          1   -1    0    0  501    0  0.00000000000E+00  0.00000000000E+00  0.67122868432E+03  0.67122868434E+03  0.50400000000E-02 0.  1.
         -1   -1    0    0    0  501 -0.00000000000E+00 -0.00000000000E+00 -0.43012124814E+02  0.43012125110E+02  0.50400000000E-02 0. -1.
    5000001    1    1    2    0    0  0.10428903499E+03  0.71730281565E+02  0.48895352492E+03  0.51090702250E+03  0.77000000000E+02 0.  0.
   -5000001    1    1    2    0    0 -0.10428903499E+03 -0.71730281565E+02  0.13926303459E+03  0.20333378695E+03  0.77000000000E+02 0.  0.
<mgrwt>
<rscale>  0 0.33982920E+03</rscale>
<asrwt>0</asrwt>
<pdfrwt beam="1">  1        1 0.10326596E+00 0.33982920E+03</pdfrwt>
<pdfrwt beam="2">  1       -1 0.66172497E-02 0.33982920E+03</pdfrwt>
<totfact> 0.34598519E+03</totfact>
</mgrwt>
</event>
<event>
 4    1  0.3147937E-004  0.4346094E+03  0.7818608E-02  0.1032414E+00
         -1   -1    0    0    0  501 -0.00000000000E+00  0.00000000000E+00  0.15895329929E+03  0.15895329937E+03  0.50400000000E-02 0. -1.
          1   -1    0    0  501    0  0.00000000000E+00 -0.00000000000E+00 -0.29707674164E+03  0.29707674168E+03  0.50400000000E-02 0.  1.
    5000001    1    1    2    0    0 -0.13352593296E+03 -0.14169208332E+03 -0.13012362585E+03  0.24650959262E+03  0.77000000000E+02 0.  0.
   -5000001    1    1    2    0    0  0.13352593296E+03  0.14169208332E+03 -0.79998164969E+01  0.20952044844E+03  0.77000000000E+02 0.  0.
<mgrwt>
<rscale>  0 0.43460938E+03</rscale>
<asrwt>0</asrwt>
<pdfrwt beam="1">  1        1 0.45704114E-01 0.43460938E+03</pdfrwt>
<pdfrwt beam="2">  1       -1 0.24454354E-01 0.43460938E+03</pdfrwt>
<totfact> 0.12878823E+03</totfact>
</mgrwt>
</event>
<event>
 4    1  0.3147937E-004  0.1818347E+03  0.7818608E-02  0.1166039E+00
         -1   -1    0    0    0  501 -0.00000000000E+00  0.00000000000E+00  0.40371549008E+01  0.40371580468E+01  0.50400000000E-02 0. -1.
          1   -1    0    0  501    0  0.00000000000E+00 -0.00000000000E+00 -0.20474722746E+04  0.20474722746E+04  0.50400000000E-02 0.  1.
    5000001    1    1    2    0    0  0.43463235109E+02 -0.13512210599E+02 -0.83793994466E+03  0.84270041147E+03  0.77000000000E+02 0.  0.
   -5000001    1    1    2    0    0 -0.43463235109E+02  0.13512210599E+02 -0.12054951751E+04  0.12088090212E+04  0.77000000000E+02 0.  0.
<mgrwt>
<rscale>  0 0.18183472E+03</rscale>
<asrwt>0</asrwt>
<pdfrwt beam="1">  1        1 0.31499490E+00 0.18183472E+03</pdfrwt>
<pdfrwt beam="2">  1       -1 0.62110263E-03 0.18183472E+03</pdfrwt>
<totfact> 0.11611647E+04</totfact>
</mgrwt>
</event>
<event>
 4    1  0.3147937E-004  0.2089279E+03  0.7818608E-02  0.1142418E+00
         -1   -1    0    0    0  501 -0.00000000000E+00  0.00000000000E+00  0.11243912836E+03  0.11243912847E+03  0.50400000000E-02 0. -1.
          1   -1    0    0  501    0  0.00000000000E+00 -0.00000000000E+00 -0.97054477099E+02  0.97054477230E+02  0.50400000000E-02 0.  1.
    5000001    1    1    2    0    0  0.29709681343E+02 -0.60068202413E+02 -0.14568383936E+02  0.10311203575E+03  0.77000000000E+02 0.  0.
   -5000001    1    1    2    0    0 -0.29709681343E+02  0.60068202413E+02  0.29953035192E+02  0.10638156994E+03  0.77000000000E+02 0.  0.
<mgrwt>
<rscale>  0 0.20892794E+03</rscale>
<asrwt>0</asrwt>
<pdfrwt beam="1">  1        1 0.14931458E-01 0.20892794E+03</pdfrwt>
<pdfrwt beam="2">  1       -1 0.17298327E-01 0.20892794E+03</pdfrwt>
<totfact> 0.93115345E+03</totfact>
</mgrwt>
</event>
<event>
 4    1  0.3147937E-004  0.2497030E+03  0.7818608E-02  0.1113493E+00
          1   -1    0    0  501    0  0.00000000000E+00  0.00000000000E+00  0.12296180714E+03  0.12296180725E+03  0.50400000000E-02 0.  1.
         -1   -1    0    0    0  501 -0.00000000000E+00 -0.00000000000E+00 -0.12677023975E+03  0.12677023985E+03  0.50400000000E-02 0. -1.
    5000001    1    1    2    0    0 -0.12434018887E+02 -0.40798457439E+02  0.86648607043E+02  0.12351558629E+03  0.77000000000E+02 0.  0.
   -5000001    1    1    2    0    0  0.12434018887E+02  0.40798457439E+02 -0.90457039645E+02  0.12621646080E+03  0.77000000000E+02 0.  0.
<mgrwt>
<rscale>  0 0.24970301E+03</rscale>
<asrwt>0</asrwt>
<pdfrwt beam="1">  1        1 0.18917201E-01 0.24970301E+03</pdfrwt>
<pdfrwt beam="2">  1       -1 0.19503114E-01 0.24970301E+03</pdfrwt>
<totfact> 0.56973323E+03</totfact>
</mgrwt>
</event>
<event>
 4    1  0.3147937E-004  0.1746872E+03  0.7818608E-02  0.1173046E+00
          1   -1    0    0  501    0  0.00000000000E+00  0.00000000000E+00  0.20131629405E+03  0.20131629411E+03  0.50400000000E-02 0. -1.
         -1   -1    0    0    0  501 -0.00000000000E+00 -0.00000000000E+00 -0.37895130279E+02  0.37895130614E+02  0.50400000000E-02 0.  1.
    5000001    1    1    2    0    0  0.14280673304E+02  0.36464460619E+02  0.99370288644E+02  0.13167022740E+03  0.77000000000E+02 0.  0.
   -5000001    1    1    2    0    0 -0.14280673304E+02 -0.36464460619E+02  0.64050875127E+02  0.10754119733E+03  0.77000000000E+02 0.  0.
<mgrwt>
<rscale>  0 0.17468723E+03</rscale>
<asrwt>0</asrwt>
<pdfrwt beam="1">  1        1 0.30971738E-01 0.17468723E+03</pdfrwt>
<pdfrwt beam="2">  1       -1 0.58300200E-02 0.17468723E+03</pdfrwt>
<totfact> 0.19337722E+04</totfact>
</mgrwt>
</event>
<event>
 4    1  0.3147937E-004  0.2169542E+03  0.7818608E-02  0.1136174E+00
          1   -1    0    0  501    0  0.00000000000E+00  0.00000000000E+00  0.98027927076E+02  0.98027927206E+02  0.50400000000E-02 0.  1.
         -1   -1    0    0    0  501 -0.00000000000E+00 -0.00000000000E+00 -0.12004008559E+03  0.12004008570E+03  0.50400000000E-02 0. -1.
    5000001    1    1    2    0    0  0.47151761052E+02  0.27270392845E+02 -0.64865856201E+02  0.11447070454E+03  0.77000000000E+02 0.  0.
   -5000001    1    1    2    0    0 -0.47151761052E+02 -0.27270392845E+02  0.42853697684E+02  0.10359730837E+03  0.77000000000E+02 0.  0.
<mgrwt>
<rscale>  0 0.21695420E+03</rscale>
<asrwt>0</asrwt>
<pdfrwt beam="1">  1        1 0.15081220E-01 0.21695420E+03</pdfrwt>
<pdfrwt beam="2">  1       -1 0.18467705E-01 0.21695420E+03</pdfrwt>
<totfact> 0.82945035E+03</totfact>
</mgrwt>
</event>
<event>
 4    1  0.3147937E-004  0.1827453E+03  0.7818608E-02  0.1165172E+00
         -1   -1    0    0    0  501 -0.00000000000E+00  0.00000000000E+00  0.66500320773E+01  0.66500339872E+01  0.50400000000E-02 0. -1.
          1   -1    0    0  501    0  0.00000000000E+00 -0.00000000000E+00 -0.12554765813E+04  0.12554765813E+04  0.50400000000E-02 0.  1.
    5000001    1    1    2    0    0  0.75744965956E+01 -0.47326352968E+02 -0.54787774489E+03  0.55533429574E+03  0.77000000000E+02 0.  0.
   -5000001    1    1    2    0    0 -0.75744965956E+01  0.47326352968E+02 -0.70094880434E+03  0.70679231956E+03  0.77000000000E+02 0.  0.
<mgrwt>
<rscale>  0 0.18274530E+03</rscale>
<asrwt>0</asrwt>
<pdfrwt beam="1">  1        1 0.19315005E+00 0.18274530E+03</pdfrwt>
<pdfrwt beam="2">  1       -1 0.10230830E-02 0.18274530E+03</pdfrwt>
<totfact> 0.18655309E+04</totfact>
</mgrwt>
</event>
<event>
 4    1  0.3147937E-004  0.1698437E+03  0.7818608E-02  0.1178011E+00
          1   -1    0    0  501    0  0.00000000000E+00  0.00000000000E+00  0.75913667613E+03  0.75913667615E+03  0.50400000000E-02 0. -1.
         -1   -1    0    0    0  501 -0.00000000000E+00 -0.00000000000E+00 -0.94998987197E+01  0.94999000567E+01  0.50400000000E-02 0.  1.
    5000001    1    1    2    0    0  0.32274572834E+02  0.77596468256E+01  0.31395654698E+03  0.32496088004E+03  0.77000000000E+02 0.  0.
   -5000001    1    1    2    0    0 -0.32274572834E+02 -0.77596468256E+01  0.43568023044E+03  0.44367569616E+03  0.77000000000E+02 0.  0.
<mgrwt>
<rscale>  0 0.16984372E+03</rscale>
<asrwt>0</asrwt>
<pdfrwt beam="1">  1        1 0.11679021E+00 0.16984372E+03</pdfrwt>
<pdfrwt beam="2">  1       -1 0.14615235E-02 0.16984372E+03</pdfrwt>
<totfact> 0.26067143E+04</totfact>
</mgrwt>
</event>
<event>
 4    1  0.3147937E-004  0.1944355E+03  0.7818608E-02  0.1154521E+00
          1   -1    0    0  501    0  0.00000000000E+00  0.00000000000E+00  0.22884626838E+04  0.22884626838E+04  0.50400000000E-02 0. -1.
         -1   -1    0    0    0  501 -0.00000000000E+00 -0.00000000000E+00 -0.41299734061E+01  0.41299764814E+01  0.50400000000E-02 0.  1.
    5000001    1    1    2    0    0  0.48501316447E+02  0.29443400240E+01  0.74036303035E+03  0.74594065685E+03  0.77000000000E+02 0.  0.
   -5000001    1    1    2    0    0 -0.48501316447E+02 -0.29443400240E+01  0.15439696800E+04  0.15466520034E+04  0.77000000000E+02 0.  0.
<mgrwt>
<rscale>  0 0.19443553E+03</rscale>
<asrwt>0</asrwt>
<pdfrwt beam="1">  1        1 0.35207209E+00 0.19443553E+03</pdfrwt>
<pdfrwt beam="2">  1       -1 0.63537912E-03 0.19443553E+03</pdfrwt>
<totfact> 0.78711691E+03</totfact>
</mgrwt>
</event>
<event>
 4    1  0.3147937E-004  0.2616835E+03  0.7818608E-02  0.1106136E+00
         -1   -1    0    0    0  501 -0.00000000000E+00  0.00000000000E+00  0.25791646016E+03  0.25791646021E+03  0.50400000000E-02 0.  1.
          1   -1    0    0  501    0  0.00000000000E+00 -0.00000000000E+00 -0.66376386633E+02  0.66376386824E+02  0.50400000000E-02 0. -1.
    5000001    1    1    2    0    0  0.79761417016E+02  0.11012959488E+02  0.18079595005E+03  0.21236606244E+03  0.77000000000E+02 0.  0.
   -5000001    1    1    2    0    0 -0.79761417016E+02 -0.11012959488E+02  0.10744123480E+02  0.11192678460E+03  0.77000000000E+02 0.  0.
<mgrwt>
<rscale>  0 0.26168349E+03</rscale>
<asrwt>0</asrwt>
<pdfrwt beam="1">  1        1 0.10211752E-01 0.26168349E+03</pdfrwt>
<pdfrwt beam="2">  1       -1 0.39679455E-01 0.26168349E+03</pdfrwt>
<totfact> 0.38779829E+03</totfact>
</mgrwt>
</event>
<event>
 4    1  0.3147937E-004  0.1977714E+03  0.7818608E-02  0.1151633E+00
          1   -1    0    0  501    0  0.00000000000E+00  0.00000000000E+00  0.77288735346E+03  0.77288735348E+03  0.50400000000E-02 0. -1.
         -1   -1    0    0    0  501 -0.00000000000E+00 -0.00000000000E+00 -0.12651757710E+02  0.12651758714E+02  0.50400000000E-02 0.  1.
    5000001    1    1    2    0    0  0.47842673827E+02  0.28589276087E+02  0.48839387666E+03  0.49755788297E+03  0.77000000000E+02 0.  0.
   -5000001    1    1    2    0    0 -0.47842673827E+02 -0.28589276087E+02  0.27184171909E+03  0.28798122922E+03  0.77000000000E+02 0.  0.
<mgrwt>
<rscale>  0 0.19777142E+03</rscale>
<asrwt>0</asrwt>
<pdfrwt beam="1">  1        1 0.11890576E+00 0.19777142E+03</pdfrwt>
<pdfrwt beam="2">  1       -1 0.19464241E-02 0.19777142E+03</pdfrwt>
<totfact> 0.16946866E+04</totfact>
</mgrwt>
</event>
<event>
 4    1  0.3147937E-004  0.2319910E+03  0.7818608E-02  0.1125246E+00
          1   -1    0    0  501    0  0.00000000000E+00  0.00000000000E+00  0.89821812826E+03  0.89821812828E+03  0.50400000000E-02 0.  1.
         -1   -1    0    0    0  501 -0.00000000000E+00 -0.00000000000E+00 -0.14979604612E+02  0.14979605460E+02  0.50400000000E-02 0. -1.
    5000001    1    1    2    0    0  0.75819417379E+02 -0.41704092375E+02  0.41731012723E+03  0.43308724024E+03  0.77000000000E+02 0.  0.
   -5000001    1    1    2    0    0 -0.75819417379E+02  0.41704092375E+02  0.46592839642E+03  0.48011049349E+03  0.77000000000E+02 0.  0.
<mgrwt>
<rscale>  0 0.23199097E+03</rscale>
<asrwt>0</asrwt>
<pdfrwt beam="1">  1        1 0.13818741E+00 0.23199097E+03</pdfrwt>
<pdfrwt beam="2">  1       -1 0.23045545E-02 0.23199097E+03</pdfrwt>
<totfact> 0.10568965E+04</totfact>
</mgrwt>
</event>
<event>
 4    1  0.3147937E-004  0.2383037E+03  0.7818608E-02  0.1120928E+00
          1   -1    0    0  501    0  0.00000000000E+00  0.00000000000E+00  0.13204983438E+03  0.13204983447E+03  0.50400000000E-02 0.  1.
         -1   -1    0    0    0  501 -0.00000000000E+00 -0.00000000000E+00 -0.10751363909E+03  0.10751363920E+03  0.50400000000E-02 0. -1.
    5000001    1    1    2    0    0 -0.80400753720E+02 -0.28414547901E+02 -0.19466023987E+02  0.11653151428E+03  0.77000000000E+02 0.  0.
   -5000001    1    1    2    0    0  0.80400753720E+02  0.28414547901E+02  0.44002219279E+02  0.12303195940E+03  0.77000000000E+02 0.  0.
<mgrwt>
<rscale>  0 0.23830366E+03</rscale>
<asrwt>0</asrwt>
<pdfrwt beam="1">  1        1 0.20315359E-01 0.23830366E+03</pdfrwt>
<pdfrwt beam="2">  1       -1 0.16540560E-01 0.23830366E+03</pdfrwt>
<totfact> 0.67596510E+03</totfact>
</mgrwt>
</event>
<event>
 4    1  0.3147937E-004  0.2675680E+03  0.7818608E-02  0.1102680E+00
          1   -1    0    0  501    0  0.00000000000E+00  0.00000000000E+00  0.40113942556E+02  0.40113942873E+02  0.50400000000E-02 0. -1.
         -1   -1    0    0    0  501 -0.00000000000E+00 -0.00000000000E+00 -0.44618304956E+03  0.44618304959E+03  0.50400000000E-02 0.  1.
    5000001    1    1    2    0    0  0.89408368965E+02 -0.51943542845E+02 -0.13808259053E+03  0.18891212214E+03  0.77000000000E+02 0.  0.
   -5000001    1    1    2    0    0 -0.89408368965E+02  0.51943542845E+02 -0.26798651647E+03  0.29738487032E+03  0.77000000000E+02 0.  0.
<mgrwt>
<rscale>  0 0.26756802E+03</rscale>
<asrwt>0</asrwt>
<pdfrwt beam="1">  1        1 0.61713761E-02 0.26756802E+03</pdfrwt>
<pdfrwt beam="2">  1       -1 0.68643543E-01 0.26756802E+03</pdfrwt>
<totfact> 0.27611641E+03</totfact>
</mgrwt>
</event>
<event>
 4    1  0.3147937E-004  0.1860043E+03  0.7818608E-02  0.1162115E+00
          1   -1    0    0  501    0  0.00000000000E+00  0.00000000000E+00  0.31607151423E+03  0.31607151427E+03  0.50400000000E-02 0.  1.
         -1   -1    0    0    0  501 -0.00000000000E+00 -0.00000000000E+00 -0.27365313998E+02  0.27365314463E+02  0.50400000000E-02 0. -1.
    5000001    1    1    2    0    0  0.33330144551E+02 -0.39238961803E+02  0.12892697507E+03  0.15875062066E+03  0.77000000000E+02 0.  0.
   -5000001    1    1    2    0    0 -0.33330144551E+02  0.39238961803E+02  0.15977922516E+03  0.18468620807E+03  0.77000000000E+02 0.  0.
<mgrwt>
<rscale>  0 0.18600426E+03</rscale>
<asrwt>0</asrwt>
<pdfrwt beam="1">  1        1 0.48626388E-01 0.18600426E+03</pdfrwt>
<pdfrwt beam="2">  1       -1 0.42100483E-02 0.18600426E+03</pdfrwt>
<totfact> 0.17976992E+04</totfact>
</mgrwt>
</event>
<event>
 4    1  0.3147937E-004  0.1790302E+03  0.7818608E-02  0.1168745E+00
          1   -1    0    0  501    0  0.00000000000E+00  0.00000000000E+00  0.23161442215E+04  0.23161442215E+04  0.50400000000E-02 0.  1.
         -1   -1    0    0    0  501 -0.00000000000E+00 -0.00000000000E+00 -0.34596076125E+01  0.34596112837E+01  0.50400000000E-02 0. -1.
    5000001    1    1    2    0    0 -0.38225576369E+02 -0.18704123367E+02  0.94229902281E+03  0.94639710868E+03  0.77000000000E+02 0.  0.
   -5000001    1    1    2    0    0  0.38225576369E+02  0.18704123367E+02  0.13703855911E+04  0.13732067241E+04  0.77000000000E+02 0.  0.
<mgrwt>
<rscale>  0 0.17903021E+03</rscale>
<asrwt>0</asrwt>
<pdfrwt beam="1">  1        1 0.35633183E+00 0.17903021E+03</pdfrwt>
<pdfrwt beam="2">  1       -1 0.53224470E-03 0.17903021E+03</pdfrwt>
<totfact> 0.97024293E+03</totfact>
</mgrwt>
</event>
<event>
 4    1  0.3147937E-004  0.3966613E+03  0.7818608E-02  0.1044942E+00
          1   -1    0    0  501    0  0.00000000000E+00  0.00000000000E+00  0.13799382186E+03  0.13799382195E+03  0.50400000000E-02 0.  1.
         -1   -1    0    0    0  501 -0.00000000000E+00 -0.00000000000E+00 -0.28504937711E+03  0.28504937715E+03  0.50400000000E-02 0. -1.
    5000001    1    1    2    0    0  0.12316416225E+03 -0.12233143387E+03 -0.12525072364E+02  0.19031623160E+03  0.77000000000E+02 0.  0.
   -5000001    1    1    2    0    0 -0.12316416225E+03  0.12233143387E+03 -0.13453048289E+03  0.23272696750E+03  0.77000000000E+02 0.  0.
<mgrwt>
<rscale>  0 0.39666133E+03</rscale>
<asrwt>0</asrwt>
<pdfrwt beam="1">  1        1 0.21229819E-01 0.39666133E+03</pdfrwt>
<pdfrwt beam="2">  1       -1 0.43853750E-01 0.39666133E+03</pdfrwt>
<totfact> 0.12416070E+03</totfact>
</mgrwt>
</event>
<event>
 4    1  0.3147937E-004  0.1571303E+03  0.7818608E-02  0.1191975E+00
          1   -1    0    0  501    0  0.00000000000E+00  0.00000000000E+00  0.77828661837E+02  0.77828662000E+02  0.50400000000E-02 0. -1.
         -1   -1    0    0    0  501 -0.00000000000E+00 -0.00000000000E+00 -0.79308602960E+02  0.79308603120E+02  0.50400000000E-02 0.  1.
    5000001    1    1    2    0    0  0.15432422665E+02 -0.55525351696E+00 -0.29793756135E+01  0.78589723596E+02  0.77000000000E+02 0.  0.
   -5000001    1    1    2    0    0 -0.15432422665E+02  0.55525351696E+00  0.14994344909E+01  0.78547541525E+02  0.77000000000E+02 0.  0.
<mgrwt>
<rscale>  0 0.15713030E+03</rscale>
<asrwt>0</asrwt>
<pdfrwt beam="1">  1        1 0.11973640E-01 0.15713030E+03</pdfrwt>
<pdfrwt beam="2">  1       -1 0.12201324E-01 0.15713030E+03</pdfrwt>
<totfact> 0.21066117E+04</totfact>
</mgrwt>
</event>
<event>
 4    1  0.3147937E-004  0.2712219E+03  0.7818608E-02  0.1100582E+00
         -1   -1    0    0    0  501 -0.00000000000E+00  0.00000000000E+00  0.43844869601E+02  0.43844869891E+02  0.50400000000E-02 0. -1.
          1   -1    0    0  501    0  0.00000000000E+00 -0.00000000000E+00 -0.41944086910E+03  0.41944086913E+03  0.50400000000E-02 0.  1.
    5000001    1    1    2    0    0  0.97350134128E+02  0.18977091026E+02 -0.27530013266E+03  0.30258278478E+03  0.77000000000E+02 0.  0.
   -5000001    1    1    2    0    0 -0.97350134128E+02 -0.18977091026E+02 -0.10029586683E+03  0.16070295424E+03  0.77000000000E+02 0.  0.
<mgrwt>
<rscale>  0 0.27122190E+03</rscale>
<asrwt>0</asrwt>
<pdfrwt beam="1">  1        1 0.64529362E-01 0.27122190E+03</pdfrwt>
<pdfrwt beam="2">  1       -1 0.67453649E-02 0.27122190E+03</pdfrwt>
<totfact> 0.63289173E+03</totfact>
</mgrwt>
</event>
<event>
 4    1  0.3147937E-004  0.2915789E+03  0.7818608E-02  0.1089528E+00
         -1   -1    0    0    0  501 -0.00000000000E+00  0.00000000000E+00  0.33309604916E+02  0.33309605297E+02  0.50400000000E-02 0. -1.
          1   -1    0    0  501    0  0.00000000000E+00 -0.00000000000E+00 -0.63809127886E+03  0.63809127888E+03  0.50400000000E-02 0.  1.
    5000001    1    1    2    0    0 -0.94041688409E+02 -0.74069056026E+02 -0.37504279776E+03  0.40114357077E+03  0.77000000000E+02 0.  0.
   -5000001    1    1    2    0    0  0.94041688409E+02  0.74069056026E+02 -0.22973887619E+03  0.27025731341E+03  0.77000000000E+02 0.  0.
<mgrwt>
<rscale>  0 0.29157893E+03</rscale>
<asrwt>0</asrwt>
<pdfrwt beam="1">  1        1 0.98167880E-01 0.29157893E+03</pdfrwt>
<pdfrwt beam="2">  1       -1 0.51245551E-02 0.29157893E+03</pdfrwt>
<totfact> 0.54612476E+03</totfact>
</mgrwt>
</event>
<event>
 4    1  0.3147937E-004  0.1833897E+03  0.7818608E-02  0.1164562E+00
         -1   -1    0    0    0  501 -0.00000000000E+00  0.00000000000E+00  0.71350148490E+03  0.71350148492E+03  0.50400000000E-02 0.  1.
          1   -1    0    0  501    0  0.00000000000E+00 -0.00000000000E+00 -0.11784066509E+02  0.11784067587E+02  0.50400000000E-02 0. -1.
    5000001    1    1    2    0    0  0.21922323252E+02  0.44599732376E+02  0.33884668083E+03  0.35102107842E+03  0.77000000000E+02 0.  0.
   -5000001    1    1    2    0    0 -0.21922323252E+02 -0.44599732376E+02  0.36287073757E+03  0.37426447409E+03  0.77000000000E+02 0.  0.
<mgrwt>
<rscale>  0 0.18338974E+03</rscale>
<asrwt>0</asrwt>
<pdfrwt beam="1">  1        1 0.18129331E-02 0.18338974E+03</pdfrwt>
<pdfrwt beam="2">  1       -1 0.10976947E+00 0.18338974E+03</pdfrwt>
<totfact> 0.55231533E+03</totfact>
</mgrwt>
</event>
<event>
 4    1  0.3147937E-004  0.5263850E+03  0.7818608E-02  0.1007113E+00
         -1   -1    0    0    0  501 -0.00000000000E+00  0.00000000000E+00  0.28054628932E+02  0.28054629385E+02  0.50400000000E-02 0. -1.
          1   -1    0    0  501    0  0.00000000000E+00 -0.00000000000E+00 -0.24691216075E+04  0.24691216075E+04  0.50400000000E-02 0.  1.
    5000001    1    1    2    0    0  0.10008075701E+03 -0.16905093092E+03 -0.19668211015E+04  0.19781073329E+04  0.77000000000E+02 0.  0.
   -5000001    1    1    2    0    0 -0.10008075701E+03  0.16905093092E+03 -0.47424587702E+03  0.51906890394E+03  0.77000000000E+02 0.  0.
<mgrwt>
<rscale>  0 0.52638500E+03</rscale>
<asrwt>0</asrwt>
<pdfrwt beam="1">  1        1 0.37986469E+00 0.52638500E+03</pdfrwt>
<pdfrwt beam="2">  1       -1 0.43160987E-02 0.52638500E+03</pdfrwt>
<totfact> 0.35197203E+02</totfact>
</mgrwt>
</event>
<event>
 4    1  0.3147937E-004  0.2134031E+03  0.7818608E-02  0.1138899E+00
         -1   -1    0    0    0  501 -0.00000000000E+00  0.00000000000E+00  0.51362952153E+01  0.51362976880E+01  0.50400000000E-02 0.  1.
          1   -1    0    0  501    0  0.00000000000E+00 -0.00000000000E+00 -0.22166198974E+04  0.22166198974E+04  0.50400000000E-02 0. -1.
    5000001    1    1    2    0    0 -0.68215524949E+02  0.23157827164E+02 -0.12757245092E+04  0.12800748675E+04  0.77000000000E+02 0.  0.
   -5000001    1    1    2    0    0  0.68215524949E+02 -0.23157827164E+02 -0.93575909294E+03  0.94168132763E+03  0.77000000000E+02 0.  0.
<mgrwt>
<rscale>  0 0.21340306E+03</rscale>
<asrwt>0</asrwt>
<pdfrwt beam="1">  1        1 0.34101768E+00 0.21340306E+03</pdfrwt>
<pdfrwt beam="2">  1       -1 0.79020122E-03 0.21340306E+03</pdfrwt>
<totfact> 0.64245890E+03</totfact>
</mgrwt>
</event>
<event>
 4    1  0.3147937E-004  0.3811417E+03  0.7818608E-02  0.1050513E+00
          1   -1    0    0  501    0  0.00000000000E+00  0.00000000000E+00  0.74184460630E+03  0.74184460631E+03  0.50400000000E-02 0.  1.
         -1   -1    0    0    0  501 -0.00000000000E+00 -0.00000000000E+00 -0.48955342729E+02  0.48955342988E+02  0.50400000000E-02 0. -1.
    5000001    1    1    2    0    0 -0.11083136385E+03 -0.12187292215E+03  0.22813163340E+03  0.29173556952E+03  0.77000000000E+02 0.  0.
   -5000001    1    1    2    0    0  0.11083136385E+03  0.12187292215E+03  0.46475763017E+03  0.49906437978E+03  0.77000000000E+02 0.  0.
<mgrwt>
<rscale>  0 0.38114174E+03</rscale>
<asrwt>0</asrwt>
<pdfrwt beam="1">  1        1 0.11412993E+00 0.38114174E+03</pdfrwt>
<pdfrwt beam="2">  1       -1 0.75315916E-02 0.38114174E+03</pdfrwt>
<totfact> 0.24501416E+03</totfact>
</mgrwt>
</event>
<event>
 4    1  0.3147937E-004  0.1888399E+03  0.7818608E-02  0.1159512E+00
          1   -1    0    0  501    0  0.00000000000E+00  0.00000000000E+00  0.92942953421E+03  0.92942953422E+03  0.50400000000E-02 0.  1.
         -1   -1    0    0    0  501 -0.00000000000E+00 -0.00000000000E+00 -0.95920398390E+01  0.95920411631E+01  0.50400000000E-02 0. -1.
    5000001    1    1    2    0    0 -0.17274143595E+02 -0.50414856352E+02  0.52001747537E+03  0.52838170717E+03  0.77000000000E+02 0.  0.
   -5000001    1    1    2    0    0  0.17274143595E+02  0.50414856352E+02  0.39982001900E+03  0.41063986822E+03  0.77000000000E+02 0.  0.
<mgrwt>
<rscale>  0 0.18883989E+03</rscale>
<asrwt>0</asrwt>
<pdfrwt beam="1">  1        1 0.14298915E+00 0.18883989E+03</pdfrwt>
<pdfrwt beam="2">  1       -1 0.14756986E-02 0.18883989E+03</pdfrwt>
<totfact> 0.18900853E+04</totfact>
</mgrwt>
</event>
<event>
 4    1  0.3147937E-004  0.1724716E+03  0.7818608E-02  0.1175295E+00
          1   -1    0    0  501    0  0.00000000000E+00  0.00000000000E+00  0.65781380627E+02  0.65781380820E+02  0.50400000000E-02 0. -1.
         -1   -1    0    0    0  501 -0.00000000000E+00 -0.00000000000E+00 -0.11305040540E+03  0.11305040551E+03  0.50400000000E-02 0.  1.
    5000001    1    1    2    0    0  0.23202146482E+02 -0.30815308999E+02 -0.19033663791E+02  0.88199791538E+02  0.77000000000E+02 0.  0.
   -5000001    1    1    2    0    0 -0.23202146482E+02  0.30815308999E+02 -0.28235360979E+02  0.90631994791E+02  0.77000000000E+02 0.  0.
<mgrwt>
<rscale>  0 0.17247158E+03</rscale>
<asrwt>0</asrwt>
<pdfrwt beam="1">  1        1 0.10120212E-01 0.17247158E+03</pdfrwt>
<pdfrwt beam="2">  1       -1 0.17392370E-01 0.17247158E+03</pdfrwt>
<totfact> 0.15210969E+04</totfact>
</mgrwt>
</event>
<event>
 4    1  0.3147937E-004  0.3127502E+03  0.7818608E-02  0.1079035E+00
         -1   -1    0    0    0  501 -0.00000000000E+00  0.00000000000E+00  0.24305117912E+03  0.24305117918E+03  0.50400000000E-02 0.  1.
          1   -1    0    0  501    0  0.00000000000E+00 -0.00000000000E+00 -0.10060916849E+03  0.10060916862E+03  0.50400000000E-02 0. -1.
    5000001    1    1    2    0    0  0.99756477528E+01 -0.12473354951E+03  0.12392824500E+02  0.14744678369E+03  0.77000000000E+02 0.  0.
   -5000001    1    1    2    0    0 -0.99756477528E+01  0.12473354951E+03  0.13004918613E+03  0.19621356410E+03  0.77000000000E+02 0.  0.
<mgrwt>
<rscale>  0 0.31275023E+03</rscale>
<asrwt>0</asrwt>
<pdfrwt beam="1">  1        1 0.15478334E-01 0.31275023E+03</pdfrwt>
<pdfrwt beam="2">  1       -1 0.37392489E-01 0.31275023E+03</pdfrwt>
<totfact> 0.24896712E+03</totfact>
</mgrwt>
</event>
<event>
 4    1  0.3147937E-004  0.2126047E+03  0.7818608E-02  0.1139520E+00
         -1   -1    0    0    0  501 -0.00000000000E+00  0.00000000000E+00  0.46580501940E+03  0.46580501942E+03  0.50400000000E-02 0. -1.
          1   -1    0    0  501    0  0.00000000000E+00 -0.00000000000E+00 -0.24259484349E+02  0.24259484873E+02  0.50400000000E-02 0.  1.
    5000001    1    1    2    0    0  0.10036932269E+02 -0.54939978724E+02  0.11138487674E+03  0.14647433918E+03  0.77000000000E+02 0.  0.
   -5000001    1    1    2    0    0 -0.10036932269E+02  0.54939978724E+02  0.33016065831E+03  0.34359016512E+03  0.77000000000E+02 0.  0.
<mgrwt>
<rscale>  0 0.21260470E+03</rscale>
<asrwt>0</asrwt>
<pdfrwt beam="1">  1        1 0.37322285E-02 0.21260470E+03</pdfrwt>
<pdfrwt beam="2">  1       -1 0.71662309E-01 0.21260470E+03</pdfrwt>
<totfact> 0.50371742E+03</totfact>
</mgrwt>
</event>
<event>
 4    1  0.3147937E-004  0.2230743E+03  0.7818608E-02  0.1131612E+00
         -1   -1    0    0    0  501 -0.00000000000E+00  0.00000000000E+00  0.11558662565E+02  0.11558663664E+02  0.50400000000E-02 0. -1.
          1   -1    0    0  501    0  0.00000000000E+00 -0.00000000000E+00 -0.10762949360E+04  0.10762949360E+04  0.50400000000E-02 0.  1.
    5000001    1    1    2    0    0 -0.56691101787E+02 -0.55031682480E+02 -0.61237533876E+03  0.62223381667E+03  0.77000000000E+02 0.  0.
   -5000001    1    1    2    0    0  0.56691101787E+02  0.55031682480E+02 -0.45236093469E+03  0.46561978301E+03  0.77000000000E+02 0.  0.
<mgrwt>
<rscale>  0 0.22307425E+03</rscale>
<asrwt>0</asrwt>
<pdfrwt beam="1">  1        1 0.16558376E+00 0.22307425E+03</pdfrwt>
<pdfrwt beam="2">  1       -1 0.17782567E-02 0.22307425E+03</pdfrwt>
<totfact> 0.11321394E+04</totfact>
</mgrwt>
</event>
<event>
 4    1  0.3147937E-004  0.3888459E+03  0.7818608E-02  0.1047712E+00
          1   -1    0    0  501    0  0.00000000000E+00  0.00000000000E+00  0.16646983673E+03  0.16646983681E+03  0.50400000000E-02 0.  1.
         -1   -1    0    0    0  501 -0.00000000000E+00 -0.00000000000E+00 -0.22706988228E+03  0.22706988233E+03  0.50400000000E-02 0. -1.
    5000001    1    1    2    0    0  0.91246826250E+02 -0.11079699103E+03  0.77138511401E+02  0.18022570978E+03  0.77000000000E+02 0.  0.
   -5000001    1    1    2    0    0 -0.91246826250E+02  0.11079699103E+03 -0.13773855695E+03  0.21331400937E+03  0.77000000000E+02 0.  0.
<mgrwt>
<rscale>  0 0.38884591E+03</rscale>
<asrwt>0</asrwt>
<pdfrwt beam="1">  1        1 0.25610744E-01 0.38884591E+03</pdfrwt>
<pdfrwt beam="2">  1       -1 0.34933828E-01 0.38884591E+03</pdfrwt>
<totfact> 0.14623998E+03</totfact>
</mgrwt>
</event>
<event>
 4    1  0.3147937E-004  0.1936283E+03  0.7818608E-02  0.1155229E+00
          1   -1    0    0  501    0  0.00000000000E+00  0.00000000000E+00  0.75410426583E+03  0.75410426585E+03  0.50400000000E-02 0.  1.
         -1   -1    0    0    0  501 -0.00000000000E+00 -0.00000000000E+00 -0.12429284674E+02  0.12429285695E+02  0.50400000000E-02 0. -1.
    5000001    1    1    2    0    0  0.40489214162E+02 -0.42470870507E+02  0.37443473542E+03  0.38674736249E+03  0.77000000000E+02 0.  0.
   -5000001    1    1    2    0    0 -0.40489214162E+02  0.42470870507E+02  0.36724024574E+03  0.37978618905E+03  0.77000000000E+02 0.  0.
<mgrwt>
<rscale>  0 0.19362827E+03</rscale>
<asrwt>0</asrwt>
<pdfrwt beam="1">  1        1 0.11601607E+00 0.19362827E+03</pdfrwt>
<pdfrwt beam="2">  1       -1 0.19121973E-02 0.19362827E+03</pdfrwt>
<totfact> 0.18016635E+04</totfact>
</mgrwt>
</event>
<event>
 4    1  0.3147937E-004  0.2332978E+03  0.7818608E-02  0.1124340E+00
         -1   -1    0    0    0  501 -0.00000000000E+00  0.00000000000E+00  0.73917064872E+02  0.73917065044E+02  0.50400000000E-02 0.  1.
          1   -1    0    0  501    0  0.00000000000E+00 -0.00000000000E+00 -0.18408428173E+03  0.18408428180E+03  0.50400000000E-02 0. -1.
    5000001    1    1    2    0    0 -0.55649269877E+02 -0.30169414460E+02  0.11920219561E+02  0.10038987220E+03  0.77000000000E+02 0.  0.
   -5000001    1    1    2    0    0  0.55649269877E+02  0.30169414460E+02 -0.12208743642E+03  0.15761147464E+03  0.77000000000E+02 0.  0.
<mgrwt>
<rscale>  0 0.23329783E+03</rscale>
<asrwt>0</asrwt>
<pdfrwt beam="1">  1        1 0.28320659E-01 0.23329783E+03</pdfrwt>
<pdfrwt beam="2">  1       -1 0.11371856E-01 0.23329783E+03</pdfrwt>
<totfact> 0.79778367E+03</totfact>
</mgrwt>
</event>
<event>
 4    1  0.3147937E-004  0.2748050E+03  0.7818608E-02  0.1098561E+00
          1   -1    0    0  501    0  0.00000000000E+00  0.00000000000E+00  0.87319780277E+03  0.87319780278E+03  0.50400000000E-02 0. -1.
         -1   -1    0    0    0  501 -0.00000000000E+00 -0.00000000000E+00 -0.21621039002E+02  0.21621039590E+02  0.50400000000E-02 0.  1.
    5000001    1    1    2    0    0 -0.71537952055E+02  0.88238838039E+02  0.44803391938E+03  0.46857994412E+03  0.77000000000E+02 0.  0.
   -5000001    1    1    2    0    0  0.71537952055E+02 -0.88238838039E+02  0.40354284439E+03  0.42623889825E+03  0.77000000000E+02 0.  0.
<mgrwt>
<rscale>  0 0.27480498E+03</rscale>
<asrwt>0</asrwt>
<pdfrwt beam="1">  1        1 0.13433812E+00 0.27480498E+03</pdfrwt>
<pdfrwt beam="2">  1       -1 0.33263139E-02 0.27480498E+03</pdfrwt>
<totfact> 0.64833782E+03</totfact>
</mgrwt>
</event>
<event>
 4    1  0.3147937E-004  0.1930684E+03  0.7818608E-02  0.1155723E+00
          1   -1    0    0  501    0  0.00000000000E+00  0.00000000000E+00  0.12203689636E+04  0.12203689636E+04  0.50400000000E-02 0.  1.
         -1   -1    0    0    0  501 -0.00000000000E+00 -0.00000000000E+00 -0.76360891513E+01  0.76360908146E+01  0.50400000000E-02 0. -1.
    5000001    1    1    2    0    0  0.10127772631E+02 -0.55795152626E+02  0.69030928773E+03  0.69690141595E+03  0.77000000000E+02 0.  0.
   -5000001    1    1    2    0    0 -0.10127772631E+02  0.55795152626E+02  0.52242358672E+03  0.53110363847E+03  0.77000000000E+02 0.  0.
<mgrwt>
<rscale>  0 0.19306835E+03</rscale>
<asrwt>0</asrwt>
<pdfrwt beam="1">  1        1 0.18774897E+00 0.19306835E+03</pdfrwt>
<pdfrwt beam="2">  1       -1 0.11747837E-02 0.19306835E+03</pdfrwt>
<totfact> 0.16212921E+04</totfact>
</mgrwt>
</event>
<event>
 4    1  0.3147937E-004  0.2518726E+03  0.7818608E-02  0.1112127E+00
          1   -1    0    0  501    0  0.00000000000E+00  0.00000000000E+00  0.21390077611E+03  0.21390077617E+03  0.50400000000E-02 0. -1.
         -1   -1    0    0    0  501 -0.00000000000E+00 -0.00000000000E+00 -0.74146292718E+02  0.74146292890E+02  0.50400000000E-02 0.  1.
    5000001    1    1    2    0    0 -0.83894877063E+02  0.26218093534E+02  0.16173120342E+02  0.11796740502E+03  0.77000000000E+02 0.  0.
   -5000001    1    1    2    0    0  0.83894877063E+02 -0.26218093534E+02  0.12358136305E+03  0.17007966404E+03  0.77000000000E+02 0.  0.
<mgrwt>
<rscale>  0 0.25187258E+03</rscale>
<asrwt>0</asrwt>
<pdfrwt beam="1">  1        1 0.32907811E-01 0.25187258E+03</pdfrwt>
<pdfrwt beam="2">  1       -1 0.11407122E-01 0.25187258E+03</pdfrwt>
<totfact> 0.65951909E+03</totfact>
</mgrwt>
</event>
<event>
 4    1  0.3147937E-004  0.2556649E+03  0.7818608E-02  0.1109776E+00
         -1   -1    0    0    0  501 -0.00000000000E+00  0.00000000000E+00  0.52864467869E+02  0.52864468109E+02  0.50400000000E-02 0.  1.
          1   -1    0    0  501    0  0.00000000000E+00 -0.00000000000E+00 -0.30911388082E+03  0.30911388086E+03  0.50400000000E-02 0. -1.
    5000001    1    1    2    0    0 -0.80305768616E+02  0.50967044079E+02 -0.18044315418E+03  0.21802611758E+03  0.77000000000E+02 0.  0.
   -5000001    1    1    2    0    0  0.80305768616E+02 -0.50967044079E+02 -0.75806258776E+02  0.14395223140E+03  0.77000000000E+02 0.  0.
<mgrwt>
<rscale>  0 0.25566494E+03</rscale>
<asrwt>0</asrwt>
<pdfrwt beam="1">  1        1 0.47555981E-01 0.25566494E+03</pdfrwt>
<pdfrwt beam="2">  1       -1 0.81329953E-02 0.25566494E+03</pdfrwt>
<totfact> 0.70026991E+03</totfact>
</mgrwt>
</event>
<event>
 4    1  0.3147937E-004  0.4888023E+03  0.7818608E-02  0.1016744E+00
          1   -1    0    0  501    0  0.00000000000E+00  0.00000000000E+00  0.25250127429E+03  0.25250127434E+03  0.50400000000E-02 0.  1.
         -1   -1    0    0    0  501 -0.00000000000E+00 -0.00000000000E+00 -0.23656087459E+03  0.23656087464E+03  0.50400000000E-02 0. -1.
    5000001    1    1    2    0    0 -0.20259737074E+03  0.71153291979E+02 -0.79794369568E+02  0.24167049262E+03  0.77000000000E+02 0.  0.
   -5000001    1    1    2    0    0  0.20259737074E+03 -0.71153291979E+02  0.95734769265E+02  0.24739165636E+03  0.77000000000E+02 0.  0.
<mgrwt>
<rscale>  0 0.48880230E+03</rscale>
<asrwt>0</asrwt>
<pdfrwt beam="1">  1        1 0.38846350E-01 0.48880230E+03</pdfrwt>
<pdfrwt beam="2">  1       -1 0.36393981E-01 0.48880230E+03</pdfrwt>
<totfact> 0.79824171E+02</totfact>
</mgrwt>
</event>
<event>
 4    1  0.3147937E-004  0.6395161E+03  0.7818608E-02  0.9826653E-01
         -1   -1    0    0    0  501 -0.00000000000E+00  0.00000000000E+00  0.11056906061E+04  0.11056906061E+04  0.50400000000E-02 0. -1.
          1   -1    0    0  501    0  0.00000000000E+00 -0.00000000000E+00 -0.92471804907E+02  0.92471805044E+02  0.50400000000E-02 0.  1.
    5000001    1    1    2    0    0 -0.48947984551E+02  0.29344683155E+03  0.67217461753E+03  0.73909043059E+03  0.77000000000E+02 0.  0.
   -5000001    1    1    2    0    0  0.48947984551E+02 -0.29344683155E+03  0.34104418370E+03  0.45907198060E+03  0.77000000000E+02 0.  0.
<mgrwt>
<rscale>  0 0.63951609E+03</rscale>
<asrwt>0</asrwt>
<pdfrwt beam="1">  1        1 0.14226431E-01 0.63951609E+03</pdfrwt>
<pdfrwt beam="2">  1       -1 0.17010625E+00 0.63951609E+03</pdfrwt>
<totfact> 0.10432320E+02</totfact>
</mgrwt>
</event>
<event>
 4    1  0.3147937E-004  0.4136478E+03  0.7818608E-02  0.1039154E+00
         -1   -1    0    0    0  501 -0.00000000000E+00  0.00000000000E+00  0.17083036903E+03  0.17083036910E+03  0.50400000000E-02 0.  1.
          1   -1    0    0  501    0  0.00000000000E+00 -0.00000000000E+00 -0.25040117631E+03  0.25040117636E+03  0.50400000000E-02 0. -1.
    5000001    1    1    2    0    0 -0.14875723974E+03  0.10775572634E+03  0.16978029594E+02  0.19989313751E+03  0.77000000000E+02 0.  0.
   -5000001    1    1    2    0    0  0.14875723974E+03 -0.10775572634E+03 -0.96548836872E+02  0.22133840795E+03  0.77000000000E+02 0.  0.
<mgrwt>
<rscale>  0 0.41364780E+03</rscale>
<asrwt>0</asrwt>
<pdfrwt beam="1">  1        1 0.38523258E-01 0.41364780E+03</pdfrwt>
<pdfrwt beam="2">  1       -1 0.26281595E-01 0.41364780E+03</pdfrwt>
<totfact> 0.14178256E+03</totfact>
</mgrwt>
</event>
<event>
 4    1  0.3147937E-004  0.3245765E+03  0.7818608E-02  0.1073562E+00
         -1   -1    0    0    0  501 -0.00000000000E+00  0.00000000000E+00  0.93959693329E+02  0.93959693464E+02  0.50400000000E-02 0. -1.
          1   -1    0    0  501    0  0.00000000000E+00 -0.00000000000E+00 -0.28030605713E+03  0.28030605718E+03  0.50400000000E-02 0.  1.
    5000001    1    1    2    0    0 -0.98205572006E+02 -0.78040518750E+02 -0.17200449822E+03  0.22638287115E+03  0.77000000000E+02 0.  0.
   -5000001    1    1    2    0    0  0.98205572006E+02  0.78040518750E+02 -0.14341865581E+02  0.14788287950E+03  0.77000000000E+02 0.  0.
<mgrwt>
<rscale>  0 0.32457647E+03</rscale>
<asrwt>0</asrwt>
<pdfrwt beam="1">  1        1 0.43124009E-01 0.32457647E+03</pdfrwt>
<pdfrwt beam="2">  1       -1 0.14455338E-01 0.32457647E+03</pdfrwt>
<totfact> 0.32594743E+03</totfact>
</mgrwt>
</event>
<event>
 4    1  0.3147937E-004  0.2649584E+03  0.7818608E-02  0.1104200E+00
          1   -1    0    0  501    0  0.00000000000E+00  0.00000000000E+00  0.10459880911E+04  0.10459880911E+04  0.50400000000E-02 0.  1.
         -1   -1    0    0    0  501 -0.00000000000E+00 -0.00000000000E+00 -0.16779097853E+02  0.16779098610E+02  0.50400000000E-02 0. -1.
    5000001    1    1    2    0    0 -0.93695770021E+02 -0.14422519717E+02  0.30871375923E+03  0.33199411370E+03  0.77000000000E+02 0.  0.
   -5000001    1    1    2    0    0  0.93695770021E+02  0.14422519717E+02  0.72049523401E+03  0.73077307602E+03  0.77000000000E+02 0.  0.
<mgrwt>
<rscale>  0 0.26495839E+03</rscale>
<asrwt>0</asrwt>
<pdfrwt beam="1">  1        1 0.16092128E+00 0.26495839E+03</pdfrwt>
<pdfrwt beam="2">  1       -1 0.25813992E-02 0.26495839E+03</pdfrwt>
<totfact> 0.69482023E+03</totfact>
</mgrwt>
</event>
<event>
 4    1  0.3147937E-004  0.6544664E+03  0.7818608E-02  0.9798434E-01
          1   -1    0    0  501    0  0.00000000000E+00  0.00000000000E+00  0.11244317471E+04  0.11244317471E+04  0.50400000000E-02 0.  1.
         -1   -1    0    0    0  501 -0.00000000000E+00 -0.00000000000E+00 -0.95231724979E+02  0.95231725113E+02  0.50400000000E-02 0. -1.
    5000001    1    1    2    0    0  0.26178723159E+03 -0.51205105801E+02  0.83737450816E+03  0.88220155543E+03  0.77000000000E+02 0.  0.
   -5000001    1    1    2    0    0 -0.26178723159E+03  0.51205105801E+02  0.19182551398E+03  0.33746191681E+03  0.77000000000E+02 0.  0.
<mgrwt>
<rscale>  0 0.65446642E+03</rscale>
<asrwt>0</asrwt>
<pdfrwt beam="1">  1        1 0.17298950E+00 0.65446642E+03</pdfrwt>
<pdfrwt beam="2">  1       -1 0.14651034E-01 0.65446642E+03</pdfrwt>
<totfact> 0.42200319E+02</totfact>
</mgrwt>
</event>
<event>
 4    1  0.3147937E-004  0.1781170E+03  0.7818608E-02  0.1169638E+00
         -1   -1    0    0    0  501 -0.00000000000E+00  0.00000000000E+00  0.88901825132E+03  0.88901825134E+03  0.50400000000E-02 0.  1.
          1   -1    0    0  501    0  0.00000000000E+00 -0.00000000000E+00 -0.89215416048E+01  0.89215430284E+01  0.50400000000E-02 0. -1.
    5000001    1    1    2    0    0 -0.37952082282E+02  0.40758841554E+01  0.55778607925E+03  0.56436803913E+03  0.77000000000E+02 0.  0.
   -5000001    1    1    2    0    0  0.37952082282E+02 -0.40758841554E+01  0.32231063046E+03  0.33357175524E+03  0.77000000000E+02 0.  0.
<mgrwt>
<rscale>  0 0.17811697E+03</rscale>
<asrwt>0</asrwt>
<pdfrwt beam="1">  1        1 0.13725445E-02 0.17811697E+03</pdfrwt>
<pdfrwt beam="2">  1       -1 0.13677208E+00 0.17811697E+03</pdfrwt>
<totfact> 0.48250659E+03</totfact>
</mgrwt>
</event>
<event>
 4    1  0.3147937E-004  0.2324037E+03  0.7818608E-02  0.1124959E+00
          1   -1    0    0  501    0  0.00000000000E+00  0.00000000000E+00  0.11958036583E+04  0.11958036583E+04  0.50400000000E-02 0.  1.
         -1   -1    0    0    0  501 -0.00000000000E+00 -0.00000000000E+00 -0.11291875269E+02  0.11291876394E+02  0.50400000000E-02 0. -1.
    5000001    1    1    2    0    0  0.82496249267E+02 -0.23712914935E+02  0.66679112159E+03  0.67668850538E+03  0.77000000000E+02 0.  0.
   -5000001    1    1    2    0    0 -0.82496249267E+02  0.23712914935E+02  0.51772066147E+03  0.53040702936E+03  0.77000000000E+02 0.  0.
<mgrwt>
<rscale>  0 0.23240367E+03</rscale>
<asrwt>0</asrwt>
<pdfrwt beam="1">  1        1 0.18396982E+00 0.23240367E+03</pdfrwt>
<pdfrwt beam="2">  1       -1 0.17372114E-02 0.23240367E+03</pdfrwt>
<totfact> 0.96512525E+03</totfact>
</mgrwt>
</event>
<event>
 4    1  0.3147937E-004  0.2141395E+03  0.7818608E-02  0.1138329E+00
         -1   -1    0    0    0  501 -0.00000000000E+00  0.00000000000E+00  0.34619168224E+03  0.34619168228E+03  0.50400000000E-02 0. -1.
          1   -1    0    0  501    0  0.00000000000E+00 -0.00000000000E+00 -0.33114398106E+02  0.33114398489E+02  0.50400000000E-02 0.  1.
    5000001    1    1    2    0    0  0.34986610800E+02  0.62947364777E+02  0.12347187703E+03  0.16235990295E+03  0.77000000000E+02 0.  0.
   -5000001    1    1    2    0    0 -0.34986610800E+02 -0.62947364777E+02  0.18960540710E+03  0.21694617782E+03  0.77000000000E+02 0.  0.
<mgrwt>
<rscale>  0 0.21413948E+03</rscale>
<asrwt>0</asrwt>
<pdfrwt beam="1">  1        1 0.50945228E-02 0.21413948E+03</pdfrwt>
<pdfrwt beam="2">  1       -1 0.53260259E-01 0.21413948E+03</pdfrwt>
<totfact> 0.58073314E+03</totfact>
</mgrwt>
</event>
<event>
 4    1  0.3147937E-004  0.2930789E+03  0.7818608E-02  0.1088753E+00
          1   -1    0    0  501    0  0.00000000000E+00  0.00000000000E+00  0.12452035865E+04  0.12452035865E+04  0.50400000000E-02 0. -1.
         -1   -1    0    0    0  501 -0.00000000000E+00 -0.00000000000E+00 -0.17245215037E+02  0.17245215774E+02  0.50400000000E-02 0.  1.
    5000001    1    1    2    0    0  0.10831425142E+03  0.58808825267E+02  0.53289335889E+03  0.55235386026E+03  0.77000000000E+02 0.  0.
   -5000001    1    1    2    0    0 -0.10831425142E+03 -0.58808825267E+02  0.69506501255E+03  0.71009494201E+03  0.77000000000E+02 0.  0.
<mgrwt>
<rscale>  0 0.29307886E+03</rscale>
<asrwt>0</asrwt>
<pdfrwt beam="1">  1        1 0.19156983E+00 0.29307886E+03</pdfrwt>
<pdfrwt beam="2">  1       -1 0.26531094E-02 0.29307886E+03</pdfrwt>
<totfact> 0.48225731E+03</totfact>
</mgrwt>
</event>
<event>
 4    1  0.3147937E-004  0.1925111E+03  0.7818608E-02  0.1156216E+00
         -1   -1    0    0    0  501 -0.00000000000E+00  0.00000000000E+00  0.21254973947E+02  0.21254974545E+02  0.50400000000E-02 0. -1.
          1   -1    0    0  501    0  0.00000000000E+00 -0.00000000000E+00 -0.43590423260E+03  0.43590423262E+03  0.50400000000E-02 0.  1.
    5000001    1    1    2    0    0  0.10470033331E+02  0.55925007797E+02 -0.18370782640E+03  0.20715886072E+03  0.77000000000E+02 0.  0.
   -5000001    1    1    2    0    0 -0.10470033331E+02 -0.55925007797E+02 -0.23094143225E+03  0.25000034645E+03  0.77000000000E+02 0.  0.
<mgrwt>
<rscale>  0 0.19251112E+03</rscale>
<asrwt>0</asrwt>
<pdfrwt beam="1">  1        1 0.67062183E-01 0.19251112E+03</pdfrwt>
<pdfrwt beam="2">  1       -1 0.32699964E-02 0.19251112E+03</pdfrwt>
<totfact> 0.17419653E+04</totfact>
</mgrwt>
</event>
<event>
 4    1  0.3147937E-004  0.2279755E+03  0.7818608E-02  0.1128073E+00
          1   -1    0    0  501    0  0.00000000000E+00  0.00000000000E+00  0.62943014831E+02  0.62943015033E+02  0.50400000000E-02 0. -1.
         -1   -1    0    0    0  501 -0.00000000000E+00 -0.00000000000E+00 -0.20642810333E+03  0.20642810339E+03  0.50400000000E-02 0.  1.
    5000001    1    1    2    0    0 -0.79039071983E+02 -0.38526116014E+01 -0.10520835796E+03  0.15251169169E+03  0.77000000000E+02 0.  0.
   -5000001    1    1    2    0    0  0.79039071983E+02  0.38526116014E+01 -0.38276730532E+02  0.11685942673E+03  0.77000000000E+02 0.  0.
<mgrwt>
<rscale>  0 0.22797550E+03</rscale>
<asrwt>0</asrwt>
<pdfrwt beam="1">  1        1 0.96835408E-02 0.22797550E+03</pdfrwt>
<pdfrwt beam="2">  1       -1 0.31758170E-01 0.22797550E+03</pdfrwt>
<totfact> 0.60998366E+03</totfact>
</mgrwt>
</event>
<event>
 4    1  0.3147937E-004  0.2138533E+03  0.7818608E-02  0.1138550E+00
         -1   -1    0    0    0  501 -0.00000000000E+00  0.00000000000E+00  0.16643341761E+04  0.16643341762E+04  0.50400000000E-02 0. -1.
          1   -1    0    0  501    0  0.00000000000E+00 -0.00000000000E+00 -0.68695988179E+01  0.68696006668E+01  0.50400000000E-02 0.  1.
    5000001    1    1    2    0    0  0.57205609058E+02  0.33849874333E+02  0.10862642469E+04  0.10910166404E+04  0.77000000000E+02 0.  0.
   -5000001    1    1    2    0    0 -0.57205609058E+02 -0.33849874333E+02  0.57120033046E+03  0.58018713638E+03  0.77000000000E+02 0.  0.
<mgrwt>
<rscale>  0 0.21385331E+03</rscale>
<asrwt>0</asrwt>
<pdfrwt beam="1">  1        1 0.10568606E-02 0.21385331E+03</pdfrwt>
<pdfrwt beam="2">  1       -1 0.25605163E+00 0.21385331E+03</pdfrwt>
<totfact> 0.10829840E+03</totfact>
</mgrwt>
</event>
<event>
 4    1  0.3147937E-004  0.1890023E+03  0.7818608E-02  0.1159364E+00
          1   -1    0    0  501    0  0.00000000000E+00  0.00000000000E+00  0.30473414078E+03  0.30473414082E+03  0.50400000000E-02 0.  1.
         -1   -1    0    0    0  501 -0.00000000000E+00 -0.00000000000E+00 -0.29305757669E+02  0.29305758102E+02  0.50400000000E-02 0. -1.
    5000001    1    1    2    0    0 -0.29102781215E+02 -0.37242402576E+02  0.18667736130E+03  0.20739191317E+03  0.77000000000E+02 0.  0.
   -5000001    1    1    2    0    0  0.29102781215E+02  0.37242402576E+02  0.88751021808E+02  0.12664798576E+03  0.77000000000E+02 0.  0.
<mgrwt>
<rscale>  0 0.18900227E+03</rscale>
<asrwt>0</asrwt>
<pdfrwt beam="1">  1        1 0.46882175E-01 0.18900227E+03</pdfrwt>
<pdfrwt beam="2">  1       -1 0.45085782E-02 0.18900227E+03</pdfrwt>
<totfact> 0.17020853E+04</totfact>
</mgrwt>
</event>
<event>
 4    1  0.3147937E-004  0.1860234E+03  0.7818608E-02  0.1162098E+00
         -1   -1    0    0    0  501 -0.00000000000E+00  0.00000000000E+00  0.21286630560E+03  0.21286630566E+03  0.50400000000E-02 0. -1.
          1   -1    0    0  501    0  0.00000000000E+00 -0.00000000000E+00 -0.40641345268E+02  0.40641345581E+02  0.50400000000E-02 0.  1.
    5000001    1    1    2    0    0 -0.21955733514E+02  0.46063039770E+02  0.10093574442E+03  0.13682427551E+03  0.77000000000E+02 0.  0.
   -5000001    1    1    2    0    0  0.21955733514E+02 -0.46063039770E+02  0.71289215914E+02  0.11668337573E+03  0.77000000000E+02 0.  0.
<mgrwt>
<rscale>  0 0.18602336E+03</rscale>
<asrwt>0</asrwt>
<pdfrwt beam="1">  1        1 0.62525145E-02 0.18602336E+03</pdfrwt>
<pdfrwt beam="2">  1       -1 0.32748663E-01 0.18602336E+03</pdfrwt>
<totfact> 0.10338179E+04</totfact>
</mgrwt>
</event>
<event>
 4    1  0.3147937E-004  0.1792904E+03  0.7818608E-02  0.1168492E+00
          1   -1    0    0  501    0  0.00000000000E+00  0.00000000000E+00  0.13671968656E+03  0.13671968665E+03  0.50400000000E-02 0. -1.
         -1   -1    0    0    0  501 -0.00000000000E+00 -0.00000000000E+00 -0.58779109154E+02  0.58779109370E+02  0.50400000000E-02 0.  1.
    5000001    1    1    2    0    0  0.43610602905E+02  0.41811592939E+01  0.53916951923E+02  0.10370826623E+03  0.77000000000E+02 0.  0.
   -5000001    1    1    2    0    0 -0.43610602905E+02 -0.41811592939E+01  0.24023625480E+02  0.91790529795E+02  0.77000000000E+02 0.  0.
<mgrwt>
<rscale>  0 0.17929039E+03</rscale>
<asrwt>0</asrwt>
<pdfrwt beam="1">  1        1 0.21033798E-01 0.17929039E+03</pdfrwt>
<pdfrwt beam="2">  1       -1 0.90429400E-02 0.17929039E+03</pdfrwt>
<totfact> 0.16272670E+04</totfact>
</mgrwt>
</event>
<event>
 4    1  0.3147937E-004  0.2269404E+03  0.7818608E-02  0.1128812E+00
          1   -1    0    0  501    0  0.00000000000E+00  0.00000000000E+00  0.47045680246E+03  0.47045680249E+03  0.50400000000E-02 0.  1.
         -1   -1    0    0    0  501 -0.00000000000E+00 -0.00000000000E+00 -0.27368041010E+02  0.27368041474E+02  0.50400000000E-02 0. -1.
    5000001    1    1    2    0    0  0.58176741246E+01  0.40944696412E+02  0.62809777940E+02  0.10763076559E+03  0.77000000000E+02 0.  0.
   -5000001    1    1    2    0    0 -0.58176741246E+01 -0.40944696412E+02  0.38027898351E+03  0.39019407838E+03  0.77000000000E+02 0.  0.
<mgrwt>
<rscale>  0 0.22694036E+03</rscale>
<asrwt>0</asrwt>
<pdfrwt beam="1">  1        1 0.72377961E-01 0.22694036E+03</pdfrwt>
<pdfrwt beam="2">  1       -1 0.42104684E-02 0.22694036E+03</pdfrwt>
<totfact> 0.10971788E+04</totfact>
</mgrwt>
</event>
<event>
 4    1  0.3147937E-004  0.2361614E+03  0.7818608E-02  0.1122377E+00
         -1   -1    0    0    0  501 -0.00000000000E+00  0.00000000000E+00  0.16710024573E+02  0.16710025333E+02  0.50400000000E-02 0.  1.
          1   -1    0    0  501    0  0.00000000000E+00 -0.00000000000E+00 -0.83441231283E+03  0.83441231284E+03  0.50400000000E-02 0. -1.
    5000001    1    1    2    0    0 -0.37368159690E+02 -0.80886640690E+02 -0.37763501190E+03  0.39557076511E+03  0.77000000000E+02 0.  0.
   -5000001    1    1    2    0    0  0.37368159690E+02  0.80886640690E+02 -0.44006727635E+03  0.45555157306E+03  0.77000000000E+02 0.  0.
<mgrwt>
<rscale>  0 0.23616139E+03</rscale>
<asrwt>0</asrwt>
<pdfrwt beam="1">  1        1 0.12837109E+00 0.23616139E+03</pdfrwt>
<pdfrwt beam="2">  1       -1 0.25707737E-02 0.23616139E+03</pdfrwt>
<totfact> 0.10132648E+04</totfact>
</mgrwt>
</event>
<event>
 4    1  0.3147937E-004  0.3899469E+03  0.7818608E-02  0.1047317E+00
         -1   -1    0    0    0  501 -0.00000000000E+00  0.00000000000E+00  0.44482714241E+02  0.44482714527E+02  0.50400000000E-02 0. -1.
          1   -1    0    0  501    0  0.00000000000E+00 -0.00000000000E+00 -0.85459350371E+03  0.85459350372E+03  0.50400000000E-02 0.  1.
    5000001    1    1    2    0    0 -0.90825875129E+02 -0.14989376822E+03 -0.49033773585E+03  0.52638158834E+03  0.77000000000E+02 0.  0.
   -5000001    1    1    2    0    0  0.90825875129E+02  0.14989376822E+03 -0.31977305361E+03  0.37269462991E+03  0.77000000000E+02 0.  0.
<mgrwt>
<rscale>  0 0.38994686E+03</rscale>
<asrwt>0</asrwt>
<pdfrwt beam="1">  1        1 0.13147591E+00 0.38994686E+03</pdfrwt>
<pdfrwt beam="2">  1       -1 0.68434952E-02 0.38994686E+03</pdfrwt>
<totfact> 0.22770269E+03</totfact>
</mgrwt>
</event>
<event>
 4    1  0.3147937E-004  0.1773844E+03  0.7818608E-02  0.1170359E+00
          1   -1    0    0  501    0  0.00000000000E+00  0.00000000000E+00  0.59960355505E+01  0.59960376687E+01  0.50400000000E-02 0. -1.
         -1   -1    0    0    0  501 -0.00000000000E+00 -0.00000000000E+00 -0.13119181874E+04  0.13119181874E+04  0.50400000000E-02 0.  1.
    5000001    1    1    2    0    0 -0.84255072577E+01  0.23443768522E+02 -0.92255910227E+03  0.92610199041E+03  0.77000000000E+02 0.  0.
   -5000001    1    1    2    0    0  0.84255072577E+01 -0.23443768522E+02 -0.38336304958E+03  0.39181223467E+03  0.77000000000E+02 0.  0.
<mgrwt>
<rscale>  0 0.17738444E+03</rscale>
<asrwt>0</asrwt>
<pdfrwt beam="1">  1        1 0.92246821E-03 0.17738444E+03</pdfrwt>
<pdfrwt beam="2">  1       -1 0.20183334E+00 0.17738444E+03</pdfrwt>
<totfact> 0.28907767E+03</totfact>
</mgrwt>
</event>
<event>
 4    1  0.3147937E-004  0.3319101E+03  0.7818608E-02  0.1070295E+00
         -1   -1    0    0    0  501 -0.00000000000E+00  0.00000000000E+00  0.74203518908E+02  0.74203519080E+02  0.50400000000E-02 0. -1.
          1   -1    0    0  501    0  0.00000000000E+00 -0.00000000000E+00 -0.37115605964E+03  0.37115605968E+03  0.50400000000E-02 0.  1.
    5000001    1    1    2    0    0 -0.41613566123E+02  0.36882543442E+02  0.34128299469E+02  0.10092448524E+03  0.77000000000E+02 0.  0.
   -5000001    1    1    2    0    0  0.41613566123E+02 -0.36882543442E+02 -0.33108084021E+03  0.34443509352E+03  0.77000000000E+02 0.  0.
<mgrwt>
<rscale>  0 0.33191014E+03</rscale>
<asrwt>0</asrwt>
<pdfrwt beam="1">  1        1 0.57100931E-01 0.33191014E+03</pdfrwt>
<pdfrwt beam="2">  1       -1 0.11415926E-01 0.33191014E+03</pdfrwt>
<totfact> 0.33122855E+03</totfact>
</mgrwt>
</event>
<event>
 4    1  0.3147937E-004  0.2417588E+03  0.7818608E-02  0.1118627E+00
         -1   -1    0    0    0  501 -0.00000000000E+00  0.00000000000E+00  0.15709809098E+02  0.15709809907E+02  0.50400000000E-02 0. -1.
          1   -1    0    0  501    0  0.00000000000E+00 -0.00000000000E+00 -0.93010898717E+03  0.93010898718E+03  0.50400000000E-02 0.  1.
    5000001    1    1    2    0    0  0.47368035642E+02 -0.76734766549E+02 -0.36537605638E+03  0.38413619691E+03  0.77000000000E+02 0.  0.
   -5000001    1    1    2    0    0 -0.47368035642E+02  0.76734766549E+02 -0.54902312169E+03  0.56168260018E+03  0.77000000000E+02 0.  0.
<mgrwt>
<rscale>  0 0.24175885E+03</rscale>
<asrwt>0</asrwt>
<pdfrwt beam="1">  1        1 0.14309365E+00 0.24175885E+03</pdfrwt>
<pdfrwt beam="2">  1       -1 0.24168945E-02 0.24175885E+03</pdfrwt>
<totfact> 0.93261001E+03</totfact>
</mgrwt>
</event>
<event>
 4    1  0.3147937E-004  0.2043596E+03  0.7818608E-02  0.1146112E+00
         -1   -1    0    0    0  501 -0.00000000000E+00  0.00000000000E+00  0.35176956195E+01  0.35176992301E+01  0.50400000000E-02 0. -1.
          1   -1    0    0  501    0  0.00000000000E+00 -0.00000000000E+00 -0.29680518309E+04  0.29680518309E+04  0.50400000000E-02 0.  1.
    5000001    1    1    2    0    0 -0.50501654311E+02 -0.40899010209E+02 -0.12352592958E+04  0.12393618011E+04  0.77000000000E+02 0.  0.
   -5000001    1    1    2    0    0  0.50501654311E+02  0.40899010209E+02 -0.17292748395E+04  0.17322077291E+04  0.77000000000E+02 0.  0.
<mgrwt>
<rscale>  0 0.20435957E+03</rscale>
<asrwt>0</asrwt>
<pdfrwt beam="1">  1        1 0.45662136E+00 0.20435957E+03</pdfrwt>
<pdfrwt beam="2">  1       -1 0.54118659E-03 0.20435957E+03</pdfrwt>
<totfact> 0.34814114E+03</totfact>
</mgrwt>
</event>
<event>
 4    1  0.3147937E-004  0.5146778E+03  0.7818608E-02  0.1010017E+00
         -1   -1    0    0    0  501 -0.00000000000E+00  0.00000000000E+00  0.42425633299E+02  0.42425633598E+02  0.50400000000E-02 0.  1.
          1   -1    0    0  501    0  0.00000000000E+00 -0.00000000000E+00 -0.15609265703E+04  0.15609265703E+04  0.50400000000E-02 0. -1.
    5000001    1    1    2    0    0  0.20401812979E+03 -0.13041062441E+03 -0.63217365522E+03  0.68132434171E+03  0.77000000000E+02 0.  0.
   -5000001    1    1    2    0    0 -0.20401812979E+03  0.13041062441E+03 -0.88632728177E+03  0.92202786219E+03  0.77000000000E+02 0.  0.
<mgrwt>
<rscale>  0 0.51467776E+03</rscale>
<asrwt>0</asrwt>
<pdfrwt beam="1">  1        1 0.24014251E+00 0.51467776E+03</pdfrwt>
<pdfrwt beam="2">  1       -1 0.65270217E-02 0.51467776E+03</pdfrwt>
<totfact> 0.75373663E+02</totfact>
</mgrwt>
</event>
<event>
 4    1  0.3147937E-004  0.2042693E+03  0.7818608E-02  0.1146186E+00
          1   -1    0    0  501    0  0.00000000000E+00  0.00000000000E+00  0.19137755444E+03  0.19137755450E+03  0.50400000000E-02 0.  1.
         -1   -1    0    0    0  501 -0.00000000000E+00 -0.00000000000E+00 -0.54507368769E+02  0.54507369002E+02  0.50400000000E-02 0. -1.
    5000001    1    1    2    0    0 -0.44693785512E+02  0.46540701322E+02  0.46274846048E+02  0.11060710972E+03  0.77000000000E+02 0.  0.
   -5000001    1    1    2    0    0  0.44693785512E+02 -0.46540701322E+02  0.90595339619E+02  0.13527781379E+03  0.77000000000E+02 0.  0.
<mgrwt>
<rscale>  0 0.20426930E+03</rscale>
<asrwt>0</asrwt>
<pdfrwt beam="1">  1        1 0.29442701E-01 0.20426930E+03</pdfrwt>
<pdfrwt beam="2">  1       -1 0.83857491E-02 0.20426930E+03</pdfrwt>
<totfact> 0.12043900E+04</totfact>
</mgrwt>
</event>
<event>
 4    1  0.3147937E-004  0.2174366E+03  0.7818608E-02  0.1135809E+00
          1   -1    0    0  501    0  0.00000000000E+00  0.00000000000E+00  0.11752745798E+04  0.11752745798E+04  0.50400000000E-02 0. -1.
         -1   -1    0    0    0  501 -0.00000000000E+00 -0.00000000000E+00 -0.10056942164E+02  0.10056943427E+02  0.50400000000E-02 0.  1.
    5000001    1    1    2    0    0  0.43331933208E+02 -0.47813144582E+02  0.35606992065E+03  0.36997100106E+03  0.77000000000E+02 0.  0.
   -5000001    1    1    2    0    0 -0.43331933208E+02  0.47813144582E+02  0.80914771696E+03  0.81536052216E+03  0.77000000000E+02 0.  0.
<mgrwt>
<rscale>  0 0.21743660E+03</rscale>
<asrwt>0</asrwt>
<pdfrwt beam="1">  1        1 0.18081145E+00 0.21743660E+03</pdfrwt>
<pdfrwt beam="2">  1       -1 0.15472222E-02 0.21743660E+03</pdfrwt>
<totfact> 0.11771926E+04</totfact>
</mgrwt>
</event>
<event>
 4    1  0.3147937E-004  0.2111814E+03  0.7818608E-02  0.1140634E+00
          1   -1    0    0  501    0  0.00000000000E+00  0.00000000000E+00  0.21686454631E+04  0.21686454631E+04  0.50400000000E-02 0.  1.
         -1   -1    0    0    0  501 -0.00000000000E+00 -0.00000000000E+00 -0.51411776673E+01  0.51411801377E+01  0.50400000000E-02 0. -1.
    5000001    1    1    2    0    0 -0.66875162772E+02  0.27273661413E+02  0.10605208742E+04  0.10657624804E+04  0.77000000000E+02 0.  0.
   -5000001    1    1    2    0    0  0.66875162772E+02 -0.27273661413E+02  0.11029834112E+04  0.11080241628E+04  0.77000000000E+02 0.  0.
<mgrwt>
<rscale>  0 0.21118138E+03</rscale>
<asrwt>0</asrwt>
<pdfrwt beam="1">  1        1 0.33363737E+00 0.21118138E+03</pdfrwt>
<pdfrwt beam="2">  1       -1 0.79095153E-03 0.21118138E+03</pdfrwt>
<totfact> 0.68909152E+03</totfact>
</mgrwt>
</event>
<event>
 4    1  0.3147937E-004  0.2188387E+03  0.7818608E-02  0.1134752E+00
          1   -1    0    0  501    0  0.00000000000E+00  0.00000000000E+00  0.55043199498E+03  0.55043199500E+03  0.50400000000E-02 0.  1.
         -1   -1    0    0    0  501 -0.00000000000E+00 -0.00000000000E+00 -0.21751271556E+02  0.21751272140E+02  0.50400000000E-02 0. -1.
    5000001    1    1    2    0    0 -0.34878811395E+02 -0.69006643903E+02  0.24323658680E+03  0.26659235837E+03  0.77000000000E+02 0.  0.
   -5000001    1    1    2    0    0  0.34878811395E+02  0.69006643903E+02  0.28544413663E+03  0.30559090877E+03  0.77000000000E+02 0.  0.
<mgrwt>
<rscale>  0 0.21883872E+03</rscale>
<asrwt>0</asrwt>
<pdfrwt beam="1">  1        1 0.84681843E-01 0.21883872E+03</pdfrwt>
<pdfrwt beam="2">  1       -1 0.33463496E-02 0.21883872E+03</pdfrwt>
<totfact> 0.12487443E+04</totfact>
</mgrwt>
</event>
<event>
 4    1  0.3147937E-004  0.1830061E+03  0.7818608E-02  0.1164925E+00
         -1   -1    0    0    0  501 -0.00000000000E+00  0.00000000000E+00  0.16236031499E+02  0.16236032281E+02  0.50400000000E-02 0. -1.
          1   -1    0    0  501    0  0.00000000000E+00 -0.00000000000E+00 -0.51569288662E+03  0.51569288664E+03  0.50400000000E-02 0.  1.
    5000001    1    1    2    0    0  0.48384331170E+02  0.40697444902E+01 -0.27671460205E+03  0.29130323944E+03  0.77000000000E+02 0.  0.
   -5000001    1    1    2    0    0 -0.48384331170E+02 -0.40697444902E+01 -0.22274225307E+03  0.24062567948E+03  0.77000000000E+02 0.  0.
<mgrwt>
<rscale>  0 0.18300608E+03</rscale>
<asrwt>0</asrwt>
<pdfrwt beam="1">  1        1 0.79337355E-01 0.18300608E+03</pdfrwt>
<pdfrwt beam="2">  1       -1 0.24978514E-02 0.18300608E+03</pdfrwt>
<totfact> 0.20675188E+04</totfact>
</mgrwt>
</event>
<event>
 4    1  0.3147937E-004  0.2714081E+03  0.7818608E-02  0.1100476E+00
         -1   -1    0    0    0  501 -0.00000000000E+00  0.00000000000E+00  0.87287830218E+03  0.87287830219E+03  0.50400000000E-02 0.  1.
          1   -1    0    0  501    0  0.00000000000E+00 -0.00000000000E+00 -0.21097541781E+02  0.21097542383E+02  0.50400000000E-02 0. -1.
    5000001    1    1    2    0    0 -0.80901346689E+00  0.10813652673E+03  0.51861216151E+03  0.53533329523E+03  0.77000000000E+02 0.  0.
   -5000001    1    1    2    0    0  0.80901346689E+00 -0.10813652673E+03  0.33316859889E+03  0.35864254935E+03  0.77000000000E+02 0.  0.
<mgrwt>
<rscale>  0 0.27140808E+03</rscale>
<asrwt>0</asrwt>
<pdfrwt beam="1">  1        1 0.32457753E-02 0.27140808E+03</pdfrwt>
<pdfrwt beam="2">  1       -1 0.13428899E+00 0.27140808E+03</pdfrwt>
<totfact> 0.15306521E+03</totfact>
</mgrwt>
</event>
<event>
 4    1  0.3147937E-004  0.1827406E+03  0.7818608E-02  0.1165177E+00
          1   -1    0    0  501    0  0.00000000000E+00  0.00000000000E+00  0.28954915222E+02  0.28954915660E+02  0.50400000000E-02 0.  1.
         -1   -1    0    0    0  501 -0.00000000000E+00 -0.00000000000E+00 -0.28832857752E+03  0.28832857757E+03  0.50400000000E-02 0. -1.
    5000001    1    1    2    0    0 -0.15345668548E+02 -0.45203980850E+02 -0.15027734447E+03  0.17547412826E+03  0.77000000000E+02 0.  0.
   -5000001    1    1    2    0    0  0.15345668548E+02  0.45203980850E+02 -0.10909631783E+03  0.14180936497E+03  0.77000000000E+02 0.  0.
<mgrwt>
<rscale>  0 0.18274058E+03</rscale>
<asrwt>0</asrwt>
<pdfrwt beam="1">  1        1 0.44546026E-02 0.18274058E+03</pdfrwt>
<pdfrwt beam="2">  1       -1 0.44358241E-01 0.18274058E+03</pdfrwt>
<totfact> 0.96689530E+03</totfact>
</mgrwt>
</event>
<event>
 4    1  0.3147937E-004  0.2909558E+03  0.7818608E-02  0.1089851E+00
          1   -1    0    0  501    0  0.00000000000E+00  0.00000000000E+00  0.93024698282E+03  0.93024698283E+03  0.50400000000E-02 0.  1.
         -1   -1    0    0    0  501 -0.00000000000E+00 -0.00000000000E+00 -0.22750750217E+02  0.22750750775E+02  0.50400000000E-02 0. -1.
    5000001    1    1    2    0    0  0.71511224103E+02 -0.97275939982E+02  0.36970649987E+03  0.39646987240E+03  0.77000000000E+02 0.  0.
   -5000001    1    1    2    0    0 -0.71511224103E+02  0.97275939982E+02  0.53778973273E+03  0.55652786121E+03  0.77000000000E+02 0.  0.
<mgrwt>
<rscale>  0 0.29095578E+03</rscale>
<asrwt>0</asrwt>
<pdfrwt beam="1">  1        1 0.14311490E+00 0.29095578E+03</pdfrwt>
<pdfrwt beam="2">  1       -1 0.35001160E-02 0.29095578E+03</pdfrwt>
<totfact> 0.54287274E+03</totfact>
</mgrwt>
</event>
<event>
 4    1  0.3147937E-004  0.2619775E+03  0.7818608E-02  0.1105961E+00
          1   -1    0    0  501    0  0.00000000000E+00  0.00000000000E+00  0.19818150524E+03  0.19818150531E+03  0.50400000000E-02 0.  1.
         -1   -1    0    0    0  501 -0.00000000000E+00 -0.00000000000E+00 -0.86577433935E+02  0.86577434082E+02  0.50400000000E-02 0. -1.
    5000001    1    1    2    0    0 -0.85289721638E+02 -0.61172990579E+02  0.39954221918E+02  0.13616831953E+03  0.77000000000E+02 0.  0.
   -5000001    1    1    2    0    0  0.85289721638E+02  0.61172990579E+02  0.71649849391E+02  0.14859061986E+03  0.77000000000E+02 0.  0.
<mgrwt>
<rscale>  0 0.26197745E+03</rscale>
<asrwt>0</asrwt>
<pdfrwt beam="1">  1        1 0.30489462E-01 0.26197745E+03</pdfrwt>
<pdfrwt beam="2">  1       -1 0.13319605E-01 0.26197745E+03</pdfrwt>
<totfact> 0.57063619E+03</totfact>
</mgrwt>
</event>
<event>
 4    1  0.3147937E-004  0.2002705E+03  0.7818608E-02  0.1149511E+00
         -1   -1    0    0    0  501 -0.00000000000E+00  0.00000000000E+00  0.19934270509E+02  0.19934271146E+02  0.50400000000E-02 0. -1.
          1   -1    0    0  501    0  0.00000000000E+00 -0.00000000000E+00 -0.50300639318E+03  0.50300639321E+03  0.50400000000E-02 0.  1.
    5000001    1    1    2    0    0  0.23750491434E+02 -0.39216463322E+02 -0.35819581926E+03  0.36923605156E+03  0.77000000000E+02 0.  0.
   -5000001    1    1    2    0    0 -0.23750491434E+02  0.39216463322E+02 -0.12487630342E+03  0.15370461279E+03  0.77000000000E+02 0.  0.
<mgrwt>
<rscale>  0 0.20027047E+03</rscale>
<asrwt>0</asrwt>
<pdfrwt beam="1">  1        1 0.77385589E-01 0.20027047E+03</pdfrwt>
<pdfrwt beam="2">  1       -1 0.30668113E-02 0.20027047E+03</pdfrwt>
<totfact> 0.15926673E+04</totfact>
</mgrwt>
</event>
<event>
 4    1  0.3147937E-004  0.2428767E+03  0.7818608E-02  0.1117891E+00
          1   -1    0    0  501    0  0.00000000000E+00  0.00000000000E+00  0.23830327557E+03  0.23830327563E+03  0.50400000000E-02 0.  1.
         -1   -1    0    0    0  501 -0.00000000000E+00 -0.00000000000E+00 -0.61884467084E+02  0.61884467289E+02  0.50400000000E-02 0. -1.
    5000001    1    1    2    0    0 -0.75677195093E+02 -0.37680491385E+02  0.37679422818E+02  0.12039765858E+03  0.77000000000E+02 0.  0.
   -5000001    1    1    2    0    0  0.75677195093E+02  0.37680491385E+02  0.13873938567E+03  0.17979008433E+03  0.77000000000E+02 0.  0.
<mgrwt>
<rscale>  0 0.24287669E+03</rscale>
<asrwt>0</asrwt>
<pdfrwt beam="1">  1        1 0.36662042E-01 0.24287669E+03</pdfrwt>
<pdfrwt beam="2">  1       -1 0.95206873E-02 0.24287669E+03</pdfrwt>
<totfact> 0.76051208E+03</totfact>
</mgrwt>
</event>
<event>
 4    1  0.3147937E-004  0.2402217E+03  0.7818608E-02  0.1119645E+00
          1   -1    0    0  501    0  0.00000000000E+00  0.00000000000E+00  0.16999014275E+04  0.16999014275E+04  0.50400000000E-02 0.  1.
         -1   -1    0    0    0  501 -0.00000000000E+00 -0.00000000000E+00 -0.84867330003E+01  0.84867344969E+01  0.50400000000E-02 0. -1.
    5000001    1    1    2    0    0  0.52127322448E+02 -0.57179463461E+02  0.48934991171E+03  0.50137718823E+03  0.77000000000E+02 0.  0.
   -5000001    1    1    2    0    0 -0.52127322448E+02  0.57179463461E+02  0.12020647827E+04  0.12070109737E+04  0.77000000000E+02 0.  0.
<mgrwt>
<rscale>  0 0.24022165E+03</rscale>
<asrwt>0</asrwt>
<pdfrwt beam="1">  1        1 0.26152349E+00 0.24022165E+03</pdfrwt>
<pdfrwt beam="2">  1       -1 0.13056504E-02 0.24022165E+03</pdfrwt>
<totfact> 0.67376239E+03</totfact>
</mgrwt>
</event>
<event>
 4    1  0.3147937E-004  0.4154589E+03  0.7818608E-02  0.1038554E+00
         -1   -1    0    0    0  501 -0.00000000000E+00  0.00000000000E+00  0.75491266403E+02  0.75491266571E+02  0.50400000000E-02 0. -1.
          1   -1    0    0  501    0  0.00000000000E+00 -0.00000000000E+00 -0.57160941041E+03  0.57160941043E+03  0.50400000000E-02 0.  1.
    5000001    1    1    2    0    0 -0.10926997846E+03 -0.14434104390E+03 -0.14417748697E+03  0.24390656591E+03  0.77000000000E+02 0.  0.
   -5000001    1    1    2    0    0  0.10926997846E+03  0.14434104390E+03 -0.35194065703E+03  0.40319411109E+03  0.77000000000E+02 0.  0.
<mgrwt>
<rscale>  0 0.41545887E+03</rscale>
<asrwt>0</asrwt>
<pdfrwt beam="1">  1        1 0.87939906E-01 0.41545887E+03</pdfrwt>
<pdfrwt beam="2">  1       -1 0.11614041E-01 0.41545887E+03</pdfrwt>
<totfact> 0.18214136E+03</totfact>
</mgrwt>
</event>
<event>
 4    1  0.3147937E-004  0.1717611E+03  0.7818608E-02  0.1176024E+00
          1   -1    0    0  501    0  0.00000000000E+00  0.00000000000E+00  0.72031296690E+03  0.72031296692E+03  0.50400000000E-02 0. -1.
         -1   -1    0    0    0  501 -0.00000000000E+00 -0.00000000000E+00 -0.10239250485E+02  0.10239251725E+02  0.50400000000E-02 0.  1.
    5000001    1    1    2    0    0  0.31261941140E+02  0.78591086540E+01  0.44088525013E+03  0.44871803879E+03  0.77000000000E+02 0.  0.
   -5000001    1    1    2    0    0 -0.31261941140E+02 -0.78591086540E+01  0.26918846628E+03  0.28183417985E+03  0.77000000000E+02 0.  0.
<mgrwt>
<rscale>  0 0.17176106E+03</rscale>
<asrwt>0</asrwt>
<pdfrwt beam="1">  1        1 0.11081739E+00 0.17176106E+03</pdfrwt>
<pdfrwt beam="2">  1       -1 0.15752693E-02 0.17176106E+03</pdfrwt>
<totfact> 0.25295574E+04</totfact>
</mgrwt>
</event>
<event>
 4    1  0.3147937E-004  0.2000519E+03  0.7818608E-02  0.1149695E+00
         -1   -1    0    0    0  501 -0.00000000000E+00  0.00000000000E+00  0.87904403365E+02  0.87904403509E+02  0.50400000000E-02 0. -1.
          1   -1    0    0  501    0  0.00000000000E+00 -0.00000000000E+00 -0.11381896876E+03  0.11381896887E+03  0.50400000000E-02 0.  1.
    5000001    1    1    2    0    0  0.67082684885E+01 -0.47135256456E+02  0.29935825168E+02  0.95351386439E+02  0.77000000000E+02 0.  0.
   -5000001    1    1    2    0    0 -0.67082684885E+01  0.47135256456E+02 -0.55850390564E+02  0.10637198594E+03  0.77000000000E+02 0.  0.
<mgrwt>
<rscale>  0 0.20005188E+03</rscale>
<asrwt>0</asrwt>
<pdfrwt beam="1">  1        1 0.17510611E-01 0.20005188E+03</pdfrwt>
<pdfrwt beam="2">  1       -1 0.13523754E-01 0.20005188E+03</pdfrwt>
<totfact> 0.11143444E+04</totfact>
</mgrwt>
</event>
<event>
 4    1  0.3147937E-004  0.2401204E+03  0.7818608E-02  0.1119713E+00
         -1   -1    0    0    0  501 -0.00000000000E+00  0.00000000000E+00  0.16730685228E+03  0.16730685236E+03  0.50400000000E-02 0. -1.
          1   -1    0    0  501    0  0.00000000000E+00 -0.00000000000E+00 -0.86155766811E+02  0.86155766958E+02  0.50400000000E-02 0.  1.
    5000001    1    1    2    0    0  0.24635083534E+02 -0.26472225832E+02  0.13000489346E+03  0.15536389029E+03  0.77000000000E+02 0.  0.
   -5000001    1    1    2    0    0 -0.24635083534E+02  0.26472225832E+02 -0.48853807993E+02  0.98098729027E+02  0.77000000000E+02 0.  0.
<mgrwt>
<rscale>  0 0.24012039E+03</rscale>
<asrwt>0</asrwt>
<pdfrwt beam="1">  1        1 0.13254733E-01 0.24012039E+03</pdfrwt>
<pdfrwt beam="2">  1       -1 0.25739516E-01 0.24012039E+03</pdfrwt>
<totfact> 0.57387054E+03</totfact>
</mgrwt>
</event>
<event>
 4    1  0.3147937E-004  0.2228127E+03  0.7818608E-02  0.1131803E+00
         -1   -1    0    0    0  501 -0.00000000000E+00  0.00000000000E+00  0.91749352421E+01  0.91749366264E+01  0.50400000000E-02 0. -1.
          1   -1    0    0  501    0  0.00000000000E+00 -0.00000000000E+00 -0.13527472924E+04  0.13527472924E+04  0.50400000000E-02 0.  1.
    5000001    1    1    2    0    0  0.81188925660E+01 -0.67025902505E+02 -0.93989612624E+03  0.94545868030E+03  0.77000000000E+02 0.  0.
   -5000001    1    1    2    0    0 -0.81188925660E+01  0.67025902505E+02 -0.40367623095E+03  0.41646354877E+03  0.77000000000E+02 0.  0.
<mgrwt>
<rscale>  0 0.22281265E+03</rscale>
<asrwt>0</asrwt>
<pdfrwt beam="1">  1        1 0.20811481E+00 0.22281265E+03</pdfrwt>
<pdfrwt beam="2">  1       -1 0.14115297E-02 0.22281265E+03</pdfrwt>
<totfact> 0.10172181E+04</totfact>
</mgrwt>
</event>
<event>
 4    1  0.3147937E-004  0.1722720E+03  0.7818608E-02  0.1175499E+00
         -1   -1    0    0    0  501 -0.00000000000E+00  0.00000000000E+00  0.29352936721E+02  0.29352937153E+02  0.50400000000E-02 0. -1.
          1   -1    0    0  501    0  0.00000000000E+00 -0.00000000000E+00 -0.25276544655E+03  0.25276544660E+03  0.50400000000E-02 0.  1.
    5000001    1    1    2    0    0  0.31871066699E+02 -0.18074118259E+02 -0.91785628906E+02  0.12528383901E+03  0.77000000000E+02 0.  0.
   -5000001    1    1    2    0    0 -0.31871066699E+02  0.18074118259E+02 -0.13162688092E+03  0.15683454474E+03  0.77000000000E+02 0.  0.
<mgrwt>
<rscale>  0 0.17227197E+03</rscale>
<asrwt>0</asrwt>
<pdfrwt beam="1">  1        1 0.38886990E-01 0.17227197E+03</pdfrwt>
<pdfrwt beam="2">  1       -1 0.45158366E-02 0.17227197E+03</pdfrwt>
<totfact> 0.21271771E+04</totfact>
</mgrwt>
</event>
<event>
 4    1  0.3147937E-004  0.1690847E+03  0.7818608E-02  0.1178806E+00
          1   -1    0    0  501    0  0.00000000000E+00  0.00000000000E+00  0.12884980694E+04  0.12884980694E+04  0.50400000000E-02 0.  1.
         -1   -1    0    0    0  501 -0.00000000000E+00 -0.00000000000E+00 -0.55470867559E+01  0.55470890456E+01  0.50400000000E-02 0. -1.
    5000001    1    1    2    0    0  0.31759747591E+02  0.14270755843E+02  0.66034040274E+03  0.66572575699E+03  0.77000000000E+02 0.  0.
   -5000001    1    1    2    0    0 -0.31759747591E+02 -0.14270755843E+02  0.62261057988E+03  0.62831940143E+03  0.77000000000E+02 0.  0.
<mgrwt>
<rscale>  0 0.16908474E+03</rscale>
<asrwt>0</asrwt>
<pdfrwt beam="1">  1        1 0.19823027E+00 0.16908474E+03</pdfrwt>
<pdfrwt beam="2">  1       -1 0.85339902E-03 0.16908474E+03</pdfrwt>
<totfact> 0.22863378E+04</totfact>
</mgrwt>
</event>
<event>
 4    1  0.3147937E-004  0.1869180E+03  0.7818608E-02  0.1161271E+00
          1   -1    0    0  501    0  0.00000000000E+00  0.00000000000E+00  0.52647214448E+03  0.52647214450E+03  0.50400000000E-02 0. -1.
         -1   -1    0    0    0  501 -0.00000000000E+00 -0.00000000000E+00 -0.16590781471E+02  0.16590782237E+02  0.50400000000E-02 0.  1.
    5000001    1    1    2    0    0 -0.35755380706E+02  0.36052325901E+02  0.29874962798E+03  0.31266364942E+03  0.77000000000E+02 0.  0.
   -5000001    1    1    2    0    0  0.35755380706E+02 -0.36052325901E+02  0.21113173503E+03  0.23039927732E+03  0.77000000000E+02 0.  0.
<mgrwt>
<rscale>  0 0.18691800E+03</rscale>
<asrwt>0</asrwt>
<pdfrwt beam="1">  1        1 0.80995702E-01 0.18691800E+03</pdfrwt>
<pdfrwt beam="2">  1       -1 0.25524284E-02 0.18691800E+03</pdfrwt>
<totfact> 0.19521802E+04</totfact>
</mgrwt>
</event>
<event>
 4    1  0.3147937E-004  0.2113995E+03  0.7818608E-02  0.1140463E+00
          1   -1    0    0  501    0  0.00000000000E+00  0.00000000000E+00  0.22755687958E+03  0.22755687963E+03  0.50400000000E-02 0. -1.
         -1   -1    0    0    0  501 -0.00000000000E+00 -0.00000000000E+00 -0.49097334836E+02  0.49097335095E+02  0.50400000000E-02 0.  1.
    5000001    1    1    2    0    0  0.62775747521E+02 -0.62772018485E+01  0.13574295394E+03  0.16833106453E+03  0.77000000000E+02 0.  0.
   -5000001    1    1    2    0    0 -0.62775747521E+02  0.62772018485E+01  0.42716590800E+02  0.10832315020E+03  0.77000000000E+02 0.  0.
<mgrwt>
<rscale>  0 0.21139949E+03</rscale>
<asrwt>0</asrwt>
<pdfrwt beam="1">  1        1 0.35008750E-01 0.21139949E+03</pdfrwt>
<pdfrwt beam="2">  1       -1 0.75534363E-02 0.21139949E+03</pdfrwt>
<totfact> 0.11389476E+04</totfact>
</mgrwt>
</event>
<event>
 4    1  0.3147937E-004  0.2314629E+03  0.7818608E-02  0.1125614E+00
          1   -1    0    0  501    0  0.00000000000E+00  0.00000000000E+00  0.25958488100E+03  0.25958488105E+03  0.50400000000E-02 0. -1.
         -1   -1    0    0    0  501 -0.00000000000E+00 -0.00000000000E+00 -0.51596866412E+02  0.51596866659E+02  0.50400000000E-02 0.  1.
    5000001    1    1    2    0    0 -0.45450489705E+02  0.39683543683E+02  0.18713306371E+03  0.21115945204E+03  0.77000000000E+02 0.  0.
   -5000001    1    1    2    0    0  0.45450489705E+02 -0.39683543683E+02  0.20854950876E+02  0.10002229566E+03  0.77000000000E+02 0.  0.
<mgrwt>
<rscale>  0 0.23146288E+03</rscale>
<asrwt>0</asrwt>
<pdfrwt beam="1">  1        1 0.39936135E-01 0.23146288E+03</pdfrwt>
<pdfrwt beam="2">  1       -1 0.79379797E-02 0.23146288E+03</pdfrwt>
<totfact> 0.90040327E+03</totfact>
</mgrwt>
</event>
<event>
 4    1  0.3147937E-004  0.2047607E+03  0.7818608E-02  0.1145783E+00
         -1   -1    0    0    0  501 -0.00000000000E+00  0.00000000000E+00  0.91387519021E+01  0.91387532919E+01  0.50400000000E-02 0. -1.
          1   -1    0    0  501    0  0.00000000000E+00 -0.00000000000E+00 -0.11469550222E+04  0.11469550222E+04  0.50400000000E-02 0.  1.
    5000001    1    1    2    0    0  0.81584661214E+00 -0.50466440589E+02 -0.82173688018E+03  0.82687848411E+03  0.77000000000E+02 0.  0.
   -5000001    1    1    2    0    0 -0.81584661214E+00  0.50466440589E+02 -0.31607939011E+03  0.32921529139E+03  0.77000000000E+02 0.  0.
<mgrwt>
<rscale>  0 0.20476072E+03</rscale>
<asrwt>0</asrwt>
<pdfrwt beam="1">  1        1 0.17645451E+00 0.20476072E+03</pdfrwt>
<pdfrwt beam="2">  1       -1 0.14059628E-02 0.20476072E+03</pdfrwt>
<totfact> 0.14116507E+04</totfact>
</mgrwt>
</event>
<event>
 4    1  0.3147937E-004  0.3009169E+03  0.7818608E-02  0.1084783E+00
         -1   -1    0    0    0  501 -0.00000000000E+00  0.00000000000E+00  0.11794788673E+03  0.11794788684E+03  0.50400000000E-02 0. -1.
          1   -1    0    0  501    0  0.00000000000E+00 -0.00000000000E+00 -0.19193001524E+03  0.19193001531E+03  0.50400000000E-02 0.  1.
    5000001    1    1    2    0    0 -0.85664044232E+02  0.91427806578E+02 -0.69740103463E+02  0.16275765518E+03  0.77000000000E+02 0.  0.
   -5000001    1    1    2    0    0  0.85664044232E+02 -0.91427806578E+02 -0.42420250507E+01  0.14712024696E+03  0.77000000000E+02 0.  0.
<mgrwt>
<rscale>  0 0.30091686E+03</rscale>
<asrwt>0</asrwt>
<pdfrwt beam="1">  1        1 0.29527695E-01 0.30091686E+03</pdfrwt>
<pdfrwt beam="2">  1       -1 0.18145829E-01 0.30091686E+03</pdfrwt>
<totfact> 0.36465357E+03</totfact>
</mgrwt>
</event>
<event>
 4    1  0.3147937E-004  0.1995691E+03  0.7818608E-02  0.1150103E+00
         -1   -1    0    0    0  501 -0.00000000000E+00  0.00000000000E+00  0.42326414834E+02  0.42326415134E+02  0.50400000000E-02 0. -1.
          1   -1    0    0  501    0  0.00000000000E+00 -0.00000000000E+00 -0.23524206587E+03  0.23524206592E+03  0.50400000000E-02 0.  1.
    5000001    1    1    2    0    0 -0.11785484002E+02  0.62319843414E+02 -0.99657601888E+02  0.14100814916E+03  0.77000000000E+02 0.  0.
   -5000001    1    1    2    0    0  0.11785484002E+02 -0.62319843414E+02 -0.93258049149E+02  0.13656033190E+03  0.77000000000E+02 0.  0.
<mgrwt>
<rscale>  0 0.19956907E+03</rscale>
<asrwt>0</asrwt>
<pdfrwt beam="1">  1        1 0.36191086E-01 0.19956907E+03</pdfrwt>
<pdfrwt beam="2">  1       -1 0.65117563E-02 0.19956907E+03</pdfrwt>
<totfact> 0.13623039E+04</totfact>
</mgrwt>
</event>
<event>
 4    1  0.3147937E-004  0.2367762E+03  0.7818608E-02  0.1121959E+00
          1   -1    0    0  501    0  0.00000000000E+00  0.00000000000E+00  0.12167790072E+03  0.12167790083E+03  0.50400000000E-02 0.  1.
         -1   -1    0    0    0  501 -0.00000000000E+00 -0.00000000000E+00 -0.11518721441E+03  0.11518721452E+03  0.50400000000E-02 0. -1.
    5000001    1    1    2    0    0 -0.24763164758E+02 -0.75292927766E+02 -0.39250011559E+02  0.11726808052E+03  0.77000000000E+02 0.  0.
   -5000001    1    1    2    0    0  0.24763164758E+02  0.75292927766E+02  0.45740697867E+02  0.11959703484E+03  0.77000000000E+02 0.  0.
<mgrwt>
<rscale>  0 0.23677617E+03</rscale>
<asrwt>0</asrwt>
<pdfrwt beam="1">  1        1 0.18719677E-01 0.23677617E+03</pdfrwt>
<pdfrwt beam="2">  1       -1 0.17721110E-01 0.23677617E+03</pdfrwt>
<totfact> 0.67242408E+03</totfact>
</mgrwt>
</event>
<event>
 4    1  0.3147937E-004  0.1971775E+03  0.7818608E-02  0.1152142E+00
          1   -1    0    0  501    0  0.00000000000E+00  0.00000000000E+00  0.19313266679E+04  0.19313266679E+04  0.50400000000E-02 0.  1.
         -1   -1    0    0    0  501 -0.00000000000E+00 -0.00000000000E+00 -0.50326732194E+01  0.50326757431E+01  0.50400000000E-02 0. -1.
    5000001    1    1    2    0    0  0.25201933991E+02  0.45411205638E+02  0.12878773225E+04  0.12912220231E+04  0.77000000000E+02 0.  0.
   -5000001    1    1    2    0    0 -0.25201933991E+02 -0.45411205638E+02  0.63841667215E+03  0.64513732054E+03  0.77000000000E+02 0.  0.
<mgrwt>
<rscale>  0 0.19717747E+03</rscale>
<asrwt>0</asrwt>
<pdfrwt beam="1">  1        1 0.29712715E+00 0.19717747E+03</pdfrwt>
<pdfrwt beam="2">  1       -1 0.77425768E-03 0.19717747E+03</pdfrwt>
<totfact> 0.10088433E+04</totfact>
</mgrwt>
</event>
<event>
 4    1  0.3147937E-004  0.2335015E+03  0.7818608E-02  0.1124199E+00
         -1   -1    0    0    0  501 -0.00000000000E+00  0.00000000000E+00  0.98008150743E+02  0.98008150872E+02  0.50400000000E-02 0. -1.
          1   -1    0    0  501    0  0.00000000000E+00 -0.00000000000E+00 -0.13907764008E+03  0.13907764017E+03  0.50400000000E-02 0.  1.
    5000001    1    1    2    0    0 -0.15174650198E+02  0.82274678014E+02 -0.47443429622E+02  0.12320418688E+03  0.77000000000E+02 0.  0.
   -5000001    1    1    2    0    0  0.15174650198E+02 -0.82274678014E+02  0.63739402885E+01  0.11388160416E+03  0.77000000000E+02 0.  0.
<mgrwt>
<rscale>  0 0.23350154E+03</rscale>
<asrwt>0</asrwt>
<pdfrwt beam="1">  1        1 0.21396560E-01 0.23350154E+03</pdfrwt>
<pdfrwt beam="2">  1       -1 0.15078177E-01 0.23350154E+03</pdfrwt>
<totfact> 0.73203361E+03</totfact>
</mgrwt>
</event>
<event>
 4    1  0.3147937E-004  0.1652239E+03  0.7818608E-02  0.1182922E+00
          1   -1    0    0  501    0  0.00000000000E+00  0.00000000000E+00  0.41860679427E+02  0.41860679730E+02  0.50400000000E-02 0. -1.
         -1   -1    0    0    0  501 -0.00000000000E+00 -0.00000000000E+00 -0.16303454780E+03  0.16303454788E+03  0.50400000000E-02 0.  1.
    5000001    1    1    2    0    0  0.16405305141E+02 -0.20556560162E+00 -0.91628274037E+02  0.12080528505E+03  0.77000000000E+02 0.  0.
   -5000001    1    1    2    0    0 -0.16405305141E+02  0.20556560162E+00 -0.29545594335E+02  0.84089942553E+02  0.77000000000E+02 0.  0.
<mgrwt>
<rscale>  0 0.16522393E+03</rscale>
<asrwt>0</asrwt>
<pdfrwt beam="1">  1        1 0.64401046E-02 0.16522393E+03</pdfrwt>
<pdfrwt beam="2">  1       -1 0.25082238E-01 0.16522393E+03</pdfrwt>
<totfact> 0.15392994E+04</totfact>
</mgrwt>
</event>
<event>
 4    1  0.3147937E-004  0.4754920E+03  0.7818608E-02  0.1020382E+00
          1   -1    0    0  501    0  0.00000000000E+00  0.00000000000E+00  0.22676575759E+03  0.22676575765E+03  0.50400000000E-02 0.  1.
         -1   -1    0    0    0  501 -0.00000000000E+00 -0.00000000000E+00 -0.24925788708E+03  0.24925788713E+03  0.50400000000E-02 0. -1.
    5000001    1    1    2    0    0  0.10365891665E+03 -0.19850783071E+03 -0.32331993819E+02  0.23900813308E+03  0.77000000000E+02 0.  0.
   -5000001    1    1    2    0    0 -0.10365891665E+03  0.19850783071E+03  0.98398643347E+01  0.23701551170E+03  0.77000000000E+02 0.  0.
<mgrwt>
<rscale>  0 0.47549197E+03</rscale>
<asrwt>0</asrwt>
<pdfrwt beam="1">  1        1 0.34887040E-01 0.47549197E+03</pdfrwt>
<pdfrwt beam="2">  1       -1 0.38347367E-01 0.47549197E+03</pdfrwt>
<totfact> 0.83458682E+02</totfact>
</mgrwt>
</event>
<event>
 4    1  0.3147937E-004  0.4879306E+03  0.7818608E-02  0.1016978E+00
         -1   -1    0    0    0  501 -0.00000000000E+00  0.00000000000E+00  0.13522302297E+03  0.13522302306E+03  0.50400000000E-02 0. -1.
          1   -1    0    0  501    0  0.00000000000E+00 -0.00000000000E+00 -0.44015486420E+03  0.44015486423E+03  0.50400000000E-02 0.  1.
    5000001    1    1    2    0    0 -0.31134796140E+02  0.22694550454E+03 -0.19186731426E+03  0.30857041959E+03  0.77000000000E+02 0.  0.
   -5000001    1    1    2    0    0  0.31134796140E+02 -0.22694550454E+03 -0.11306452697E+03  0.26680746770E+03  0.77000000000E+02 0.  0.
<mgrwt>
<rscale>  0 0.48793062E+03</rscale>
<asrwt>0</asrwt>
<pdfrwt beam="1">  1        1 0.67716132E-01 0.48793062E+03</pdfrwt>
<pdfrwt beam="2">  1       -1 0.20803542E-01 0.48793062E+03</pdfrwt>
<totfact> 0.10129377E+03</totfact>
</mgrwt>
</event>
<event>
 4    1  0.3147937E-004  0.3765977E+03  0.7818608E-02  0.1052198E+00
          1   -1    0    0  501    0  0.00000000000E+00  0.00000000000E+00  0.98385376721E+03  0.98385376723E+03  0.50400000000E-02 0.  1.
         -1   -1    0    0    0  501 -0.00000000000E+00 -0.00000000000E+00 -0.36038345353E+02  0.36038345705E+02  0.50400000000E-02 0. -1.
    5000001    1    1    2    0    0  0.80199762465E+02 -0.14910913156E+03  0.39439953613E+03  0.43605679574E+03  0.77000000000E+02 0.  0.
   -5000001    1    1    2    0    0 -0.80199762465E+02  0.14910913156E+03  0.55341588574E+03  0.58383531719E+03  0.77000000000E+02 0.  0.
<mgrwt>
<rscale>  0 0.37659773E+03</rscale>
<asrwt>0</asrwt>
<pdfrwt beam="1">  1        1 0.15136212E+00 0.37659773E+03</pdfrwt>
<pdfrwt beam="2">  1       -1 0.55443606E-02 0.37659773E+03</pdfrwt>
<totfact> 0.24821109E+03</totfact>
</mgrwt>
</event>
<event>
 4    1  0.3147937E-004  0.1833237E+03  0.7818608E-02  0.1164625E+00
         -1   -1    0    0    0  501 -0.00000000000E+00  0.00000000000E+00  0.27582450436E+02  0.27582450897E+02  0.50400000000E-02 0.  1.
          1   -1    0    0  501    0  0.00000000000E+00 -0.00000000000E+00 -0.30461027550E+03  0.30461027554E+03  0.50400000000E-02 0. -1.
    5000001    1    1    2    0    0 -0.10759022228E+02  0.36639489212E+02 -0.19623545635E+03  0.21423249767E+03  0.77000000000E+02 0.  0.
   -5000001    1    1    2    0    0  0.10759022228E+02 -0.36639489212E+02 -0.80792368717E+02  0.11796022877E+03  0.77000000000E+02 0.  0.
<mgrwt>
<rscale>  0 0.18332373E+03</rscale>
<asrwt>0</asrwt>
<pdfrwt beam="1">  1        1 0.46863117E-01 0.18332373E+03</pdfrwt>
<pdfrwt beam="2">  1       -1 0.42434542E-02 0.18332373E+03</pdfrwt>
<totfact> 0.18585794E+04</totfact>
</mgrwt>
</event>
<event>
 4    1  0.3147937E-004  0.1992292E+03  0.7818608E-02  0.1150391E+00
         -1   -1    0    0    0  501 -0.00000000000E+00  0.00000000000E+00  0.12098270274E+02  0.12098271323E+02  0.50400000000E-02 0. -1.
          1   -1    0    0  501    0  0.00000000000E+00 -0.00000000000E+00 -0.82020522985E+03  0.82020522986E+03  0.50400000000E-02 0.  1.
    5000001    1    1    2    0    0 -0.57112368692E+02 -0.17595533052E+02 -0.48993779893E+03  0.49953925998E+03  0.77000000000E+02 0.  0.
   -5000001    1    1    2    0    0  0.57112368692E+02  0.17595533052E+02 -0.31816916065E+03  0.33276424121E+03  0.77000000000E+02 0.  0.
<mgrwt>
<rscale>  0 0.19922916E+03</rscale>
<asrwt>0</asrwt>
<pdfrwt beam="1">  1        1 0.12618538E+00 0.19922916E+03</pdfrwt>
<pdfrwt beam="2">  1       -1 0.18612731E-02 0.19922916E+03</pdfrwt>
<totfact> 0.16526775E+04</totfact>
</mgrwt>
</event>
<event>
 4    1  0.3147937E-004  0.2728460E+03  0.7818608E-02  0.1099662E+00
         -1   -1    0    0    0  501 -0.00000000000E+00  0.00000000000E+00  0.35329421318E+02  0.35329421678E+02  0.50400000000E-02 0.  1.
          1   -1    0    0  501    0  0.00000000000E+00 -0.00000000000E+00 -0.52679142664E+03  0.52679142666E+03  0.50400000000E-02 0. -1.
    5000001    1    1    2    0    0  0.54188896579E+02  0.88826573071E+02 -0.33447907340E+03  0.35865282257E+03  0.77000000000E+02 0.  0.
   -5000001    1    1    2    0    0 -0.54188896579E+02 -0.88826573071E+02 -0.15698293192E+03  0.20346802577E+03  0.77000000000E+02 0.  0.
<mgrwt>
<rscale>  0 0.27284601E+03</rscale>
<asrwt>0</asrwt>
<pdfrwt beam="1">  1        1 0.81044829E-01 0.27284601E+03</pdfrwt>
<pdfrwt beam="2">  1       -1 0.54352960E-02 0.27284601E+03</pdfrwt>
<totfact> 0.64990078E+03</totfact>
</mgrwt>
</event>
<event>
 4    1  0.3147937E-004  0.2078428E+03  0.7818608E-02  0.1143286E+00
         -1   -1    0    0    0  501 -0.00000000000E+00  0.00000000000E+00  0.15772420063E+03  0.15772420071E+03  0.50400000000E-02 0. -1.
          1   -1    0    0  501    0  0.00000000000E+00 -0.00000000000E+00 -0.68471775663E+02  0.68471775849E+02  0.50400000000E-02 0.  1.
    5000001    1    1    2    0    0 -0.34803786951E+02 -0.24176721978E+02  0.10497396236E+03  0.13691000784E+03  0.77000000000E+02 0.  0.
   -5000001    1    1    2    0    0  0.34803786951E+02  0.24176721978E+02 -0.15721537400E+02  0.89285968718E+02  0.77000000000E+02 0.  0.
<mgrwt>
<rscale>  0 0.20784279E+03</rscale>
<asrwt>0</asrwt>
<pdfrwt beam="1">  1        1 0.10534119E-01 0.20784279E+03</pdfrwt>
<pdfrwt beam="2">  1       -1 0.24265261E-01 0.20784279E+03</pdfrwt>
<totfact> 0.85187164E+03</totfact>
</mgrwt>
</event>
<event>
 4    1  0.3147937E-004  0.1777548E+03  0.7818608E-02  0.1169994E+00
          1   -1    0    0  501    0  0.00000000000E+00  0.00000000000E+00  0.71737921499E+03  0.71737921501E+03  0.50400000000E-02 0. -1.
         -1   -1    0    0    0  501 -0.00000000000E+00 -0.00000000000E+00 -0.11011180752E+02  0.11011181906E+02  0.50400000000E-02 0.  1.
    5000001    1    1    2    0    0  0.29793470071E+02  0.32815578973E+02  0.36294963600E+03  0.37366556084E+03  0.77000000000E+02 0.  0.
   -5000001    1    1    2    0    0 -0.29793470071E+02 -0.32815578973E+02  0.34341839824E+03  0.35472483608E+03  0.77000000000E+02 0.  0.
<mgrwt>
<rscale>  0 0.17775480E+03</rscale>
<asrwt>0</asrwt>
<pdfrwt beam="1">  1        1 0.11036603E+00 0.17775480E+03</pdfrwt>
<pdfrwt beam="2">  1       -1 0.16940280E-02 0.17775480E+03</pdfrwt>
<totfact> 0.22970467E+04</totfact>
</mgrwt>
</event>
<event>
 4    1  0.3147937E-004  0.2586441E+03  0.7818608E-02  0.1107961E+00
          1   -1    0    0  501    0  0.00000000000E+00  0.00000000000E+00  0.58185903559E+03  0.58185903561E+03  0.50400000000E-02 0.  1.
         -1   -1    0    0    0  501 -0.00000000000E+00 -0.00000000000E+00 -0.28742698203E+02  0.28742698644E+02  0.50400000000E-02 0. -1.
    5000001    1    1    2    0    0  0.96316442864E+02 -0.14656544028E+02  0.19132366221E+03  0.22809080466E+03  0.77000000000E+02 0.  0.
   -5000001    1    1    2    0    0 -0.96316442864E+02  0.14656544028E+02  0.36179267517E+03  0.38251092959E+03  0.77000000000E+02 0.  0.
<mgrwt>
<rscale>  0 0.25864415E+03</rscale>
<asrwt>0</asrwt>
<pdfrwt beam="1">  1        1 0.89516768E-01 0.25864415E+03</pdfrwt>
<pdfrwt beam="2">  1       -1 0.44219540E-02 0.25864415E+03</pdfrwt>
<totfact> 0.77178310E+03</totfact>
</mgrwt>
</event>
<event>
 4    1  0.3147937E-004  0.3192928E+03  0.7818608E-02  0.1075975E+00
         -1   -1    0    0    0  501 -0.00000000000E+00  0.00000000000E+00  0.11120179473E+03  0.11120179485E+03  0.50400000000E-02 0. -1.
          1   -1    0    0  501    0  0.00000000000E+00 -0.00000000000E+00 -0.22919567327E+03  0.22919567332E+03  0.50400000000E-02 0.  1.
    5000001    1    1    2    0    0 -0.10601453027E+03 -0.82152684509E+02 -0.10123684926E+03  0.18484059037E+03  0.77000000000E+02 0.  0.
   -5000001    1    1    2    0    0  0.10601453027E+03  0.82152684509E+02 -0.16757029278E+02  0.15555687780E+03  0.77000000000E+02 0.  0.
<mgrwt>
<rscale>  0 0.31929278E+03</rscale>
<asrwt>0</asrwt>
<pdfrwt beam="1">  1        1 0.35260873E-01 0.31929278E+03</pdfrwt>
<pdfrwt beam="2">  1       -1 0.17107968E-01 0.31929278E+03</pdfrwt>
<totfact> 0.32084214E+03</totfact>
</mgrwt>
</event>
<event>
 4    1  0.3147937E-004  0.4990762E+03  0.7818608E-02  0.1014020E+00
          1   -1    0    0  501    0  0.00000000000E+00  0.00000000000E+00  0.11599190937E+03  0.11599190948E+03  0.50400000000E-02 0.  1.
         -1   -1    0    0    0  501 -0.00000000000E+00 -0.00000000000E+00 -0.53684136444E+03  0.53684136447E+03  0.50400000000E-02 0. -1.
    5000001    1    1    2    0    0  0.66263705158E+01  0.23437971237E+03 -0.16214073640E+03  0.29529032622E+03  0.77000000000E+02 0.  0.
   -5000001    1    1    2    0    0 -0.66263705158E+01 -0.23437971237E+03 -0.25870871867E+03  0.35754294773E+03  0.77000000000E+02 0.  0.
<mgrwt>
<rscale>  0 0.49907617E+03</rscale>
<asrwt>0</asrwt>
<pdfrwt beam="1">  1        1 0.17844909E-01 0.49907617E+03</pdfrwt>
<pdfrwt beam="2">  1       -1 0.82590978E-01 0.49907617E+03</pdfrwt>
<totfact> 0.45120300E+02</totfact>
</mgrwt>
</event>
<event>
 4    1  0.3147937E-004  0.2718710E+03  0.7818608E-02  0.1100214E+00
          1   -1    0    0  501    0  0.00000000000E+00  0.00000000000E+00  0.17381637213E+03  0.17381637221E+03  0.50400000000E-02 0. -1.
         -1   -1    0    0    0  501 -0.00000000000E+00 -0.00000000000E+00 -0.10631020843E+03  0.10631020855E+03  0.50400000000E-02 0.  1.
    5000001    1    1    2    0    0  0.44446335106E+02 -0.89807081681E+02 -0.17854431560E+02  0.12762667962E+03  0.77000000000E+02 0.  0.
   -5000001    1    1    2    0    0 -0.44446335106E+02  0.89807081681E+02  0.85360595260E+02  0.15249990114E+03  0.77000000000E+02 0.  0.
<mgrwt>
<rscale>  0 0.27187096E+03</rscale>
<asrwt>0</asrwt>
<pdfrwt beam="1">  1        1 0.26740980E-01 0.27187096E+03</pdfrwt>
<pdfrwt beam="2">  1       -1 0.16355417E-01 0.27187096E+03</pdfrwt>
<totfact> 0.48713650E+03</totfact>
</mgrwt>
</event>
<event>
 4    1  0.3147937E-004  0.3085573E+03  0.7818608E-02  0.1081039E+00
         -1   -1    0    0    0  501 -0.00000000000E+00  0.00000000000E+00  0.16353191651E+02  0.16353192427E+02  0.50400000000E-02 0. -1.
          1   -1    0    0  501    0  0.00000000000E+00 -0.00000000000E+00 -0.14554897721E+04  0.14554897721E+04  0.50400000000E-02 0.  1.
    5000001    1    1    2    0    0 -0.51899181325E+02 -0.12135927749E+03 -0.61823305723E+03  0.63683805815E+03  0.77000000000E+02 0.  0.
   -5000001    1    1    2    0    0  0.51899181325E+02  0.12135927749E+03 -0.82090352317E+03  0.83500490634E+03  0.77000000000E+02 0.  0.
<mgrwt>
<rscale>  0 0.30855731E+03</rscale>
<asrwt>0</asrwt>
<pdfrwt beam="1">  1        1 0.22392140E+00 0.30855731E+03</pdfrwt>
<pdfrwt beam="2">  1       -1 0.25158769E-02 0.30855731E+03</pdfrwt>
<totfact> 0.37531626E+03</totfact>
</mgrwt>
</event>
<event>
 4    1  0.3147937E-004  0.3677734E+03  0.7818608E-02  0.1055548E+00
          1   -1    0    0  501    0  0.00000000000E+00  0.00000000000E+00  0.28916888694E+03  0.28916888698E+03  0.50400000000E-02 0.  1.
         -1   -1    0    0    0  501 -0.00000000000E+00 -0.00000000000E+00 -0.11693625419E+03  0.11693625430E+03  0.50400000000E-02 0. -1.
    5000001    1    1    2    0    0 -0.96227069457E+02 -0.32159688525E+02  0.23257283908E+03  0.26516602335E+03  0.77000000000E+02 0.  0.
   -5000001    1    1    2    0    0  0.96227069457E+02  0.32159688525E+02 -0.60340206339E+02  0.14093911793E+03  0.77000000000E+02 0.  0.
<mgrwt>
<rscale>  0 0.36777344E+03</rscale>
<asrwt>0</asrwt>
<pdfrwt beam="1">  1        1 0.44487521E-01 0.36777344E+03</pdfrwt>
<pdfrwt beam="2">  1       -1 0.17990193E-01 0.36777344E+03</pdfrwt>
<totfact> 0.22097143E+03</totfact>
</mgrwt>
</event>
<event>
 4    1  0.3147937E-004  0.3291928E+03  0.7818608E-02  0.1071495E+00
          1   -1    0    0  501    0  0.00000000000E+00  0.00000000000E+00  0.10672112970E+04  0.10672112970E+04  0.50400000000E-02 0.  1.
         -1   -1    0    0    0  501 -0.00000000000E+00 -0.00000000000E+00 -0.25385764778E+02  0.25385765278E+02  0.50400000000E-02 0. -1.
    5000001    1    1    2    0    0  0.47586595467E+02 -0.12272588453E+03  0.31532511739E+03  0.35026426660E+03  0.77000000000E+02 0.  0.
   -5000001    1    1    2    0    0 -0.47586595467E+02  0.12272588453E+03  0.72650041479E+03  0.74233279565E+03  0.77000000000E+02 0.  0.
<mgrwt>
<rscale>  0 0.32919280E+03</rscale>
<asrwt>0</asrwt>
<pdfrwt beam="1">  1        1 0.16418636E+00 0.32919280E+03</pdfrwt>
<pdfrwt beam="2">  1       -1 0.39055022E-02 0.32919280E+03</pdfrwt>
<totfact> 0.36421020E+03</totfact>
</mgrwt>
</event>
<event>
 4    1  0.3147937E-004  0.2455227E+03  0.7818608E-02  0.1116168E+00
         -1   -1    0    0    0  501 -0.00000000000E+00  0.00000000000E+00  0.13852244713E+03  0.13852244723E+03  0.50400000000E-02 0. -1.
          1   -1    0    0  501    0  0.00000000000E+00 -0.00000000000E+00 -0.10879354762E+03  0.10879354774E+03  0.50400000000E-02 0.  1.
    5000001    1    1    2    0    0 -0.79967800921E+02 -0.41712629954E+02  0.46822442093E+02  0.12749954418E+03  0.77000000000E+02 0.  0.
   -5000001    1    1    2    0    0  0.79967800921E+02  0.41712629954E+02 -0.17093542584E+02  0.11981645079E+03  0.77000000000E+02 0.  0.
<mgrwt>
<rscale>  0 0.24552270E+03</rscale>
<asrwt>0</asrwt>
<pdfrwt beam="1">  1        1 0.16737469E-01 0.24552270E+03</pdfrwt>
<pdfrwt beam="2">  1       -1 0.21311146E-01 0.24552270E+03</pdfrwt>
<totfact> 0.57765612E+03</totfact>
</mgrwt>
</event>
<event>
 4    1  0.3147937E-004  0.3391935E+03  0.7818608E-02  0.1067140E+00
          1   -1    0    0  501    0  0.00000000000E+00  0.00000000000E+00  0.30106546773E+03  0.30106546777E+03  0.50400000000E-02 0.  1.
         -1   -1    0    0    0  501 -0.00000000000E+00 -0.00000000000E+00 -0.95537528926E+02  0.95537529059E+02  0.50400000000E-02 0. -1.
    5000001    1    1    2    0    0 -0.84597679738E+02  0.12519952316E+03  0.10456129400E+03  0.19923290948E+03  0.77000000000E+02 0.  0.
   -5000001    1    1    2    0    0  0.84597679738E+02 -0.12519952316E+03  0.10096664481E+03  0.19737008735E+03  0.77000000000E+02 0.  0.
<mgrwt>
<rscale>  0 0.33919346E+03</rscale>
<asrwt>0</asrwt>
<pdfrwt beam="1">  1        1 0.46317764E-01 0.33919346E+03</pdfrwt>
<pdfrwt beam="2">  1       -1 0.14698082E-01 0.33919346E+03</pdfrwt>
<totfact> 0.29025164E+03</totfact>
</mgrwt>
</event>
<event>
 4    1  0.3147937E-004  0.1815050E+03  0.7818608E-02  0.1166354E+00
          1   -1    0    0  501    0  0.00000000000E+00  0.00000000000E+00  0.36229300217E+03  0.36229300221E+03  0.50400000000E-02 0. -1.
         -1   -1    0    0    0  501 -0.00000000000E+00 -0.00000000000E+00 -0.22733037080E+02  0.22733037639E+02  0.50400000000E-02 0.  1.
    5000001    1    1    2    0    0  0.31444737394E+02 -0.24985902729E+02  0.11389867070E+03  0.14323049268E+03  0.77000000000E+02 0.  0.
   -5000001    1    1    2    0    0 -0.31444737394E+02  0.24985902729E+02  0.22566129439E+03  0.24179554717E+03  0.77000000000E+02 0.  0.
<mgrwt>
<rscale>  0 0.18150505E+03</rscale>
<asrwt>0</asrwt>
<pdfrwt beam="1">  1        1 0.55737384E-01 0.18150505E+03</pdfrwt>
<pdfrwt beam="2">  1       -1 0.34973904E-02 0.18150505E+03</pdfrwt>
<totfact> 0.19876056E+04</totfact>
</mgrwt>
</event>
<event>
 4    1  0.3147937E-004  0.2105232E+03  0.7818608E-02  0.1141152E+00
          1   -1    0    0  501    0  0.00000000000E+00  0.00000000000E+00  0.18142612842E+04  0.18142612843E+04  0.50400000000E-02 0. -1.
         -1   -1    0    0    0  501 -0.00000000000E+00 -0.00000000000E+00 -0.61071675343E+01  0.61071696139E+01  0.50400000000E-02 0.  1.
    5000001    1    1    2    0    0 -0.63208460106E+02 -0.41434346960E+00  0.61014438283E+03  0.61822378555E+03  0.77000000000E+02 0.  0.
   -5000001    1    1    2    0    0  0.63208460106E+02  0.41434346960E+00  0.11980097339E+04  0.12021446683E+04  0.77000000000E+02 0.  0.
<mgrwt>
<rscale>  0 0.21052315E+03</rscale>
<asrwt>0</asrwt>
<pdfrwt beam="1">  1        1 0.27911732E+00 0.21052315E+03</pdfrwt>
<pdfrwt beam="2">  1       -1 0.93956371E-03 0.21052315E+03</pdfrwt>
<totfact> 0.91077453E+03</totfact>
</mgrwt>
</event>
<event>
 4    1  0.3147937E-004  0.2496963E+03  0.7818608E-02  0.1113497E+00
          1   -1    0    0  501    0  0.00000000000E+00  0.00000000000E+00  0.14914322649E+03  0.14914322657E+03  0.50400000000E-02 0.  1.
         -1   -1    0    0    0  501 -0.00000000000E+00 -0.00000000000E+00 -0.10451065720E+03  0.10451065732E+03  0.50400000000E-02 0. -1.
    5000001    1    1    2    0    0 -0.18812421373E+02 -0.88439136081E+02  0.61432021612E+02  0.13370969025E+03  0.77000000000E+02 0.  0.
   -5000001    1    1    2    0    0  0.18812421373E+02  0.88439136081E+02 -0.16799452322E+02  0.11994419364E+03  0.77000000000E+02 0.  0.
<mgrwt>
<rscale>  0 0.24969627E+03</rscale>
<asrwt>0</asrwt>
<pdfrwt beam="1">  1        1 0.22945112E-01 0.24969627E+03</pdfrwt>
<pdfrwt beam="2">  1       -1 0.16078563E-01 0.24969627E+03</pdfrwt>
<totfact> 0.60633639E+03</totfact>
</mgrwt>
</event>
<event>
 4    1  0.3147937E-004  0.6998734E+03  0.7818608E-02  0.9717449E-01
         -1   -1    0    0    0  501 -0.00000000000E+00  0.00000000000E+00  0.45369736525E+02  0.45369736805E+02  0.50400000000E-02 0.  1.
          1   -1    0    0  501    0  0.00000000000E+00 -0.00000000000E+00 -0.26990608821E+04  0.26990608821E+04  0.50400000000E-02 0. -1.
    5000001    1    1    2    0    0  0.21729654134E+03 -0.23915607636E+03 -0.17584276619E+04  0.17895279427E+04  0.77000000000E+02 0.  0.
   -5000001    1    1    2    0    0 -0.21729654134E+03  0.23915607636E+03 -0.89526348370E+03  0.95490267618E+03  0.77000000000E+02 0.  0.
<mgrwt>
<rscale>  0 0.69987336E+03</rscale>
<asrwt>0</asrwt>
<pdfrwt beam="1">  1        1 0.41524001E+00 0.69987336E+03</pdfrwt>
<pdfrwt beam="2">  1       -1 0.69799616E-02 0.69987336E+03</pdfrwt>
<totfact> 0.11493553E+02</totfact>
</mgrwt>
</event>
<event>
 4    1  0.3147937E-004  0.2540710E+03  0.7818608E-02  0.1110759E+00
          1   -1    0    0  501    0  0.00000000000E+00  0.00000000000E+00  0.19775118769E+03  0.19775118775E+03  0.50400000000E-02 0. -1.
         -1   -1    0    0    0  501 -0.00000000000E+00 -0.00000000000E+00 -0.81607689623E+02  0.81607689778E+02  0.50400000000E-02 0.  1.
    5000001    1    1    2    0    0  0.85212005266E+01 -0.85243348329E+02  0.11697600771E+03  0.16416889374E+03  0.77000000000E+02 0.  0.
   -5000001    1    1    2    0    0 -0.85212005266E+01  0.85243348329E+02 -0.83250964623E+00  0.11518998379E+03  0.77000000000E+02 0.  0.
<mgrwt>
<rscale>  0 0.25407099E+03</rscale>
<asrwt>0</asrwt>
<pdfrwt beam="1">  1        1 0.30423259E-01 0.25407099E+03</pdfrwt>
<pdfrwt beam="2">  1       -1 0.12555029E-01 0.25407099E+03</pdfrwt>
<totfact> 0.62705561E+03</totfact>
</mgrwt>
</event>
<event>
 4    1  0.3147937E-004  0.1730565E+03  0.7818608E-02  0.1174697E+00
          1   -1    0    0  501    0  0.00000000000E+00  0.00000000000E+00  0.21186535500E+03  0.21186535506E+03  0.50400000000E-02 0. -1.
         -1   -1    0    0    0  501 -0.00000000000E+00 -0.00000000000E+00 -0.35339139452E+02  0.35339139811E+02  0.50400000000E-02 0.  1.
    5000001    1    1    2    0    0  0.29086502429E+02  0.26322255860E+02  0.94531041278E+02  0.12807811500E+03  0.77000000000E+02 0.  0.
   -5000001    1    1    2    0    0 -0.29086502429E+02 -0.26322255860E+02  0.81995174268E+02  0.11912637987E+03  0.77000000000E+02 0.  0.
<mgrwt>
<rscale>  0 0.17305652E+03</rscale>
<asrwt>0</asrwt>
<pdfrwt beam="1">  1        1 0.32594671E-01 0.17305652E+03</pdfrwt>
<pdfrwt beam="2">  1       -1 0.54367906E-02 0.17305652E+03</pdfrwt>
<totfact> 0.20121102E+04</totfact>
</mgrwt>
</event>
<event>
 4    1  0.3147937E-004  0.2454410E+03  0.7818608E-02  0.1116220E+00
          1   -1    0    0  501    0  0.00000000000E+00  0.00000000000E+00  0.19592589223E+04  0.19592589223E+04  0.50400000000E-02 0.  1.
         -1   -1    0    0    0  501 -0.00000000000E+00 -0.00000000000E+00 -0.76867456403E+01  0.76867472926E+01  0.50400000000E-02 0. -1.
    5000001    1    1    2    0    0  0.32321450425E+02 -0.85460044576E+02  0.12000658946E+04  0.12059996877E+04  0.77000000000E+02 0.  0.
   -5000001    1    1    2    0    0 -0.32321450425E+02  0.85460044576E+02  0.75150628208E+03  0.76094598190E+03  0.77000000000E+02 0.  0.
<mgrwt>
<rscale>  0 0.24544104E+03</rscale>
<asrwt>0</asrwt>
<pdfrwt beam="1">  1        1 0.30142454E+00 0.24544104E+03</pdfrwt>
<pdfrwt beam="2">  1       -1 0.11825760E-02 0.24544104E+03</pdfrwt>
<totfact> 0.52829228E+03</totfact>
</mgrwt>
</event>
<event>
 4    1  0.3147937E-004  0.3662826E+03  0.7818608E-02  0.1056124E+00
          1   -1    0    0  501    0  0.00000000000E+00  0.00000000000E+00  0.32451961902E+02  0.32451962293E+02  0.50400000000E-02 0.  1.
         -1   -1    0    0    0  501 -0.00000000000E+00 -0.00000000000E+00 -0.10335505023E+04  0.10335505023E+04  0.50400000000E-02 0. -1.
    5000001    1    1    2    0    0  0.13507874625E+03  0.78891959769E+02 -0.33742721797E+03  0.37981092195E+03  0.77000000000E+02 0.  0.
   -5000001    1    1    2    0    0 -0.13507874625E+03 -0.78891959769E+02 -0.66367132246E+03  0.68619154269E+03  0.77000000000E+02 0.  0.
<mgrwt>
<rscale>  0 0.36628263E+03</rscale>
<asrwt>0</asrwt>
<pdfrwt beam="1">  1        1 0.49926103E-02 0.36628263E+03</pdfrwt>
<pdfrwt beam="2">  1       -1 0.15900774E+00 0.36628263E+03</pdfrwt>
<totfact> 0.54001722E+02</totfact>
</mgrwt>
</event>
<event>
 4    1  0.3147937E-004  0.2735927E+03  0.7818608E-02  0.1099241E+00
          1   -1    0    0  501    0  0.00000000000E+00  0.00000000000E+00  0.30364478494E+03  0.30364478498E+03  0.50400000000E-02 0.  1.
         -1   -1    0    0    0  501 -0.00000000000E+00 -0.00000000000E+00 -0.61628734325E+02  0.61628734531E+02  0.50400000000E-02 0. -1.
    5000001    1    1    2    0    0 -0.17007673013E+02 -0.10731410386E+03  0.16277479667E+03  0.21030980067E+03  0.77000000000E+02 0.  0.
   -5000001    1    1    2    0    0  0.17007673013E+02  0.10731410386E+03  0.79241253944E+02  0.15496371884E+03  0.77000000000E+02 0.  0.
<mgrwt>
<rscale>  0 0.27359272E+03</rscale>
<asrwt>0</asrwt>
<pdfrwt beam="1">  1        1 0.46714582E-01 0.27359272E+03</pdfrwt>
<pdfrwt beam="2">  1       -1 0.94813438E-02 0.27359272E+03</pdfrwt>
<totfact> 0.56742638E+03</totfact>
</mgrwt>
</event>
<event>
 4    1  0.3147937E-004  0.1697125E+03  0.7818608E-02  0.1178148E+00
         -1   -1    0    0    0  501 -0.00000000000E+00  0.00000000000E+00  0.49875497040E+03  0.49875497043E+03  0.50400000000E-02 0. -1.
          1   -1    0    0  501    0  0.00000000000E+00 -0.00000000000E+00 -0.14437112971E+02  0.14437113850E+02  0.50400000000E-02 0.  1.
    5000001    1    1    2    0    0  0.18359360619E+02  0.23968606262E+02  0.18478288538E+03  0.20244820310E+03  0.77000000000E+02 0.  0.
   -5000001    1    1    2    0    0 -0.18359360619E+02 -0.23968606262E+02  0.29953497205E+03  0.31074388118E+03  0.77000000000E+02 0.  0.
<mgrwt>
<rscale>  0 0.16971249E+03</rscale>
<asrwt>0</asrwt>
<pdfrwt beam="1">  1        1 0.22210945E-02 0.16971249E+03</pdfrwt>
<pdfrwt beam="2">  1       -1 0.76731529E-01 0.16971249E+03</pdfrwt>
<totfact> 0.89265987E+03</totfact>
</mgrwt>
</event>
<event>
 4    1  0.3147937E-004  0.1621556E+03  0.7818608E-02  0.1186284E+00
          1   -1    0    0  501    0  0.00000000000E+00  0.00000000000E+00  0.19370713816E+04  0.19370713816E+04  0.50400000000E-02 0.  1.
         -1   -1    0    0    0  501 -0.00000000000E+00 -0.00000000000E+00 -0.33935802074E+01  0.33935839500E+01  0.50400000000E-02 0. -1.
    5000001    1    1    2    0    0  0.16413849836E+02  0.33719849783E+01  0.73858370176E+03  0.74277565204E+03  0.77000000000E+02 0.  0.
   -5000001    1    1    2    0    0 -0.16413849836E+02 -0.33719849783E+01  0.11950940996E+04  0.11976893135E+04  0.77000000000E+02 0.  0.
<mgrwt>
<rscale>  0 0.16215561E+03</rscale>
<asrwt>0</asrwt>
<pdfrwt beam="1">  1        1 0.29801174E+00 0.16215561E+03</pdfrwt>
<pdfrwt beam="2">  1       -1 0.52208822E-03 0.16215561E+03</pdfrwt>
<totfact> 0.17409906E+04</totfact>
</mgrwt>
</event>
<event>
 4    1  0.3147937E-004  0.1854349E+03  0.7818608E-02  0.1162644E+00
          1   -1    0    0  501    0  0.00000000000E+00  0.00000000000E+00  0.49424702118E+03  0.49424702120E+03  0.50400000000E-02 0. -1.
         -1   -1    0    0    0  501 -0.00000000000E+00 -0.00000000000E+00 -0.17393182944E+02  0.17393183674E+02  0.50400000000E-02 0.  1.
    5000001    1    1    2    0    0 -0.46277594304E+02  0.13584954656E+02  0.18744914196E+03  0.20830829928E+03  0.77000000000E+02 0.  0.
   -5000001    1    1    2    0    0  0.46277594304E+02 -0.13584954656E+02  0.28940469628E+03  0.30333190560E+03  0.77000000000E+02 0.  0.
<mgrwt>
<rscale>  0 0.18543494E+03</rscale>
<asrwt>0</asrwt>
<pdfrwt beam="1">  1        1 0.76038008E-01 0.18543494E+03</pdfrwt>
<pdfrwt beam="2">  1       -1 0.26758742E-02 0.18543494E+03</pdfrwt>
<totfact> 0.19795278E+04</totfact>
</mgrwt>
</event>
<event>
 4    1  0.3147937E-004  0.2059415E+03  0.7818608E-02  0.1144821E+00
          1   -1    0    0  501    0  0.00000000000E+00  0.00000000000E+00  0.94046033409E+01  0.94046046914E+01  0.50400000000E-02 0. -1.
         -1   -1    0    0    0  501 -0.00000000000E+00 -0.00000000000E+00 -0.11274241903E+04  0.11274241903E+04  0.50400000000E-02 0.  1.
    5000001    1    1    2    0    0 -0.16685407999E+02 -0.63300181626E+02 -0.45018262834E+03  0.46138781377E+03  0.77000000000E+02 0.  0.
   -5000001    1    1    2    0    0  0.16685407999E+02  0.63300181626E+02 -0.66783695858E+03  0.67544098119E+03  0.77000000000E+02 0.  0.
<mgrwt>
<rscale>  0 0.20594153E+03</rscale>
<asrwt>0</asrwt>
<pdfrwt beam="1">  1        1 0.14468631E-02 0.20594153E+03</pdfrwt>
<pdfrwt beam="2">  1       -1 0.17344977E+00 0.20594153E+03</pdfrwt>
<totfact> 0.24074333E+03</totfact>
</mgrwt>
</event>
<event>
 4    1  0.3147937E-004  0.2182462E+03  0.7818608E-02  0.1135197E+00
         -1   -1    0    0    0  501 -0.00000000000E+00  0.00000000000E+00  0.13169688885E+04  0.13169688885E+04  0.50400000000E-02 0.  1.
          1   -1    0    0  501    0  0.00000000000E+00 -0.00000000000E+00 -0.90418641357E+01  0.90418655404E+01  0.50400000000E-02 0. -1.
    5000001    1    1    2    0    0 -0.64674620923E+02  0.42216390797E+01  0.39775488503E+03  0.41029084488E+03  0.77000000000E+02 0.  0.
   -5000001    1    1    2    0    0  0.64674620923E+02 -0.42216390797E+01  0.91017213936E+03  0.91571990919E+03  0.77000000000E+02 0.  0.
<mgrwt>
<rscale>  0 0.21824623E+03</rscale>
<asrwt>0</asrwt>
<pdfrwt beam="1">  1        1 0.13910558E-02 0.21824623E+03</pdfrwt>
<pdfrwt beam="2">  1       -1 0.20261065E+00 0.21824623E+03</pdfrwt>
<totfact> 0.16136504E+03</totfact>
</mgrwt>
</event>
<event>
 4    1  0.3147937E-004  0.2827612E+03  0.7818608E-02  0.1094190E+00
          1   -1    0    0  501    0  0.00000000000E+00  0.00000000000E+00  0.15182229628E+03  0.15182229637E+03  0.50400000000E-02 0.  1.
         -1   -1    0    0    0  501 -0.00000000000E+00 -0.00000000000E+00 -0.13165706138E+03  0.13165706148E+03  0.50400000000E-02 0. -1.
    5000001    1    1    2    0    0 -0.48985690138E+02 -0.56754491624E+02  0.10217890448E+03  0.14829092581E+03  0.77000000000E+02 0.  0.
   -5000001    1    1    2    0    0  0.48985690138E+02  0.56754491624E+02 -0.82013669576E+02  0.13518843203E+03  0.77000000000E+02 0.  0.
<mgrwt>
<rscale>  0 0.28276122E+03</rscale>
<asrwt>0</asrwt>
<pdfrwt beam="1">  1        1 0.23357276E-01 0.28276122E+03</pdfrwt>
<pdfrwt beam="2">  1       -1 0.20254933E-01 0.28276122E+03</pdfrwt>
<totfact> 0.41043299E+03</totfact>
</mgrwt>
</event>
<event>
 4    1  0.3147937E-004  0.4824982E+03  0.7818608E-02  0.1018451E+00
          1   -1    0    0  501    0  0.00000000000E+00  0.00000000000E+00  0.15823189676E+04  0.15823189676E+04  0.50400000000E-02 0.  1.
         -1   -1    0    0    0  501 -0.00000000000E+00 -0.00000000000E+00 -0.36782176442E+02  0.36782176788E+02  0.50400000000E-02 0. -1.
    5000001    1    1    2    0    0 -0.71262899105E+02 -0.12266762211E+03  0.17111779422E+03  0.23523614901E+03  0.77000000000E+02 0.  0.
   -5000001    1    1    2    0    0  0.71262899105E+02  0.12266762211E+03  0.13744189969E+04  0.13838649954E+04  0.77000000000E+02 0.  0.
<mgrwt>
<rscale>  0 0.48249823E+03</rscale>
<asrwt>0</asrwt>
<pdfrwt beam="1">  1        1 0.24343373E+00 0.48249823E+03</pdfrwt>
<pdfrwt beam="2">  1       -1 0.56587954E-02 0.48249823E+03</pdfrwt>
<totfact> 0.90949147E+02</totfact>
</mgrwt>
</event>
<event>
 4    1  0.3147937E-004  0.2304898E+03  0.7818608E-02  0.1126296E+00
          1   -1    0    0  501    0  0.00000000000E+00  0.00000000000E+00  0.19902409525E+03  0.19902409531E+03  0.50400000000E-02 0.  1.
         -1   -1    0    0    0  501 -0.00000000000E+00 -0.00000000000E+00 -0.66732533730E+02  0.66732533920E+02  0.50400000000E-02 0. -1.
    5000001    1    1    2    0    0  0.48276409348E+02 -0.70746731696E+02  0.70853450371E+02  0.13522175555E+03  0.77000000000E+02 0.  0.
   -5000001    1    1    2    0    0 -0.48276409348E+02  0.70746731696E+02  0.61438111148E+02  0.13053487368E+03  0.77000000000E+02 0.  0.
<mgrwt>
<rscale>  0 0.23048976E+03</rscale>
<asrwt>0</asrwt>
<pdfrwt beam="1">  1        1 0.30619091E-01 0.23048976E+03</pdfrwt>
<pdfrwt beam="2">  1       -1 0.10266544E-01 0.23048976E+03</pdfrwt>
<totfact> 0.84663851E+03</totfact>
</mgrwt>
</event>
<event>
 4    1  0.3147937E-004  0.2633338E+03  0.7818608E-02  0.1105157E+00
         -1   -1    0    0    0  501 -0.00000000000E+00  0.00000000000E+00  0.27263613907E+02  0.27263614372E+02  0.50400000000E-02 0. -1.
          1   -1    0    0  501    0  0.00000000000E+00 -0.00000000000E+00 -0.63587194794E+03  0.63587194796E+03  0.50400000000E-02 0.  1.
    5000001    1    1    2    0    0 -0.86798344402E+02 -0.62219760505E+02 -0.30081820626E+03  0.32836845830E+03  0.77000000000E+02 0.  0.
   -5000001    1    1    2    0    0  0.86798344402E+02  0.62219760505E+02 -0.30779012777E+03  0.33476710403E+03  0.77000000000E+02 0.  0.
<mgrwt>
<rscale>  0 0.26333376E+03</rscale>
<asrwt>0</asrwt>
<pdfrwt beam="1">  1        1 0.97826443E-01 0.26333376E+03</pdfrwt>
<pdfrwt beam="2">  1       -1 0.41944026E-02 0.26333376E+03</pdfrwt>
<totfact> 0.73832041E+03</totfact>
</mgrwt>
</event>
<event>
 4    1  0.3147937E-004  0.2369804E+03  0.7818608E-02  0.1121821E+00
          1   -1    0    0  501    0  0.00000000000E+00  0.00000000000E+00  0.10358488270E+03  0.10358488282E+03  0.50400000000E-02 0.  1.
         -1   -1    0    0    0  501 -0.00000000000E+00 -0.00000000000E+00 -0.13554026749E+03  0.13554026758E+03  0.50400000000E-02 0. -1.
    5000001    1    1    2    0    0  0.20952247184E+02 -0.67142940248E+02  0.40778609983E+02  0.11197797158E+03  0.77000000000E+02 0.  0.
   -5000001    1    1    2    0    0 -0.20952247184E+02  0.67142940248E+02 -0.72733994774E+02  0.12714717882E+03  0.77000000000E+02 0.  0.
<mgrwt>
<rscale>  0 0.23698036E+03</rscale>
<asrwt>0</asrwt>
<pdfrwt beam="1">  1        1 0.15936136E-01 0.23698036E+03</pdfrwt>
<pdfrwt beam="2">  1       -1 0.20852349E-01 0.23698036E+03</pdfrwt>
<totfact> 0.63705119E+03</totfact>
</mgrwt>
</event>
<event>
 4    1  0.3147937E-004  0.1891777E+03  0.7818608E-02  0.1159205E+00
         -1   -1    0    0    0  501 -0.00000000000E+00  0.00000000000E+00  0.39861592424E+02  0.39861592742E+02  0.50400000000E-02 0. -1.
          1   -1    0    0  501    0  0.00000000000E+00 -0.00000000000E+00 -0.22445287882E+03  0.22445287888E+03  0.50400000000E-02 0.  1.
    5000001    1    1    2    0    0  0.31051142645E+01 -0.53540366053E+02 -0.75655949419E+02  0.12053644766E+03  0.77000000000E+02 0.  0.
   -5000001    1    1    2    0    0 -0.31051142645E+01  0.53540366053E+02 -0.10893533698E+03  0.14377802396E+03  0.77000000000E+02 0.  0.
<mgrwt>
<rscale>  0 0.18917769E+03</rscale>
<asrwt>0</asrwt>
<pdfrwt beam="1">  1        1 0.34531211E-01 0.18917769E+03</pdfrwt>
<pdfrwt beam="2">  1       -1 0.61325529E-02 0.18917769E+03</pdfrwt>
<totfact> 0.15748925E+04</totfact>
</mgrwt>
</event>
<event>
 4    1  0.3147937E-004  0.6907014E+03  0.7818608E-02  0.9733267E-01
         -1   -1    0    0    0  501 -0.00000000000E+00  0.00000000000E+00  0.99203918476E+03  0.99203918477E+03  0.50400000000E-02 0. -1.
          1   -1    0    0  501    0  0.00000000000E+00 -0.00000000000E+00 -0.12022418871E+03  0.12022418882E+03  0.50400000000E-02 0.  1.
    5000001    1    1    2    0    0 -0.30062642181E+03 -0.28364681495E+02  0.19620322650E+03  0.36824652983E+03  0.77000000000E+02 0.  0.
   -5000001    1    1    2    0    0  0.30062642181E+03  0.28364681495E+02  0.67561176955E+03  0.74401684376E+03  0.77000000000E+02 0.  0.
<mgrwt>
<rscale>  0 0.69070140E+03</rscale>
<asrwt>0</asrwt>
<pdfrwt beam="1">  1        1 0.18496030E-01 0.69070140E+03</pdfrwt>
<pdfrwt beam="2">  1       -1 0.15262140E+00 0.69070140E+03</pdfrwt>
<totfact> 0.98883108E+01</totfact>
</mgrwt>
</event>
<event>
 4    1  0.3147937E-004  0.1816890E+03  0.7818608E-02  0.1166178E+00
          1   -1    0    0  501    0  0.00000000000E+00  0.00000000000E+00  0.15401605606E+04  0.15401605606E+04  0.50400000000E-02 0.  1.
         -1   -1    0    0    0  501 -0.00000000000E+00 -0.00000000000E+00 -0.53583530236E+01  0.53583553939E+01  0.50400000000E-02 0. -1.
    5000001    1    1    2    0    0 -0.20059633462E+02  0.40230323018E+02  0.61936584022E+03  0.62575067864E+03  0.77000000000E+02 0.  0.
   -5000001    1    1    2    0    0  0.20059633462E+02 -0.40230323018E+02  0.91543636735E+03  0.91976823736E+03  0.77000000000E+02 0.  0.
<mgrwt>
<rscale>  0 0.18168903E+03</rscale>
<asrwt>0</asrwt>
<pdfrwt beam="1">  1        1 0.23694793E+00 0.18168903E+03</pdfrwt>
<pdfrwt beam="2">  1       -1 0.82436166E-03 0.18168903E+03</pdfrwt>
<totfact> 0.16438066E+04</totfact>
</mgrwt>
</event>
<event>
 4    1  0.3147937E-004  0.4832266E+03  0.7818608E-02  0.1018252E+00
         -1   -1    0    0    0  501 -0.00000000000E+00  0.00000000000E+00  0.10280267216E+03  0.10280267229E+03  0.50400000000E-02 0. -1.
          1   -1    0    0  501    0  0.00000000000E+00 -0.00000000000E+00 -0.56785477788E+03  0.56785477791E+03  0.50400000000E-02 0.  1.
    5000001    1    1    2    0    0  0.38043196994E+02 -0.20261765581E+03 -0.37094367163E+03  0.43131126440E+03  0.77000000000E+02 0.  0.
   -5000001    1    1    2    0    0 -0.38043196994E+02  0.20261765581E+03 -0.94108434098E+02  0.23934618579E+03  0.77000000000E+02 0.  0.
<mgrwt>
<rscale>  0 0.48322661E+03</rscale>
<asrwt>0</asrwt>
<pdfrwt beam="1">  1        1 0.87362272E-01 0.48322661E+03</pdfrwt>
<pdfrwt beam="2">  1       -1 0.15815796E-01 0.48322661E+03</pdfrwt>
<totfact> 0.11224410E+03</totfact>
</mgrwt>
</event>
<event>
 4    1  0.3147937E-004  0.2912175E+03  0.7818608E-02  0.1089715E+00
         -1   -1    0    0    0  501 -0.00000000000E+00  0.00000000000E+00  0.17724908694E+03  0.17724908701E+03  0.50400000000E-02 0.  1.
          1   -1    0    0  501    0  0.00000000000E+00 -0.00000000000E+00 -0.11961644304E+03  0.11961644315E+03  0.50400000000E-02 0. -1.
    5000001    1    1    2    0    0 -0.66870532252E+02 -0.10354554957E+03  0.19723892445E+02  0.14666758624E+03  0.77000000000E+02 0.  0.
   -5000001    1    1    2    0    0  0.66870532252E+02  0.10354554957E+03  0.37908751453E+02  0.15019794392E+03  0.77000000000E+02 0.  0.
<mgrwt>
<rscale>  0 0.29121748E+03</rscale>
<asrwt>0</asrwt>
<pdfrwt beam="1">  1        1 0.18402530E-01 0.29121748E+03</pdfrwt>
<pdfrwt beam="2">  1       -1 0.27269090E-01 0.29121748E+03</pdfrwt>
<totfact> 0.34136336E+03</totfact>
</mgrwt>
</event>
