<event>
 4    1  0.9012200E-005  0.7082974E+03  0.7818608E-02  0.9703147E-01
          2   -1    0    0  501    0  0.00000000000E+00  0.00000000000E+00  0.10529340717E+04  0.10529340717E+04  0.25500000000E-02 0.  1.
         -2   -1    0    0    0  501 -0.00000000000E+00 -0.00000000000E+00 -0.11911601152E+03  0.11911601155E+03  0.25500000000E-02 0. -1.
    5000001    1    1    2    0    0 -0.18665091445E+03 -0.17001429735E+03  0.15976414260E+03  0.34131071830E+03  0.16500000000E+03 0.  0.
   -5000001    1    1    2    0    0  0.18665091445E+03  0.17001429735E+03  0.77405391760E+03  0.83073936498E+03  0.16500000000E+03 0.  0.
<mgrwt>
<rscale>  0 0.70829742E+03</rscale>
<asrwt>0</asrwt>
<pdfrwt beam="1">  1        2 0.16198985E+00 0.70829742E+03</pdfrwt>
<pdfrwt beam="2">  1       -2 0.18325541E-01 0.70829742E+03</pdfrwt>
<totfact> 0.58369498E+02</totfact>
</mgrwt>
</event>
<event>
 4    1  0.9012200E-005  0.4994924E+03  0.7818608E-02  0.1013911E+00
          2   -1    0    0  501    0  0.00000000000E+00  0.00000000000E+00  0.14977752149E+04  0.14977752149E+04  0.25500000000E-02 0.  1.
         -2   -1    0    0    0  501 -0.00000000000E+00 -0.00000000000E+00 -0.41643880259E+02  0.41643880337E+02  0.25500000000E-02 0. -1.
    5000001    1    1    2    0    0  0.11661826119E+03 -0.14429787726E+03  0.64499676776E+03  0.69113495545E+03  0.16500000000E+03 0.  0.
   -5000001    1    1    2    0    0 -0.11661826119E+03  0.14429787726E+03  0.81113456684E+03  0.84828413975E+03  0.16500000000E+03 0.  0.
<mgrwt>
<rscale>  0 0.49949243E+03</rscale>
<asrwt>0</asrwt>
<pdfrwt beam="1">  1        2 0.23042692E+00 0.49949243E+03</pdfrwt>
<pdfrwt beam="2">  1       -2 0.64067518E-02 0.49949243E+03</pdfrwt>
<totfact> 0.18171698E+03</totfact>
</mgrwt>
</event>
<event>
 4    1  0.9012200E-005  0.4611355E+03  0.7818608E-02  0.1024452E+00
         -2   -1    0    0    0  501 -0.00000000000E+00  0.00000000000E+00  0.28631065139E+02  0.28631065253E+02  0.25500000000E-02 0. -1.
          2   -1    0    0  501    0  0.00000000000E+00 -0.00000000000E+00 -0.18567765235E+04  0.18567765235E+04  0.25500000000E-02 0.  1.
    5000001    1    1    2    0    0  0.14482258927E+03  0.34841419999E+02 -0.66373090791E+03  0.69996515986E+03  0.16500000000E+03 0.  0.
   -5000001    1    1    2    0    0 -0.14482258927E+03 -0.34841419999E+02 -0.11644145504E+04  0.11854424289E+04  0.16500000000E+03 0.  0.
<mgrwt>
<rscale>  0 0.46113551E+03</rscale>
<asrwt>0</asrwt>
<pdfrwt beam="1">  1        2 0.28565783E+00 0.46113551E+03</pdfrwt>
<pdfrwt beam="2">  1       -2 0.44047807E-02 0.46113551E+03</pdfrwt>
<totfact> 0.20799703E+03</totfact>
</mgrwt>
</event>
<event>
 4    1  0.9012200E-005  0.6461515E+03  0.7818608E-02  0.9814028E-01
         -2   -1    0    0    0  501 -0.00000000000E+00  0.00000000000E+00  0.95124984210E+02  0.95124984244E+02  0.25500000000E-02 0. -1.
          2   -1    0    0  501    0  0.00000000000E+00 -0.00000000000E+00 -0.10972715742E+04  0.10972715742E+04  0.25500000000E-02 0.  1.
    5000001    1    1    2    0    0  0.12106142945E+03 -0.17793890751E+03 -0.82511957521E+03  0.86854213363E+03  0.16500000000E+03 0.  0.
   -5000001    1    1    2    0    0 -0.12106142945E+03  0.17793890751E+03 -0.17702701477E+03  0.32385442480E+03  0.16500000000E+03 0.  0.
<mgrwt>
<rscale>  0 0.64615150E+03</rscale>
<asrwt>0</asrwt>
<pdfrwt beam="1">  1        2 0.16881100E+00 0.64615150E+03</pdfrwt>
<pdfrwt beam="2">  1       -2 0.14634614E-01 0.64615150E+03</pdfrwt>
<totfact> 0.80620053E+02</totfact>
</mgrwt>
</event>
<event>
 4    1  0.9012200E-005  0.5064677E+03  0.7818608E-02  0.1012104E+00
         -2   -1    0    0    0  501 -0.00000000000E+00  0.00000000000E+00  0.34563163136E+03  0.34563163137E+03  0.25500000000E-02 0. -1.
          2   -1    0    0  501    0  0.00000000000E+00 -0.00000000000E+00 -0.18553680110E+03  0.18553680112E+03  0.25500000000E-02 0.  1.
    5000001    1    1    2    0    0 -0.92880963523E+02  0.12245739350E+02  0.25593332289E+03  0.31859644895E+03  0.16500000000E+03 0.  0.
   -5000001    1    1    2    0    0  0.92880963523E+02 -0.12245739350E+02 -0.95838492633E+02  0.21257198354E+03  0.16500000000E+03 0.  0.
<mgrwt>
<rscale>  0 0.50646772E+03</rscale>
<asrwt>0</asrwt>
<pdfrwt beam="1">  1        2 0.28544124E-01 0.50646772E+03</pdfrwt>
<pdfrwt beam="2">  1       -2 0.53174097E-01 0.50646772E+03</pdfrwt>
<totfact> 0.63201367E+02</totfact>
</mgrwt>
</event>
<event>
 4    1  0.9012200E-005  0.4674635E+03  0.7818608E-02  0.1022639E+00
          2   -1    0    0  501    0  0.00000000000E+00  0.00000000000E+00  0.22527132035E+04  0.22527132035E+04  0.25500000000E-02 0.  1.
         -2   -1    0    0    0  501 -0.00000000000E+00 -0.00000000000E+00 -0.24250992636E+02  0.24250992770E+02  0.25500000000E-02 0. -1.
    5000001    1    1    2    0    0  0.99780885238E+01 -0.14948861995E+03  0.77121787055E+03  0.80277544407E+03  0.16500000000E+03 0.  0.
   -5000001    1    1    2    0    0 -0.99780885238E+01  0.14948861995E+03  0.14572443403E+04  0.14741887522E+04  0.16500000000E+03 0.  0.
<mgrwt>
<rscale>  0 0.46746350E+03</rscale>
<asrwt>0</asrwt>
<pdfrwt beam="1">  1        2 0.34657129E+00 0.46746350E+03</pdfrwt>
<pdfrwt beam="2">  1       -2 0.37309217E-02 0.46746350E+03</pdfrwt>
<totfact> 0.16398094E+03</totfact>
</mgrwt>
</event>
<event>
 4    1  0.9012200E-005  0.7066615E+03  0.7818608E-02  0.9705908E-01
          2   -1    0    0  501    0  0.00000000000E+00  0.00000000000E+00  0.20953894479E+03  0.20953894480E+03  0.25500000000E-02 0.  1.
         -2   -1    0    0    0  501 -0.00000000000E+00 -0.00000000000E+00 -0.59579666314E+03  0.59579666314E+03  0.25500000000E-02 0. -1.
    5000001    1    1    2    0    0 -0.30932436074E+03  0.13706644054E+02 -0.14547944556E+03  0.37981403518E+03  0.16500000000E+03 0.  0.
   -5000001    1    1    2    0    0  0.30932436074E+03 -0.13706644054E+02 -0.24077827279E+03  0.42552157276E+03  0.16500000000E+03 0.  0.
<mgrwt>
<rscale>  0 0.70666146E+03</rscale>
<asrwt>0</asrwt>
<pdfrwt beam="1">  1        2 0.32236761E-01 0.70666146E+03</pdfrwt>
<pdfrwt beam="2">  1       -2 0.91661024E-01 0.70666146E+03</pdfrwt>
<totfact> 0.16787572E+02</totfact>
</mgrwt>
</event>
<event>
 4    1  0.9012200E-005  0.4771961E+03  0.7818608E-02  0.1019909E+00
         -2   -1    0    0    0  501 -0.00000000000E+00  0.00000000000E+00  0.68330630259E+02  0.68330630307E+02  0.25500000000E-02 0. -1.
          2   -1    0    0  501    0  0.00000000000E+00 -0.00000000000E+00 -0.83314070973E+03  0.83314070974E+03  0.25500000000E-02 0.  1.
    5000001    1    1    2    0    0 -0.80804154960E+02 -0.14528429480E+03 -0.29651447685E+03  0.37786594549E+03  0.16500000000E+03 0.  0.
   -5000001    1    1    2    0    0  0.80804154960E+02  0.14528429480E+03 -0.46829560262E+03  0.52360539456E+03  0.16500000000E+03 0.  0.
<mgrwt>
<rscale>  0 0.47719610E+03</rscale>
<asrwt>0</asrwt>
<pdfrwt beam="1">  1        2 0.12817549E+00 0.47719610E+03</pdfrwt>
<pdfrwt beam="2">  1       -2 0.10512405E-01 0.47719610E+03</pdfrwt>
<totfact> 0.20670206E+03</totfact>
</mgrwt>
</event>
<event>
 4    1  0.9012200E-005  0.3920447E+03  0.7818608E-02  0.1046570E+00
         -2   -1    0    0    0  501 -0.00000000000E+00  0.00000000000E+00  0.35840213586E+02  0.35840213677E+02  0.25500000000E-02 0. -1.
          2   -1    0    0  501    0  0.00000000000E+00 -0.00000000000E+00 -0.10721128200E+04  0.10721128200E+04  0.25500000000E-02 0.  1.
    5000001    1    1    2    0    0 -0.58247548648E+02 -0.44778322524E+02 -0.73339965104E+03  0.75531312927E+03  0.16500000000E+03 0.  0.
   -5000001    1    1    2    0    0  0.58247548648E+02  0.44778322524E+02 -0.30287295539E+03  0.35263990443E+03  0.16500000000E+03 0.  0.
<mgrwt>
<rscale>  0 0.39204465E+03</rscale>
<asrwt>0</asrwt>
<pdfrwt beam="1">  1        2 0.16494041E+00 0.39204465E+03</pdfrwt>
<pdfrwt beam="2">  1       -2 0.55138798E-02 0.39204465E+03</pdfrwt>
<totfact> 0.40170195E+03</totfact>
</mgrwt>
</event>
<event>
 4    1  0.9012200E-005  0.7812399E+03  0.7818608E-02  0.9587576E-01
          2   -1    0    0  501    0  0.00000000000E+00  0.00000000000E+00  0.13776771715E+04  0.13776771715E+04  0.25500000000E-02 0.  1.
         -2   -1    0    0    0  501 -0.00000000000E+00 -0.00000000000E+00 -0.11075448778E+03  0.11075448781E+03  0.25500000000E-02 0. -1.
    5000001    1    1    2    0    0 -0.34180204150E+03  0.48286796785E+02  0.48346036588E+03  0.61653805698E+03  0.16500000000E+03 0.  0.
   -5000001    1    1    2    0    0  0.34180204150E+03 -0.48286796785E+02  0.78346231785E+03  0.87189360234E+03  0.16500000000E+03 0.  0.
<mgrwt>
<rscale>  0 0.78123986E+03</rscale>
<asrwt>0</asrwt>
<pdfrwt beam="1">  1        2 0.21195033E+00 0.78123986E+03</pdfrwt>
<pdfrwt beam="2">  1       -2 0.17039152E-01 0.78123986E+03</pdfrwt>
<totfact> 0.42383536E+02</totfact>
</mgrwt>
</event>
<event>
 4    1  0.9012200E-005  0.5229870E+03  0.7818608E-02  0.1007947E+00
         -2   -1    0    0    0  501 -0.00000000000E+00  0.00000000000E+00  0.58830307858E+02  0.58830307914E+02  0.25500000000E-02 0. -1.
          2   -1    0    0  501    0  0.00000000000E+00 -0.00000000000E+00 -0.11623065123E+04  0.11623065123E+04  0.25500000000E-02 0.  1.
    5000001    1    1    2    0    0  0.14919065183E+03  0.13417409231E+03 -0.62152519404E+03  0.67363128228E+03  0.16500000000E+03 0.  0.
   -5000001    1    1    2    0    0 -0.14919065183E+03 -0.13417409231E+03 -0.48195101038E+03  0.54750553791E+03  0.16500000000E+03 0.  0.
<mgrwt>
<rscale>  0 0.52298700E+03</rscale>
<asrwt>0</asrwt>
<pdfrwt beam="1">  1        2 0.17881637E+00 0.52298700E+03</pdfrwt>
<pdfrwt beam="2">  1       -2 0.90508175E-02 0.52298700E+03</pdfrwt>
<totfact> 0.16274283E+03</totfact>
</mgrwt>
</event>
<event>
 4    1  0.9012200E-005  0.5097070E+03  0.7818608E-02  0.1011276E+00
          2   -1    0    0  501    0  0.00000000000E+00  0.00000000000E+00  0.12464183340E+04  0.12464183340E+04  0.25500000000E-02 0.  1.
         -2   -1    0    0    0  501 -0.00000000000E+00 -0.00000000000E+00 -0.52109561530E+02  0.52109561592E+02  0.25500000000E-02 0. -1.
    5000001    1    1    2    0    0 -0.28302444741E+01  0.17838290853E+03  0.79278659459E+03  0.82919482445E+03  0.16500000000E+03 0.  0.
   -5000001    1    1    2    0    0  0.28302444741E+01 -0.17838290853E+03  0.40152217790E+03  0.46933307116E+03  0.16500000000E+03 0.  0.
<mgrwt>
<rscale>  0 0.50970703E+03</rscale>
<asrwt>0</asrwt>
<pdfrwt beam="1">  1        2 0.19175665E+00 0.50970703E+03</pdfrwt>
<pdfrwt beam="2">  1       -2 0.80168564E-02 0.50970703E+03</pdfrwt>
<totfact> 0.17647166E+03</totfact>
</mgrwt>
</event>
<event>
 4    1  0.9012200E-005  0.5395805E+03  0.7818608E-02  0.1003935E+00
         -2   -1    0    0    0  501 -0.00000000000E+00  0.00000000000E+00  0.10862934077E+03  0.10862934080E+03  0.25500000000E-02 0. -1.
          2   -1    0    0  501    0  0.00000000000E+00 -0.00000000000E+00 -0.67004710425E+03  0.67004710426E+03  0.25500000000E-02 0.  1.
    5000001    1    1    2    0    0 -0.15935835949E+03 -0.30012857964E+02 -0.80402104650E+02  0.24491908218E+03  0.16500000000E+03 0.  0.
   -5000001    1    1    2    0    0  0.15935835949E+03  0.30012857964E+02 -0.48101565883E+03  0.53375736288E+03  0.16500000000E+03 0.  0.
<mgrwt>
<rscale>  0 0.53958049E+03</rscale>
<asrwt>0</asrwt>
<pdfrwt beam="1">  1        2 0.10308417E+00 0.53958049E+03</pdfrwt>
<pdfrwt beam="2">  1       -2 0.16712207E-01 0.53958049E+03</pdfrwt>
<totfact> 0.12648651E+03</totfact>
</mgrwt>
</event>
<event>
 4    1  0.9012200E-005  0.3946632E+03  0.7818608E-02  0.1045643E+00
         -2   -1    0    0    0  501 -0.00000000000E+00  0.00000000000E+00  0.19342339244E+02  0.19342339412E+02  0.25500000000E-02 0. -1.
          2   -1    0    0  501    0  0.00000000000E+00 -0.00000000000E+00 -0.20131875818E+04  0.20131875818E+04  0.25500000000E-02 0.  1.
    5000001    1    1    2    0    0 -0.57133444134E+01 -0.86739159553E+02 -0.13290274561E+04  0.13420489198E+04  0.16500000000E+03 0.  0.
   -5000001    1    1    2    0    0  0.57133444134E+01  0.86739159553E+02 -0.66481778638E+03  0.69048100133E+03  0.16500000000E+03 0.  0.
<mgrwt>
<rscale>  0 0.39466318E+03</rscale>
<asrwt>0</asrwt>
<pdfrwt beam="1">  1        2 0.30972100E+00 0.39466318E+03</pdfrwt>
<pdfrwt beam="2">  1       -2 0.29757461E-02 0.39466318E+03</pdfrwt>
<totfact> 0.31204893E+03</totfact>
</mgrwt>
</event>
<event>
 4    1  0.9012200E-005  0.8196769E+03  0.7818608E-02  0.9531964E-01
         -2   -1    0    0    0  501 -0.00000000000E+00  0.00000000000E+00  0.59709182165E+02  0.59709182220E+02  0.25500000000E-02 0.  1.
          2   -1    0    0  501    0  0.00000000000E+00 -0.00000000000E+00 -0.28130943290E+04  0.28130943290E+04  0.25500000000E-02 0. -1.
    5000001    1    1    2    0    0 -0.13431838772E+03 -0.18436259352E+03 -0.24205792214E+04  0.24368955173E+04  0.16500000000E+03 0.  0.
   -5000001    1    1    2    0    0  0.13431838772E+03  0.18436259352E+03 -0.33280592548E+03  0.43590799396E+03  0.16500000000E+03 0.  0.
<mgrwt>
<rscale>  0 0.81967692E+03</rscale>
<asrwt>0</asrwt>
<pdfrwt beam="1">  1        2 0.43278364E+00 0.81967692E+03</pdfrwt>
<pdfrwt beam="2">  1       -2 0.91860302E-02 0.81967692E+03</pdfrwt>
<totfact> 0.18615051E+02</totfact>
</mgrwt>
</event>
<event>
 4    1  0.9012200E-005  0.4832205E+03  0.7818608E-02  0.1018254E+00
          2   -1    0    0  501    0  0.00000000000E+00  0.00000000000E+00  0.40003377937E+03  0.40003377938E+03  0.25500000000E-02 0.  1.
         -2   -1    0    0    0  501 -0.00000000000E+00 -0.00000000000E+00 -0.14592644502E+03  0.14592644505E+03  0.25500000000E-02 0. -1.
    5000001    1    1    2    0    0 -0.74185958650E+02 -0.14923966963E+03  0.61421222666E+02  0.24243267529E+03  0.16500000000E+03 0.  0.
   -5000001    1    1    2    0    0  0.74185958650E+02  0.14923966963E+03  0.19268611168E+03  0.30352754914E+03  0.16500000000E+03 0.  0.
<mgrwt>
<rscale>  0 0.48322048E+03</rscale>
<asrwt>0</asrwt>
<pdfrwt beam="1">  1        2 0.61543658E-01 0.48322048E+03</pdfrwt>
<pdfrwt beam="2">  1       -2 0.22450222E-01 0.48322048E+03</pdfrwt>
<totfact> 0.13805496E+03</totfact>
</mgrwt>
</event>
<event>
 4    1  0.9012200E-005  0.5656878E+03  0.7818608E-02  0.9979267E-01
          2   -1    0    0  501    0  0.00000000000E+00  0.00000000000E+00  0.52134676368E+03  0.52134676369E+03  0.25500000000E-02 0.  1.
         -2   -1    0    0    0  501 -0.00000000000E+00 -0.00000000000E+00 -0.15345003149E+03  0.15345003152E+03  0.25500000000E-02 0. -1.
    5000001    1    1    2    0    0 -0.22332422484E+03  0.53803513721E+02  0.18713802278E+03  0.33913738670E+03  0.16500000000E+03 0.  0.
   -5000001    1    1    2    0    0  0.22332422484E+03 -0.53803513721E+02  0.18075870941E+03  0.33565940850E+03  0.16500000000E+03 0.  0.
<mgrwt>
<rscale>  0 0.56568782E+03</rscale>
<asrwt>0</asrwt>
<pdfrwt beam="1">  1        2 0.80207195E-01 0.56568782E+03</pdfrwt>
<pdfrwt beam="2">  1       -2 0.23607697E-01 0.56568782E+03</pdfrwt>
<totfact> 0.93540129E+02</totfact>
</mgrwt>
</event>
<event>
 4    1  0.9012200E-005  0.3575571E+03  0.7818608E-02  0.1059555E+00
         -2   -1    0    0    0  501 -0.00000000000E+00  0.00000000000E+00  0.49148991923E+02  0.49148991990E+02  0.25500000000E-02 0. -1.
          2   -1    0    0  501    0  0.00000000000E+00 -0.00000000000E+00 -0.65030367834E+03  0.65030367835E+03  0.25500000000E-02 0.  1.
    5000001    1    1    2    0    0  0.39358417958E+02  0.55086292682E+02 -0.32478885064E+03  0.37053526446E+03  0.16500000000E+03 0.  0.
   -5000001    1    1    2    0    0 -0.39358417958E+02 -0.55086292682E+02 -0.27636583578E+03  0.32891740588E+03  0.16500000000E+03 0.  0.
<mgrwt>
<rscale>  0 0.35755710E+03</rscale>
<asrwt>0</asrwt>
<pdfrwt beam="1">  1        2 0.10004671E+00 0.35755710E+03</pdfrwt>
<pdfrwt beam="2">  1       -2 0.75613839E-02 0.35755710E+03</pdfrwt>
<totfact> 0.47584839E+03</totfact>
</mgrwt>
</event>
<event>
 4    1  0.9012200E-005  0.4080574E+03  0.7818608E-02  0.1041025E+00
         -2   -1    0    0    0  501 -0.00000000000E+00  0.00000000000E+00  0.21482837800E+03  0.21482837802E+03  0.25500000000E-02 0. -1.
          2   -1    0    0  501    0  0.00000000000E+00 -0.00000000000E+00 -0.19377194917E+03  0.19377194918E+03  0.25500000000E-02 0.  1.
    5000001    1    1    2    0    0  0.21691115239E+01 -0.11506953366E+03  0.44588333807E+02  0.20605538608E+03  0.16500000000E+03 0.  0.
   -5000001    1    1    2    0    0 -0.21691115239E+01  0.11506953366E+03 -0.23531904972E+02  0.20254494112E+03  0.16500000000E+03 0.  0.
<mgrwt>
<rscale>  0 0.40805742E+03</rscale>
<asrwt>0</asrwt>
<pdfrwt beam="1">  1        2 0.29811069E-01 0.40805742E+03</pdfrwt>
<pdfrwt beam="2">  1       -2 0.33050520E-01 0.40805742E+03</pdfrwt>
<totfact> 0.15210880E+03</totfact>
</mgrwt>
</event>
<event>
 4    1  0.9012200E-005  0.9546715E+03  0.7818608E-02  0.9359707E-01
          2   -1    0    0  501    0  0.00000000000E+00  0.00000000000E+00  0.10683973391E+04  0.10683973391E+04  0.25500000000E-02 0.  1.
         -2   -1    0    0    0  501 -0.00000000000E+00 -0.00000000000E+00 -0.21326279070E+03  0.21326279072E+03  0.25500000000E-02 0. -1.
    5000001    1    1    2    0    0  0.42097589619E+03  0.14482439129E+03  0.49374095763E+03  0.68498170977E+03  0.16500000000E+03 0.  0.
   -5000001    1    1    2    0    0 -0.42097589619E+03 -0.14482439129E+03  0.36139359074E+03  0.59667842002E+03  0.16500000000E+03 0.  0.
<mgrwt>
<rscale>  0 0.95467146E+03</rscale>
<asrwt>0</asrwt>
<pdfrwt beam="1">  1        2 0.16436882E+00 0.95467146E+03</pdfrwt>
<pdfrwt beam="2">  1       -2 0.32809660E-01 0.95467146E+03</pdfrwt>
<totfact> 0.19732295E+02</totfact>
</mgrwt>
</event>
<event>
 4    1  0.9012200E-005  0.5748070E+03  0.7818608E-02  0.9959097E-01
          2   -1    0    0  501    0  0.00000000000E+00  0.00000000000E+00  0.18013464544E+04  0.18013464544E+04  0.25500000000E-02 0.  1.
         -2   -1    0    0    0  501 -0.00000000000E+00 -0.00000000000E+00 -0.45855020820E+02  0.45855020891E+02  0.25500000000E-02 0. -1.
    5000001    1    1    2    0    0  0.17301422872E+03 -0.34018427594E+02  0.37695335263E+03  0.44767176236E+03  0.16500000000E+03 0.  0.
   -5000001    1    1    2    0    0 -0.17301422872E+03  0.34018427594E+02  0.13785380809E+04  0.13995297129E+04  0.16500000000E+03 0.  0.
<mgrwt>
<rscale>  0 0.57480703E+03</rscale>
<asrwt>0</asrwt>
<pdfrwt beam="1">  1        2 0.27713023E+00 0.57480703E+03</pdfrwt>
<pdfrwt beam="2">  1       -2 0.70546183E-02 0.57480703E+03</pdfrwt>
<totfact> 0.10646138E+03</totfact>
</mgrwt>
</event>
<event>
 4    1  0.9012200E-005  0.7298349E+03  0.7818608E-02  0.9667528E-01
         -2   -1    0    0    0  501 -0.00000000000E+00  0.00000000000E+00  0.17065318010E+03  0.17065318012E+03  0.25500000000E-02 0. -1.
          2   -1    0    0  501    0  0.00000000000E+00 -0.00000000000E+00 -0.78032374716E+03  0.78032374716E+03  0.25500000000E-02 0.  1.
    5000001    1    1    2    0    0 -0.41549954438E+02 -0.32281835402E+03 -0.30316633691E+03  0.47441850327E+03  0.16500000000E+03 0.  0.
   -5000001    1    1    2    0    0  0.41549954438E+02  0.32281835402E+03 -0.30650423014E+03  0.47655842402E+03  0.16500000000E+03 0.  0.
<mgrwt>
<rscale>  0 0.72983486E+03</rscale>
<asrwt>0</asrwt>
<pdfrwt beam="1">  1        2 0.12004980E+00 0.72983486E+03</pdfrwt>
<pdfrwt beam="2">  1       -2 0.26254336E-01 0.72983486E+03</pdfrwt>
<totfact> 0.46950423E+02</totfact>
</mgrwt>
</event>
<event>
 4    1  0.9012200E-005  0.4772179E+03  0.7818608E-02  0.1019903E+00
         -2   -1    0    0    0  501 -0.00000000000E+00  0.00000000000E+00  0.27497490611E+02  0.27497490729E+02  0.25500000000E-02 0. -1.
          2   -1    0    0  501    0  0.00000000000E+00 -0.00000000000E+00 -0.20705248529E+04  0.20705248529E+04  0.25500000000E-02 0.  1.
    5000001    1    1    2    0    0  0.11799166969E+03 -0.11183733085E+03 -0.12732841559E+04  0.12941820446E+04  0.16500000000E+03 0.  0.
   -5000001    1    1    2    0    0 -0.11799166969E+03  0.11183733085E+03 -0.76974320632E+03  0.80384029905E+03  0.16500000000E+03 0.  0.
<mgrwt>
<rscale>  0 0.47721793E+03</rscale>
<asrwt>0</asrwt>
<pdfrwt beam="1">  1        2 0.31854216E+00 0.47721793E+03</pdfrwt>
<pdfrwt beam="2">  1       -2 0.42303848E-02 0.47721793E+03</pdfrwt>
<totfact> 0.16976381E+03</totfact>
</mgrwt>
</event>
<event>
 4    1  0.9012200E-005  0.3872978E+03  0.7818608E-02  0.1048269E+00
          2   -1    0    0  501    0  0.00000000000E+00  0.00000000000E+00  0.20876716790E+04  0.20876716790E+04  0.25500000000E-02 0.  1.
         -2   -1    0    0    0  501 -0.00000000000E+00 -0.00000000000E+00 -0.17962546237E+02  0.17962546418E+02  0.25500000000E-02 0. -1.
    5000001    1    1    2    0    0 -0.10087521565E+03  0.24298979395E+01  0.98237230247E+03  0.10012302703E+04  0.16500000000E+03 0.  0.
   -5000001    1    1    2    0    0  0.10087521565E+03 -0.24298979395E+01  0.10873368303E+04  0.11044039551E+04  0.16500000000E+03 0.  0.
<mgrwt>
<rscale>  0 0.38729781E+03</rscale>
<asrwt>0</asrwt>
<pdfrwt beam="1">  1        2 0.32118017E+00 0.38729781E+03</pdfrwt>
<pdfrwt beam="2">  1       -2 0.27634694E-02 0.38729781E+03</pdfrwt>
<totfact> 0.31828501E+03</totfact>
</mgrwt>
</event>
<event>
 4    1  0.9012200E-005  0.3889289E+03  0.7818608E-02  0.1047682E+00
          2   -1    0    0  501    0  0.00000000000E+00  0.00000000000E+00  0.16431762277E+04  0.16431762277E+04  0.25500000000E-02 0.  1.
         -2   -1    0    0    0  501 -0.00000000000E+00 -0.00000000000E+00 -0.23014223159E+02  0.23014223300E+02  0.25500000000E-02 0. -1.
    5000001    1    1    2    0    0 -0.45137275199E+01 -0.84937912369E+02  0.56187954556E+03  0.59175032439E+03  0.16500000000E+03 0.  0.
   -5000001    1    1    2    0    0  0.45137275199E+01  0.84937912369E+02  0.10582824589E+04  0.10744401266E+04  0.16500000000E+03 0.  0.
<mgrwt>
<rscale>  0 0.38892891E+03</rscale>
<asrwt>0</asrwt>
<pdfrwt beam="1">  1        2 0.25279637E+00 0.38892891E+03</pdfrwt>
<pdfrwt beam="2">  1       -2 0.35406493E-02 0.38892891E+03</pdfrwt>
<totfact> 0.37820528E+03</totfact>
</mgrwt>
</event>
<event>
 4    1  0.9012200E-005  0.4184931E+03  0.7818608E-02  0.1037558E+00
         -2   -1    0    0    0  501 -0.00000000000E+00  0.00000000000E+00  0.39092512073E+02  0.39092512156E+02  0.25500000000E-02 0. -1.
          2   -1    0    0  501    0  0.00000000000E+00 -0.00000000000E+00 -0.11200130719E+04  0.11200130719E+04  0.25500000000E-02 0.  1.
    5000001    1    1    2    0    0 -0.50736898247E+02 -0.11729606757E+03 -0.49877410560E+03  0.54067847075E+03  0.16500000000E+03 0.  0.
   -5000001    1    1    2    0    0  0.50736898247E+02  0.11729606757E+03 -0.58214645423E+03  0.61842711332E+03  0.16500000000E+03 0.  0.
<mgrwt>
<rscale>  0 0.41849313E+03</rscale>
<asrwt>0</asrwt>
<pdfrwt beam="1">  1        2 0.17230968E+00 0.41849313E+03</pdfrwt>
<pdfrwt beam="2">  1       -2 0.60142335E-02 0.41849313E+03</pdfrwt>
<totfact> 0.32884686E+03</totfact>
</mgrwt>
</event>
<event>
 4    1  0.9012200E-005  0.4652303E+03  0.7818608E-02  0.1023275E+00
         -2   -1    0    0    0  501 -0.00000000000E+00  0.00000000000E+00  0.48138881805E+02  0.48138881873E+02  0.25500000000E-02 0. -1.
          2   -1    0    0  501    0  0.00000000000E+00 -0.00000000000E+00 -0.11240356128E+04  0.11240356128E+04  0.25500000000E-02 0.  1.
    5000001    1    1    2    0    0  0.14745989848E+03  0.60438503201E+02 -0.44077105560E+03  0.49689169623E+03  0.16500000000E+03 0.  0.
   -5000001    1    1    2    0    0 -0.14745989848E+03 -0.60438503201E+02 -0.63512567536E+03  0.67528279841E+03  0.16500000000E+03 0.  0.
<mgrwt>
<rscale>  0 0.46523034E+03</rscale>
<asrwt>0</asrwt>
<pdfrwt beam="1">  1        2 0.17292854E+00 0.46523034E+03</pdfrwt>
<pdfrwt beam="2">  1       -2 0.74059827E-02 0.46523034E+03</pdfrwt>
<totfact> 0.23610314E+03</totfact>
</mgrwt>
</event>
<event>
 4    1  0.9012200E-005  0.8051927E+03  0.7818608E-02  0.9552531E-01
         -2   -1    0    0    0  501 -0.00000000000E+00  0.00000000000E+00  0.11369048388E+03  0.11369048391E+03  0.25500000000E-02 0. -1.
          2   -1    0    0  501    0  0.00000000000E+00 -0.00000000000E+00 -0.14256585461E+04  0.14256585461E+04  0.25500000000E-02 0.  1.
    5000001    1    1    2    0    0 -0.34230397956E+03  0.13299170632E+03 -0.65606066797E+03  0.76973983165E+03  0.16500000000E+03 0.  0.
   -5000001    1    1    2    0    0  0.34230397956E+03 -0.13299170632E+03 -0.65590739429E+03  0.76960919840E+03  0.16500000000E+03 0.  0.
<mgrwt>
<rscale>  0 0.80519267E+03</rscale>
<asrwt>0</asrwt>
<pdfrwt beam="1">  1        2 0.21933207E+00 0.80519267E+03</pdfrwt>
<pdfrwt beam="2">  1       -2 0.17490845E-01 0.80519267E+03</pdfrwt>
<totfact> 0.38012569E+02</totfact>
</mgrwt>
</event>
<event>
 4    1  0.9012200E-005  0.8261925E+03  0.7818608E-02  0.9522860E-01
         -2   -1    0    0    0  501 -0.00000000000E+00  0.00000000000E+00  0.78005084571E+02  0.78005084613E+02  0.25500000000E-02 0. -1.
          2   -1    0    0  501    0  0.00000000000E+00 -0.00000000000E+00 -0.21876586525E+04  0.21876586525E+04  0.25500000000E-02 0.  1.
    5000001    1    1    2    0    0 -0.27748137365E+03  0.24121050707E+03 -0.13038337952E+04  0.13646926346E+04  0.16500000000E+03 0.  0.
   -5000001    1    1    2    0    0  0.27748137365E+03 -0.24121050707E+03 -0.80581977275E+03  0.90097110253E+03  0.16500000000E+03 0.  0.
<mgrwt>
<rscale>  0 0.82619247E+03</rscale>
<asrwt>0</asrwt>
<pdfrwt beam="1">  1        2 0.33656282E+00 0.82619247E+03</pdfrwt>
<pdfrwt beam="2">  1       -2 0.12000784E-01 0.82619247E+03</pdfrwt>
<totfact> 0.27291312E+02</totfact>
</mgrwt>
</event>
<event>
 4    1  0.9012200E-005  0.4004199E+03  0.7818608E-02  0.1043634E+00
         -2   -1    0    0    0  501 -0.00000000000E+00  0.00000000000E+00  0.27215118247E+02  0.27215118367E+02  0.25500000000E-02 0. -1.
          2   -1    0    0  501    0  0.00000000000E+00 -0.00000000000E+00 -0.14728588297E+04  0.14728588297E+04  0.25500000000E-02 0.  1.
    5000001    1    1    2    0    0  0.16560308066E+02  0.10481732281E+03 -0.87258351764E+03  0.89436452872E+03  0.16500000000E+03 0.  0.
   -5000001    1    1    2    0    0 -0.16560308066E+02 -0.10481732281E+03 -0.57306019381E+03  0.60570941936E+03  0.16500000000E+03 0.  0.
<mgrwt>
<rscale>  0 0.40041992E+03</rscale>
<asrwt>0</asrwt>
<pdfrwt beam="1">  1        2 0.22659360E+00 0.40041992E+03</pdfrwt>
<pdfrwt beam="2">  1       -2 0.41869424E-02 0.40041992E+03</pdfrwt>
<totfact> 0.36239274E+03</totfact>
</mgrwt>
</event>
<event>
 4    1  0.9012200E-005  0.4392733E+03  0.7818608E-02  0.1030970E+00
          2   -1    0    0  501    0  0.00000000000E+00  0.00000000000E+00  0.17331352159E+04  0.17331352159E+04  0.25500000000E-02 0.  1.
         -2   -1    0    0    0  501 -0.00000000000E+00 -0.00000000000E+00 -0.27834098106E+02  0.27834098223E+02  0.25500000000E-02 0. -1.
    5000001    1    1    2    0    0 -0.14219255766E+03 -0.26291868268E+02  0.89378155140E+03  0.92031540648E+03  0.16500000000E+03 0.  0.
   -5000001    1    1    2    0    0  0.14219255766E+03  0.26291868268E+02  0.81151956640E+03  0.84065390764E+03  0.16500000000E+03 0.  0.
<mgrwt>
<rscale>  0 0.43927329E+03</rscale>
<asrwt>0</asrwt>
<pdfrwt beam="1">  1        2 0.26663616E+00 0.43927329E+03</pdfrwt>
<pdfrwt beam="2">  1       -2 0.42821695E-02 0.43927329E+03</pdfrwt>
<totfact> 0.25317887E+03</totfact>
</mgrwt>
</event>
<event>
 4    1  0.9012200E-005  0.8387468E+03  0.7818608E-02  0.9505566E-01
         -2   -1    0    0    0  501 -0.00000000000E+00  0.00000000000E+00  0.54281127281E+02  0.54281127340E+02  0.25500000000E-02 0. -1.
          2   -1    0    0  501    0  0.00000000000E+00 -0.00000000000E+00 -0.32400589259E+04  0.32400589259E+04  0.25500000000E-02 0.  1.
    5000001    1    1    2    0    0  0.33962972189E+03 -0.15358012464E+03 -0.12057799536E+04  0.12728179364E+04  0.16500000000E+03 0.  0.
   -5000001    1    1    2    0    0 -0.33962972189E+03  0.15358012464E+03 -0.19799978450E+04  0.20215221168E+04  0.16500000000E+03 0.  0.
<mgrwt>
<rscale>  0 0.83874681E+03</rscale>
<asrwt>0</asrwt>
<pdfrwt beam="1">  1        2 0.49847045E+00 0.83874681E+03</pdfrwt>
<pdfrwt beam="2">  1       -2 0.83509452E-02 0.83874681E+03</pdfrwt>
<totfact> 0.11808644E+02</totfact>
</mgrwt>
</event>
<event>
 4    1  0.9012200E-005  0.5861416E+03  0.7818608E-02  0.9934582E-01
          2   -1    0    0  501    0  0.00000000000E+00  0.00000000000E+00  0.16372256489E+04  0.16372256489E+04  0.25500000000E-02 0.  1.
         -2   -1    0    0    0  501 -0.00000000000E+00 -0.00000000000E+00 -0.52460992448E+02  0.52460992510E+02  0.25500000000E-02 0. -1.
    5000001    1    1    2    0    0  0.14467839286E+02  0.21844096436E+03  0.49363783111E+03  0.56464952102E+03  0.16500000000E+03 0.  0.
   -5000001    1    1    2    0    0 -0.14467839286E+02 -0.21844096436E+03  0.10911268254E+04  0.11250371204E+04  0.16500000000E+03 0.  0.
<mgrwt>
<rscale>  0 0.58614156E+03</rscale>
<asrwt>0</asrwt>
<pdfrwt beam="1">  1        2 0.25188085E+00 0.58614156E+03</pdfrwt>
<pdfrwt beam="2">  1       -2 0.80709226E-02 0.58614156E+03</pdfrwt>
<totfact> 0.10547273E+03</totfact>
</mgrwt>
</event>
<event>
 4    1  0.9012200E-005  0.9744474E+03  0.7818608E-02  0.9337023E-01
          2   -1    0    0  501    0  0.00000000000E+00  0.00000000000E+00  0.18961852911E+04  0.18961852911E+04  0.25500000000E-02 0.  1.
         -2   -1    0    0    0  501 -0.00000000000E+00 -0.00000000000E+00 -0.12519183987E+03  0.12519183990E+03  0.25500000000E-02 0. -1.
    5000001    1    1    2    0    0  0.37787881701E+03 -0.83115158790E+02  0.37542877325E+03  0.56380164397E+03  0.16500000000E+03 0.  0.
   -5000001    1    1    2    0    0 -0.37787881701E+03  0.83115158790E+02  0.13955646780E+04  0.14575754870E+04  0.16500000000E+03 0.  0.
<mgrwt>
<rscale>  0 0.97444738E+03</rscale>
<asrwt>0</asrwt>
<pdfrwt beam="1">  1        2 0.29172079E+00 0.97444738E+03</pdfrwt>
<pdfrwt beam="2">  1       -2 0.19260284E-01 0.97444738E+03</pdfrwt>
<totfact> 0.17469180E+02</totfact>
</mgrwt>
</event>
<event>
 4    1  0.9012200E-005  0.5400004E+03  0.7818608E-02  0.1003835E+00
          2   -1    0    0  501    0  0.00000000000E+00  0.00000000000E+00  0.44460097090E+03  0.44460097091E+03  0.25500000000E-02 0.  1.
         -2   -1    0    0    0  501 -0.00000000000E+00 -0.00000000000E+00 -0.16396746803E+03  0.16396746805E+03  0.25500000000E-02 0. -1.
    5000001    1    1    2    0    0 -0.38708292970E+02 -0.16973893250E+03  0.61941003974E+00  0.23986458851E+03  0.16500000000E+03 0.  0.
   -5000001    1    1    2    0    0  0.38708292970E+02  0.16973893250E+03  0.28001409283E+03  0.36870385045E+03  0.16500000000E+03 0.  0.
<mgrwt>
<rscale>  0 0.54000035E+03</rscale>
<asrwt>0</asrwt>
<pdfrwt beam="1">  1        2 0.68400148E-01 0.54000035E+03</pdfrwt>
<pdfrwt beam="2">  1       -2 0.25225765E-01 0.54000035E+03</pdfrwt>
<totfact> 0.99696499E+02</totfact>
</mgrwt>
</event>
<event>
 4    1  0.9012200E-005  0.4836993E+03  0.7818608E-02  0.1018123E+00
         -2   -1    0    0    0  501 -0.00000000000E+00  0.00000000000E+00  0.30704656818E+03  0.30704656819E+03  0.25500000000E-02 0. -1.
          2   -1    0    0  501    0  0.00000000000E+00 -0.00000000000E+00 -0.19049633702E+03  0.19049633704E+03  0.25500000000E-02 0.  1.
    5000001    1    1    2    0    0  0.15207555932E+03  0.21280143399E+02  0.14845659117E+03  0.26989660929E+03  0.16500000000E+03 0.  0.
   -5000001    1    1    2    0    0 -0.15207555932E+03 -0.21280143399E+02 -0.31906360015E+02  0.22764629594E+03  0.16500000000E+03 0.  0.
<mgrwt>
<rscale>  0 0.48369927E+03</rscale>
<asrwt>0</asrwt>
<pdfrwt beam="1">  1        2 0.29307129E-01 0.48369927E+03</pdfrwt>
<pdfrwt beam="2">  1       -2 0.47237933E-01 0.48369927E+03</pdfrwt>
<totfact> 0.77948826E+02</totfact>
</mgrwt>
</event>
<event>
 4    1  0.9012200E-005  0.1177058E+04  0.7818608E-02  0.9133178E-01
         -2   -1    0    0    0  501 -0.00000000000E+00  0.00000000000E+00  0.58292984777E+03  0.58292984777E+03  0.25500000000E-02 0. -1.
          2   -1    0    0  501    0  0.00000000000E+00 -0.00000000000E+00 -0.59418214812E+03  0.59418214812E+03  0.25500000000E-02 0.  1.
    5000001    1    1    2    0    0 -0.44634281549E+03  0.29697195051E+03  0.17250346640E+03  0.58685321355E+03  0.16500000000E+03 0.  0.
   -5000001    1    1    2    0    0  0.44634281549E+03 -0.29697195051E+03 -0.18375576675E+03  0.59025878235E+03  0.16500000000E+03 0.  0.
<mgrwt>
<rscale>  0 0.11770582E+04</rscale>
<asrwt>0</asrwt>
<pdfrwt beam="1">  1        2 0.91412638E-01 0.11770582E+04</pdfrwt>
<pdfrwt beam="2">  1       -2 0.89681515E-01 0.11770582E+04</pdfrwt>
<totfact> 0.52864063E+01</totfact>
</mgrwt>
</event>
<event>
 4    1  0.9012200E-005  0.4213026E+03  0.7818608E-02  0.1036643E+00
          2   -1    0    0  501    0  0.00000000000E+00  0.00000000000E+00  0.55050089013E+03  0.55050089013E+03  0.25500000000E-02 0.  1.
         -2   -1    0    0    0  501 -0.00000000000E+00 -0.00000000000E+00 -0.80606547414E+02  0.80606547455E+02  0.25500000000E-02 0. -1.
    5000001    1    1    2    0    0  0.10040974693E+03 -0.83407611064E+02  0.21923402285E+03  0.30385441191E+03  0.16500000000E+03 0.  0.
   -5000001    1    1    2    0    0 -0.10040974693E+03  0.83407611064E+02  0.25066031986E+03  0.32725302568E+03  0.16500000000E+03 0.  0.
<mgrwt>
<rscale>  0 0.42130263E+03</rscale>
<asrwt>0</asrwt>
<pdfrwt beam="1">  1        2 0.84692442E-01 0.42130263E+03</pdfrwt>
<pdfrwt beam="2">  1       -2 0.12401008E-01 0.42130263E+03</pdfrwt>
<totfact> 0.26290962E+03</totfact>
</mgrwt>
</event>
<event>
 4    1  0.9012200E-005  0.4714205E+03  0.7818608E-02  0.1021520E+00
         -2   -1    0    0    0  501 -0.00000000000E+00  0.00000000000E+00  0.88998091981E+02  0.88998092018E+02  0.25500000000E-02 0. -1.
          2   -1    0    0  501    0  0.00000000000E+00 -0.00000000000E+00 -0.62427541632E+03  0.62427541633E+03  0.25500000000E-02 0.  1.
    5000001    1    1    2    0    0 -0.14302494496E+03 -0.29487869901E+02 -0.39430606604E+03  0.45169452406E+03  0.16500000000E+03 0.  0.
   -5000001    1    1    2    0    0  0.14302494496E+03  0.29487869901E+02 -0.14097125830E+03  0.26157898429E+03  0.16500000000E+03 0.  0.
<mgrwt>
<rscale>  0 0.47142050E+03</rscale>
<asrwt>0</asrwt>
<pdfrwt beam="1">  1        2 0.96042369E-01 0.47142050E+03</pdfrwt>
<pdfrwt beam="2">  1       -2 0.13692015E-01 0.47142050E+03</pdfrwt>
<totfact> 0.19268211E+03</totfact>
</mgrwt>
</event>
<event>
 4    1  0.9012200E-005  0.5854575E+03  0.7818608E-02  0.9936045E-01
          2   -1    0    0  501    0  0.00000000000E+00  0.00000000000E+00  0.78954239277E+03  0.78954239277E+03  0.25500000000E-02 0.  1.
         -2   -1    0    0    0  501 -0.00000000000E+00 -0.00000000000E+00 -0.10853138063E+03  0.10853138066E+03  0.25500000000E-02 0. -1.
    5000001    1    1    2    0    0  0.20973645404E+03 -0.84382701436E+02  0.47206342223E+03  0.54879749914E+03  0.16500000000E+03 0.  0.
   -5000001    1    1    2    0    0 -0.20973645404E+03  0.84382701436E+02  0.20894758991E+03  0.34927627429E+03  0.16500000000E+03 0.  0.
<mgrwt>
<rscale>  0 0.58545752E+03</rscale>
<asrwt>0</asrwt>
<pdfrwt beam="1">  1        2 0.12146806E+00 0.58545752E+03</pdfrwt>
<pdfrwt beam="2">  1       -2 0.16697136E-01 0.58545752E+03</pdfrwt>
<totfact> 0.10283052E+03</totfact>
</mgrwt>
</event>
<event>
 4    1  0.9012200E-005  0.6459258E+03  0.7818608E-02  0.9814454E-01
         -2   -1    0    0    0  501 -0.00000000000E+00  0.00000000000E+00  0.46487800687E+03  0.46487800688E+03  0.25500000000E-02 0. -1.
          2   -1    0    0  501    0  0.00000000000E+00 -0.00000000000E+00 -0.22437078612E+03  0.22437078614E+03  0.25500000000E-02 0.  1.
    5000001    1    1    2    0    0  0.21058326194E+03 -0.11104944186E+03  0.27267214153E+03  0.39780948394E+03  0.16500000000E+03 0.  0.
   -5000001    1    1    2    0    0 -0.21058326194E+03  0.11104944186E+03 -0.32164920783E+02  0.29143930908E+03  0.16500000000E+03 0.  0.
<mgrwt>
<rscale>  0 0.64592583E+03</rscale>
<asrwt>0</asrwt>
<pdfrwt beam="1">  1        2 0.34518583E-01 0.64592583E+03</pdfrwt>
<pdfrwt beam="2">  1       -2 0.71519693E-01 0.64592583E+03</pdfrwt>
<totfact> 0.27223479E+02</totfact>
</mgrwt>
</event>
<event>
 4    1  0.9012200E-005  0.3943880E+03  0.7818608E-02  0.1045740E+00
          2   -1    0    0  501    0  0.00000000000E+00  0.00000000000E+00  0.36373500659E+03  0.36373500660E+03  0.25500000000E-02 0.  1.
         -2   -1    0    0    0  501 -0.00000000000E+00 -0.00000000000E+00 -0.10690603088E+03  0.10690603091E+03  0.25500000000E-02 0. -1.
    5000001    1    1    2    0    0 -0.38310412516E+02  0.82403156313E+02  0.58805537987E+02  0.19733489092E+03  0.16500000000E+03 0.  0.
   -5000001    1    1    2    0    0  0.38310412516E+02 -0.82403156313E+02  0.19802343772E+03  0.27330614659E+03  0.16500000000E+03 0.  0.
<mgrwt>
<rscale>  0 0.39438796E+03</rscale>
<asrwt>0</asrwt>
<pdfrwt beam="1">  1        2 0.55959232E-01 0.39438796E+03</pdfrwt>
<pdfrwt beam="2">  1       -2 0.16447082E-01 0.39438796E+03</pdfrwt>
<totfact> 0.26151855E+03</totfact>
</mgrwt>
</event>
<event>
 4    1  0.9012200E-005  0.5742399E+03  0.7818608E-02  0.9960340E-01
          2   -1    0    0  501    0  0.00000000000E+00  0.00000000000E+00  0.18576066237E+03  0.18576066239E+03  0.25500000000E-02 0. -1.
         -2   -1    0    0    0  501 -0.00000000000E+00 -0.00000000000E+00 -0.44378533598E+03  0.44378533599E+03  0.25500000000E-02 0.  1.
    5000001    1    1    2    0    0 -0.13985577136E+03  0.53326278598E+02  0.69567030192E+02  0.23338359081E+03  0.16500000000E+03 0.  0.
   -5000001    1    1    2    0    0  0.13985577136E+03 -0.53326278598E+02 -0.32759170380E+03  0.39616240757E+03  0.16500000000E+03 0.  0.
<mgrwt>
<rscale>  0 0.57423987E+03</rscale>
<asrwt>0</asrwt>
<pdfrwt beam="1">  1        2 0.28578564E-01 0.57423987E+03</pdfrwt>
<pdfrwt beam="2">  1       -2 0.68274667E-01 0.57423987E+03</pdfrwt>
<totfact> 0.37284235E+02</totfact>
</mgrwt>
</event>
<event>
 4    1  0.9012200E-005  0.5525565E+03  0.7818608E-02  0.1000904E+00
         -2   -1    0    0    0  501 -0.00000000000E+00  0.00000000000E+00  0.59154742227E+02  0.59154742282E+02  0.25500000000E-02 0. -1.
          2   -1    0    0  501    0  0.00000000000E+00 -0.00000000000E+00 -0.12903389509E+04  0.12903389509E+04  0.25500000000E-02 0.  1.
    5000001    1    1    2    0    0  0.17434870483E+01 -0.19409656459E+03 -0.35450694911E+03  0.43655090551E+03  0.16500000000E+03 0.  0.
   -5000001    1    1    2    0    0 -0.17434870483E+01  0.19409656459E+03 -0.87667725957E+03  0.91294278768E+03  0.16500000000E+03 0.  0.
<mgrwt>
<rscale>  0 0.55255649E+03</rscale>
<asrwt>0</asrwt>
<pdfrwt beam="1">  1        2 0.19851366E+00 0.55255649E+03</pdfrwt>
<pdfrwt beam="2">  1       -2 0.91007305E-02 0.55255649E+03</pdfrwt>
<totfact> 0.13582334E+03</totfact>
</mgrwt>
</event>
<event>
 4    1  0.9012200E-005  0.4745745E+03  0.7818608E-02  0.1020637E+00
         -2   -1    0    0    0  501 -0.00000000000E+00  0.00000000000E+00  0.28719664910E+02  0.28719665024E+02  0.25500000000E-02 0. -1.
          2   -1    0    0  501    0  0.00000000000E+00 -0.00000000000E+00 -0.19605115786E+04  0.19605115786E+04  0.25500000000E-02 0.  1.
    5000001    1    1    2    0    0 -0.16281598092E+03 -0.37010060868E+02 -0.11111851382E+04  0.11357095577E+04  0.16500000000E+03 0.  0.
   -5000001    1    1    2    0    0  0.16281598092E+03  0.37010060868E+02 -0.82060677548E+03  0.85352168585E+03  0.16500000000E+03 0.  0.
<mgrwt>
<rscale>  0 0.47457449E+03</rscale>
<asrwt>0</asrwt>
<pdfrwt beam="1">  1        2 0.30161706E+00 0.47457449E+03</pdfrwt>
<pdfrwt beam="2">  1       -2 0.44184115E-02 0.47457449E+03</pdfrwt>
<totfact> 0.18201369E+03</totfact>
</mgrwt>
</event>
<event>
 4    1  0.9012200E-005  0.5372005E+03  0.7818608E-02  0.1004501E+00
         -2   -1    0    0    0  501 -0.00000000000E+00  0.00000000000E+00  0.80106418403E+02  0.80106418444E+02  0.25500000000E-02 0. -1.
          2   -1    0    0  501    0  0.00000000000E+00 -0.00000000000E+00 -0.90062822041E+03  0.90062822041E+03  0.25500000000E-02 0.  1.
    5000001    1    1    2    0    0 -0.52802874821E+02 -0.17457323212E+03 -0.60737204052E+03  0.65527837792E+03  0.16500000000E+03 0.  0.
   -5000001    1    1    2    0    0  0.52802874821E+02  0.17457323212E+03 -0.21314976148E+03  0.32545626094E+03  0.16500000000E+03 0.  0.
<mgrwt>
<rscale>  0 0.53720053E+03</rscale>
<asrwt>0</asrwt>
<pdfrwt beam="1">  1        2 0.13855818E+00 0.53720053E+03</pdfrwt>
<pdfrwt beam="2">  1       -2 0.12324065E-01 0.53720053E+03</pdfrwt>
<totfact> 0.14343552E+03</totfact>
</mgrwt>
</event>
<event>
 4    1  0.9012200E-005  0.4020152E+03  0.7818608E-02  0.1043084E+00
         -2   -1    0    0    0  501 -0.00000000000E+00  0.00000000000E+00  0.16588854336E+02  0.16588854532E+02  0.25500000000E-02 0.  1.
          2   -1    0    0  501    0  0.00000000000E+00 -0.00000000000E+00 -0.24356150912E+04  0.24356150912E+04  0.25500000000E-02 0. -1.
    5000001    1    1    2    0    0  0.46233282097E+02  0.76121488343E+02 -0.76766565764E+03  0.79023259821E+03  0.16500000000E+03 0.  0.
   -5000001    1    1    2    0    0 -0.46233282097E+02 -0.76121488343E+02 -0.16513605792E+04  0.16619713475E+04  0.16500000000E+03 0.  0.
<mgrwt>
<rscale>  0 0.40201524E+03</rscale>
<asrwt>0</asrwt>
<pdfrwt beam="1">  1        2 0.37470973E+00 0.40201524E+03</pdfrwt>
<pdfrwt beam="2">  1       -2 0.25521334E-02 0.40201524E+03</pdfrwt>
<totfact> 0.23203130E+03</totfact>
</mgrwt>
</event>
<event>
 4    1  0.9012200E-005  0.7152145E+03  0.7818608E-02  0.9691561E-01
         -2   -1    0    0    0  501 -0.00000000000E+00  0.00000000000E+00  0.35764135274E+02  0.35764135365E+02  0.25500000000E-02 0. -1.
          2   -1    0    0  501    0  0.00000000000E+00 -0.00000000000E+00 -0.35757314175E+04  0.35757314175E+04  0.25500000000E-02 0.  1.
    5000001    1    1    2    0    0  0.17725612912E+03  0.21348936545E+03 -0.25467004751E+04  0.25670811740E+04  0.16500000000E+03 0.  0.
   -5000001    1    1    2    0    0 -0.17725612912E+03 -0.21348936545E+03 -0.99326680717E+03  0.10444143788E+04  0.16500000000E+03 0.  0.
<mgrwt>
<rscale>  0 0.71521449E+03</rscale>
<asrwt>0</asrwt>
<pdfrwt beam="1">  1        2 0.55011224E+00 0.71521449E+03</pdfrwt>
<pdfrwt beam="2">  1       -2 0.55021775E-02 0.71521449E+03</pdfrwt>
<totfact> 0.13865509E+02</totfact>
</mgrwt>
</event>
<event>
 4    1  0.9012200E-005  0.4232766E+03  0.7818608E-02  0.1036005E+00
          2   -1    0    0  501    0  0.00000000000E+00  0.00000000000E+00  0.15461054788E+03  0.15461054790E+03  0.25500000000E-02 0.  1.
         -2   -1    0    0    0  501 -0.00000000000E+00 -0.00000000000E+00 -0.28970055178E+03  0.28970055180E+03  0.25500000000E-02 0. -1.
    5000001    1    1    2    0    0  0.11547615291E+03 -0.13009802562E+02 -0.64589823365E+00  0.20181529684E+03  0.16500000000E+03 0.  0.
   -5000001    1    1    2    0    0 -0.11547615291E+03  0.13009802562E+02 -0.13444410567E+03  0.24249580286E+03  0.16500000000E+03 0.  0.
<mgrwt>
<rscale>  0 0.42327656E+03</rscale>
<asrwt>0</asrwt>
<pdfrwt beam="1">  1        2 0.23786238E-01 0.42327656E+03</pdfrwt>
<pdfrwt beam="2">  1       -2 0.44569316E-01 0.42327656E+03</pdfrwt>
<totfact> 0.11068219E+03</totfact>
</mgrwt>
</event>
<event>
 4    1  0.9012200E-005  0.4137993E+03  0.7818608E-02  0.1039104E+00
         -2   -1    0    0    0  501 -0.00000000000E+00  0.00000000000E+00  0.74757074733E+02  0.74757074776E+02  0.25500000000E-02 0. -1.
          2   -1    0    0  501    0  0.00000000000E+00 -0.00000000000E+00 -0.57262094477E+03  0.57262094478E+03  0.25500000000E-02 0.  1.
    5000001    1    1    2    0    0 -0.40088327285E+02  0.98629907098E+02 -0.14697033709E+03  0.24527578874E+03  0.16500000000E+03 0.  0.
   -5000001    1    1    2    0    0  0.40088327285E+02 -0.98629907098E+02 -0.35089353294E+03  0.40210223081E+03  0.16500000000E+03 0.  0.
<mgrwt>
<rscale>  0 0.41379931E+03</rscale>
<asrwt>0</asrwt>
<pdfrwt beam="1">  1        2 0.88095527E-01 0.41379931E+03</pdfrwt>
<pdfrwt beam="2">  1       -2 0.11501089E-01 0.41379931E+03</pdfrwt>
<totfact> 0.28393362E+03</totfact>
</mgrwt>
</event>
<event>
 4    1  0.9012200E-005  0.7510322E+03  0.7818608E-02  0.9633732E-01
         -2   -1    0    0    0  501 -0.00000000000E+00  0.00000000000E+00  0.65590105791E+03  0.65590105791E+03  0.25500000000E-02 0. -1.
          2   -1    0    0  501    0  0.00000000000E+00 -0.00000000000E+00 -0.21499025797E+03  0.21499025799E+03  0.25500000000E-02 0.  1.
    5000001    1    1    2    0    0 -0.29874912736E+03 -0.15637664518E+03  0.23099694407E+03  0.44078258181E+03  0.16500000000E+03 0.  0.
   -5000001    1    1    2    0    0  0.29874912736E+03  0.15637664518E+03  0.20991385586E+03  0.43010873409E+03  0.16500000000E+03 0.  0.
<mgrwt>
<rscale>  0 0.75103219E+03</rscale>
<asrwt>0</asrwt>
<pdfrwt beam="1">  1        2 0.33075425E-01 0.75103219E+03</pdfrwt>
<pdfrwt beam="2">  1       -2 0.10090785E+00 0.75103219E+03</pdfrwt>
<totfact> 0.13000779E+02</totfact>
</mgrwt>
</event>
<event>
 4    1  0.9012200E-005  0.5242648E+03  0.7818608E-02  0.1007633E+00
          2   -1    0    0  501    0  0.00000000000E+00  0.00000000000E+00  0.12564664339E+04  0.12564664339E+04  0.25500000000E-02 0.  1.
         -2   -1    0    0    0  501 -0.00000000000E+00 -0.00000000000E+00 -0.54687806214E+02  0.54687806274E+02  0.25500000000E-02 0. -1.
    5000001    1    1    2    0    0  0.19944701610E+03  0.16688036771E+02  0.50628933191E+03  0.56886860558E+03  0.16500000000E+03 0.  0.
   -5000001    1    1    2    0    0 -0.19944701610E+03 -0.16688036771E+02  0.69548929579E+03  0.74228563462E+03  0.16500000000E+03 0.  0.
<mgrwt>
<rscale>  0 0.52426479E+03</rscale>
<asrwt>0</asrwt>
<pdfrwt beam="1">  1        2 0.19330252E+00 0.52426479E+03</pdfrwt>
<pdfrwt beam="2">  1       -2 0.84135089E-02 0.52426479E+03</pdfrwt>
<totfact> 0.16119198E+03</totfact>
</mgrwt>
</event>
<event>
 4    1  0.9012200E-005  0.7707760E+03  0.7818608E-02  0.9603308E-01
          2   -1    0    0  501    0  0.00000000000E+00  0.00000000000E+00  0.15422964472E+04  0.15422964472E+04  0.25500000000E-02 0.  1.
         -2   -1    0    0    0  501 -0.00000000000E+00 -0.00000000000E+00 -0.96300502071E+02  0.96300502105E+02  0.25500000000E-02 0. -1.
    5000001    1    1    2    0    0  0.22494243108E+03  0.26227197050E+03  0.63000963378E+03  0.73724000330E+03  0.16500000000E+03 0.  0.
   -5000001    1    1    2    0    0 -0.22494243108E+03 -0.26227197050E+03  0.81598631133E+03  0.90135694599E+03  0.16500000000E+03 0.  0.
<mgrwt>
<rscale>  0 0.77077603E+03</rscale>
<asrwt>0</asrwt>
<pdfrwt beam="1">  1        2 0.23727637E+00 0.77077603E+03</pdfrwt>
<pdfrwt beam="2">  1       -2 0.14815462E-01 0.77077603E+03</pdfrwt>
<totfact> 0.43506735E+02</totfact>
</mgrwt>
</event>
<event>
 4    1  0.9012200E-005  0.8826307E+03  0.7818608E-02  0.9447558E-01
          2   -1    0    0  501    0  0.00000000000E+00  0.00000000000E+00  0.29093132752E+04  0.29093132752E+04  0.25500000000E-02 0.  1.
         -2   -1    0    0    0  501 -0.00000000000E+00 -0.00000000000E+00 -0.66943367287E+02  0.66943367336E+02  0.25500000000E-02 0. -1.
    5000001    1    1    2    0    0 -0.33540525953E+03  0.11011431384E+03  0.72265884030E+03  0.82102536483E+03  0.16500000000E+03 0.  0.
   -5000001    1    1    2    0    0  0.33540525953E+03 -0.11011431384E+03  0.21197110676E+04  0.21552312777E+04  0.16500000000E+03 0.  0.
<mgrwt>
<rscale>  0 0.88263068E+03</rscale>
<asrwt>0</asrwt>
<pdfrwt beam="1">  1        2 0.44758651E+00 0.88263068E+03</pdfrwt>
<pdfrwt beam="2">  1       -2 0.10298983E-01 0.88263068E+03</pdfrwt>
<totfact> 0.13444555E+02</totfact>
</mgrwt>
</event>
<event>
 4    1  0.9012200E-005  0.3820506E+03  0.7818608E-02  0.1050178E+00
         -2   -1    0    0    0  501 -0.00000000000E+00  0.00000000000E+00  0.52166800800E+02  0.52166800862E+02  0.25500000000E-02 0.  1.
          2   -1    0    0  501    0  0.00000000000E+00 -0.00000000000E+00 -0.69949970869E+03  0.69949970870E+03  0.25500000000E-02 0. -1.
    5000001    1    1    2    0    0 -0.75327675785E+02  0.19524201008E+02 -0.21219312363E+03  0.27983276234E+03  0.16500000000E+03 0.  0.
   -5000001    1    1    2    0    0  0.75327675785E+02 -0.19524201008E+02 -0.43513978427E+03  0.47183374722E+03  0.16500000000E+03 0.  0.
<mgrwt>
<rscale>  0 0.38205058E+03</rscale>
<asrwt>0</asrwt>
<pdfrwt beam="1">  1        2 0.10761533E+00 0.38205058E+03</pdfrwt>
<pdfrwt beam="2">  1       -2 0.80256621E-02 0.38205058E+03</pdfrwt>
<totfact> 0.39698999E+03</totfact>
</mgrwt>
</event>
<event>
 4    1  0.9012200E-005  0.5843006E+03  0.7818608E-02  0.9938523E-01
         -2   -1    0    0    0  501 -0.00000000000E+00  0.00000000000E+00  0.13651768849E+03  0.13651768851E+03  0.25500000000E-02 0. -1.
          2   -1    0    0  501    0  0.00000000000E+00 -0.00000000000E+00 -0.62520692550E+03  0.62520692551E+03  0.25500000000E-02 0.  1.
    5000001    1    1    2    0    0 -0.12891597965E+03 -0.95453166151E+02 -0.47898808114E+03  0.53139930242E+03  0.16500000000E+03 0.  0.
   -5000001    1    1    2    0    0  0.12891597965E+03  0.95453166151E+02 -0.97011558720E+01  0.23032531160E+03  0.16500000000E+03 0.  0.
<mgrwt>
<rscale>  0 0.58430062E+03</rscale>
<asrwt>0</asrwt>
<pdfrwt beam="1">  1        2 0.96185679E-01 0.58430062E+03</pdfrwt>
<pdfrwt beam="2">  1       -2 0.21002722E-01 0.58430062E+03</pdfrwt>
<totfact> 0.92730759E+02</totfact>
</mgrwt>
</event>
<event>
 4    1  0.9012200E-005  0.3853646E+03  0.7818608E-02  0.1048969E+00
         -2   -1    0    0    0  501 -0.00000000000E+00  0.00000000000E+00  0.24551181765E+02  0.24551181897E+02  0.25500000000E-02 0. -1.
          2   -1    0    0  501    0  0.00000000000E+00 -0.00000000000E+00 -0.15122073749E+04  0.15122073749E+04  0.25500000000E-02 0.  1.
    5000001    1    1    2    0    0 -0.56199807115E+02  0.68888463872E+02 -0.92205389914E+03  0.94091042703E+03  0.16500000000E+03 0.  0.
   -5000001    1    1    2    0    0  0.56199807115E+02 -0.68888463872E+02 -0.56560229396E+03  0.59584812973E+03  0.16500000000E+03 0.  0.
<mgrwt>
<rscale>  0 0.38536465E+03</rscale>
<asrwt>0</asrwt>
<pdfrwt beam="1">  1        2 0.23264722E+00 0.38536465E+03</pdfrwt>
<pdfrwt beam="2">  1       -2 0.37771061E-02 0.38536465E+03</pdfrwt>
<totfact> 0.40345460E+03</totfact>
</mgrwt>
</event>
<event>
 4    1  0.9012200E-005  0.1216175E+04  0.7818608E-02  0.9098815E-01
         -2   -1    0    0    0  501 -0.00000000000E+00  0.00000000000E+00  0.25479735204E+03  0.25479735205E+03  0.25500000000E-02 0. -1.
          2   -1    0    0  501    0  0.00000000000E+00 -0.00000000000E+00 -0.14512342548E+04  0.14512342548E+04  0.25500000000E-02 0.  1.
    5000001    1    1    2    0    0 -0.56975606448E+03  0.69137653872E+02 -0.75904175252E+03  0.96580089576E+03  0.16500000000E+03 0.  0.
   -5000001    1    1    2    0    0  0.56975606448E+03 -0.69137653872E+02 -0.43739515025E+03  0.74023071110E+03  0.16500000000E+03 0.  0.
<mgrwt>
<rscale>  0 0.12161754E+04</rscale>
<asrwt>0</asrwt>
<pdfrwt beam="1">  1        2 0.22326680E+00 0.12161754E+04</pdfrwt>
<pdfrwt beam="2">  1       -2 0.39199593E-01 0.12161754E+04</pdfrwt>
<totfact> 0.82001899E+01</totfact>
</mgrwt>
</event>
<event>
 4    1  0.9012200E-005  0.1605111E+04  0.7818608E-02  0.8817415E-01
         -2   -1    0    0    0  501 -0.00000000000E+00  0.00000000000E+00  0.32066357324E+03  0.32066357325E+03  0.25500000000E-02 0. -1.
          2   -1    0    0  501    0  0.00000000000E+00 -0.00000000000E+00 -0.20086314467E+04  0.20086314467E+04  0.25500000000E-02 0.  1.
    5000001    1    1    2    0    0 -0.57415758915E+03  0.45631733473E+03 -0.12518322928E+04  0.14602025669E+04  0.16500000000E+03 0.  0.
   -5000001    1    1    2    0    0  0.57415758915E+03 -0.45631733473E+03 -0.43613558061E+03  0.86909245298E+03  0.16500000000E+03 0.  0.
<mgrwt>
<rscale>  0 0.16051105E+04</rscale>
<asrwt>0</asrwt>
<pdfrwt beam="1">  1        2 0.30902021E+00 0.16051105E+04</pdfrwt>
<pdfrwt beam="2">  1       -2 0.49332859E-01 0.16051105E+04</pdfrwt>
<totfact> 0.24640853E+01</totfact>
</mgrwt>
</event>
<event>
 4    1  0.9012200E-005  0.8904844E+03  0.7818608E-02  0.9437555E-01
         -2   -1    0    0    0  501 -0.00000000000E+00  0.00000000000E+00  0.93354478140E+02  0.93354478175E+02  0.25500000000E-02 0. -1.
          2   -1    0    0  501    0  0.00000000000E+00 -0.00000000000E+00 -0.21235255397E+04  0.21235255397E+04  0.25500000000E-02 0.  1.
    5000001    1    1    2    0    0  0.36325683284E+03 -0.12298121720E+03 -0.14002436421E+04  0.14611595271E+04  0.16500000000E+03 0.  0.
   -5000001    1    1    2    0    0 -0.36325683284E+03  0.12298121720E+03 -0.62992741943E+03  0.75572049075E+03  0.16500000000E+03 0.  0.
<mgrwt>
<rscale>  0 0.89048440E+03</rscale>
<asrwt>0</asrwt>
<pdfrwt beam="1">  1        2 0.32669620E+00 0.89048440E+03</pdfrwt>
<pdfrwt beam="2">  1       -2 0.14362229E-01 0.89048440E+03</pdfrwt>
<totfact> 0.21815795E+02</totfact>
</mgrwt>
</event>
<event>
 4    1  0.9012200E-005  0.4813655E+03  0.7818608E-02  0.1018761E+00
         -2   -1    0    0    0  501 -0.00000000000E+00  0.00000000000E+00  0.69472357448E+02  0.69472357495E+02  0.25500000000E-02 0. -1.
          2   -1    0    0  501    0  0.00000000000E+00 -0.00000000000E+00 -0.83383082909E+03  0.83383082910E+03  0.25500000000E-02 0.  1.
    5000001    1    1    2    0    0 -0.60665968518E+02 -0.12226162052E+03 -0.58838502907E+03  0.62613912673E+03  0.16500000000E+03 0.  0.
   -5000001    1    1    2    0    0  0.60665968518E+02  0.12226162052E+03 -0.17597344258E+03  0.27716405986E+03  0.16500000000E+03 0.  0.
<mgrwt>
<rscale>  0 0.48136553E+03</rscale>
<asrwt>0</asrwt>
<pdfrwt beam="1">  1        2 0.12828166E+00 0.48136553E+03</pdfrwt>
<pdfrwt beam="2">  1       -2 0.10688056E-01 0.48136553E+03</pdfrwt>
<totfact> 0.20100330E+03</totfact>
</mgrwt>
</event>
<event>
 4    1  0.9012200E-005  0.5560837E+03  0.7818608E-02  0.1000096E+00
          2   -1    0    0  501    0  0.00000000000E+00  0.00000000000E+00  0.22972645344E+04  0.22972645344E+04  0.25500000000E-02 0.  1.
         -2   -1    0    0    0  501 -0.00000000000E+00 -0.00000000000E+00 -0.33651876147E+02  0.33651876243E+02  0.25500000000E-02 0. -1.
    5000001    1    1    2    0    0  0.58962367076E+02 -0.98037064292E+02  0.32558411907E+03  0.38251515695E+03  0.16500000000E+03 0.  0.
   -5000001    1    1    2    0    0 -0.58962367076E+02  0.98037064292E+02  0.19380285392E+04  0.19484012537E+04  0.16500000000E+03 0.  0.
<mgrwt>
<rscale>  0 0.55608367E+03</rscale>
<asrwt>0</asrwt>
<pdfrwt beam="1">  1        2 0.35342546E+00 0.55608367E+03</pdfrwt>
<pdfrwt beam="2">  1       -2 0.51772095E-02 0.55608367E+03</pdfrwt>
<totfact> 0.93088175E+02</totfact>
</mgrwt>
</event>
<event>
 4    1  0.9012200E-005  0.4512541E+03  0.7818608E-02  0.1027349E+00
          2   -1    0    0  501    0  0.00000000000E+00  0.00000000000E+00  0.19908209752E+04  0.19908209752E+04  0.25500000000E-02 0.  1.
         -2   -1    0    0    0  501 -0.00000000000E+00 -0.00000000000E+00 -0.25571144734E+02  0.25571144861E+02  0.25500000000E-02 0. -1.
    5000001    1    1    2    0    0  0.15008525907E+03  0.33982233099E+02  0.98924401266E+03  0.10146472755E+04  0.16500000000E+03 0.  0.
   -5000001    1    1    2    0    0 -0.15008525907E+03 -0.33982233099E+02  0.97600581781E+03  0.10017448445E+04  0.16500000000E+03 0.  0.
<mgrwt>
<rscale>  0 0.45125413E+03</rscale>
<asrwt>0</asrwt>
<pdfrwt beam="1">  1        2 0.30628012E+00 0.45125413E+03</pdfrwt>
<pdfrwt beam="2">  1       -2 0.39340227E-02 0.45125413E+03</pdfrwt>
<totfact> 0.20965418E+03</totfact>
</mgrwt>
</event>
<event>
 4    1  0.9012200E-005  0.6850339E+03  0.7818608E-02  0.9743174E-01
          2   -1    0    0  501    0  0.00000000000E+00  0.00000000000E+00  0.28788408323E+04  0.28788408323E+04  0.25500000000E-02 0.  1.
         -2   -1    0    0    0  501 -0.00000000000E+00 -0.00000000000E+00 -0.40751771097E+02  0.40751771176E+02  0.25500000000E-02 0. -1.
    5000001    1    1    2    0    0 -0.19458424550E+01 -0.29794167134E+03  0.15738799532E+04  0.16103093283E+04  0.16500000000E+03 0.  0.
   -5000001    1    1    2    0    0  0.19458424550E+01  0.29794167134E+03  0.12642091080E+04  0.13092832751E+04  0.16500000000E+03 0.  0.
<mgrwt>
<rscale>  0 0.68503390E+03</rscale>
<asrwt>0</asrwt>
<pdfrwt beam="1">  1        2 0.44289839E+00 0.68503390E+03</pdfrwt>
<pdfrwt beam="2">  1       -2 0.62695061E-02 0.68503390E+03</pdfrwt>
<totfact> 0.31736782E+02</totfact>
</mgrwt>
</event>
<event>
 4    1  0.9012200E-005  0.1130549E+04  0.7818608E-02  0.9175918E-01
          2   -1    0    0  501    0  0.00000000000E+00  0.00000000000E+00  0.18306957356E+04  0.18306957356E+04  0.25500000000E-02 0.  1.
         -2   -1    0    0    0  501 -0.00000000000E+00 -0.00000000000E+00 -0.17454302764E+03  0.17454302766E+03  0.25500000000E-02 0. -1.
    5000001    1    1    2    0    0  0.31670507301E+03  0.20827999850E+03  0.15118720565E+04  0.15673751230E+04  0.16500000000E+03 0.  0.
   -5000001    1    1    2    0    0 -0.31670507301E+03 -0.20827999850E+03  0.14428065144E+03  0.43786364022E+03  0.16500000000E+03 0.  0.
<mgrwt>
<rscale>  0 0.11305489E+04</rscale>
<asrwt>0</asrwt>
<pdfrwt beam="1">  1        2 0.28164550E+00 0.11305489E+04</pdfrwt>
<pdfrwt beam="2">  1       -2 0.26852773E-01 0.11305489E+04</pdfrwt>
<totfact> 0.10359235E+02</totfact>
</mgrwt>
</event>
<event>
 4    1  0.9012200E-005  0.5671750E+03  0.7818608E-02  0.9975949E-01
          2   -1    0    0  501    0  0.00000000000E+00  0.00000000000E+00  0.71237848130E+03  0.71237848131E+03  0.25500000000E-02 0.  1.
         -2   -1    0    0    0  501 -0.00000000000E+00 -0.00000000000E+00 -0.11289207366E+03  0.11289207369E+03  0.25500000000E-02 0. -1.
    5000001    1    1    2    0    0  0.49806324596E+02  0.22513448371E+03  0.29168395266E+03  0.40678094100E+03  0.16500000000E+03 0.  0.
   -5000001    1    1    2    0    0 -0.49806324596E+02 -0.22513448371E+03  0.30780245499E+03  0.41848961399E+03  0.16500000000E+03 0.  0.
<mgrwt>
<rscale>  0 0.56717505E+03</rscale>
<asrwt>0</asrwt>
<pdfrwt beam="1">  1        2 0.10959669E+00 0.56717505E+03</pdfrwt>
<pdfrwt beam="2">  1       -2 0.17368011E-01 0.56717505E+03</pdfrwt>
<totfact> 0.10972174E+03</totfact>
</mgrwt>
</event>
<event>
 4    1  0.9012200E-005  0.6108579E+03  0.7818608E-02  0.9883132E-01
          2   -1    0    0  501    0  0.00000000000E+00  0.00000000000E+00  0.10637361832E+04  0.10637361832E+04  0.25500000000E-02 0.  1.
         -2   -1    0    0    0  501 -0.00000000000E+00 -0.00000000000E+00 -0.87697351387E+02  0.87697351425E+02  0.25500000000E-02 0. -1.
    5000001    1    1    2    0    0 -0.23752166044E+03  0.93302566283E+02  0.54580882243E+03  0.62470327252E+03  0.16500000000E+03 0.  0.
   -5000001    1    1    2    0    0  0.23752166044E+03 -0.93302566283E+02  0.43023000941E+03  0.52673026213E+03  0.16500000000E+03 0.  0.
<mgrwt>
<rscale>  0 0.61085791E+03</rscale>
<asrwt>0</asrwt>
<pdfrwt beam="1">  1        2 0.16365172E+00 0.61085791E+03</pdfrwt>
<pdfrwt beam="2">  1       -2 0.13491900E-01 0.61085791E+03</pdfrwt>
<totfact> 0.96969074E+02</totfact>
</mgrwt>
</event>
<event>
 4    1  0.9012200E-005  0.4907647E+03  0.7818608E-02  0.1016218E+00
          2   -1    0    0  501    0  0.00000000000E+00  0.00000000000E+00  0.41781717341E+03  0.41781717342E+03  0.25500000000E-02 0.  1.
         -2   -1    0    0    0  501 -0.00000000000E+00 -0.00000000000E+00 -0.14411205138E+03  0.14411205140E+03  0.25500000000E-02 0. -1.
    5000001    1    1    2    0    0  0.15153198963E+03  0.91258056493E+02  0.89677234786E+02  0.25798640118E+03  0.16500000000E+03 0.  0.
   -5000001    1    1    2    0    0 -0.15153198963E+03 -0.91258056493E+02  0.18402788724E+03  0.30394282364E+03  0.16500000000E+03 0.  0.
<mgrwt>
<rscale>  0 0.49076467E+03</rscale>
<asrwt>0</asrwt>
<pdfrwt beam="1">  1        2 0.64279565E-01 0.49076467E+03</pdfrwt>
<pdfrwt beam="2">  1       -2 0.22171085E-01 0.49076467E+03</pdfrwt>
<totfact> 0.13446388E+03</totfact>
</mgrwt>
</event>
<event>
 4    1  0.9012200E-005  0.5206731E+03  0.7818608E-02  0.1008519E+00
          2   -1    0    0  501    0  0.00000000000E+00  0.00000000000E+00  0.17833957964E+04  0.17833957964E+04  0.25500000000E-02 0.  1.
         -2   -1    0    0    0  501 -0.00000000000E+00 -0.00000000000E+00 -0.38003414346E+02  0.38003414432E+02  0.25500000000E-02 0. -1.
    5000001    1    1    2    0    0 -0.19976207091E+03 -0.41036096666E+01  0.96038814505E+03  0.99473218191E+03  0.16500000000E+03 0.  0.
   -5000001    1    1    2    0    0  0.19976207091E+03  0.41036096666E+01  0.78500423697E+03  0.82666702889E+03  0.16500000000E+03 0.  0.
<mgrwt>
<rscale>  0 0.52067314E+03</rscale>
<asrwt>0</asrwt>
<pdfrwt beam="1">  1        2 0.27436858E+00 0.52067314E+03</pdfrwt>
<pdfrwt beam="2">  1       -2 0.58466792E-02 0.52067314E+03</pdfrwt>
<totfact> 0.14660268E+03</totfact>
</mgrwt>
</event>
<event>
 4    1  0.9012200E-005  0.4406633E+03  0.7818608E-02  0.1030543E+00
         -2   -1    0    0    0  501 -0.00000000000E+00  0.00000000000E+00  0.63437338390E+02  0.63437338441E+02  0.25500000000E-02 0. -1.
          2   -1    0    0  501    0  0.00000000000E+00 -0.00000000000E+00 -0.76525965199E+03  0.76525965200E+03  0.25500000000E-02 0.  1.
    5000001    1    1    2    0    0  0.93950486952E+02 -0.63422804800E+02 -0.17781835058E+03  0.26775644151E+03  0.16500000000E+03 0.  0.
   -5000001    1    1    2    0    0 -0.93950486952E+02  0.63422804800E+02 -0.52400396302E+03  0.56094054893E+03  0.16500000000E+03 0.  0.
<mgrwt>
<rscale>  0 0.44066330E+03</rscale>
<asrwt>0</asrwt>
<pdfrwt beam="1">  1        2 0.11773225E+00 0.44066330E+03</pdfrwt>
<pdfrwt beam="2">  1       -2 0.97595910E-02 0.44066330E+03</pdfrwt>
<totfact> 0.26020050E+03</totfact>
</mgrwt>
</event>
<event>
 4    1  0.9012200E-005  0.4322078E+03  0.7818608E-02  0.1033165E+00
          2   -1    0    0  501    0  0.00000000000E+00  0.00000000000E+00  0.45581909720E+03  0.45581909721E+03  0.25500000000E-02 0.  1.
         -2   -1    0    0    0  501 -0.00000000000E+00 -0.00000000000E+00 -0.10245486834E+03  0.10245486837E+03  0.25500000000E-02 0. -1.
    5000001    1    1    2    0    0  0.26479451124E+02 -0.10563027944E+03  0.28941377306E+03  0.35049143970E+03  0.16500000000E+03 0.  0.
   -5000001    1    1    2    0    0 -0.26479451124E+02  0.10563027944E+03  0.63950455802E+02  0.20778252589E+03  0.16500000000E+03 0.  0.
<mgrwt>
<rscale>  0 0.43220775E+03</rscale>
<asrwt>0</asrwt>
<pdfrwt beam="1">  1        2 0.70126016E-01 0.43220775E+03</pdfrwt>
<pdfrwt beam="2">  1       -2 0.15762287E-01 0.43220775E+03</pdfrwt>
<totfact> 0.21904617E+03</totfact>
</mgrwt>
</event>
<event>
 4    1  0.9012200E-005  0.7297138E+03  0.7818608E-02  0.9667725E-01
         -2   -1    0    0    0  501 -0.00000000000E+00  0.00000000000E+00  0.60944617699E+02  0.60944617752E+02  0.25500000000E-02 0. -1.
          2   -1    0    0  501    0  0.00000000000E+00 -0.00000000000E+00 -0.21842872785E+04  0.21842872785E+04  0.25500000000E-02 0.  1.
    5000001    1    1    2    0    0 -0.22419036250E+03 -0.23460590697E+03 -0.98666246408E+03  0.10516791660E+04  0.16500000000E+03 0.  0.
   -5000001    1    1    2    0    0  0.22419036250E+03  0.23460590697E+03 -0.11366801967E+04  0.11935527303E+04  0.16500000000E+03 0.  0.
<mgrwt>
<rscale>  0 0.72971379E+03</rscale>
<asrwt>0</asrwt>
<pdfrwt beam="1">  1        2 0.33604414E+00 0.72971379E+03</pdfrwt>
<pdfrwt beam="2">  1       -2 0.93760967E-02 0.72971379E+03</pdfrwt>
<totfact> 0.41373111E+02</totfact>
</mgrwt>
</event>
<event>
 4    1  0.9012200E-005  0.7490027E+03  0.7818608E-02  0.9636916E-01
         -2   -1    0    0    0  501 -0.00000000000E+00  0.00000000000E+00  0.50755698640E+03  0.50755698641E+03  0.25500000000E-02 0. -1.
          2   -1    0    0  501    0  0.00000000000E+00 -0.00000000000E+00 -0.27632616364E+03  0.27632616365E+03  0.25500000000E-02 0.  1.
    5000001    1    1    2    0    0  0.31382065966E+03  0.10526015289E+03  0.17720463747E+03  0.41010924125E+03  0.16500000000E+03 0.  0.
   -5000001    1    1    2    0    0 -0.31382065966E+03 -0.10526015289E+03  0.54026185288E+02  0.37377390882E+03  0.16500000000E+03 0.  0.
<mgrwt>
<rscale>  0 0.74900274E+03</rscale>
<asrwt>0</asrwt>
<pdfrwt beam="1">  1        2 0.42511718E-01 0.74900274E+03</pdfrwt>
<pdfrwt beam="2">  1       -2 0.78085690E-01 0.74900274E+03</pdfrwt>
<totfact> 0.17721234E+02</totfact>
</mgrwt>
</event>
<event>
 4    1  0.9012200E-005  0.4140922E+03  0.7818608E-02  0.1039006E+00
         -2   -1    0    0    0  501 -0.00000000000E+00  0.00000000000E+00  0.47942198464E+02  0.47942198532E+02  0.25500000000E-02 0. -1.
          2   -1    0    0  501    0  0.00000000000E+00 -0.00000000000E+00 -0.89416191812E+03  0.89416191813E+03  0.25500000000E-02 0.  1.
    5000001    1    1    2    0    0  0.27911824237E+02 -0.99341258717E+02 -0.58390912182E+03  0.61548567665E+03  0.16500000000E+03 0.  0.
   -5000001    1    1    2    0    0 -0.27911824237E+02  0.99341258717E+02 -0.26231059784E+03  0.32661844001E+03  0.16500000000E+03 0.  0.
<mgrwt>
<rscale>  0 0.41409220E+03</rscale>
<asrwt>0</asrwt>
<pdfrwt beam="1">  1        2 0.13756336E+00 0.41409220E+03</pdfrwt>
<pdfrwt beam="2">  1       -2 0.73757235E-02 0.41409220E+03</pdfrwt>
<totfact> 0.33064270E+03</totfact>
</mgrwt>
</event>
<event>
 4    1  0.9012200E-005  0.5926510E+03  0.7818608E-02  0.9920771E-01
         -2   -1    0    0    0  501 -0.00000000000E+00  0.00000000000E+00  0.58204438305E+02  0.58204438361E+02  0.25500000000E-02 0. -1.
          2   -1    0    0  501    0  0.00000000000E+00 -0.00000000000E+00 -0.15086274289E+04  0.15086274289E+04  0.25500000000E-02 0.  1.
    5000001    1    1    2    0    0  0.22606124524E+03  0.20796150700E+02 -0.97668436699E+03  0.10162054513E+04  0.16500000000E+03 0.  0.
   -5000001    1    1    2    0    0 -0.22606124524E+03 -0.20796150700E+02 -0.47373862360E+03  0.55062641598E+03  0.16500000000E+03 0.  0.
<mgrwt>
<rscale>  0 0.59265103E+03</rscale>
<asrwt>0</asrwt>
<pdfrwt beam="1">  1        2 0.23209650E+00 0.59265103E+03</pdfrwt>
<pdfrwt beam="2">  1       -2 0.89545301E-02 0.59265103E+03</pdfrwt>
<totfact> 0.10501458E+03</totfact>
</mgrwt>
</event>
<event>
 4    1  0.9012200E-005  0.5883411E+03  0.7818608E-02  0.9929894E-01
          2   -1    0    0  501    0  0.00000000000E+00  0.00000000000E+00  0.45706537362E+03  0.45706537363E+03  0.25500000000E-02 0.  1.
         -2   -1    0    0    0  501 -0.00000000000E+00 -0.00000000000E+00 -0.18933030023E+03  0.18933030025E+03  0.25500000000E-02 0. -1.
    5000001    1    1    2    0    0  0.71508438906E+02 -0.20478609506E+03  0.25552078755E+03  0.37358623426E+03  0.16500000000E+03 0.  0.
   -5000001    1    1    2    0    0 -0.71508438906E+02  0.20478609506E+03  0.12214285844E+02  0.27280943961E+03  0.16500000000E+03 0.  0.
<mgrwt>
<rscale>  0 0.58834114E+03</rscale>
<asrwt>0</asrwt>
<pdfrwt beam="1">  1        2 0.70317749E-01 0.58834114E+03</pdfrwt>
<pdfrwt beam="2">  1       -2 0.29127739E-01 0.58834114E+03</pdfrwt>
<totfact> 0.74369293E+02</totfact>
</mgrwt>
</event>
<event>
 4    1  0.9012200E-005  0.3713154E+03  0.7818608E-02  0.1054191E+00
          2   -1    0    0  501    0  0.00000000000E+00  0.00000000000E+00  0.31437233296E+03  0.31437233297E+03  0.25500000000E-02 0.  1.
         -2   -1    0    0    0  501 -0.00000000000E+00 -0.00000000000E+00 -0.10964315146E+03  0.10964315149E+03  0.25500000000E-02 0. -1.
    5000001    1    1    2    0    0  0.33980885639E+02  0.77837443860E+02  0.10866127356E+03  0.21504799610E+03  0.16500000000E+03 0.  0.
   -5000001    1    1    2    0    0 -0.33980885639E+02 -0.77837443860E+02  0.96067907946E+02  0.20896748836E+03  0.16500000000E+03 0.  0.
<mgrwt>
<rscale>  0 0.37131536E+03</rscale>
<asrwt>0</asrwt>
<pdfrwt beam="1">  1        2 0.48364974E-01 0.37131536E+03</pdfrwt>
<pdfrwt beam="2">  1       -2 0.16868177E-01 0.37131536E+03</pdfrwt>
<totfact> 0.29356595E+03</totfact>
</mgrwt>
</event>
<event>
 4    1  0.9012200E-005  0.4055852E+03  0.7818608E-02  0.1041863E+00
         -2   -1    0    0    0  501 -0.00000000000E+00  0.00000000000E+00  0.43378141055E+02  0.43378141130E+02  0.25500000000E-02 0. -1.
          2   -1    0    0  501    0  0.00000000000E+00 -0.00000000000E+00 -0.94805450946E+03  0.94805450946E+03  0.25500000000E-02 0.  1.
    5000001    1    1    2    0    0 -0.24310496906E+02 -0.11223175150E+03 -0.51760434816E+03  0.55527130984E+03  0.16500000000E+03 0.  0.
   -5000001    1    1    2    0    0  0.24310496906E+02  0.11223175150E+03 -0.38707202025E+03  0.43616134075E+03  0.16500000000E+03 0.  0.
<mgrwt>
<rscale>  0 0.40558522E+03</rscale>
<asrwt>0</asrwt>
<pdfrwt beam="1">  1        2 0.14585452E+00 0.40558522E+03</pdfrwt>
<pdfrwt beam="2">  1       -2 0.66735609E-02 0.40558522E+03</pdfrwt>
<totfact> 0.35672887E+03</totfact>
</mgrwt>
</event>
<event>
 4    1  0.9012200E-005  0.7166478E+03  0.7818608E-02  0.9689178E-01
         -2   -1    0    0    0  501 -0.00000000000E+00  0.00000000000E+00  0.11449444445E+03  0.11449444448E+03  0.25500000000E-02 0. -1.
          2   -1    0    0  501    0  0.00000000000E+00 -0.00000000000E+00 -0.11214169013E+04  0.11214169013E+04  0.25500000000E-02 0.  1.
    5000001    1    1    2    0    0 -0.22510385534E+03  0.16511482637E+03 -0.24057638012E+03  0.40377796652E+03  0.16500000000E+03 0.  0.
   -5000001    1    1    2    0    0  0.22510385534E+03 -0.16511482637E+03 -0.76634607675E+03  0.83213337929E+03  0.16500000000E+03 0.  0.
<mgrwt>
<rscale>  0 0.71664777E+03</rscale>
<asrwt>0</asrwt>
<pdfrwt beam="1">  1        2 0.17252567E+00 0.71664777E+03</pdfrwt>
<pdfrwt beam="2">  1       -2 0.17614531E-01 0.71664777E+03</pdfrwt>
<totfact> 0.56707204E+02</totfact>
</mgrwt>
</event>
<event>
 4    1  0.9012200E-005  0.6124262E+03  0.7818608E-02  0.9879956E-01
          2   -1    0    0  501    0  0.00000000000E+00  0.00000000000E+00  0.28171196509E+03  0.28171196510E+03  0.25500000000E-02 0.  1.
         -2   -1    0    0    0  501 -0.00000000000E+00 -0.00000000000E+00 -0.33284510215E+03  0.33284510216E+03  0.25500000000E-02 0. -1.
    5000001    1    1    2    0    0  0.88904855728E+02  0.24185552345E+03 -0.13554948249E+02  0.30627912795E+03  0.16500000000E+03 0.  0.
   -5000001    1    1    2    0    0 -0.88904855728E+02 -0.24185552345E+03 -0.37578188816E+02  0.30827793932E+03  0.16500000000E+03 0.  0.
<mgrwt>
<rscale>  0 0.61242615E+03</rscale>
<asrwt>0</asrwt>
<pdfrwt beam="1">  1        2 0.43340302E-01 0.61242615E+03</pdfrwt>
<pdfrwt beam="2">  1       -2 0.51206939E-01 0.61242615E+03</pdfrwt>
<totfact> 0.42832077E+02</totfact>
</mgrwt>
</event>
<event>
 4    1  0.9012200E-005  0.7629790E+03  0.7818608E-02  0.9615206E-01
         -2   -1    0    0    0  501 -0.00000000000E+00  0.00000000000E+00  0.41714571150E+03  0.41714571151E+03  0.25500000000E-02 0. -1.
          2   -1    0    0  501    0  0.00000000000E+00 -0.00000000000E+00 -0.34888106625E+03  0.34888106626E+03  0.25500000000E-02 0.  1.
    5000001    1    1    2    0    0 -0.14781437886E+03 -0.31057325519E+03  0.36239079811E+02  0.38320113302E+03  0.16500000000E+03 0.  0.
   -5000001    1    1    2    0    0  0.14781437886E+03  0.31057325519E+03  0.32025565443E+02  0.38282564475E+03  0.16500000000E+03 0.  0.
<mgrwt>
<rscale>  0 0.76297901E+03</rscale>
<asrwt>0</asrwt>
<pdfrwt beam="1">  1        2 0.53674011E-01 0.76297901E+03</pdfrwt>
<pdfrwt beam="2">  1       -2 0.64176263E-01 0.76297901E+03</pdfrwt>
<totfact> 0.20991044E+02</totfact>
</mgrwt>
</event>
<event>
 4    1  0.9012200E-005  0.9612410E+03  0.7818608E-02  0.9352107E-01
          2   -1    0    0  501    0  0.00000000000E+00  0.00000000000E+00  0.10034526200E+04  0.10034526200E+04  0.25500000000E-02 0.  1.
         -2   -1    0    0    0  501 -0.00000000000E+00 -0.00000000000E+00 -0.23020126970E+03  0.23020126971E+03  0.25500000000E-02 0. -1.
    5000001    1    1    2    0    0 -0.31126825832E+03  0.32182716611E+02  0.80416863384E+03  0.87854188719E+03  0.16500000000E+03 0.  0.
   -5000001    1    1    2    0    0  0.31126825832E+03 -0.32182716611E+02 -0.30917283576E+02  0.35511200249E+03  0.16500000000E+03 0.  0.
<mgrwt>
<rscale>  0 0.96124100E+03</rscale>
<asrwt>0</asrwt>
<pdfrwt beam="1">  1        2 0.15437732E+00 0.96124100E+03</pdfrwt>
<pdfrwt beam="2">  1       -2 0.35415580E-01 0.96124100E+03</pdfrwt>
<totfact> 0.18749454E+02</totfact>
</mgrwt>
</event>
<event>
 4    1  0.9012200E-005  0.1021996E+04  0.7818608E-02  0.9284744E-01
          2   -1    0    0  501    0  0.00000000000E+00  0.00000000000E+00  0.81591358680E+03  0.81591358680E+03  0.25500000000E-02 0.  1.
         -2   -1    0    0    0  501 -0.00000000000E+00 -0.00000000000E+00 -0.32003248542E+03  0.32003248543E+03  0.25500000000E-02 0. -1.
    5000001    1    1    2    0    0  0.30327238135E+03  0.33234147617E+03  0.44511430336E+03  0.65404643346E+03  0.16500000000E+03 0.  0.
   -5000001    1    1    2    0    0 -0.30327238135E+03 -0.33234147617E+03  0.50766798020E+02  0.48189963877E+03  0.16500000000E+03 0.  0.
<mgrwt>
<rscale>  0 0.10219958E+04</rscale>
<asrwt>0</asrwt>
<pdfrwt beam="1">  1        2 0.12552517E+00 0.10219958E+04</pdfrwt>
<pdfrwt beam="2">  1       -2 0.49235767E-01 0.10219958E+04</pdfrwt>
<totfact> 0.13064203E+02</totfact>
</mgrwt>
</event>
<event>
 4    1  0.9012200E-005  0.4267776E+03  0.7818608E-02  0.1034883E+00
         -2   -1    0    0    0  501 -0.00000000000E+00  0.00000000000E+00  0.19806254269E+03  0.19806254271E+03  0.25500000000E-02 0. -1.
          2   -1    0    0  501    0  0.00000000000E+00 -0.00000000000E+00 -0.22990104851E+03  0.22990104853E+03  0.25500000000E-02 0.  1.
    5000001    1    1    2    0    0  0.15314946686E+02 -0.12959130024E+03 -0.51814444502E+02  0.21665223135E+03  0.16500000000E+03 0.  0.
   -5000001    1    1    2    0    0 -0.15314946686E+02  0.12959130024E+03  0.19975938680E+02  0.21131135989E+03  0.16500000000E+03 0.  0.
<mgrwt>
<rscale>  0 0.42677763E+03</rscale>
<asrwt>0</asrwt>
<pdfrwt beam="1">  1        2 0.35369392E-01 0.42677763E+03</pdfrwt>
<pdfrwt beam="2">  1       -2 0.30471160E-01 0.42677763E+03</pdfrwt>
<totfact> 0.14637162E+03</totfact>
</mgrwt>
</event>
<event>
 4    1  0.9012200E-005  0.6495396E+03  0.7818608E-02  0.9807643E-01
          2   -1    0    0  501    0  0.00000000000E+00  0.00000000000E+00  0.12039830182E+04  0.12039830182E+04  0.25500000000E-02 0.  1.
         -2   -1    0    0    0  501 -0.00000000000E+00 -0.00000000000E+00 -0.87605414823E+02  0.87605414860E+02  0.25500000000E-02 0. -1.
    5000001    1    1    2    0    0  0.10333442063E+03  0.17376699362E+03  0.94262422221E+03  0.97807893079E+03  0.16500000000E+03 0.  0.
   -5000001    1    1    2    0    0 -0.10333442063E+03 -0.17376699362E+03  0.17375338120E+03  0.31350950231E+03  0.16500000000E+03 0.  0.
<mgrwt>
<rscale>  0 0.64953963E+03</rscale>
<asrwt>0</asrwt>
<pdfrwt beam="1">  1        2 0.18522815E+00 0.64953963E+03</pdfrwt>
<pdfrwt beam="2">  1       -2 0.13477756E-01 0.64953963E+03</pdfrwt>
<totfact> 0.79887314E+02</totfact>
</mgrwt>
</event>
<event>
 4    1  0.9012200E-005  0.7429731E+03  0.7818608E-02  0.9646439E-01
          2   -1    0    0  501    0  0.00000000000E+00  0.00000000000E+00  0.85665918832E+03  0.85665918833E+03  0.25500000000E-02 0.  1.
         -2   -1    0    0    0  501 -0.00000000000E+00 -0.00000000000E+00 -0.16109355288E+03  0.16109355290E+03  0.25500000000E-02 0. -1.
    5000001    1    1    2    0    0  0.10527055305E+03  0.24463823443E+03  0.62122770008E+03  0.69575758022E+03  0.16500000000E+03 0.  0.
   -5000001    1    1    2    0    0 -0.10527055305E+03 -0.24463823443E+03  0.74337935357E+02  0.32199516101E+03  0.16500000000E+03 0.  0.
<mgrwt>
<rscale>  0 0.74297314E+03</rscale>
<asrwt>0</asrwt>
<pdfrwt beam="1">  1        2 0.13179372E+00 0.74297314E+03</pdfrwt>
<pdfrwt beam="2">  1       -2 0.24783623E-01 0.74297314E+03</pdfrwt>
<totfact> 0.45978141E+02</totfact>
</mgrwt>
</event>
<event>
 4    1  0.9012200E-005  0.3848676E+03  0.7818608E-02  0.1049149E+00
         -2   -1    0    0    0  501 -0.00000000000E+00  0.00000000000E+00  0.14353156080E+02  0.14353156306E+02  0.25500000000E-02 0. -1.
          2   -1    0    0  501    0  0.00000000000E+00 -0.00000000000E+00 -0.25799733743E+04  0.25799733743E+04  0.25500000000E-02 0.  1.
    5000001    1    1    2    0    0  0.70189381445E+02 -0.69666835467E+02 -0.12486083969E+04  0.12633399962E+04  0.16500000000E+03 0.  0.
   -5000001    1    1    2    0    0 -0.70189381445E+02  0.69666835467E+02 -0.13170118213E+04  0.13309865344E+04  0.16500000000E+03 0.  0.
<mgrwt>
<rscale>  0 0.38486757E+03</rscale>
<asrwt>0</asrwt>
<pdfrwt beam="1">  1        2 0.39691861E+00 0.38486757E+03</pdfrwt>
<pdfrwt beam="2">  1       -2 0.22081799E-02 0.38486757E+03</pdfrwt>
<totfact> 0.23976585E+03</totfact>
</mgrwt>
</event>
<event>
 4    1  0.9012200E-005  0.4899970E+03  0.7818608E-02  0.1016423E+00
          2   -1    0    0  501    0  0.00000000000E+00  0.00000000000E+00  0.35669287224E+02  0.35669287315E+02  0.25500000000E-02 0.  1.
         -2   -1    0    0    0  501 -0.00000000000E+00 -0.00000000000E+00 -0.16827994309E+04  0.16827994309E+04  0.25500000000E-02 0. -1.
    5000001    1    1    2    0    0  0.17714632536E+03 -0.31655886161E+02 -0.75200469382E+03  0.79064465801E+03  0.16500000000E+03 0.  0.
   -5000001    1    1    2    0    0 -0.17714632536E+03  0.31655886161E+02 -0.89512544987E+03  0.92782406022E+03  0.16500000000E+03 0.  0.
<mgrwt>
<rscale>  0 0.48999696E+03</rscale>
<asrwt>0</asrwt>
<pdfrwt beam="1">  1        2 0.54875840E-02 0.48999696E+03</pdfrwt>
<pdfrwt beam="2">  1       -2 0.25889216E+00 0.48999696E+03</pdfrwt>
<totfact> 0.86771892E+01</totfact>
</mgrwt>
</event>
<event>
 4    1  0.9012200E-005  0.5360985E+03  0.7818608E-02  0.1004764E+00
         -2   -1    0    0    0  501 -0.00000000000E+00  0.00000000000E+00  0.14793552715E+03  0.14793552717E+03  0.25500000000E-02 0. -1.
          2   -1    0    0  501    0  0.00000000000E+00 -0.00000000000E+00 -0.48568728247E+03  0.48568728248E+03  0.25500000000E-02 0.  1.
    5000001    1    1    2    0    0  0.18077231190E+03 -0.10626770008E+03 -0.13865139215E+03  0.30070028496E+03  0.16500000000E+03 0.  0.
   -5000001    1    1    2    0    0 -0.18077231190E+03  0.10626770008E+03 -0.19910036317E+03  0.33292252469E+03  0.16500000000E+03 0.  0.
<mgrwt>
<rscale>  0 0.53609851E+03</rscale>
<asrwt>0</asrwt>
<pdfrwt beam="1">  1        2 0.74721119E-01 0.53609851E+03</pdfrwt>
<pdfrwt beam="2">  1       -2 0.22759312E-01 0.53609851E+03</pdfrwt>
<totfact> 0.10832466E+03</totfact>
</mgrwt>
</event>
<event>
 4    1  0.9012200E-005  0.5072022E+03  0.7818608E-02  0.1011916E+00
         -2   -1    0    0    0  501 -0.00000000000E+00  0.00000000000E+00  0.52440236090E+03  0.52440236090E+03  0.25500000000E-02 0. -1.
          2   -1    0    0  501    0  0.00000000000E+00 -0.00000000000E+00 -0.12264157156E+03  0.12264157159E+03  0.25500000000E-02 0.  1.
    5000001    1    1    2    0    0  0.13819915401E+03  0.80140769268E+02  0.63677711511E+02  0.23833044290E+03  0.16500000000E+03 0.  0.
   -5000001    1    1    2    0    0 -0.13819915401E+03 -0.80140769268E+02  0.33808307782E+03  0.40871348959E+03  0.16500000000E+03 0.  0.
<mgrwt>
<rscale>  0 0.50720225E+03</rscale>
<asrwt>0</asrwt>
<pdfrwt beam="1">  1        2 0.18867934E-01 0.50720225E+03</pdfrwt>
<pdfrwt beam="2">  1       -2 0.80677288E-01 0.50720225E+03</pdfrwt>
<totfact> 0.41692956E+02</totfact>
</mgrwt>
</event>
<event>
 4    1  0.9012200E-005  0.9599472E+03  0.7818608E-02  0.9353599E-01
          2   -1    0    0  501    0  0.00000000000E+00  0.00000000000E+00  0.16736029498E+04  0.16736029498E+04  0.25500000000E-02 0.  1.
         -2   -1    0    0    0  501 -0.00000000000E+00 -0.00000000000E+00 -0.13765192696E+03  0.13765192699E+03  0.25500000000E-02 0. -1.
    5000001    1    1    2    0    0 -0.64166459266E+02 -0.40473733462E+03  0.11220764251E+04  0.12059063597E+04  0.16500000000E+03 0.  0.
   -5000001    1    1    2    0    0  0.64166459266E+02  0.40473733462E+03  0.41387459774E+03  0.60534851713E+03  0.16500000000E+03 0.  0.
<mgrwt>
<rscale>  0 0.95994723E+03</rscale>
<asrwt>0</asrwt>
<pdfrwt beam="1">  1        2 0.25747739E+00 0.95994723E+03</pdfrwt>
<pdfrwt beam="2">  1       -2 0.21177218E-01 0.95994723E+03</pdfrwt>
<totfact> 0.19619497E+02</totfact>
</mgrwt>
</event>
<event>
 4    1  0.9012200E-005  0.4242179E+03  0.7818608E-02  0.1035702E+00
         -2   -1    0    0    0  501 -0.00000000000E+00  0.00000000000E+00  0.51030726290E+02  0.51030726353E+02  0.25500000000E-02 0. -1.
          2   -1    0    0  501    0  0.00000000000E+00 -0.00000000000E+00 -0.88162984291E+03  0.88162984292E+03  0.25500000000E-02 0.  1.
    5000001    1    1    2    0    0  0.75796636520E+02 -0.46766862249E+02 -0.19728959743E+03  0.27217724880E+03  0.16500000000E+03 0.  0.
   -5000001    1    1    2    0    0 -0.75796636520E+02  0.46766862249E+02 -0.63330951919E+03  0.66048332047E+03  0.16500000000E+03 0.  0.
<mgrwt>
<rscale>  0 0.42421792E+03</rscale>
<asrwt>0</asrwt>
<pdfrwt beam="1">  1        2 0.13563535E+00 0.42421792E+03</pdfrwt>
<pdfrwt beam="2">  1       -2 0.78508816E-02 0.42421792E+03</pdfrwt>
<totfact> 0.30550286E+03</totfact>
</mgrwt>
</event>
<event>
 4    1  0.9012200E-005  0.4465848E+03  0.7818608E-02  0.1028745E+00
          2   -1    0    0  501    0  0.00000000000E+00  0.00000000000E+00  0.16603669461E+04  0.16603669461E+04  0.25500000000E-02 0.  1.
         -2   -1    0    0    0  501 -0.00000000000E+00 -0.00000000000E+00 -0.30029208592E+02  0.30029208701E+02  0.25500000000E-02 0. -1.
    5000001    1    1    2    0    0 -0.25677829415E+02 -0.38729329884E+02  0.27354408954E+03  0.32281679145E+03  0.16500000000E+03 0.  0.
   -5000001    1    1    2    0    0  0.25677829415E+02  0.38729329884E+02  0.13567936480E+04  0.13675793634E+04  0.16500000000E+03 0.  0.
<mgrwt>
<rscale>  0 0.44658484E+03</rscale>
<asrwt>0</asrwt>
<pdfrwt beam="1">  1        2 0.25544109E+00 0.44658484E+03</pdfrwt>
<pdfrwt beam="2">  1       -2 0.46198779E-02 0.44658484E+03</pdfrwt>
<totfact> 0.24654599E+03</totfact>
</mgrwt>
</event>
<event>
 4    1  0.9012200E-005  0.9957096E+03  0.7818608E-02  0.9313263E-01
         -2   -1    0    0    0  501 -0.00000000000E+00  0.00000000000E+00  0.18141452299E+03  0.18141452301E+03  0.25500000000E-02 0. -1.
          2   -1    0    0  501    0  0.00000000000E+00 -0.00000000000E+00 -0.13662598867E+04  0.13662598867E+04  0.25500000000E-02 0.  1.
    5000001    1    1    2    0    0 -0.27598806601E+02 -0.38929070306E+03 -0.18613080417E+03  0.46279436241E+03  0.16500000000E+03 0.  0.
   -5000001    1    1    2    0    0  0.27598806601E+02  0.38929070306E+03 -0.99871455952E+03  0.10848800473E+04  0.16500000000E+03 0.  0.
<mgrwt>
<rscale>  0 0.99570957E+03</rscale>
<asrwt>0</asrwt>
<pdfrwt beam="1">  1        2 0.21019382E+00 0.99570957E+03</pdfrwt>
<pdfrwt beam="2">  1       -2 0.27909927E-01 0.99570957E+03</pdfrwt>
<totfact> 0.17696196E+02</totfact>
</mgrwt>
</event>
<event>
 4    1  0.9012200E-005  0.4893658E+03  0.7818608E-02  0.1016592E+00
         -2   -1    0    0    0  501 -0.00000000000E+00  0.00000000000E+00  0.29085132744E+04  0.29085132744E+04  0.25500000000E-02 0. -1.
          2   -1    0    0  501    0  0.00000000000E+00 -0.00000000000E+00 -0.20584306092E+02  0.20584306249E+02  0.25500000000E-02 0.  1.
    5000001    1    1    2    0    0  0.18238962976E+02  0.17101268643E+03  0.11124993090E+04  0.11377423747E+04  0.16500000000E+03 0.  0.
   -5000001    1    1    2    0    0 -0.18238962976E+02 -0.17101268643E+03  0.17754296594E+04  0.17913552060E+04  0.16500000000E+03 0.  0.
<mgrwt>
<rscale>  0 0.48936583E+03</rscale>
<asrwt>0</asrwt>
<pdfrwt beam="1">  1        2 0.31668179E-02 0.48936583E+03</pdfrwt>
<pdfrwt beam="2">  1       -2 0.44746336E+00 0.48936583E+03</pdfrwt>
<totfact> 0.12371568E+01</totfact>
</mgrwt>
</event>
<event>
 4    1  0.9012200E-005  0.5315423E+03  0.7818608E-02  0.1005859E+00
         -2   -1    0    0    0  501 -0.00000000000E+00  0.00000000000E+00  0.10132641167E+03  0.10132641171E+03  0.25500000000E-02 0. -1.
          2   -1    0    0  501    0  0.00000000000E+00 -0.00000000000E+00 -0.69709679202E+03  0.69709679203E+03  0.25500000000E-02 0.  1.
    5000001    1    1    2    0    0 -0.63081860885E+02 -0.19385381505E+03 -0.23326584383E+03  0.35099369891E+03  0.16500000000E+03 0.  0.
   -5000001    1    1    2    0    0  0.63081860885E+02  0.19385381505E+03 -0.36250453652E+03  0.44742950482E+03  0.16500000000E+03 0.  0.
<mgrwt>
<rscale>  0 0.53154235E+03</rscale>
<asrwt>0</asrwt>
<pdfrwt beam="1">  1        2 0.10724566E+00 0.53154235E+03</pdfrwt>
<pdfrwt beam="2">  1       -2 0.15588679E-01 0.53154235E+03</pdfrwt>
<totfact> 0.13551325E+03</totfact>
</mgrwt>
</event>
<event>
 4    1  0.9012200E-005  0.3952686E+03  0.7818608E-02  0.1045430E+00
         -2   -1    0    0    0  501 -0.00000000000E+00  0.00000000000E+00  0.38884871411E+02  0.38884871495E+02  0.25500000000E-02 0. -1.
          2   -1    0    0  501    0  0.00000000000E+00 -0.00000000000E+00 -0.10044860923E+04  0.10044860923E+04  0.25500000000E-02 0.  1.
    5000001    1    1    2    0    0  0.23599141621E+02  0.55556929956E+02 -0.72169731591E+03  0.74277554331E+03  0.16500000000E+03 0.  0.
   -5000001    1    1    2    0    0 -0.23599141621E+02 -0.55556929956E+02 -0.24390390497E+03  0.30059542047E+03  0.16500000000E+03 0.  0.
<mgrwt>
<rscale>  0 0.39526858E+03</rscale>
<asrwt>0</asrwt>
<pdfrwt beam="1">  1        2 0.15453630E+00 0.39526858E+03</pdfrwt>
<pdfrwt beam="2">  1       -2 0.59822887E-02 0.39526858E+03</pdfrwt>
<totfact> 0.38954437E+03</totfact>
</mgrwt>
</event>
<event>
 4    1  0.9012200E-005  0.6257378E+03  0.7818608E-02  0.9853402E-01
         -2   -1    0    0    0  501 -0.00000000000E+00  0.00000000000E+00  0.12247185420E+04  0.12247185420E+04  0.25500000000E-02 0. -1.
          2   -1    0    0  501    0  0.00000000000E+00 -0.00000000000E+00 -0.79926087885E+02  0.79926087926E+02  0.25500000000E-02 0.  1.
    5000001    1    1    2    0    0  0.50545341050E+01 -0.22502157181E+03  0.27752436810E+03  0.39357976445E+03  0.16500000000E+03 0.  0.
   -5000001    1    1    2    0    0 -0.50545341050E+01  0.22502157181E+03  0.86726808606E+03  0.91106486553E+03  0.16500000000E+03 0.  0.
<mgrwt>
<rscale>  0 0.62573784E+03</rscale>
<asrwt>0</asrwt>
<pdfrwt beam="1">  1        2 0.12296322E-01 0.62573784E+03</pdfrwt>
<pdfrwt beam="2">  1       -2 0.18841823E+00 0.62573784E+03</pdfrwt>
<totfact> 0.83158493E+01</totfact>
</mgrwt>
</event>
<event>
 4    1  0.9012200E-005  0.4548945E+03  0.7818608E-02  0.1026272E+00
          2   -1    0    0  501    0  0.00000000000E+00  0.00000000000E+00  0.24200202737E+04  0.24200202737E+04  0.25500000000E-02 0.  1.
         -2   -1    0    0    0  501 -0.00000000000E+00 -0.00000000000E+00 -0.21376787039E+02  0.21376787191E+02  0.25500000000E-02 0. -1.
    5000001    1    1    2    0    0 -0.46330481469E+02 -0.14762462852E+03  0.13271987347E+04  0.13463361489E+04  0.16500000000E+03 0.  0.
   -5000001    1    1    2    0    0  0.46330481469E+02  0.14762462852E+03  0.10714447520E+04  0.10950609120E+04  0.16500000000E+03 0.  0.
<mgrwt>
<rscale>  0 0.45489453E+03</rscale>
<asrwt>0</asrwt>
<pdfrwt beam="1">  1        2 0.37231054E+00 0.45489453E+03</pdfrwt>
<pdfrwt beam="2">  1       -2 0.32887389E-02 0.45489453E+03</pdfrwt>
<totfact> 0.16092732E+03</totfact>
</mgrwt>
</event>
<event>
 4    1  0.9012200E-005  0.6969391E+03  0.7818608E-02  0.9722481E-01
         -2   -1    0    0    0  501 -0.00000000000E+00  0.00000000000E+00  0.23707063040E+03  0.23707063041E+03  0.25500000000E-02 0. -1.
          2   -1    0    0  501    0  0.00000000000E+00 -0.00000000000E+00 -0.51221462344E+03  0.51221462345E+03  0.25500000000E-02 0.  1.
    5000001    1    1    2    0    0 -0.18811089355E+03  0.59860899115E+02  0.11510598558E+03  0.28185709753E+03  0.16500000000E+03 0.  0.
   -5000001    1    1    2    0    0  0.18811089355E+03 -0.59860899115E+02 -0.39024997863E+03  0.46742815633E+03  0.16500000000E+03 0.  0.
<mgrwt>
<rscale>  0 0.69693915E+03</rscale>
<asrwt>0</asrwt>
<pdfrwt beam="1">  1        2 0.78802249E-01 0.69693915E+03</pdfrwt>
<pdfrwt beam="2">  1       -2 0.36472405E-01 0.69693915E+03</pdfrwt>
<totfact> 0.42683133E+02</totfact>
</mgrwt>
</event>
<event>
 4    1  0.9012200E-005  0.6334940E+03  0.7818608E-02  0.9838254E-01
         -2   -1    0    0    0  501 -0.00000000000E+00  0.00000000000E+00  0.30189362593E+02  0.30189362700E+02  0.25500000000E-02 0. -1.
          2   -1    0    0  501    0  0.00000000000E+00 -0.00000000000E+00 -0.33233118155E+04  0.33233118155E+04  0.25500000000E-02 0.  1.
    5000001    1    1    2    0    0 -0.14000425195E+03  0.32519754793E+02 -0.28588546478E+04  0.28672170519E+04  0.16500000000E+03 0.  0.
   -5000001    1    1    2    0    0  0.14000425195E+03 -0.32519754793E+02 -0.43426780510E+03  0.48628412637E+03  0.16500000000E+03 0.  0.
<mgrwt>
<rscale>  0 0.63349401E+03</rscale>
<asrwt>0</asrwt>
<pdfrwt beam="1">  1        2 0.51127845E+00 0.63349401E+03</pdfrwt>
<pdfrwt beam="2">  1       -2 0.46445199E-02 0.63349401E+03</pdfrwt>
<totfact> 0.26971698E+02</totfact>
</mgrwt>
</event>
<event>
 4    1  0.9012200E-005  0.4218612E+03  0.7818608E-02  0.1036462E+00
         -2   -1    0    0    0  501 -0.00000000000E+00  0.00000000000E+00  0.28990796772E+02  0.28990796885E+02  0.25500000000E-02 0. -1.
          2   -1    0    0  501    0  0.00000000000E+00 -0.00000000000E+00 -0.15346839510E+04  0.15346839510E+04  0.25500000000E-02 0.  1.
    5000001    1    1    2    0    0  0.21169889806E+02 -0.89655918131E+02 -0.40552392868E+03  0.44739356793E+03  0.16500000000E+03 0.  0.
   -5000001    1    1    2    0    0 -0.21169889806E+02  0.89655918131E+02 -0.11001692256E+04  0.11162811800E+04  0.16500000000E+03 0.  0.
<mgrwt>
<rscale>  0 0.42186116E+03</rscale>
<asrwt>0</asrwt>
<pdfrwt beam="1">  1        2 0.23610516E+00 0.42186116E+03</pdfrwt>
<pdfrwt beam="2">  1       -2 0.44601238E-02 0.42186116E+03</pdfrwt>
<totfact> 0.30443592E+03</totfact>
</mgrwt>
</event>
<event>
 4    1  0.9012200E-005  0.7163570E+03  0.7818608E-02  0.9689661E-01
         -2   -1    0    0    0  501 -0.00000000000E+00  0.00000000000E+00  0.68520744751E+02  0.68520744798E+02  0.25500000000E-02 0. -1.
          2   -1    0    0  501    0  0.00000000000E+00 -0.00000000000E+00 -0.18723067304E+04  0.18723067304E+04  0.25500000000E-02 0.  1.
    5000001    1    1    2    0    0 -0.14295961731E+02 -0.31744514250E+03 -0.92774640622E+03  0.99444164599E+03  0.16500000000E+03 0.  0.
   -5000001    1    1    2    0    0  0.14295961731E+02  0.31744514250E+03 -0.87603957946E+03  0.94638582925E+03  0.16500000000E+03 0.  0.
<mgrwt>
<rscale>  0 0.71635704E+03</rscale>
<asrwt>0</asrwt>
<pdfrwt beam="1">  1        2 0.28804715E+00 0.71635704E+03</pdfrwt>
<pdfrwt beam="2">  1       -2 0.10541654E-01 0.71635704E+03</pdfrwt>
<totfact> 0.50669384E+02</totfact>
</mgrwt>
</event>
<event>
 4    1  0.9012200E-005  0.4094163E+03  0.7818608E-02  0.1040567E+00
         -2   -1    0    0    0  501 -0.00000000000E+00  0.00000000000E+00  0.62735969050E+02  0.62735969102E+02  0.25500000000E-02 0. -1.
          2   -1    0    0  501    0  0.00000000000E+00 -0.00000000000E+00 -0.66796499689E+03  0.66796499690E+03  0.25500000000E-02 0.  1.
    5000001    1    1    2    0    0 -0.43200359605E+02 -0.88948051688E+02 -0.42757683855E+03  0.46885496674E+03  0.16500000000E+03 0.  0.
   -5000001    1    1    2    0    0  0.43200359605E+02  0.88948051688E+02 -0.17765218929E+03  0.26184599926E+03  0.16500000000E+03 0.  0.
<mgrwt>
<rscale>  0 0.40941632E+03</rscale>
<asrwt>0</asrwt>
<pdfrwt beam="1">  1        2 0.10276384E+00 0.40941632E+03</pdfrwt>
<pdfrwt beam="2">  1       -2 0.96516880E-02 0.40941632E+03</pdfrwt>
<totfact> 0.31358918E+03</totfact>
</mgrwt>
</event>
<event>
 4    1  0.9012200E-005  0.8901702E+03  0.7818608E-02  0.9437953E-01
         -2   -1    0    0    0  501 -0.00000000000E+00  0.00000000000E+00  0.10159862865E+03  0.10159862868E+03  0.25500000000E-02 0. -1.
          2   -1    0    0  501    0  0.00000000000E+00 -0.00000000000E+00 -0.19498367518E+04  0.19498367518E+04  0.25500000000E-02 0.  1.
    5000001    1    1    2    0    0  0.28380030121E+03 -0.21999131872E+03 -0.13960551749E+04  0.14509079374E+04  0.16500000000E+03 0.  0.
   -5000001    1    1    2    0    0 -0.28380030121E+03  0.21999131872E+03 -0.45218294826E+03  0.60052744315E+03  0.16500000000E+03 0.  0.
<mgrwt>
<rscale>  0 0.89017019E+03</rscale>
<asrwt>0</asrwt>
<pdfrwt beam="1">  1        2 0.29997486E+00 0.89017019E+03</pdfrwt>
<pdfrwt beam="2">  1       -2 0.15630560E-01 0.89017019E+03</pdfrwt>
<totfact> 0.23544899E+02</totfact>
</mgrwt>
</event>
<event>
 4    1  0.9012200E-005  0.4008421E+03  0.7818608E-02  0.1043488E+00
          2   -1    0    0  501    0  0.00000000000E+00  0.00000000000E+00  0.86864897074E+03  0.86864897074E+03  0.25500000000E-02 0. -1.
         -2   -1    0    0    0  501 -0.00000000000E+00 -0.00000000000E+00 -0.46242621013E+02  0.46242621083E+02  0.25500000000E-02 0.  1.
    5000001    1    1    2    0    0 -0.10437655721E+03  0.38689244295E+02  0.35756467104E+03  0.40922954109E+03  0.16500000000E+03 0.  0.
   -5000001    1    1    2    0    0  0.10437655721E+03 -0.38689244295E+02  0.46484167868E+03  0.50566205074E+03  0.16500000000E+03 0.  0.
<mgrwt>
<rscale>  0 0.40084214E+03</rscale>
<asrwt>0</asrwt>
<pdfrwt beam="1">  1        2 0.13363830E+00 0.40084214E+03</pdfrwt>
<pdfrwt beam="2">  1       -2 0.71142497E-02 0.40084214E+03</pdfrwt>
<totfact> 0.36374555E+03</totfact>
</mgrwt>
</event>
<event>
 4    1  0.9012200E-005  0.5658262E+03  0.7818608E-02  0.9978957E-01
         -2   -1    0    0    0  501 -0.00000000000E+00  0.00000000000E+00  0.12968876062E+03  0.12968876065E+03  0.25500000000E-02 0. -1.
          2   -1    0    0  501    0  0.00000000000E+00 -0.00000000000E+00 -0.61716850516E+03  0.61716850517E+03  0.25500000000E-02 0.  1.
    5000001    1    1    2    0    0  0.78496707272E+02 -0.78403589105E+02 -0.50939245728E+03  0.54682221184E+03  0.16500000000E+03 0.  0.
   -5000001    1    1    2    0    0 -0.78496707272E+02  0.78403589105E+02  0.21912712740E+02  0.20003505397E+03  0.16500000000E+03 0.  0.
<mgrwt>
<rscale>  0 0.56582619E+03</rscale>
<asrwt>0</asrwt>
<pdfrwt beam="1">  1        2 0.94948999E-01 0.56582619E+03</pdfrwt>
<pdfrwt beam="2">  1       -2 0.19952117E-01 0.56582619E+03</pdfrwt>
<totfact> 0.10304925E+03</totfact>
</mgrwt>
</event>
<event>
 4    1  0.9012200E-005  0.5663540E+03  0.7818608E-02  0.9977779E-01
         -2   -1    0    0    0  501 -0.00000000000E+00  0.00000000000E+00  0.52475230061E+02  0.52475230123E+02  0.25500000000E-02 0. -1.
          2   -1    0    0  501    0  0.00000000000E+00 -0.00000000000E+00 -0.15281347946E+04  0.15281347946E+04  0.25500000000E-02 0.  1.
    5000001    1    1    2    0    0 -0.17323742690E+03  0.11118792332E+03 -0.10250335506E+04  0.10584388222E+04  0.16500000000E+03 0.  0.
   -5000001    1    1    2    0    0  0.17323742690E+03 -0.11118792332E+03 -0.45062601396E+03  0.52217120260E+03  0.16500000000E+03 0.  0.
<mgrwt>
<rscale>  0 0.56635404E+03</rscale>
<asrwt>0</asrwt>
<pdfrwt beam="1">  1        2 0.23509763E+00 0.56635404E+03</pdfrwt>
<pdfrwt beam="2">  1       -2 0.80731135E-02 0.56635404E+03</pdfrwt>
<totfact> 0.12106721E+03</totfact>
</mgrwt>
</event>
<event>
 4    1  0.9012200E-005  0.7950242E+03  0.7818608E-02  0.9567247E-01
         -2   -1    0    0    0  501 -0.00000000000E+00  0.00000000000E+00  0.36800339800E+03  0.36800339801E+03  0.25500000000E-02 0. -1.
          2   -1    0    0  501    0  0.00000000000E+00 -0.00000000000E+00 -0.42938702315E+03  0.42938702315E+03  0.25500000000E-02 0.  1.
    5000001    1    1    2    0    0 -0.30588885495E+03 -0.12011425998E+03 -0.18212281386E+03  0.41035246601E+03  0.16500000000E+03 0.  0.
   -5000001    1    1    2    0    0  0.30588885495E+03  0.12011425998E+03  0.12073918871E+03  0.38703795515E+03  0.16500000000E+03 0.  0.
<mgrwt>
<rscale>  0 0.79502424E+03</rscale>
<asrwt>0</asrwt>
<pdfrwt beam="1">  1        2 0.66059542E-01 0.79502424E+03</pdfrwt>
<pdfrwt beam="2">  1       -2 0.56615908E-01 0.79502424E+03</pdfrwt>
<totfact> 0.21638116E+02</totfact>
</mgrwt>
</event>
<event>
 4    1  0.9012200E-005  0.6316966E+03  0.7818608E-02  0.9841744E-01
          2   -1    0    0  501    0  0.00000000000E+00  0.00000000000E+00  0.16838410589E+04  0.16838410590E+04  0.25500000000E-02 0.  1.
         -2   -1    0    0    0  501 -0.00000000000E+00 -0.00000000000E+00 -0.59245585845E+02  0.59245585900E+02  0.25500000000E-02 0. -1.
    5000001    1    1    2    0    0  0.11774342854E+03  0.23330764863E+03  0.99195764174E+03  0.10389903449E+04  0.16500000000E+03 0.  0.
   -5000001    1    1    2    0    0 -0.11774342854E+03 -0.23330764863E+03  0.63263783137E+03  0.70409629991E+03  0.16500000000E+03 0.  0.
<mgrwt>
<rscale>  0 0.63169660E+03</rscale>
<asrwt>0</asrwt>
<pdfrwt beam="1">  1        2 0.25905248E+00 0.63169660E+03</pdfrwt>
<pdfrwt beam="2">  1       -2 0.91147054E-02 0.63169660E+03</pdfrwt>
<totfact> 0.81665444E+02</totfact>
</mgrwt>
</event>
<event>
 4    1  0.9012200E-005  0.5029253E+03  0.7818608E-02  0.1013018E+00
         -2   -1    0    0    0  501 -0.00000000000E+00  0.00000000000E+00  0.34656723624E+02  0.34656723718E+02  0.25500000000E-02 0. -1.
          2   -1    0    0  501    0  0.00000000000E+00 -0.00000000000E+00 -0.18245657356E+04  0.18245657356E+04  0.25500000000E-02 0.  1.
    5000001    1    1    2    0    0  0.46297734178E+02  0.18302025017E+03 -0.82398157026E+03  0.86128422735E+03  0.16500000000E+03 0.  0.
   -5000001    1    1    2    0    0 -0.46297734178E+02 -0.18302025017E+03 -0.96592744173E+03  0.99793823198E+03  0.16500000000E+03 0.  0.
<mgrwt>
<rscale>  0 0.50292532E+03</rscale>
<asrwt>0</asrwt>
<pdfrwt beam="1">  1        2 0.28070235E+00 0.50292532E+03</pdfrwt>
<pdfrwt beam="2">  1       -2 0.53318050E-02 0.50292532E+03</pdfrwt>
<totfact> 0.16091886E+03</totfact>
</mgrwt>
</event>
<event>
 4    1  0.9012200E-005  0.8810381E+03  0.7818608E-02  0.9449600E-01
          2   -1    0    0  501    0  0.00000000000E+00  0.00000000000E+00  0.14840485924E+04  0.14840485924E+04  0.25500000000E-02 0.  1.
         -2   -1    0    0    0  501 -0.00000000000E+00 -0.00000000000E+00 -0.13076191519E+03  0.13076191521E+03  0.25500000000E-02 0. -1.
    5000001    1    1    2    0    0  0.31132518476E+02  0.39047890124E+03  0.46456249900E+03  0.62967159814E+03  0.16500000000E+03 0.  0.
   -5000001    1    1    2    0    0 -0.31132518476E+02 -0.39047890124E+03  0.88872417820E+03  0.98513890946E+03  0.16500000000E+03 0.  0.
<mgrwt>
<rscale>  0 0.88103811E+03</rscale>
<asrwt>0</asrwt>
<pdfrwt beam="1">  1        2 0.22831517E+00 0.88103811E+03</pdfrwt>
<pdfrwt beam="2">  1       -2 0.20117218E-01 0.88103811E+03</pdfrwt>
<totfact> 0.27512648E+02</totfact>
</mgrwt>
</event>
<event>
 4    1  0.9012200E-005  0.3953612E+03  0.7818608E-02  0.1045398E+00
         -2   -1    0    0    0  501 -0.00000000000E+00  0.00000000000E+00  0.14295455132E+02  0.14295455360E+02  0.25500000000E-02 0. -1.
          2   -1    0    0  501    0  0.00000000000E+00 -0.00000000000E+00 -0.27335693965E+04  0.27335693965E+04  0.25500000000E-02 0.  1.
    5000001    1    1    2    0    0 -0.47095982797E+02  0.97219358589E+02 -0.12656197259E+04  0.12808934092E+04  0.16500000000E+03 0.  0.
   -5000001    1    1    2    0    0  0.47095982797E+02 -0.97219358589E+02 -0.14536542156E+04  0.14669714427E+04  0.16500000000E+03 0.  0.
<mgrwt>
<rscale>  0 0.39536120E+03</rscale>
<asrwt>0</asrwt>
<pdfrwt beam="1">  1        2 0.42054872E+00 0.39536120E+03</pdfrwt>
<pdfrwt beam="2">  1       -2 0.21993030E-02 0.39536120E+03</pdfrwt>
<totfact> 0.19722952E+03</totfact>
</mgrwt>
</event>
<event>
 4    1  0.9012200E-005  0.4924989E+03  0.7818608E-02  0.1015756E+00
          2   -1    0    0  501    0  0.00000000000E+00  0.00000000000E+00  0.17728101576E+04  0.17728101576E+04  0.25500000000E-02 0.  1.
         -2   -1    0    0    0  501 -0.00000000000E+00 -0.00000000000E+00 -0.34204892577E+02  0.34204892672E+02  0.25500000000E-02 0. -1.
    5000001    1    1    2    0    0  0.15333534104E+03  0.94342891229E+02  0.98541438981E+03  0.10152235358E+04  0.16500000000E+03 0.  0.
   -5000001    1    1    2    0    0 -0.15333534104E+03 -0.94342891229E+02  0.75319087521E+03  0.79179151450E+03  0.16500000000E+03 0.  0.
<mgrwt>
<rscale>  0 0.49249886E+03</rscale>
<asrwt>0</asrwt>
<pdfrwt beam="1">  1        2 0.27274004E+00 0.49249886E+03</pdfrwt>
<pdfrwt beam="2">  1       -2 0.52622909E-02 0.49249886E+03</pdfrwt>
<totfact> 0.17517573E+03</totfact>
</mgrwt>
</event>
<event>
 4    1  0.9012200E-005  0.5212252E+03  0.7818608E-02  0.1008383E+00
         -2   -1    0    0    0  501 -0.00000000000E+00  0.00000000000E+00  0.57644256864E+02  0.57644256920E+02  0.25500000000E-02 0. -1.
          2   -1    0    0  501    0  0.00000000000E+00 -0.00000000000E+00 -0.11782426652E+04  0.11782426652E+04  0.25500000000E-02 0.  1.
    5000001    1    1    2    0    0 -0.18332589962E+03  0.37931042677E+02 -0.73847697714E+03  0.77950009316E+03  0.16500000000E+03 0.  0.
   -5000001    1    1    2    0    0  0.18332589962E+03 -0.37931042677E+02 -0.38212143117E+03  0.45638682894E+03  0.16500000000E+03 0.  0.
<mgrwt>
<rscale>  0 0.52122518E+03</rscale>
<asrwt>0</asrwt>
<pdfrwt beam="1">  1        2 0.18126808E+00 0.52122518E+03</pdfrwt>
<pdfrwt beam="2">  1       -2 0.88683481E-02 0.52122518E+03</pdfrwt>
<totfact> 0.16455246E+03</totfact>
</mgrwt>
</event>
<event>
 4    1  0.9012200E-005  0.7822793E+03  0.7818608E-02  0.9586027E-01
         -2   -1    0    0    0  501 -0.00000000000E+00  0.00000000000E+00  0.28909490122E+03  0.28909490123E+03  0.25500000000E-02 0. -1.
          2   -1    0    0  501    0  0.00000000000E+00 -0.00000000000E+00 -0.52920414653E+03  0.52920414654E+03  0.25500000000E-02 0.  1.
    5000001    1    1    2    0    0 -0.20338240460E+03 -0.32032725978E+02 -0.42209667699E+03  0.49777615728E+03  0.16500000000E+03 0.  0.
   -5000001    1    1    2    0    0  0.20338240460E+03  0.32032725978E+02  0.18198743168E+03  0.32052289048E+03  0.16500000000E+03 0.  0.
<mgrwt>
<rscale>  0 0.78227929E+03</rscale>
<asrwt>0</asrwt>
<pdfrwt beam="1">  1        2 0.81416022E-01 0.78227929E+03</pdfrwt>
<pdfrwt beam="2">  1       -2 0.44476139E-01 0.78227929E+03</pdfrwt>
<totfact> 0.27817509E+02</totfact>
</mgrwt>
</event>
<event>
 4    1  0.9012200E-005  0.4272758E+03  0.7818608E-02  0.1034724E+00
          2   -1    0    0  501    0  0.00000000000E+00  0.00000000000E+00  0.14863887790E+03  0.14863887792E+03  0.25500000000E-02 0.  1.
         -2   -1    0    0    0  501 -0.00000000000E+00 -0.00000000000E+00 -0.30706068712E+03  0.30706068713E+03  0.25500000000E-02 0. -1.
    5000001    1    1    2    0    0 -0.12992691809E+03 -0.38149061093E+02 -0.69683498256E+02  0.22453762454E+03  0.16500000000E+03 0.  0.
   -5000001    1    1    2    0    0  0.12992691809E+03  0.38149061093E+02 -0.88738310969E+02  0.23116194051E+03  0.16500000000E+03 0.  0.
<mgrwt>
<rscale>  0 0.42727582E+03</rscale>
<asrwt>0</asrwt>
<pdfrwt beam="1">  1        2 0.22867520E-01 0.42727582E+03</pdfrwt>
<pdfrwt beam="2">  1       -2 0.47240106E-01 0.42727582E+03</pdfrwt>
<totfact> 0.10317767E+03</totfact>
</mgrwt>
</event>
<event>
 4    1  0.9012200E-005  0.5389099E+03  0.7818608E-02  0.1004094E+00
          2   -1    0    0  501    0  0.00000000000E+00  0.00000000000E+00  0.45502029224E+03  0.45502029225E+03  0.25500000000E-02 0.  1.
         -2   -1    0    0    0  501 -0.00000000000E+00 -0.00000000000E+00 -0.15956646446E+03  0.15956646448E+03  0.25500000000E-02 0. -1.
    5000001    1    1    2    0    0  0.78608119325E+02 -0.19461964917E+03  0.18923801942E+03  0.32724925097E+03  0.16500000000E+03 0.  0.
   -5000001    1    1    2    0    0 -0.78608119325E+02  0.19461964917E+03  0.10621580837E+03  0.28733750576E+03  0.16500000000E+03 0.  0.
<mgrwt>
<rscale>  0 0.53890993E+03</rscale>
<asrwt>0</asrwt>
<pdfrwt beam="1">  1        2 0.70003122E-01 0.53890993E+03</pdfrwt>
<pdfrwt beam="2">  1       -2 0.24548687E-01 0.53890993E+03</pdfrwt>
<totfact> 0.10197235E+03</totfact>
</mgrwt>
</event>
<event>
 4    1  0.9012200E-005  0.4104669E+03  0.7818608E-02  0.1040214E+00
          2   -1    0    0  501    0  0.00000000000E+00  0.00000000000E+00  0.28495003906E+03  0.28495003908E+03  0.25500000000E-02 0.  1.
         -2   -1    0    0    0  501 -0.00000000000E+00 -0.00000000000E+00 -0.14781809018E+03  0.14781809020E+03  0.25500000000E-02 0. -1.
    5000001    1    1    2    0    0  0.11620475320E+03 -0.35614556368E+02  0.56833521894E+02  0.21266638310E+03  0.16500000000E+03 0.  0.
   -5000001    1    1    2    0    0 -0.11620475320E+03  0.35614556368E+02  0.80298426994E+02  0.22010174617E+03  0.16500000000E+03 0.  0.
<mgrwt>
<rscale>  0 0.41046691E+03</rscale>
<asrwt>0</asrwt>
<pdfrwt beam="1">  1        2 0.43838467E-01 0.41046691E+03</pdfrwt>
<pdfrwt beam="2">  1       -2 0.22741245E-01 0.41046691E+03</pdfrwt>
<totfact> 0.19567370E+03</totfact>
</mgrwt>
</event>
<event>
 4    1  0.9012200E-005  0.4798297E+03  0.7818608E-02  0.1019182E+00
          2   -1    0    0  501    0  0.00000000000E+00  0.00000000000E+00  0.22247830931E+04  0.22247830931E+04  0.25500000000E-02 0.  1.
         -2   -1    0    0    0  501 -0.00000000000E+00 -0.00000000000E+00 -0.25871791768E+02  0.25871791893E+02  0.25500000000E-02 0. -1.
    5000001    1    1    2    0    0 -0.11860771045E+03 -0.11229024948E+02  0.16953604461E+04  0.17075321146E+04  0.16500000000E+03 0.  0.
   -5000001    1    1    2    0    0  0.11860771045E+03  0.11229024948E+02  0.50355085519E+03  0.54312277042E+03  0.16500000000E+03 0.  0.
<mgrwt>
<rscale>  0 0.47982966E+03</rscale>
<asrwt>0</asrwt>
<pdfrwt beam="1">  1        2 0.34227437E+00 0.47982966E+03</pdfrwt>
<pdfrwt beam="2">  1       -2 0.39802752E-02 0.47982966E+03</pdfrwt>
<totfact> 0.15373302E+03</totfact>
</mgrwt>
</event>
<event>
 4    1  0.9012200E-005  0.6402933E+03  0.7818608E-02  0.9825166E-01
          2   -1    0    0  501    0  0.00000000000E+00  0.00000000000E+00  0.11329358245E+04  0.11329358245E+04  0.25500000000E-02 0.  1.
         -2   -1    0    0    0  501 -0.00000000000E+00 -0.00000000000E+00 -0.90467501632E+02  0.90467501668E+02  0.25500000000E-02 0. -1.
    5000001    1    1    2    0    0 -0.20294263941E+03  0.13597630938E+03  0.28263773754E+03  0.40839241213E+03  0.16500000000E+03 0.  0.
   -5000001    1    1    2    0    0  0.20294263941E+03 -0.13597630938E+03  0.75983058534E+03  0.81501091405E+03  0.16500000000E+03 0.  0.
<mgrwt>
<rscale>  0 0.64029329E+03</rscale>
<asrwt>0</asrwt>
<pdfrwt beam="1">  1        2 0.17429783E+00 0.64029329E+03</pdfrwt>
<pdfrwt beam="2">  1       -2 0.13918077E-01 0.64029329E+03</pdfrwt>
<totfact> 0.83471126E+02</totfact>
</mgrwt>
</event>
<event>
 4    1  0.9012200E-005  0.3925044E+03  0.7818608E-02  0.1046406E+00
         -2   -1    0    0    0  501 -0.00000000000E+00  0.00000000000E+00  0.62838070504E+02  0.62838070556E+02  0.25500000000E-02 0. -1.
          2   -1    0    0  501    0  0.00000000000E+00 -0.00000000000E+00 -0.61292343146E+03  0.61292343147E+03  0.25500000000E-02 0.  1.
    5000001    1    1    2    0    0  0.93948482203E+02 -0.31344686623E+02 -0.34130153352E+03  0.39181697701E+03  0.16500000000E+03 0.  0.
   -5000001    1    1    2    0    0 -0.93948482203E+02  0.31344686623E+02 -0.20878382744E+03  0.28394452502E+03  0.16500000000E+03 0.  0.
<mgrwt>
<rscale>  0 0.39250440E+03</rscale>
<asrwt>0</asrwt>
<pdfrwt beam="1">  1        2 0.94295909E-01 0.39250440E+03</pdfrwt>
<pdfrwt beam="2">  1       -2 0.96673959E-02 0.39250440E+03</pdfrwt>
<totfact> 0.34660024E+03</totfact>
</mgrwt>
</event>
<event>
 4    1  0.9012200E-005  0.5242976E+03  0.7818608E-02  0.1007625E+00
          2   -1    0    0  501    0  0.00000000000E+00  0.00000000000E+00  0.14577773212E+03  0.14577773214E+03  0.25500000000E-02 0.  1.
         -2   -1    0    0    0  501 -0.00000000000E+00 -0.00000000000E+00 -0.47141618448E+03  0.47141618449E+03  0.25500000000E-02 0. -1.
    5000001    1    1    2    0    0 -0.17113606089E+03 -0.46722623318E+02 -0.44945528139E+02  0.24640546943E+03  0.16500000000E+03 0.  0.
   -5000001    1    1    2    0    0  0.17113606089E+03  0.46722623318E+02 -0.28069292423E+03  0.37078844720E+03  0.16500000000E+03 0.  0.
<mgrwt>
<rscale>  0 0.52429756E+03</rscale>
<asrwt>0</asrwt>
<pdfrwt beam="1">  1        2 0.22427344E-01 0.52429756E+03</pdfrwt>
<pdfrwt beam="2">  1       -2 0.72525566E-01 0.52429756E+03</pdfrwt>
<totfact> 0.43143958E+02</totfact>
</mgrwt>
</event>
<event>
 4    1  0.9012200E-005  0.8442847E+03  0.7818608E-02  0.9498040E-01
         -2   -1    0    0    0  501 -0.00000000000E+00  0.00000000000E+00  0.15324852377E+03  0.15324852379E+03  0.25500000000E-02 0. -1.
          2   -1    0    0  501    0  0.00000000000E+00 -0.00000000000E+00 -0.11628442513E+04  0.11628442513E+04  0.25500000000E-02 0.  1.
    5000001    1    1    2    0    0 -0.90755193843E+02 -0.31491251123E+03 -0.17940713916E+03  0.40843398061E+03  0.16500000000E+03 0.  0.
   -5000001    1    1    2    0    0  0.90755193843E+02  0.31491251123E+03 -0.83018858842E+03  0.90765879453E+03  0.16500000000E+03 0.  0.
<mgrwt>
<rscale>  0 0.84428470E+03</rscale>
<asrwt>0</asrwt>
<pdfrwt beam="1">  1        2 0.17889911E+00 0.84428470E+03</pdfrwt>
<pdfrwt beam="2">  1       -2 0.23576697E-01 0.84428470E+03</pdfrwt>
<totfact> 0.31898769E+02</totfact>
</mgrwt>
</event>
<event>
 4    1  0.9012200E-005  0.1261071E+04  0.7818608E-02  0.9061019E-01
         -2   -1    0    0    0  501 -0.00000000000E+00  0.00000000000E+00  0.23570995555E+03  0.23570995556E+03  0.25500000000E-02 0. -1.
          2   -1    0    0  501    0  0.00000000000E+00 -0.00000000000E+00 -0.16867117305E+04  0.16867117305E+04  0.25500000000E-02 0.  1.
    5000001    1    1    2    0    0  0.28846455687E+03 -0.27930477466E+03 -0.28370360707E+02  0.43503199317E+03  0.16500000000E+03 0.  0.
   -5000001    1    1    2    0    0 -0.28846455687E+03  0.27930477466E+03 -0.14226314143E+04  0.14873896929E+04  0.16500000000E+03 0.  0.
<mgrwt>
<rscale>  0 0.12610706E+04</rscale>
<asrwt>0</asrwt>
<pdfrwt beam="1">  1        2 0.25949410E+00 0.12610706E+04</pdfrwt>
<pdfrwt beam="2">  1       -2 0.36263071E-01 0.12610706E+04</pdfrwt>
<totfact> 0.70143312E+01</totfact>
</mgrwt>
</event>
<event>
 4    1  0.9012200E-005  0.4951857E+03  0.7818608E-02  0.1015043E+00
         -2   -1    0    0    0  501 -0.00000000000E+00  0.00000000000E+00  0.46859143195E+02  0.46859143264E+02  0.25500000000E-02 0. -1.
          2   -1    0    0  501    0  0.00000000000E+00 -0.00000000000E+00 -0.13082234546E+04  0.13082234546E+04  0.25500000000E-02 0.  1.
    5000001    1    1    2    0    0  0.14438829846E+03  0.99685915349E+02 -0.78769147228E+03  0.82369176149E+03  0.16500000000E+03 0.  0.
   -5000001    1    1    2    0    0 -0.14438829846E+03 -0.99685915349E+02 -0.47367283909E+03  0.53139083633E+03  0.16500000000E+03 0.  0.
<mgrwt>
<rscale>  0 0.49518574E+03</rscale>
<asrwt>0</asrwt>
<pdfrwt beam="1">  1        2 0.20126512E+00 0.49518574E+03</pdfrwt>
<pdfrwt beam="2">  1       -2 0.72091000E-02 0.49518574E+03</pdfrwt>
<totfact> 0.19253708E+03</totfact>
</mgrwt>
</event>
<event>
 4    1  0.9012200E-005  0.4635137E+03  0.7818608E-02  0.1023767E+00
          2   -1    0    0  501    0  0.00000000000E+00  0.00000000000E+00  0.55957578989E+03  0.55957578989E+03  0.25500000000E-02 0.  1.
         -2   -1    0    0    0  501 -0.00000000000E+00 -0.00000000000E+00 -0.95985649935E+02  0.95985649969E+02  0.25500000000E-02 0. -1.
    5000001    1    1    2    0    0 -0.14730106600E+03  0.37446129210E+02  0.14949090838E+03  0.26957809318E+03  0.16500000000E+03 0.  0.
   -5000001    1    1    2    0    0  0.14730106600E+03 -0.37446129210E+02  0.31409923157E+03  0.38598334668E+03  0.16500000000E+03 0.  0.
<mgrwt>
<rscale>  0 0.46351374E+03</rscale>
<asrwt>0</asrwt>
<pdfrwt beam="1">  1        2 0.86088583E-01 0.46351374E+03</pdfrwt>
<pdfrwt beam="2">  1       -2 0.14767023E-01 0.46351374E+03</pdfrwt>
<totfact> 0.19335860E+03</totfact>
</mgrwt>
</event>
<event>
 4    1  0.9012200E-005  0.3726114E+03  0.7818608E-02  0.1053699E+00
         -2   -1    0    0    0  501 -0.00000000000E+00  0.00000000000E+00  0.10732591160E+03  0.10732591163E+03  0.25500000000E-02 0. -1.
          2   -1    0    0  501    0  0.00000000000E+00 -0.00000000000E+00 -0.32340563542E+03  0.32340563543E+03  0.25500000000E-02 0.  1.
    5000001    1    1    2    0    0 -0.67200369035E+02 -0.12064858884E+02 -0.16946318170E+03  0.24617924439E+03  0.16500000000E+03 0.  0.
   -5000001    1    1    2    0    0  0.67200369035E+02  0.12064858884E+02 -0.46616542122E+02  0.18455230266E+03  0.16500000000E+03 0.  0.
<mgrwt>
<rscale>  0 0.37261135E+03</rscale>
<asrwt>0</asrwt>
<pdfrwt beam="1">  1        2 0.49754713E-01 0.37261135E+03</pdfrwt>
<pdfrwt beam="2">  1       -2 0.16511679E-01 0.37261135E+03</pdfrwt>
<totfact> 0.29510320E+03</totfact>
</mgrwt>
</event>
<event>
 4    1  0.9012200E-005  0.5177259E+03  0.7818608E-02  0.1009253E+00
         -2   -1    0    0    0  501 -0.00000000000E+00  0.00000000000E+00  0.70943641683E+02  0.70943641728E+02  0.25500000000E-02 0. -1.
          2   -1    0    0  501    0  0.00000000000E+00 -0.00000000000E+00 -0.94455293171E+03  0.94455293171E+03  0.25500000000E-02 0.  1.
    5000001    1    1    2    0    0  0.15386079264E+03 -0.53328297642E+02 -0.21087101396E+03  0.31338257030E+03  0.16500000000E+03 0.  0.
   -5000001    1    1    2    0    0 -0.15386079264E+03  0.53328297642E+02 -0.66273827607E+03  0.70211400314E+03  0.16500000000E+03 0.  0.
<mgrwt>
<rscale>  0 0.51772589E+03</rscale>
<asrwt>0</asrwt>
<pdfrwt beam="1">  1        2 0.14531583E+00 0.51772589E+03</pdfrwt>
<pdfrwt beam="2">  1       -2 0.10914407E-01 0.51772589E+03</pdfrwt>
<totfact> 0.16381477E+03</totfact>
</mgrwt>
</event>
<event>
 4    1  0.9012200E-005  0.1084668E+04  0.7818608E-02  0.9220266E-01
         -2   -1    0    0    0  501 -0.00000000000E+00  0.00000000000E+00  0.13151529549E+03  0.13151529552E+03  0.25500000000E-02 0. -1.
          2   -1    0    0  501    0  0.00000000000E+00 -0.00000000000E+00 -0.22364387591E+04  0.22364387591E+04  0.25500000000E-02 0.  1.
    5000001    1    1    2    0    0  0.55795919829E+02 -0.50057443438E+03 -0.80151784502E+03  0.96090780250E+03  0.16500000000E+03 0.  0.
   -5000001    1    1    2    0    0 -0.55795919829E+02  0.50057443438E+03 -0.13034056186E+04  0.14070462521E+04  0.16500000000E+03 0.  0.
<mgrwt>
<rscale>  0 0.10846675E+04</rscale>
<asrwt>0</asrwt>
<pdfrwt beam="1">  1        2 0.34406747E+00 0.10846675E+04</pdfrwt>
<pdfrwt beam="2">  1       -2 0.20233124E-01 0.10846675E+04</pdfrwt>
<totfact> 0.10303679E+02</totfact>
</mgrwt>
</event>
<event>
 4    1  0.9012200E-005  0.3740209E+03  0.7818608E-02  0.1053166E+00
          2   -1    0    0  501    0  0.00000000000E+00  0.00000000000E+00  0.82200683149E+02  0.82200683188E+02  0.25500000000E-02 0.  1.
         -2   -1    0    0    0  501 -0.00000000000E+00 -0.00000000000E+00 -0.42545768988E+03  0.42545768989E+03  0.25500000000E-02 0. -1.
    5000001    1    1    2    0    0 -0.47371622531E+01 -0.83450421309E+02 -0.13417345217E+03  0.22850367347E+03  0.16500000000E+03 0.  0.
   -5000001    1    1    2    0    0  0.47371622531E+01  0.83450421309E+02 -0.20908355456E+03  0.27915469960E+03  0.16500000000E+03 0.  0.
<mgrwt>
<rscale>  0 0.37402092E+03</rscale>
<asrwt>0</asrwt>
<pdfrwt beam="1">  1        2 0.12646259E-01 0.37402092E+03</pdfrwt>
<pdfrwt beam="2">  1       -2 0.65455028E-01 0.37402092E+03</pdfrwt>
<totfact> 0.10617270E+03</totfact>
</mgrwt>
</event>
<event>
 4    1  0.9012200E-005  0.4860360E+03  0.7818608E-02  0.1017489E+00
          2   -1    0    0  501    0  0.00000000000E+00  0.00000000000E+00  0.57060291205E+03  0.57060291206E+03  0.25500000000E-02 0.  1.
         -2   -1    0    0    0  501 -0.00000000000E+00 -0.00000000000E+00 -0.10350062022E+03  0.10350062026E+03  0.25500000000E-02 0. -1.
    5000001    1    1    2    0    0  0.12357920139E+03 -0.12094242136E+03  0.29454294465E+03  0.37931442702E+03  0.16500000000E+03 0.  0.
   -5000001    1    1    2    0    0 -0.12357920139E+03  0.12094242136E+03  0.17255934718E+03  0.29478910529E+03  0.16500000000E+03 0.  0.
<mgrwt>
<rscale>  0 0.48603603E+03</rscale>
<asrwt>0</asrwt>
<pdfrwt beam="1">  1        2 0.87785063E-01 0.48603603E+03</pdfrwt>
<pdfrwt beam="2">  1       -2 0.15923172E-01 0.48603603E+03</pdfrwt>
<totfact> 0.16654809E+03</totfact>
</mgrwt>
</event>
<event>
 4    1  0.9012200E-005  0.5629140E+03  0.7818608E-02  0.9985483E-01
         -2   -1    0    0    0  501 -0.00000000000E+00  0.00000000000E+00  0.46869259044E+03  0.46869259045E+03  0.25500000000E-02 0. -1.
          2   -1    0    0  501    0  0.00000000000E+00 -0.00000000000E+00 -0.16901921282E+03  0.16901921284E+03  0.25500000000E-02 0.  1.
    5000001    1    1    2    0    0  0.51548140200E+02 -0.22108967943E+03  0.12566642433E+03  0.30749781676E+03  0.16500000000E+03 0.  0.
   -5000001    1    1    2    0    0 -0.51548140200E+02  0.22108967943E+03  0.17400695329E+03  0.33021398653E+03  0.16500000000E+03 0.  0.
<mgrwt>
<rscale>  0 0.56291404E+03</rscale>
<asrwt>0</asrwt>
<pdfrwt beam="1">  1        2 0.26002956E-01 0.56291404E+03</pdfrwt>
<pdfrwt beam="2">  1       -2 0.72106551E-01 0.56291404E+03</pdfrwt>
<totfact> 0.36859310E+02</totfact>
</mgrwt>
</event>
<event>
 4    1  0.9012200E-005  0.6460328E+03  0.7818608E-02  0.9814252E-01
          2   -1    0    0  501    0  0.00000000000E+00  0.00000000000E+00  0.32164057083E+03  0.32164057084E+03  0.25500000000E-02 0.  1.
         -2   -1    0    0    0  501 -0.00000000000E+00 -0.00000000000E+00 -0.32439812362E+03  0.32439812363E+03  0.25500000000E-02 0. -1.
    5000001    1    1    2    0    0 -0.45183033559E+02  0.25135130280E+03 -0.11044678480E+03  0.32348489333E+03  0.16500000000E+03 0.  0.
   -5000001    1    1    2    0    0  0.45183033559E+02 -0.25135130280E+03  0.10768923200E+03  0.32255380114E+03  0.16500000000E+03 0.  0.
<mgrwt>
<rscale>  0 0.64603281E+03</rscale>
<asrwt>0</asrwt>
<pdfrwt beam="1">  1        2 0.49483165E-01 0.64603281E+03</pdfrwt>
<pdfrwt beam="2">  1       -2 0.49907404E-01 0.64603281E+03</pdfrwt>
<totfact> 0.38944785E+02</totfact>
</mgrwt>
</event>
<event>
 4    1  0.9012200E-005  0.4403940E+03  0.7818608E-02  0.1030626E+00
         -2   -1    0    0    0  501 -0.00000000000E+00  0.00000000000E+00  0.30608421687E+02  0.30608421793E+02  0.25500000000E-02 0. -1.
          2   -1    0    0  501    0  0.00000000000E+00 -0.00000000000E+00 -0.15840971769E+04  0.15840971769E+04  0.25500000000E-02 0.  1.
    5000001    1    1    2    0    0 -0.55566158508E+02  0.12749245972E+03 -0.93739364557E+03  0.96191151984E+03  0.16500000000E+03 0.  0.
   -5000001    1    1    2    0    0  0.55566158508E+02 -0.12749245972E+03 -0.61609510965E+03  0.65279407886E+03  0.16500000000E+03 0.  0.
<mgrwt>
<rscale>  0 0.44039398E+03</rscale>
<asrwt>0</asrwt>
<pdfrwt beam="1">  1        2 0.24370719E+00 0.44039398E+03</pdfrwt>
<pdfrwt beam="2">  1       -2 0.47089892E-02 0.44039398E+03</pdfrwt>
<totfact> 0.26326380E+03</totfact>
</mgrwt>
</event>
<event>
 4    1  0.9012200E-005  0.4967676E+03  0.7818608E-02  0.1014626E+00
          2   -1    0    0  501    0  0.00000000000E+00  0.00000000000E+00  0.17034251178E+04  0.17034251178E+04  0.25500000000E-02 0. -1.
         -2   -1    0    0    0  501 -0.00000000000E+00 -0.00000000000E+00 -0.36217924203E+02  0.36217924293E+02  0.25500000000E-02 0.  1.
    5000001    1    1    2    0    0  0.17082312665E+03  0.57563831091E+02  0.98924778296E+03  0.10189849417E+04  0.16500000000E+03 0.  0.
   -5000001    1    1    2    0    0 -0.17082312665E+03 -0.57563831091E+02  0.67795941066E+03  0.72065810045E+03  0.16500000000E+03 0.  0.
<mgrwt>
<rscale>  0 0.49676764E+03</rscale>
<asrwt>0</asrwt>
<pdfrwt beam="1">  1        2 0.26206539E+00 0.49676764E+03</pdfrwt>
<pdfrwt beam="2">  1       -2 0.55719887E-02 0.49676764E+03</pdfrwt>
<totfact> 0.17467664E+03</totfact>
</mgrwt>
</event>
<event>
 4    1  0.9012200E-005  0.4847775E+03  0.7818608E-02  0.1017830E+00
         -2   -1    0    0    0  501 -0.00000000000E+00  0.00000000000E+00  0.25529358603E+02  0.25529358731E+02  0.25500000000E-02 0. -1.
          2   -1    0    0  501    0  0.00000000000E+00 -0.00000000000E+00 -0.23013622741E+04  0.23013622741E+04  0.25500000000E-02 0.  1.
    5000001    1    1    2    0    0 -0.77165450414E+02  0.11312646342E+03 -0.16804387147E+04  0.16940635695E+04  0.16500000000E+03 0.  0.
   -5000001    1    1    2    0    0  0.77165450414E+02 -0.11312646342E+03 -0.59539420078E+03  0.63282806337E+03  0.16500000000E+03 0.  0.
<mgrwt>
<rscale>  0 0.48477749E+03</rscale>
<asrwt>0</asrwt>
<pdfrwt beam="1">  1        2 0.35405557E+00 0.48477749E+03</pdfrwt>
<pdfrwt beam="2">  1       -2 0.39275954E-02 0.48477749E+03</pdfrwt>
<totfact> 0.14244771E+03</totfact>
</mgrwt>
</event>
<event>
 4    1  0.9012200E-005  0.5866134E+03  0.7818608E-02  0.9933575E-01
          2   -1    0    0  501    0  0.00000000000E+00  0.00000000000E+00  0.63341582106E+03  0.63341582107E+03  0.25500000000E-02 0.  1.
         -2   -1    0    0    0  501 -0.00000000000E+00 -0.00000000000E+00 -0.13581728881E+03  0.13581728884E+03  0.25500000000E-02 0. -1.
    5000001    1    1    2    0    0 -0.23355555070E+03 -0.33780645571E+02  0.32198048159E+03  0.43195573593E+03  0.16500000000E+03 0.  0.
   -5000001    1    1    2    0    0  0.23355555070E+03  0.33780645571E+02  0.17561805066E+03  0.33727737397E+03  0.16500000000E+03 0.  0.
<mgrwt>
<rscale>  0 0.58661340E+03</rscale>
<asrwt>0</asrwt>
<pdfrwt beam="1">  1        2 0.97448589E-01 0.58661340E+03</pdfrwt>
<pdfrwt beam="2">  1       -2 0.20894967E-01 0.58661340E+03</pdfrwt>
<totfact> 0.92098698E+02</totfact>
</mgrwt>
</event>
<event>
 4    1  0.9012200E-005  0.9234332E+03  0.7818608E-02  0.9396754E-01
         -2   -1    0    0    0  501 -0.00000000000E+00  0.00000000000E+00  0.14771920703E+03  0.14771920705E+03  0.25500000000E-02 0. -1.
          2   -1    0    0  501    0  0.00000000000E+00 -0.00000000000E+00 -0.14431583156E+04  0.14431583156E+04  0.25500000000E-02 0.  1.
    5000001    1    1    2    0    0  0.19220702218E+03  0.37261276987E+03 -0.47395385691E+03  0.65394271471E+03  0.16500000000E+03 0.  0.
   -5000001    1    1    2    0    0 -0.19220702218E+03 -0.37261276987E+03 -0.82148525163E+03  0.93693480792E+03  0.16500000000E+03 0.  0.
<mgrwt>
<rscale>  0 0.92343316E+03</rscale>
<asrwt>0</asrwt>
<pdfrwt beam="1">  1        2 0.22202435E+00 0.92343316E+03</pdfrwt>
<pdfrwt beam="2">  1       -2 0.22726033E-01 0.92343316E+03</pdfrwt>
<totfact> 0.23319249E+02</totfact>
</mgrwt>
</event>
<event>
 4    1  0.9012200E-005  0.3872105E+03  0.7818608E-02  0.1048300E+00
          2   -1    0    0  501    0  0.00000000000E+00  0.00000000000E+00  0.65051405041E+03  0.65051405041E+03  0.25500000000E-02 0. -1.
         -2   -1    0    0    0  501 -0.00000000000E+00 -0.00000000000E+00 -0.57620573822E+02  0.57620573878E+02  0.25500000000E-02 0.  1.
    5000001    1    1    2    0    0  0.60933496817E+02 -0.36982298647E+02  0.16485608493E+03  0.24389159515E+03  0.16500000000E+03 0.  0.
   -5000001    1    1    2    0    0 -0.60933496817E+02  0.36982298647E+02  0.42803739166E+03  0.46424302914E+03  0.16500000000E+03 0.  0.
<mgrwt>
<rscale>  0 0.38721050E+03</rscale>
<asrwt>0</asrwt>
<pdfrwt beam="1">  1        2 0.10007908E+00 0.38721050E+03</pdfrwt>
<pdfrwt beam="2">  1       -2 0.88647038E-02 0.38721050E+03</pdfrwt>
<totfact> 0.37059111E+03</totfact>
</mgrwt>
</event>
<event>
 4    1  0.9012200E-005  0.4016947E+03  0.7818608E-02  0.1043194E+00
          2   -1    0    0  501    0  0.00000000000E+00  0.00000000000E+00  0.80413088668E+03  0.80413088668E+03  0.25500000000E-02 0.  1.
         -2   -1    0    0    0  501 -0.00000000000E+00 -0.00000000000E+00 -0.50165525642E+02  0.50165525706E+02  0.25500000000E-02 0. -1.
    5000001    1    1    2    0    0 -0.94637384756E+01  0.10601686269E+03  0.28711701160E+03  0.34783662239E+03  0.16500000000E+03 0.  0.
   -5000001    1    1    2    0    0  0.94637384756E+01 -0.10601686269E+03  0.46684834943E+03  0.50645979000E+03  0.16500000000E+03 0.  0.
<mgrwt>
<rscale>  0 0.40169465E+03</rscale>
<asrwt>0</asrwt>
<pdfrwt beam="1">  1        2 0.12371245E+00 0.40169465E+03</pdfrwt>
<pdfrwt beam="2">  1       -2 0.77177731E-02 0.40169465E+03</pdfrwt>
<totfact> 0.35434285E+03</totfact>
</mgrwt>
</event>
<event>
 4    1  0.9012200E-005  0.4442782E+03  0.7818608E-02  0.1029442E+00
         -2   -1    0    0    0  501 -0.00000000000E+00  0.00000000000E+00  0.14671603014E+03  0.14671603016E+03  0.25500000000E-02 0. -1.
          2   -1    0    0  501    0  0.00000000000E+00 -0.00000000000E+00 -0.33633534968E+03  0.33633534969E+03  0.25500000000E-02 0.  1.
    5000001    1    1    2    0    0 -0.39548939565E+02  0.12381914696E+03 -0.17340588674E+03  0.27237823212E+03  0.16500000000E+03 0.  0.
   -5000001    1    1    2    0    0  0.39548939565E+02 -0.12381914696E+03 -0.16213432805E+02  0.21067314774E+03  0.16500000000E+03 0.  0.
<mgrwt>
<rscale>  0 0.44427823E+03</rscale>
<asrwt>0</asrwt>
<pdfrwt beam="1">  1        2 0.51743900E-01 0.44427823E+03</pdfrwt>
<pdfrwt beam="2">  1       -2 0.22571697E-01 0.44427823E+03</pdfrwt>
<totfact> 0.16550861E+03</totfact>
</mgrwt>
</event>
<event>
 4    1  0.9012200E-005  0.3480629E+03  0.7818608E-02  0.1063413E+00
         -2   -1    0    0    0  501 -0.00000000000E+00  0.00000000000E+00  0.27956650798E+03  0.27956650799E+03  0.25500000000E-02 0. -1.
          2   -1    0    0  501    0  0.00000000000E+00 -0.00000000000E+00 -0.10833541030E+03  0.10833541033E+03  0.25500000000E-02 0.  1.
    5000001    1    1    2    0    0 -0.41393016882E+01 -0.27044924810E+02  0.32012606947E+02  0.17028907417E+03  0.16500000000E+03 0.  0.
   -5000001    1    1    2    0    0  0.41393016882E+01  0.27044924810E+02  0.13921849074E+03  0.21761284415E+03  0.16500000000E+03 0.  0.
<mgrwt>
<rscale>  0 0.34806294E+03</rscale>
<asrwt>0</asrwt>
<pdfrwt beam="1">  1        2 0.16666986E-01 0.34806294E+03</pdfrwt>
<pdfrwt beam="2">  1       -2 0.43010231E-01 0.34806294E+03</pdfrwt>
<totfact> 0.17879500E+03</totfact>
</mgrwt>
</event>
<event>
 4    1  0.9012200E-005  0.9286417E+03  0.7818608E-02  0.9390470E-01
          2   -1    0    0  501    0  0.00000000000E+00  0.00000000000E+00  0.51777240951E+03  0.51777240952E+03  0.25500000000E-02 0.  1.
         -2   -1    0    0    0  501 -0.00000000000E+00 -0.00000000000E+00 -0.41638729999E+03  0.41638729999E+03  0.25500000000E-02 0. -1.
    5000001    1    1    2    0    0 -0.32536807743E+03  0.18896694521E+03 -0.16691659055E+03  0.44346255805E+03  0.16500000000E+03 0.  0.
   -5000001    1    1    2    0    0  0.32536807743E+03 -0.18896694521E+03  0.26830170008E+03  0.49069715147E+03  0.16500000000E+03 0.  0.
<mgrwt>
<rscale>  0 0.92864171E+03</rscale>
<asrwt>0</asrwt>
<pdfrwt beam="1">  1        2 0.79657293E-01 0.92864171E+03</pdfrwt>
<pdfrwt beam="2">  1       -2 0.64059585E-01 0.92864171E+03</pdfrwt>
<totfact> 0.13352324E+02</totfact>
</mgrwt>
</event>
<event>
 4    1  0.9012200E-005  0.5156468E+03  0.7818608E-02  0.1009774E+00
          2   -1    0    0  501    0  0.00000000000E+00  0.00000000000E+00  0.13295372747E+04  0.13295372747E+04  0.25500000000E-02 0.  1.
         -2   -1    0    0    0  501 -0.00000000000E+00 -0.00000000000E+00 -0.49997013314E+02  0.49997013379E+02  0.25500000000E-02 0. -1.
    5000001    1    1    2    0    0 -0.11744950096E+03 -0.15018589040E+02  0.10647038466E+04  0.10839000065E+04  0.16500000000E+03 0.  0.
   -5000001    1    1    2    0    0  0.11744950096E+03  0.15018589040E+02  0.21483641485E+03  0.29563428157E+03  0.16500000000E+03 0.  0.
<mgrwt>
<rscale>  0 0.51564675E+03</rscale>
<asrwt>0</asrwt>
<pdfrwt beam="1">  1        2 0.20454418E+00 0.51564675E+03</pdfrwt>
<pdfrwt beam="2">  1       -2 0.76918488E-02 0.51564675E+03</pdfrwt>
<totfact> 0.16893557E+03</totfact>
</mgrwt>
</event>
<event>
 4    1  0.9012200E-005  0.4054961E+03  0.7818608E-02  0.1041893E+00
          2   -1    0    0  501    0  0.00000000000E+00  0.00000000000E+00  0.24296629895E+03  0.24296629896E+03  0.25500000000E-02 0.  1.
         -2   -1    0    0    0  501 -0.00000000000E+00 -0.00000000000E+00 -0.16918714366E+03  0.16918714368E+03  0.25500000000E-02 0. -1.
    5000001    1    1    2    0    0 -0.11684264343E+03  0.12016302431E+02  0.46270363708E+02  0.20775596599E+03  0.16500000000E+03 0.  0.
   -5000001    1    1    2    0    0  0.11684264343E+03 -0.12016302431E+02  0.27508791578E+02  0.20439747665E+03  0.16500000000E+03 0.  0.
<mgrwt>
<rscale>  0 0.40549611E+03</rscale>
<asrwt>0</asrwt>
<pdfrwt beam="1">  1        2 0.37379430E-01 0.40549611E+03</pdfrwt>
<pdfrwt beam="2">  1       -2 0.26028792E-01 0.40549611E+03</pdfrwt>
<totfact> 0.18327408E+03</totfact>
</mgrwt>
</event>
<event>
 4    1  0.9012200E-005  0.4130007E+03  0.7818608E-02  0.1039369E+00
          2   -1    0    0  501    0  0.00000000000E+00  0.00000000000E+00  0.32868159017E+03  0.32868159018E+03  0.25500000000E-02 0.  1.
         -2   -1    0    0    0  501 -0.00000000000E+00 -0.00000000000E+00 -0.12973771264E+03  0.12973771267E+03  0.25500000000E-02 0. -1.
    5000001    1    1    2    0    0  0.32928926068E+00  0.94273919040E+02  0.97787865141E+01  0.19028479947E+03  0.16500000000E+03 0.  0.
   -5000001    1    1    2    0    0 -0.32928926068E+00 -0.94273919040E+02  0.18916509101E+03  0.26813450337E+03  0.16500000000E+03 0.  0.
<mgrwt>
<rscale>  0 0.41300072E+03</rscale>
<asrwt>0</asrwt>
<pdfrwt beam="1">  1        2 0.50566398E-01 0.41300072E+03</pdfrwt>
<pdfrwt beam="2">  1       -2 0.19959648E-01 0.41300072E+03</pdfrwt>
<totfact> 0.21017844E+03</totfact>
</mgrwt>
</event>
<event>
 4    1  0.9012200E-005  0.4204273E+03  0.7818608E-02  0.1036927E+00
         -2   -1    0    0    0  501 -0.00000000000E+00  0.00000000000E+00  0.29147617893E+02  0.29147618005E+02  0.25500000000E-02 0. -1.
          2   -1    0    0  501    0  0.00000000000E+00 -0.00000000000E+00 -0.15160679081E+04  0.15160679081E+04  0.25500000000E-02 0.  1.
    5000001    1    1    2    0    0 -0.77994503108E+02  0.10141168545E+03 -0.65363603877E+03  0.68617238624E+03  0.16500000000E+03 0.  0.
   -5000001    1    1    2    0    0  0.77994503108E+02 -0.10141168545E+03 -0.83328425148E+03  0.85904313991E+03  0.16500000000E+03 0.  0.
<mgrwt>
<rscale>  0 0.42042725E+03</rscale>
<asrwt>0</asrwt>
<pdfrwt beam="1">  1        2 0.23324115E+00 0.42042725E+03</pdfrwt>
<pdfrwt beam="2">  1       -2 0.44842501E-02 0.42042725E+03</pdfrwt>
<totfact> 0.30905540E+03</totfact>
</mgrwt>
</event>
<event>
 4    1  0.9012200E-005  0.7404678E+03  0.7818608E-02  0.9650425E-01
          2   -1    0    0  501    0  0.00000000000E+00  0.00000000000E+00  0.15490926700E+04  0.15490926700E+04  0.25500000000E-02 0.  1.
         -2   -1    0    0    0  501 -0.00000000000E+00 -0.00000000000E+00 -0.88486070309E+02  0.88486070346E+02  0.25500000000E-02 0. -1.
    5000001    1    1    2    0    0  0.24095274204E+03 -0.17655700825E+03  0.41275172254E+03  0.53555539911E+03  0.16500000000E+03 0.  0.
   -5000001    1    1    2    0    0 -0.24095274204E+03  0.17655700825E+03  0.10478548771E+04  0.11020233412E+04  0.16500000000E+03 0.  0.
<mgrwt>
<rscale>  0 0.74046775E+03</rscale>
<asrwt>0</asrwt>
<pdfrwt beam="1">  1        2 0.23832192E+00 0.74046775E+03</pdfrwt>
<pdfrwt beam="2">  1       -2 0.13613244E-01 0.74046775E+03</pdfrwt>
<totfact> 0.49816149E+02</totfact>
</mgrwt>
</event>
<event>
 4    1  0.9012200E-005  0.6336946E+03  0.7818608E-02  0.9837865E-01
          2   -1    0    0  501    0  0.00000000000E+00  0.00000000000E+00  0.18743129002E+04  0.18743129002E+04  0.25500000000E-02 0.  1.
         -2   -1    0    0    0  501 -0.00000000000E+00 -0.00000000000E+00 -0.53562144934E+02  0.53562144995E+02  0.25500000000E-02 0. -1.
    5000001    1    1    2    0    0 -0.13350702498E+03  0.20097596175E+03  0.12823771118E+04  0.13152686113E+04  0.16500000000E+03 0.  0.
   -5000001    1    1    2    0    0  0.13350702498E+03 -0.20097596175E+03  0.53837364350E+03  0.61260643396E+03  0.16500000000E+03 0.  0.
<mgrwt>
<rscale>  0 0.63369462E+03</rscale>
<asrwt>0</asrwt>
<pdfrwt beam="1">  1        2 0.28835586E+00 0.63369462E+03</pdfrwt>
<pdfrwt beam="2">  1       -2 0.82403291E-02 0.63369462E+03</pdfrwt>
<totfact> 0.75669785E+02</totfact>
</mgrwt>
</event>
<event>
 4    1  0.9012200E-005  0.4989924E+03  0.7818608E-02  0.1014042E+00
         -2   -1    0    0    0  501 -0.00000000000E+00  0.00000000000E+00  0.11307670168E+03  0.11307670171E+03  0.25500000000E-02 0. -1.
          2   -1    0    0  501    0  0.00000000000E+00 -0.00000000000E+00 -0.55049679578E+03  0.55049679579E+03  0.25500000000E-02 0.  1.
    5000001    1    1    2    0    0  0.11070362012E+03 -0.12498997782E+03 -0.10629778394E+03  0.25768586483E+03  0.16500000000E+03 0.  0.
   -5000001    1    1    2    0    0 -0.11070362012E+03  0.12498997782E+03 -0.33112231016E+03  0.40588763267E+03  0.16500000000E+03 0.  0.
<mgrwt>
<rscale>  0 0.49899243E+03</rscale>
<asrwt>0</asrwt>
<pdfrwt beam="1">  1        2 0.84691813E-01 0.49899243E+03</pdfrwt>
<pdfrwt beam="2">  1       -2 0.17396416E-01 0.49899243E+03</pdfrwt>
<totfact> 0.14948935E+03</totfact>
</mgrwt>
</event>
<event>
 4    1  0.9012200E-005  0.5203375E+03  0.7818608E-02  0.1008603E+00
         -2   -1    0    0    0  501 -0.00000000000E+00  0.00000000000E+00  0.41018310226E+02  0.41018310305E+02  0.25500000000E-02 0. -1.
          2   -1    0    0  501    0  0.00000000000E+00 -0.00000000000E+00 -0.16501847143E+04  0.16501847143E+04  0.25500000000E-02 0.  1.
    5000001    1    1    2    0    0 -0.15082881899E+03 -0.13309031089E+03 -0.80246404035E+03  0.84358514659E+03  0.16500000000E+03 0.  0.
   -5000001    1    1    2    0    0  0.15082881899E+03  0.13309031089E+03 -0.80670236368E+03  0.84761787797E+03  0.16500000000E+03 0.  0.
<mgrwt>
<rscale>  0 0.52033754E+03</rscale>
<asrwt>0</asrwt>
<pdfrwt beam="1">  1        2 0.25387452E+00 0.52033754E+03</pdfrwt>
<pdfrwt beam="2">  1       -2 0.63105105E-02 0.52033754E+03</pdfrwt>
<totfact> 0.15356126E+03</totfact>
</mgrwt>
</event>
<event>
 4    1  0.9012200E-005  0.4647040E+03  0.7818608E-02  0.1023426E+00
         -2   -1    0    0    0  501 -0.00000000000E+00  0.00000000000E+00  0.71026440481E+02  0.71026440527E+02  0.25500000000E-02 0. -1.
          2   -1    0    0  501    0  0.00000000000E+00 -0.00000000000E+00 -0.76010361858E+03  0.76010361859E+03  0.25500000000E-02 0.  1.
    5000001    1    1    2    0    0 -0.14837104904E+03  0.58524027714E+02 -0.40960279631E+03  0.46950876537E+03  0.16500000000E+03 0.  0.
   -5000001    1    1    2    0    0  0.14837104904E+03 -0.58524027714E+02 -0.27947438179E+03  0.36162129374E+03  0.16500000000E+03 0.  0.
<mgrwt>
<rscale>  0 0.46470401E+03</rscale>
<asrwt>0</asrwt>
<pdfrwt beam="1">  1        2 0.11693901E+00 0.46470401E+03</pdfrwt>
<pdfrwt beam="2">  1       -2 0.10927145E-01 0.46470401E+03</pdfrwt>
<totfact> 0.21871976E+03</totfact>
</mgrwt>
</event>
<event>
 4    1  0.9012200E-005  0.3848979E+03  0.7818608E-02  0.1049138E+00
         -2   -1    0    0    0  501 -0.00000000000E+00  0.00000000000E+00  0.62239807759E+02  0.62239807811E+02  0.25500000000E-02 0.  1.
          2   -1    0    0  501    0  0.00000000000E+00 -0.00000000000E+00 -0.59506275492E+03  0.59506275493E+03  0.25500000000E-02 0. -1.
    5000001    1    1    2    0    0 -0.87072628401E+02  0.45305423433E+02 -0.24366799851E+03  0.31021495371E+03  0.16500000000E+03 0.  0.
   -5000001    1    1    2    0    0  0.87072628401E+02 -0.45305423433E+02 -0.28915494866E+03  0.34708760903E+03  0.16500000000E+03 0.  0.
<mgrwt>
<rscale>  0 0.38489786E+03</rscale>
<asrwt>0</asrwt>
<pdfrwt beam="1">  1        2 0.91548112E-01 0.38489786E+03</pdfrwt>
<pdfrwt beam="2">  1       -2 0.95753555E-02 0.38489786E+03</pdfrwt>
<totfact> 0.36434050E+03</totfact>
</mgrwt>
</event>
<event>
 4    1  0.9012200E-005  0.6755038E+03  0.7818608E-02  0.9760066E-01
          2   -1    0    0  501    0  0.00000000000E+00  0.00000000000E+00  0.10226014688E+04  0.10226014688E+04  0.25500000000E-02 0.  1.
         -2   -1    0    0    0  501 -0.00000000000E+00 -0.00000000000E+00 -0.11155504555E+03  0.11155504558E+03  0.25500000000E-02 0. -1.
    5000001    1    1    2    0    0  0.12055688356E+03 -0.24926153121E+03  0.28607041946E+03  0.43096004223E+03  0.16500000000E+03 0.  0.
   -5000001    1    1    2    0    0 -0.12055688356E+03  0.24926153121E+03  0.62497600382E+03  0.70319647217E+03  0.16500000000E+03 0.  0.
<mgrwt>
<rscale>  0 0.67550382E+03</rscale>
<asrwt>0</asrwt>
<pdfrwt beam="1">  1        2 0.15732330E+00 0.67550382E+03</pdfrwt>
<pdfrwt beam="2">  1       -2 0.17162315E-01 0.67550382E+03</pdfrwt>
<totfact> 0.68346544E+02</totfact>
</mgrwt>
</event>
<event>
 4    1  0.9012200E-005  0.4472968E+03  0.7818608E-02  0.1028531E+00
          2   -1    0    0  501    0  0.00000000000E+00  0.00000000000E+00  0.34386110758E+02  0.34386110852E+02  0.25500000000E-02 0.  1.
         -2   -1    0    0    0  501 -0.00000000000E+00 -0.00000000000E+00 -0.14546166846E+04  0.14546166846E+04  0.25500000000E-02 0. -1.
    5000001    1    1    2    0    0  0.43878367781E+02 -0.14445634640E+03 -0.71282649639E+03  0.74708738521E+03  0.16500000000E+03 0.  0.
   -5000001    1    1    2    0    0 -0.43878367781E+02  0.14445634640E+03 -0.70740407747E+03  0.74191541027E+03  0.16500000000E+03 0.  0.
<mgrwt>
<rscale>  0 0.44729682E+03</rscale>
<asrwt>0</asrwt>
<pdfrwt beam="1">  1        2 0.52901720E-02 0.44729682E+03</pdfrwt>
<pdfrwt beam="2">  1       -2 0.22378713E+00 0.44729682E+03</pdfrwt>
<totfact> 0.14872703E+02</totfact>
</mgrwt>
</event>
<event>
 4    1  0.9012200E-005  0.5974394E+03  0.7818608E-02  0.9910733E-01
         -2   -1    0    0    0  501 -0.00000000000E+00  0.00000000000E+00  0.33930556320E+02  0.33930556416E+02  0.25500000000E-02 0. -1.
          2   -1    0    0  501    0  0.00000000000E+00 -0.00000000000E+00 -0.26298846392E+04  0.26298846392E+04  0.25500000000E-02 0.  1.
    5000001    1    1    2    0    0 -0.21509341289E+03 -0.70131404409E+02 -0.17618738423E+04  0.17839865544E+04  0.16500000000E+03 0.  0.
   -5000001    1    1    2    0    0  0.21509341289E+03  0.70131404409E+02 -0.83408024062E+03  0.87982864124E+03  0.16500000000E+03 0.  0.
<mgrwt>
<rscale>  0 0.59743937E+03</rscale>
<asrwt>0</asrwt>
<pdfrwt beam="1">  1        2 0.40459748E+00 0.59743937E+03</pdfrwt>
<pdfrwt beam="2">  1       -2 0.52200877E-02 0.59743937E+03</pdfrwt>
<totfact> 0.59612958E+02</totfact>
</mgrwt>
</event>
<event>
 4    1  0.9012200E-005  0.8062537E+03  0.7818608E-02  0.9551009E-01
         -2   -1    0    0    0  501 -0.00000000000E+00  0.00000000000E+00  0.15547245610E+03  0.15547245612E+03  0.25500000000E-02 0. -1.
          2   -1    0    0  501    0  0.00000000000E+00 -0.00000000000E+00 -0.10452735106E+04  0.10452735106E+04  0.25500000000E-02 0.  1.
    5000001    1    1    2    0    0  0.23773101033E+03  0.19984006553E+03 -0.15141521712E+03  0.38288856478E+03  0.16500000000E+03 0.  0.
   -5000001    1    1    2    0    0 -0.23773101033E+03 -0.19984006553E+03 -0.73838583734E+03  0.81785740191E+03  0.16500000000E+03 0.  0.
<mgrwt>
<rscale>  0 0.80625366E+03</rscale>
<asrwt>0</asrwt>
<pdfrwt beam="1">  1        2 0.16081131E+00 0.80625366E+03</pdfrwt>
<pdfrwt beam="2">  1       -2 0.23918840E-01 0.80625366E+03</pdfrwt>
<totfact> 0.36764081E+02</totfact>
</mgrwt>
</event>
<event>
 4    1  0.9012200E-005  0.7923493E+03  0.7818608E-02  0.9571158E-01
         -2   -1    0    0    0  501 -0.00000000000E+00  0.00000000000E+00  0.29371245493E+03  0.29371245494E+03  0.25500000000E-02 0.  1.
          2   -1    0    0  501    0  0.00000000000E+00 -0.00000000000E+00 -0.53438105882E+03  0.53438105882E+03  0.25500000000E-02 0. -1.
    5000001    1    1    2    0    0  0.22067308342E+03 -0.24029521473E+03 -0.27983276065E+03  0.46040175271E+03  0.16500000000E+03 0.  0.
   -5000001    1    1    2    0    0 -0.22067308342E+03  0.24029521473E+03  0.39164156764E+02  0.36769176105E+03  0.16500000000E+03 0.  0.
<mgrwt>
<rscale>  0 0.79234935E+03</rscale>
<asrwt>0</asrwt>
<pdfrwt beam="1">  1        2 0.82212471E-01 0.79234935E+03</pdfrwt>
<pdfrwt beam="2">  1       -2 0.45186532E-01 0.79234935E+03</pdfrwt>
<totfact> 0.26636286E+02</totfact>
</mgrwt>
</event>
<event>
 4    1  0.9012200E-005  0.4780414E+03  0.7818608E-02  0.1019675E+00
         -2   -1    0    0    0  501 -0.00000000000E+00  0.00000000000E+00  0.19816372503E+03  0.19816372504E+03  0.25500000000E-02 0. -1.
          2   -1    0    0  501    0  0.00000000000E+00 -0.00000000000E+00 -0.28830143386E+03  0.28830143387E+03  0.25500000000E-02 0.  1.
    5000001    1    1    2    0    0 -0.54589135531E+01  0.12409863171E+03 -0.16750363059E+03  0.26591866499E+03  0.16500000000E+03 0.  0.
   -5000001    1    1    2    0    0  0.54589135531E+01 -0.12409863171E+03  0.77365921766E+02  0.22054649392E+03  0.16500000000E+03 0.  0.
<mgrwt>
<rscale>  0 0.47804136E+03</rscale>
<asrwt>0</asrwt>
<pdfrwt beam="1">  1        2 0.44354067E-01 0.47804136E+03</pdfrwt>
<pdfrwt beam="2">  1       -2 0.30486727E-01 0.47804136E+03</pdfrwt>
<totfact> 0.11411651E+03</totfact>
</mgrwt>
</event>
<event>
 4    1  0.9012200E-005  0.9719968E+03  0.7818608E-02  0.9339803E-01
          2   -1    0    0  501    0  0.00000000000E+00  0.00000000000E+00  0.58568310685E+03  0.58568310686E+03  0.25500000000E-02 0.  1.
         -2   -1    0    0    0  501 -0.00000000000E+00 -0.00000000000E+00 -0.40328027009E+03  0.40328027010E+03  0.25500000000E-02 0. -1.
    5000001    1    1    2    0    0 -0.23230197010E+03 -0.29606473322E+03  0.35525198935E+03  0.54318275701E+03  0.16500000000E+03 0.  0.
   -5000001    1    1    2    0    0  0.23230197010E+03  0.29606473322E+03 -0.17284915260E+03  0.44578061995E+03  0.16500000000E+03 0.  0.
<mgrwt>
<rscale>  0 0.97199679E+03</rscale>
<asrwt>0</asrwt>
<pdfrwt beam="1">  1        2 0.90105093E-01 0.97199679E+03</pdfrwt>
<pdfrwt beam="2">  1       -2 0.62043119E-01 0.97199679E+03</pdfrwt>
<totfact> 0.12323576E+02</totfact>
</mgrwt>
</event>
<event>
 4    1  0.9012200E-005  0.6344091E+03  0.7818608E-02  0.9836482E-01
          2   -1    0    0  501    0  0.00000000000E+00  0.00000000000E+00  0.19686862554E+04  0.19686862554E+04  0.25500000000E-02 0.  1.
         -2   -1    0    0    0  501 -0.00000000000E+00 -0.00000000000E+00 -0.51109580558E+02  0.51109580621E+02  0.25500000000E-02 0. -1.
    5000001    1    1    2    0    0  0.14360680865E+03 -0.22953890824E+03  0.92983500629E+03  0.98240987617E+03  0.16500000000E+03 0.  0.
   -5000001    1    1    2    0    0 -0.14360680865E+03  0.22953890824E+03  0.98774166854E+03  0.10373859598E+04  0.16500000000E+03 0.  0.
<mgrwt>
<rscale>  0 0.63440911E+03</rscale>
<asrwt>0</asrwt>
<pdfrwt beam="1">  1        2 0.30287479E+00 0.63440911E+03</pdfrwt>
<pdfrwt beam="2">  1       -2 0.78630128E-02 0.63440911E+03</pdfrwt>
<totfact> 0.72486671E+02</totfact>
</mgrwt>
</event>
<event>
 4    1  0.9012200E-005  0.5477190E+03  0.7818608E-02  0.1002023E+00
          2   -1    0    0  501    0  0.00000000000E+00  0.00000000000E+00  0.18568144186E+04  0.18568144186E+04  0.25500000000E-02 0.  1.
         -2   -1    0    0    0  501 -0.00000000000E+00 -0.00000000000E+00 -0.40391226809E+02  0.40391226890E+02  0.25500000000E-02 0. -1.
    5000001    1    1    2    0    0  0.12317257327E+03  0.15663337976E+03  0.59707333690E+03  0.65071273854E+03  0.16500000000E+03 0.  0.
   -5000001    1    1    2    0    0 -0.12317257327E+03 -0.15663337976E+03  0.12193498549E+04  0.12464929070E+04  0.16500000000E+03 0.  0.
<mgrwt>
<rscale>  0 0.54771895E+03</rscale>
<asrwt>0</asrwt>
<pdfrwt beam="1">  1        2 0.28566370E+00 0.54771895E+03</pdfrwt>
<pdfrwt beam="2">  1       -2 0.62140362E-02 0.54771895E+03</pdfrwt>
<totfact> 0.12150860E+03</totfact>
</mgrwt>
</event>
<event>
 4    1  0.9012200E-005  0.3749344E+03  0.7818608E-02  0.1052822E+00
         -2   -1    0    0    0  501 -0.00000000000E+00  0.00000000000E+00  0.42631016428E+02  0.42631016504E+02  0.25500000000E-02 0. -1.
          2   -1    0    0  501    0  0.00000000000E+00 -0.00000000000E+00 -0.82437532256E+03  0.82437532256E+03  0.25500000000E-02 0.  1.
    5000001    1    1    2    0    0 -0.40149143709E+02 -0.75415669445E+02 -0.33331743346E+03  0.38160842284E+03  0.16500000000E+03 0.  0.
   -5000001    1    1    2    0    0  0.40149143709E+02  0.75415669445E+02 -0.44842687267E+03  0.48539791622E+03  0.16500000000E+03 0.  0.
<mgrwt>
<rscale>  0 0.37493444E+03</rscale>
<asrwt>0</asrwt>
<pdfrwt beam="1">  1        2 0.12682696E+00 0.37493444E+03</pdfrwt>
<pdfrwt beam="2">  1       -2 0.65586185E-02 0.37493444E+03</pdfrwt>
<totfact> 0.44221617E+03</totfact>
</mgrwt>
</event>
<event>
 4    1  0.9012200E-005  0.5326565E+03  0.7818608E-02  0.1005590E+00
         -2   -1    0    0    0  501 -0.00000000000E+00  0.00000000000E+00  0.16493539220E+03  0.16493539222E+03  0.25500000000E-02 0. -1.
          2   -1    0    0  501    0  0.00000000000E+00 -0.00000000000E+00 -0.43005169034E+03  0.43005169035E+03  0.25500000000E-02 0.  1.
    5000001    1    1    2    0    0 -0.17983888840E+03 -0.10660014933E+03 -0.13295559458E+03  0.29767063636E+03  0.16500000000E+03 0.  0.
   -5000001    1    1    2    0    0  0.17983888840E+03  0.10660014933E+03 -0.13216070356E+03  0.29731644621E+03  0.16500000000E+03 0.  0.
<mgrwt>
<rscale>  0 0.53265653E+03</rscale>
<asrwt>0</asrwt>
<pdfrwt beam="1">  1        2 0.66161798E-01 0.53265653E+03</pdfrwt>
<pdfrwt beam="2">  1       -2 0.25374676E-01 0.53265653E+03</pdfrwt>
<totfact> 0.10241773E+03</totfact>
</mgrwt>
</event>
<event>
 4    1  0.9012200E-005  0.5414842E+03  0.7818608E-02  0.1003484E+00
         -2   -1    0    0    0  501 -0.00000000000E+00  0.00000000000E+00  0.58760758912E+02  0.58760758967E+02  0.25500000000E-02 0. -1.
          2   -1    0    0  501    0  0.00000000000E+00 -0.00000000000E+00 -0.12474530079E+04  0.12474530079E+04  0.25500000000E-02 0.  1.
    5000001    1    1    2    0    0  0.18324673162E+03  0.31016967619E+02 -0.85342666277E+03  0.88887765506E+03  0.16500000000E+03 0.  0.
   -5000001    1    1    2    0    0 -0.18324673162E+03 -0.31016967619E+02 -0.33526558625E+03  0.41733611185E+03  0.16500000000E+03 0.  0.
<mgrwt>
<rscale>  0 0.54148420E+03</rscale>
<asrwt>0</asrwt>
<pdfrwt beam="1">  1        2 0.19191583E+00 0.54148420E+03</pdfrwt>
<pdfrwt beam="2">  1       -2 0.90401177E-02 0.54148420E+03</pdfrwt>
<totfact> 0.14534921E+03</totfact>
</mgrwt>
</event>
<event>
 4    1  0.9012200E-005  0.6313938E+03  0.7818608E-02  0.9842333E-01
          2   -1    0    0  501    0  0.00000000000E+00  0.00000000000E+00  0.25485019149E+04  0.25485019149E+04  0.25500000000E-02 0.  1.
         -2   -1    0    0    0  501 -0.00000000000E+00 -0.00000000000E+00 -0.39107107974E+02  0.39107108057E+02  0.25500000000E-02 0. -1.
    5000001    1    1    2    0    0 -0.25080886540E+03 -0.94648332867E+02  0.11563269837E+04  0.11984074796E+04  0.16500000000E+03 0.  0.
   -5000001    1    1    2    0    0  0.25080886540E+03  0.94648332867E+02  0.13530678233E+04  0.13892015434E+04  0.16500000000E+03 0.  0.
<mgrwt>
<rscale>  0 0.63139382E+03</rscale>
<asrwt>0</asrwt>
<pdfrwt beam="1">  1        2 0.39207737E+00 0.63139382E+03</pdfrwt>
<pdfrwt beam="2">  1       -2 0.60164758E-02 0.63139382E+03</pdfrwt>
<totfact> 0.52975475E+02</totfact>
</mgrwt>
</event>
<event>
 4    1  0.9012200E-005  0.3530656E+03  0.7818608E-02  0.1061364E+00
          2   -1    0    0  501    0  0.00000000000E+00  0.00000000000E+00  0.10557423808E+04  0.10557423808E+04  0.25500000000E-02 0.  1.
         -2   -1    0    0    0  501 -0.00000000000E+00 -0.00000000000E+00 -0.29518405048E+02  0.29518405158E+02  0.25500000000E-02 0. -1.
    5000001    1    1    2    0    0 -0.32804480454E+02 -0.15953098153E+02  0.67009360747E+03  0.69107241158E+03  0.16500000000E+03 0.  0.
   -5000001    1    1    2    0    0  0.32804480454E+02  0.15953098153E+02  0.35613036823E+03  0.39418837433E+03  0.16500000000E+03 0.  0.
<mgrwt>
<rscale>  0 0.35306561E+03</rscale>
<asrwt>0</asrwt>
<pdfrwt beam="1">  1        2 0.16242189E+00 0.35306561E+03</pdfrwt>
<pdfrwt beam="2">  1       -2 0.45412934E-02 0.35306561E+03</pdfrwt>
<totfact> 0.55274221E+03</totfact>
</mgrwt>
</event>
<event>
 4    1  0.9012200E-005  0.3515327E+03  0.7818608E-02  0.1061988E+00
         -2   -1    0    0    0  501 -0.00000000000E+00  0.00000000000E+00  0.64260344108E+02  0.64260344159E+02  0.25500000000E-02 0.  1.
          2   -1    0    0  501    0  0.00000000000E+00 -0.00000000000E+00 -0.48076010756E+03  0.48076010757E+03  0.25500000000E-02 0. -1.
    5000001    1    1    2    0    0  0.44588236669E+02 -0.19657425926E+02 -0.15247200477E+03  0.22988527026E+03  0.16500000000E+03 0.  0.
   -5000001    1    1    2    0    0 -0.44588236669E+02  0.19657425926E+02 -0.26402775869E+03  0.31513518147E+03  0.16500000000E+03 0.  0.
<mgrwt>
<rscale>  0 0.35153270E+03</rscale>
<asrwt>0</asrwt>
<pdfrwt beam="1">  1        2 0.73963091E-01 0.35153270E+03</pdfrwt>
<pdfrwt beam="2">  1       -2 0.98862071E-02 0.35153270E+03</pdfrwt>
<totfact> 0.44144060E+03</totfact>
</mgrwt>
</event>
<event>
 4    1  0.9012200E-005  0.8633785E+03  0.7818608E-02  0.9472555E-01
          2   -1    0    0  501    0  0.00000000000E+00  0.00000000000E+00  0.24096312304E+04  0.24096312304E+04  0.25500000000E-02 0.  1.
         -2   -1    0    0    0  501 -0.00000000000E+00 -0.00000000000E+00 -0.77337813919E+02  0.77337813961E+02  0.25500000000E-02 0. -1.
    5000001    1    1    2    0    0  0.20091835313E+01  0.39552248032E+03  0.10167890141E+04  0.11034160450E+04  0.16500000000E+03 0.  0.
   -5000001    1    1    2    0    0 -0.20091835313E+01 -0.39552248032E+03  0.13155044024E+04  0.13835529994E+04  0.16500000000E+03 0.  0.
<mgrwt>
<rscale>  0 0.86337851E+03</rscale>
<asrwt>0</asrwt>
<pdfrwt beam="1">  1        2 0.37071247E+00 0.86337851E+03</pdfrwt>
<pdfrwt beam="2">  1       -2 0.11898126E-01 0.86337851E+03</pdfrwt>
<totfact> 0.20752617E+02</totfact>
</mgrwt>
</event>
<event>
 4    1  0.9012200E-005  0.4057118E+03  0.7818608E-02  0.1041820E+00
          2   -1    0    0  501    0  0.00000000000E+00  0.00000000000E+00  0.90462506750E+03  0.90462506751E+03  0.25500000000E-02 0.  1.
         -2   -1    0    0    0  501 -0.00000000000E+00 -0.00000000000E+00 -0.45489034035E+02  0.45489034107E+02  0.25500000000E-02 0. -1.
    5000001    1    1    2    0    0  0.60030837946E+02 -0.61335070682E+02  0.61924050073E+03  0.64656746759E+03  0.16500000000E+03 0.  0.
   -5000001    1    1    2    0    0 -0.60030837946E+02  0.61335070682E+02  0.23989553274E+03  0.30354663402E+03  0.16500000000E+03 0.  0.
<mgrwt>
<rscale>  0 0.40571182E+03</rscale>
<asrwt>0</asrwt>
<pdfrwt beam="1">  1        2 0.13917308E+00 0.40571182E+03</pdfrwt>
<pdfrwt beam="2">  1       -2 0.69983135E-02 0.40571182E+03</pdfrwt>
<totfact> 0.35333941E+03</totfact>
</mgrwt>
</event>
<event>
 4    1  0.9012200E-005  0.6527382E+03  0.7818608E-02  0.9801655E-01
          2   -1    0    0  501    0  0.00000000000E+00  0.00000000000E+00  0.14386709815E+04  0.14386709815E+04  0.25500000000E-02 0.  1.
         -2   -1    0    0    0  501 -0.00000000000E+00 -0.00000000000E+00 -0.74038322393E+02  0.74038322437E+02  0.25500000000E-02 0. -1.
    5000001    1    1    2    0    0 -0.49974788113E+02 -0.24858550649E+03  0.39848808788E+03  0.50030989363E+03  0.16500000000E+03 0.  0.
   -5000001    1    1    2    0    0  0.49974788113E+02  0.24858550649E+03  0.96614457125E+03  0.10123994103E+04  0.16500000000E+03 0.  0.
<mgrwt>
<rscale>  0 0.65273819E+03</rscale>
<asrwt>0</asrwt>
<pdfrwt beam="1">  1        2 0.22133400E+00 0.65273819E+03</pdfrwt>
<pdfrwt beam="2">  1       -2 0.11390511E-01 0.65273819E+03</pdfrwt>
<totfact> 0.77468641E+02</totfact>
</mgrwt>
</event>
<event>
 4    1  0.9012200E-005  0.3704718E+03  0.7818608E-02  0.1054513E+00
         -2   -1    0    0    0  501 -0.00000000000E+00  0.00000000000E+00  0.10140454495E+02  0.10140454815E+02  0.25500000000E-02 0. -1.
          2   -1    0    0  501    0  0.00000000000E+00 -0.00000000000E+00 -0.33837089976E+04  0.33837089976E+04  0.25500000000E-02 0.  1.
    5000001    1    1    2    0    0 -0.51820313007E+02 -0.66209953961E+02 -0.16476545193E+04  0.16580288049E+04  0.16500000000E+03 0.  0.
   -5000001    1    1    2    0    0  0.51820313007E+02  0.66209953961E+02 -0.17259140237E+04  0.17358206475E+04  0.16500000000E+03 0.  0.
<mgrwt>
<rscale>  0 0.37047185E+03</rscale>
<asrwt>0</asrwt>
<pdfrwt beam="1">  1        2 0.52056971E+00 0.37047185E+03</pdfrwt>
<pdfrwt beam="2">  1       -2 0.15600726E-02 0.37047185E+03</pdfrwt>
<totfact> 0.13249283E+03</totfact>
</mgrwt>
</event>
<event>
 4    1  0.9012200E-005  0.7179225E+03  0.7818608E-02  0.9687064E-01
         -2   -1    0    0    0  501 -0.00000000000E+00  0.00000000000E+00  0.98787108472E+02  0.98787108505E+02  0.25500000000E-02 0. -1.
          2   -1    0    0  501    0  0.00000000000E+00 -0.00000000000E+00 -0.13043521345E+04  0.13043521345E+04  0.25500000000E-02 0.  1.
    5000001    1    1    2    0    0 -0.14069352787E+02 -0.10113132602E+03 -0.11930203165E+04  0.12086968054E+04  0.16500000000E+03 0.  0.
   -5000001    1    1    2    0    0  0.14069352787E+02  0.10113132602E+03 -0.12544709479E+02  0.19444243756E+03  0.16500000000E+03 0.  0.
<mgrwt>
<rscale>  0 0.71792249E+03</rscale>
<asrwt>0</asrwt>
<pdfrwt beam="1">  1        2 0.20066955E+00 0.71792249E+03</pdfrwt>
<pdfrwt beam="2">  1       -2 0.15198018E-01 0.71792249E+03</pdfrwt>
<totfact> 0.56904781E+02</totfact>
</mgrwt>
</event>
<event>
 4    1  0.9012200E-005  0.4131532E+03  0.7818608E-02  0.1039318E+00
          2   -1    0    0  501    0  0.00000000000E+00  0.00000000000E+00  0.19104273134E+03  0.19104273136E+03  0.25500000000E-02 0.  1.
         -2   -1    0    0    0  501 -0.00000000000E+00 -0.00000000000E+00 -0.22337349691E+03  0.22337349692E+03  0.25500000000E-02 0. -1.
    5000001    1    1    2    0    0  0.64509148115E+02  0.96327186721E+02  0.28788208475E+02  0.20370105066E+03  0.16500000000E+03 0.  0.
   -5000001    1    1    2    0    0 -0.64509148115E+02 -0.96327186721E+02 -0.61118974046E+02  0.21071517762E+03  0.16500000000E+03 0.  0.
<mgrwt>
<rscale>  0 0.41315316E+03</rscale>
<asrwt>0</asrwt>
<pdfrwt beam="1">  1        2 0.29391190E-01 0.41315316E+03</pdfrwt>
<pdfrwt beam="2">  1       -2 0.34365153E-01 0.41315316E+03</pdfrwt>
<totfact> 0.14368051E+03</totfact>
</mgrwt>
</event>
<event>
 4    1  0.9012200E-005  0.4740785E+03  0.7818608E-02  0.1020775E+00
         -2   -1    0    0    0  501 -0.00000000000E+00  0.00000000000E+00  0.31296800654E+03  0.31296800655E+03  0.25500000000E-02 0. -1.
          2   -1    0    0  501    0  0.00000000000E+00 -0.00000000000E+00 -0.17953148258E+03  0.17953148260E+03  0.25500000000E-02 0.  1.
    5000001    1    1    2    0    0 -0.14875926750E+03  0.82098844577E+02  0.56696109545E+02  0.24353436880E+03  0.16500000000E+03 0.  0.
   -5000001    1    1    2    0    0  0.14875926750E+03 -0.82098844577E+02  0.76740414410E+02  0.24896512035E+03  0.16500000000E+03 0.  0.
<mgrwt>
<rscale>  0 0.47407852E+03</rscale>
<asrwt>0</asrwt>
<pdfrwt beam="1">  1        2 0.27620228E-01 0.47407852E+03</pdfrwt>
<pdfrwt beam="2">  1       -2 0.48148924E-01 0.47407852E+03</pdfrwt>
<totfact> 0.80190096E+02</totfact>
</mgrwt>
</event>
<event>
 4    1  0.9012200E-005  0.4452557E+03  0.7818608E-02  0.1029146E+00
         -2   -1    0    0    0  501 -0.00000000000E+00  0.00000000000E+00  0.61905287377E+02  0.61905287430E+02  0.25500000000E-02 0. -1.
          2   -1    0    0  501    0  0.00000000000E+00 -0.00000000000E+00 -0.80062885615E+03  0.80062885615E+03  0.25500000000E-02 0.  1.
    5000001    1    1    2    0    0  0.80425060190E+02 -0.10807270083E+03 -0.49475883411E+03  0.53866427661E+03  0.16500000000E+03 0.  0.
   -5000001    1    1    2    0    0 -0.80425060190E+02  0.10807270083E+03 -0.24396473466E+03  0.32386986697E+03  0.16500000000E+03 0.  0.
<mgrwt>
<rscale>  0 0.44525570E+03</rscale>
<asrwt>0</asrwt>
<pdfrwt beam="1">  1        2 0.12317366E+00 0.44525570E+03</pdfrwt>
<pdfrwt beam="2">  1       -2 0.95238909E-02 0.44525570E+03</pdfrwt>
<totfact> 0.25532265E+03</totfact>
</mgrwt>
</event>
<event>
 4    1  0.9012200E-005  0.3806190E+03  0.7818608E-02  0.1050705E+00
          2   -1    0    0  501    0  0.00000000000E+00  0.00000000000E+00  0.10501717073E+04  0.10501717073E+04  0.25500000000E-02 0.  1.
         -2   -1    0    0    0  501 -0.00000000000E+00 -0.00000000000E+00 -0.34487406680E+02  0.34487406774E+02  0.25500000000E-02 0. -1.
    5000001    1    1    2    0    0  0.31284406646E+02  0.84801271936E+02  0.58958151293E+03  0.61887101258E+03  0.16500000000E+03 0.  0.
   -5000001    1    1    2    0    0 -0.31284406646E+02 -0.84801271936E+02  0.42610278770E+03  0.46578810151E+03  0.16500000000E+03 0.  0.
<mgrwt>
<rscale>  0 0.38061896E+03</rscale>
<asrwt>0</asrwt>
<pdfrwt beam="1">  1        2 0.16156487E+00 0.38061896E+03</pdfrwt>
<pdfrwt beam="2">  1       -2 0.53057553E-02 0.38061896E+03</pdfrwt>
<totfact> 0.43936101E+03</totfact>
</mgrwt>
</event>
<event>
 4    1  0.9012200E-005  0.1241467E+04  0.7818608E-02  0.9077315E-01
         -2   -1    0    0    0  501 -0.00000000000E+00  0.00000000000E+00  0.11863480304E+04  0.11863480304E+04  0.25500000000E-02 0. -1.
          2   -1    0    0  501    0  0.00000000000E+00 -0.00000000000E+00 -0.32478692455E+03  0.32478692456E+03  0.25500000000E-02 0.  1.
    5000001    1    1    2    0    0 -0.13579812085E+03  0.50606533279E+03  0.78260058705E+03  0.95615476233E+03  0.16500000000E+03 0.  0.
   -5000001    1    1    2    0    0  0.13579812085E+03 -0.50606533279E+03  0.78960518796E+02  0.55498019263E+03  0.16500000000E+03 0.  0.
<mgrwt>
<rscale>  0 0.12414674E+04</rscale>
<asrwt>0</asrwt>
<pdfrwt beam="1">  1        2 0.49967219E-01 0.12414674E+04</pdfrwt>
<pdfrwt beam="2">  1       -2 0.18251508E+00 0.12414674E+04</pdfrwt>
<totfact> 0.17208294E+01</totfact>
</mgrwt>
</event>
<event>
 4    1  0.9012200E-005  0.1046402E+04  0.7818608E-02  0.9259066E-01
          2   -1    0    0  501    0  0.00000000000E+00  0.00000000000E+00  0.12523418734E+04  0.12523418734E+04  0.25500000000E-02 0.  1.
         -2   -1    0    0    0  501 -0.00000000000E+00 -0.00000000000E+00 -0.21858207858E+03  0.21858207859E+03  0.25500000000E-02 0. -1.
    5000001    1    1    2    0    0 -0.12966559023E+03 -0.34578451479E+03  0.98338132860E+03  0.10633174189E+04  0.16500000000E+03 0.  0.
   -5000001    1    1    2    0    0  0.12966559023E+03  0.34578451479E+03  0.50378466253E+02  0.40760653310E+03  0.16500000000E+03 0.  0.
<mgrwt>
<rscale>  0 0.10464024E+04</rscale>
<asrwt>0</asrwt>
<pdfrwt beam="1">  1        2 0.19266798E+00 0.10464024E+04</pdfrwt>
<pdfrwt beam="2">  1       -2 0.33628011E-01 0.10464024E+04</pdfrwt>
<totfact> 0.14501931E+02</totfact>
</mgrwt>
</event>
<event>
 4    1  0.9012200E-005  0.3821654E+03  0.7818608E-02  0.1050136E+00
         -2   -1    0    0    0  501 -0.00000000000E+00  0.00000000000E+00  0.59834649391E+03  0.59834649392E+03  0.25500000000E-02 0. -1.
          2   -1    0    0  501    0  0.00000000000E+00 -0.00000000000E+00 -0.61022511276E+02  0.61022511330E+02  0.25500000000E-02 0.  1.
    5000001    1    1    2    0    0 -0.63040163467E+02  0.41618390003E+02  0.16540802265E+03  0.24554218895E+03  0.16500000000E+03 0.  0.
   -5000001    1    1    2    0    0  0.63040163467E+02 -0.41618390003E+02  0.37191595998E+03  0.41382681630E+03  0.16500000000E+03 0.  0.
<mgrwt>
<rscale>  0 0.38216544E+03</rscale>
<asrwt>0</asrwt>
<pdfrwt beam="1">  1        2 0.93880794E-02 0.38216544E+03</pdfrwt>
<pdfrwt beam="2">  1       -2 0.92053300E-01 0.38216544E+03</pdfrwt>
<totfact> 0.72484201E+02</totfact>
</mgrwt>
</event>
<event>
 4    1  0.9012200E-005  0.6457993E+03  0.7818608E-02  0.9814694E-01
          2   -1    0    0  501    0  0.00000000000E+00  0.00000000000E+00  0.10086813021E+04  0.10086813021E+04  0.25500000000E-02 0.  1.
         -2   -1    0    0    0  501 -0.00000000000E+00 -0.00000000000E+00 -0.10336682070E+03  0.10336682073E+03  0.25500000000E-02 0. -1.
    5000001    1    1    2    0    0  0.21121711368E+03 -0.76814977522E+02  0.17220323106E+03  0.32770743457E+03  0.16500000000E+03 0.  0.
   -5000001    1    1    2    0    0 -0.21121711368E+03  0.76814977522E+02  0.73311125034E+03  0.78434068825E+03  0.16500000000E+03 0.  0.
<mgrwt>
<rscale>  0 0.64579929E+03</rscale>
<asrwt>0</asrwt>
<pdfrwt beam="1">  1        2 0.15518174E+00 0.64579929E+03</pdfrwt>
<pdfrwt beam="2">  1       -2 0.15902588E-01 0.64579929E+03</pdfrwt>
<totfact> 0.79508002E+02</totfact>
</mgrwt>
</event>
<event>
 4    1  0.9012200E-005  0.4822387E+03  0.7818608E-02  0.1018522E+00
         -2   -1    0    0    0  501 -0.00000000000E+00  0.00000000000E+00  0.30308890281E+03  0.30308890282E+03  0.25500000000E-02 0. -1.
          2   -1    0    0  501    0  0.00000000000E+00 -0.00000000000E+00 -0.19182006919E+03  0.19182006921E+03  0.25500000000E-02 0.  1.
    5000001    1    1    2    0    0 -0.82594978682E+01 -0.15005892679E+03  0.14928793434E+03  0.26851031294E+03  0.16500000000E+03 0.  0.
   -5000001    1    1    2    0    0  0.82594978682E+01  0.15005892679E+03 -0.38019100729E+02  0.22639865908E+03  0.16500000000E+03 0.  0.
<mgrwt>
<rscale>  0 0.48223867E+03</rscale>
<asrwt>0</asrwt>
<pdfrwt beam="1">  1        2 0.29510780E-01 0.48223867E+03</pdfrwt>
<pdfrwt beam="2">  1       -2 0.46629062E-01 0.48223867E+03</pdfrwt>
<totfact> 0.79373329E+02</totfact>
</mgrwt>
</event>
<event>
 4    1  0.9012200E-005  0.4784086E+03  0.7818608E-02  0.1019573E+00
         -2   -1    0    0    0  501 -0.00000000000E+00  0.00000000000E+00  0.89640002820E+02  0.89640002856E+02  0.25500000000E-02 0. -1.
          2   -1    0    0  501    0  0.00000000000E+00 -0.00000000000E+00 -0.63831665714E+03  0.63831665715E+03  0.25500000000E-02 0.  1.
    5000001    1    1    2    0    0  0.80168063318E+02 -0.14854983020E+03 -0.33326528135E+03  0.40839284786E+03  0.16500000000E+03 0.  0.
   -5000001    1    1    2    0    0 -0.80168063318E+02  0.14854983020E+03 -0.21541137297E+03  0.31956381215E+03  0.16500000000E+03 0.  0.
<mgrwt>
<rscale>  0 0.47840864E+03</rscale>
<asrwt>0</asrwt>
<pdfrwt beam="1">  1        2 0.98202560E-01 0.47840864E+03</pdfrwt>
<pdfrwt beam="2">  1       -2 0.13790770E-01 0.47840864E+03</pdfrwt>
<totfact> 0.18537359E+03</totfact>
</mgrwt>
</event>
<event>
 4    1  0.9012200E-005  0.3939961E+03  0.7818608E-02  0.1045879E+00
          2   -1    0    0  501    0  0.00000000000E+00  0.00000000000E+00  0.36519729477E+04  0.36519729477E+04  0.25500000000E-02 0.  1.
         -2   -1    0    0    0  501 -0.00000000000E+00 -0.00000000000E+00 -0.10626650686E+02  0.10626650992E+02  0.25500000000E-02 0. -1.
    5000001    1    1    2    0    0 -0.52326306213E+02 -0.89185160469E+02  0.20981882181E+04  0.21072045068E+04  0.16500000000E+03 0.  0.
   -5000001    1    1    2    0    0  0.52326306213E+02  0.89185160469E+02  0.15431580790E+04  0.15553950919E+04  0.16500000000E+03 0.  0.
<mgrwt>
<rscale>  0 0.39399615E+03</rscale>
<asrwt>0</asrwt>
<pdfrwt beam="1">  1        2 0.56184244E+00 0.39399615E+03</pdfrwt>
<pdfrwt beam="2">  1       -2 0.16348681E-02 0.39399615E+03</pdfrwt>
<totfact> 0.81292243E+02</totfact>
</mgrwt>
</event>
<event>
 4    1  0.9012200E-005  0.5636931E+03  0.7818608E-02  0.9983733E-01
         -2   -1    0    0    0  501 -0.00000000000E+00  0.00000000000E+00  0.11594315791E+04  0.11594315791E+04  0.25500000000E-02 0. -1.
          2   -1    0    0  501    0  0.00000000000E+00 -0.00000000000E+00 -0.68514155376E+02  0.68514155423E+02  0.25500000000E-02 0.  1.
    5000001    1    1    2    0    0  0.57778612149E+02  0.21672280948E+03  0.64054583408E+03  0.69844907454E+03  0.16500000000E+03 0.  0.
   -5000001    1    1    2    0    0 -0.57778612149E+02 -0.21672280948E+03  0.45037158963E+03  0.52949665997E+03  0.16500000000E+03 0.  0.
<mgrwt>
<rscale>  0 0.56369309E+03</rscale>
<asrwt>0</asrwt>
<pdfrwt beam="1">  1        2 0.10540639E-01 0.56369309E+03</pdfrwt>
<pdfrwt beam="2">  1       -2 0.17837409E+00 0.56369309E+03</pdfrwt>
<totfact> 0.11826354E+02</totfact>
</mgrwt>
</event>
<event>
 4    1  0.9012200E-005  0.7963130E+03  0.7818608E-02  0.9565369E-01
         -2   -1    0    0    0  501 -0.00000000000E+00  0.00000000000E+00  0.23906086860E+03  0.23906086861E+03  0.25500000000E-02 0. -1.
          2   -1    0    0  501    0  0.00000000000E+00 -0.00000000000E+00 -0.66313072043E+03  0.66313072043E+03  0.25500000000E-02 0.  1.
    5000001    1    1    2    0    0  0.35512864331E+03 -0.30884516330E+02 -0.28575055545E+03  0.48574539276E+03  0.16500000000E+03 0.  0.
   -5000001    1    1    2    0    0 -0.35512864331E+03  0.30884516330E+02 -0.13831929638E+03  0.41644619629E+03  0.16500000000E+03 0.  0.
<mgrwt>
<rscale>  0 0.79631302E+03</rscale>
<asrwt>0</asrwt>
<pdfrwt beam="1">  1        2 0.10202011E+00 0.79631302E+03</pdfrwt>
<pdfrwt beam="2">  1       -2 0.36778595E-01 0.79631302E+03</pdfrwt>
<totfact> 0.30711991E+02</totfact>
</mgrwt>
</event>
<event>
 4    1  0.9012200E-005  0.4384958E+03  0.7818608E-02  0.1031209E+00
          2   -1    0    0  501    0  0.00000000000E+00  0.00000000000E+00  0.74878724896E+03  0.74878724896E+03  0.25500000000E-02 0.  1.
         -2   -1    0    0    0  501 -0.00000000000E+00 -0.00000000000E+00 -0.64196676012E+02  0.64196676062E+02  0.25500000000E-02 0. -1.
    5000001    1    1    2    0    0  0.11242900334E+02 -0.14017826939E+03  0.40289402444E+03  0.45752043118E+03  0.16500000000E+03 0.  0.
   -5000001    1    1    2    0    0 -0.11242900334E+02  0.14017826939E+03  0.28169654851E+03  0.35546349385E+03  0.16500000000E+03 0.  0.
<mgrwt>
<rscale>  0 0.43849585E+03</rscale>
<asrwt>0</asrwt>
<pdfrwt beam="1">  1        2 0.11519805E+00 0.43849585E+03</pdfrwt>
<pdfrwt beam="2">  1       -2 0.98764111E-02 0.43849585E+03</pdfrwt>
<totfact> 0.26242724E+03</totfact>
</mgrwt>
</event>
<event>
 4    1  0.9012200E-005  0.4712169E+03  0.7818608E-02  0.1021577E+00
         -2   -1    0    0    0  501 -0.00000000000E+00  0.00000000000E+00  0.42232654274E+02  0.42232654351E+02  0.25500000000E-02 0. -1.
          2   -1    0    0  501    0  0.00000000000E+00 -0.00000000000E+00 -0.13144177291E+04  0.13144177291E+04  0.25500000000E-02 0.  1.
    5000001    1    1    2    0    0 -0.94467482923E+01  0.87165587342E+02 -0.22288050741E+03  0.29083982062E+03  0.16500000000E+03 0.  0.
   -5000001    1    1    2    0    0  0.94467482923E+01 -0.87165587342E+02 -0.10493045675E+04  0.10658105629E+04  0.16500000000E+03 0.  0.
<mgrwt>
<rscale>  0 0.47121693E+03</rscale>
<asrwt>0</asrwt>
<pdfrwt beam="1">  1        2 0.20221808E+00 0.47121693E+03</pdfrwt>
<pdfrwt beam="2">  1       -2 0.64973324E-02 0.47121693E+03</pdfrwt>
<totfact> 0.22497688E+03</totfact>
</mgrwt>
</event>
<event>
 4    1  0.9012200E-005  0.3916124E+03  0.7818608E-02  0.1046723E+00
         -2   -1    0    0    0  501 -0.00000000000E+00  0.00000000000E+00  0.81144463767E+02  0.81144463807E+02  0.25500000000E-02 0. -1.
          2   -1    0    0  501    0  0.00000000000E+00 -0.00000000000E+00 -0.47249154443E+03  0.47249154443E+03  0.25500000000E-02 0.  1.
    5000001    1    1    2    0    0 -0.61585784094E+02  0.75110417102E+02 -0.13771577882E+03  0.23584956921E+03  0.16500000000E+03 0.  0.
   -5000001    1    1    2    0    0  0.61585784094E+02 -0.75110417102E+02 -0.25363130184E+03  0.31778643903E+03  0.16500000000E+03 0.  0.
<mgrwt>
<rscale>  0 0.39161243E+03</rscale>
<asrwt>0</asrwt>
<pdfrwt beam="1">  1        2 0.72691005E-01 0.39161243E+03</pdfrwt>
<pdfrwt beam="2">  1       -2 0.12483764E-01 0.39161243E+03</pdfrwt>
<totfact> 0.30930658E+03</totfact>
</mgrwt>
</event>
<event>
 4    1  0.9012200E-005  0.3598359E+03  0.7818608E-02  0.1058649E+00
          2   -1    0    0  501    0  0.00000000000E+00  0.00000000000E+00  0.84412631803E+02  0.84412631841E+02  0.25500000000E-02 0.  1.
         -2   -1    0    0    0  501 -0.00000000000E+00 -0.00000000000E+00 -0.38347893907E+03  0.38347893908E+03  0.25500000000E-02 0. -1.
    5000001    1    1    2    0    0 -0.70449113958E+02 -0.10319941919E+02 -0.13820585708E+03  0.22670561923E+03  0.16500000000E+03 0.  0.
   -5000001    1    1    2    0    0  0.70449113958E+02  0.10319941919E+02 -0.16086045019E+03  0.24118595170E+03  0.16500000000E+03 0.  0.
<mgrwt>
<rscale>  0 0.35983589E+03</rscale>
<asrwt>0</asrwt>
<pdfrwt beam="1">  1        2 0.12986559E-01 0.35983589E+03</pdfrwt>
<pdfrwt beam="2">  1       -2 0.58996759E-01 0.35983589E+03</pdfrwt>
<totfact> 0.12778516E+03</totfact>
</mgrwt>
</event>
<event>
 4    1  0.9012200E-005  0.4700288E+03  0.7818608E-02  0.1021912E+00
          2   -1    0    0  501    0  0.00000000000E+00  0.00000000000E+00  0.24016423637E+03  0.24016423638E+03  0.25500000000E-02 0.  1.
         -2   -1    0    0    0  501 -0.00000000000E+00 -0.00000000000E+00 -0.22997494280E+03  0.22997494282E+03  0.25500000000E-02 0. -1.
    5000001    1    1    2    0    0  0.16492863742E+03  0.18725913522E+01  0.33417275213E+02  0.23568342395E+03  0.16500000000E+03 0.  0.
   -5000001    1    1    2    0    0 -0.16492863742E+03 -0.18725913522E+01 -0.23227981646E+02  0.23445575525E+03  0.16500000000E+03 0.  0.
<mgrwt>
<rscale>  0 0.47002875E+03</rscale>
<asrwt>0</asrwt>
<pdfrwt beam="1">  1        2 0.36948344E-01 0.47002875E+03</pdfrwt>
<pdfrwt beam="2">  1       -2 0.35380760E-01 0.47002875E+03</pdfrwt>
<totfact> 0.10563041E+03</totfact>
</mgrwt>
</event>
<event>
 4    1  0.9012200E-005  0.6182433E+03  0.7818608E-02  0.9868263E-01
         -2   -1    0    0    0  501 -0.00000000000E+00  0.00000000000E+00  0.69221738213E+02  0.69221738260E+02  0.25500000000E-02 0. -1.
          2   -1    0    0  501    0  0.00000000000E+00 -0.00000000000E+00 -0.13804364159E+04  0.13804364159E+04  0.25500000000E-02 0.  1.
    5000001    1    1    2    0    0  0.18459038742E+03  0.15691186874E+03 -0.88578356493E+03  0.93302329531E+03  0.16500000000E+03 0.  0.
   -5000001    1    1    2    0    0 -0.18459038742E+03 -0.15691186874E+03 -0.42543111272E+03  0.51663485882E+03  0.16500000000E+03 0.  0.
<mgrwt>
<rscale>  0 0.61824334E+03</rscale>
<asrwt>0</asrwt>
<pdfrwt beam="1">  1        2 0.21237481E+00 0.61824334E+03</pdfrwt>
<pdfrwt beam="2">  1       -2 0.10649499E-01 0.61824334E+03</pdfrwt>
<totfact> 0.93389093E+02</totfact>
</mgrwt>
</event>
<event>
 4    1  0.9012200E-005  0.5088790E+03  0.7818608E-02  0.1011487E+00
          2   -1    0    0  501    0  0.00000000000E+00  0.00000000000E+00  0.10858099607E+04  0.10858099607E+04  0.25500000000E-02 0.  1.
         -2   -1    0    0    0  501 -0.00000000000E+00 -0.00000000000E+00 -0.59623185657E+02  0.59623185712E+02  0.25500000000E-02 0. -1.
    5000001    1    1    2    0    0 -0.18932698400E+03  0.38517788976E+02  0.54380156726E+03  0.60022784965E+03  0.16500000000E+03 0.  0.
   -5000001    1    1    2    0    0  0.18932698400E+03 -0.38517788976E+02  0.48238520783E+03  0.54520529681E+03  0.16500000000E+03 0.  0.
<mgrwt>
<rscale>  0 0.50887896E+03</rscale>
<asrwt>0</asrwt>
<pdfrwt beam="1">  1        2 0.16704767E+00 0.50887896E+03</pdfrwt>
<pdfrwt beam="2">  1       -2 0.91727986E-02 0.50887896E+03</pdfrwt>
<totfact> 0.17703860E+03</totfact>
</mgrwt>
</event>
<event>
 4    1  0.9012200E-005  0.3860910E+03  0.7818608E-02  0.1048705E+00
         -2   -1    0    0    0  501 -0.00000000000E+00  0.00000000000E+00  0.11952151887E+02  0.11952152159E+02  0.25500000000E-02 0. -1.
          2   -1    0    0  501    0  0.00000000000E+00 -0.00000000000E+00 -0.31179789562E+04  0.31179789562E+04  0.25500000000E-02 0.  1.
    5000001    1    1    2    0    0 -0.32104427489E+02  0.94783057455E+02 -0.15951654175E+04  0.16067956408E+04  0.16500000000E+03 0.  0.
   -5000001    1    1    2    0    0  0.32104427489E+02 -0.94783057455E+02 -0.15108613868E+04  0.15231354675E+04  0.16500000000E+03 0.  0.
<mgrwt>
<rscale>  0 0.38609097E+03</rscale>
<asrwt>0</asrwt>
<pdfrwt beam="1">  1        2 0.47968842E+00 0.38609097E+03</pdfrwt>
<pdfrwt beam="2">  1       -2 0.18387951E-02 0.38609097E+03</pdfrwt>
<totfact> 0.15252546E+03</totfact>
</mgrwt>
</event>
<event>
 4    1  0.9012200E-005  0.6854037E+03  0.7818608E-02  0.9742525E-01
          2   -1    0    0  501    0  0.00000000000E+00  0.00000000000E+00  0.15144628435E+04  0.15144628435E+04  0.25500000000E-02 0.  1.
         -2   -1    0    0    0  501 -0.00000000000E+00 -0.00000000000E+00 -0.77548660009E+02  0.77548660051E+02  0.25500000000E-02 0. -1.
    5000001    1    1    2    0    0 -0.27942710287E+03 -0.19191877034E+02  0.97046832284E+03  0.10234654853E+04  0.16500000000E+03 0.  0.
   -5000001    1    1    2    0    0  0.27942710287E+03  0.19191877034E+02  0.46644586069E+03  0.56854601829E+03  0.16500000000E+03 0.  0.
<mgrwt>
<rscale>  0 0.68540372E+03</rscale>
<asrwt>0</asrwt>
<pdfrwt beam="1">  1        2 0.23299427E+00 0.68540372E+03</pdfrwt>
<pdfrwt beam="2">  1       -2 0.11930564E-01 0.68540372E+03</pdfrwt>
<totfact> 0.65029435E+02</totfact>
</mgrwt>
</event>
<event>
 4    1  0.9012200E-005  0.9586185E+03  0.7818608E-02  0.9355133E-01
         -2   -1    0    0    0  501 -0.00000000000E+00  0.00000000000E+00  0.23466980574E+03  0.23466980575E+03  0.25500000000E-02 0.  1.
          2   -1    0    0  501    0  0.00000000000E+00 -0.00000000000E+00 -0.97898137439E+03  0.97898137439E+03  0.25500000000E-02 0. -1.
    5000001    1    1    2    0    0 -0.49042873979E+02  0.44715492684E+03 -0.38815190515E+03  0.61663573814E+03  0.16500000000E+03 0.  0.
   -5000001    1    1    2    0    0  0.49042873979E+02 -0.44715492684E+03 -0.35615966350E+03  0.59701544200E+03  0.16500000000E+03 0.  0.
<mgrwt>
<rscale>  0 0.95861852E+03</rscale>
<asrwt>0</asrwt>
<pdfrwt beam="1">  1        2 0.15061252E+00 0.95861852E+03</pdfrwt>
<pdfrwt beam="2">  1       -2 0.36103047E-01 0.95861852E+03</pdfrwt>
<totfact> 0.18742702E+02</totfact>
</mgrwt>
</event>
<event>
 4    1  0.9012200E-005  0.9133139E+03  0.7818608E-02  0.9409090E-01
          2   -1    0    0  501    0  0.00000000000E+00  0.00000000000E+00  0.18272201540E+04  0.18272201540E+04  0.25500000000E-02 0.  1.
         -2   -1    0    0    0  501 -0.00000000000E+00 -0.00000000000E+00 -0.11412723550E+03  0.11412723553E+03  0.25500000000E-02 0. -1.
    5000001    1    1    2    0    0 -0.15865140872E+03 -0.35018056240E+03  0.12456772417E+04  0.13140523149E+04  0.16500000000E+03 0.  0.
   -5000001    1    1    2    0    0  0.15865140872E+03  0.35018056240E+03  0.46741567682E+03  0.62729507467E+03  0.16500000000E+03 0.  0.
<mgrwt>
<rscale>  0 0.91331393E+03</rscale>
<asrwt>0</asrwt>
<pdfrwt beam="1">  1        2 0.28111079E+00 0.91331393E+03</pdfrwt>
<pdfrwt beam="2">  1       -2 0.17558036E-01 0.91331393E+03</pdfrwt>
<totfact> 0.22479867E+02</totfact>
</mgrwt>
</event>
<event>
 4    1  0.9012200E-005  0.5229946E+03  0.7818608E-02  0.1007945E+00
          2   -1    0    0  501    0  0.00000000000E+00  0.00000000000E+00  0.22806238121E+03  0.22806238123E+03  0.25500000000E-02 0.  1.
         -2   -1    0    0    0  501 -0.00000000000E+00 -0.00000000000E+00 -0.29983391387E+03  0.29983391388E+03  0.25500000000E-02 0. -1.
    5000001    1    1    2    0    0  0.10479192853E+03  0.77747285817E+02 -0.19267950074E+03  0.28526545312E+03  0.16500000000E+03 0.  0.
   -5000001    1    1    2    0    0 -0.10479192853E+03 -0.77747285817E+02  0.12090796809E+03  0.24263084199E+03  0.16500000000E+03 0.  0.
<mgrwt>
<rscale>  0 0.52299459E+03</rscale>
<asrwt>0</asrwt>
<pdfrwt beam="1">  1        2 0.35086520E-01 0.52299459E+03</pdfrwt>
<pdfrwt beam="2">  1       -2 0.46128294E-01 0.52299459E+03</pdfrwt>
<totfact> 0.66865749E+02</totfact>
</mgrwt>
</event>
<event>
 4    1  0.9012200E-005  0.5736479E+03  0.7818608E-02  0.9961639E-01
         -2   -1    0    0    0  501 -0.00000000000E+00  0.00000000000E+00  0.10813009458E+03  0.10813009461E+03  0.25500000000E-02 0. -1.
          2   -1    0    0  501    0  0.00000000000E+00 -0.00000000000E+00 -0.76082416730E+03  0.76082416730E+03  0.25500000000E-02 0.  1.
    5000001    1    1    2    0    0  0.26411615956E+02 -0.22801821400E+03 -0.25286645596E+03  0.37928396212E+03  0.16500000000E+03 0.  0.
   -5000001    1    1    2    0    0 -0.26411615956E+02  0.22801821400E+03 -0.39982761676E+03  0.48967029979E+03  0.16500000000E+03 0.  0.
<mgrwt>
<rscale>  0 0.57364794E+03</rscale>
<asrwt>0</asrwt>
<pdfrwt beam="1">  1        2 0.11704987E+00 0.57364794E+03</pdfrwt>
<pdfrwt beam="2">  1       -2 0.16635400E-01 0.57364794E+03</pdfrwt>
<totfact> 0.10859923E+03</totfact>
</mgrwt>
</event>
<event>
 4    1  0.9012200E-005  0.4518851E+03  0.7818608E-02  0.1027161E+00
          2   -1    0    0  501    0  0.00000000000E+00  0.00000000000E+00  0.24390292473E+04  0.24390292473E+04  0.25500000000E-02 0.  1.
         -2   -1    0    0    0  501 -0.00000000000E+00 -0.00000000000E+00 -0.20930471847E+02  0.20930472003E+02  0.25500000000E-02 0. -1.
    5000001    1    1    2    0    0  0.18269297926E+02 -0.15178495270E+03  0.13248616158E+04  0.13438213200E+04  0.16500000000E+03 0.  0.
   -5000001    1    1    2    0    0 -0.18269297926E+02  0.15178495270E+03  0.10932371596E+04  0.11161383992E+04  0.16500000000E+03 0.  0.
<mgrwt>
<rscale>  0 0.45188509E+03</rscale>
<asrwt>0</asrwt>
<pdfrwt beam="1">  1        2 0.37523536E+00 0.45188509E+03</pdfrwt>
<pdfrwt beam="2">  1       -2 0.32200718E-02 0.45188509E+03</pdfrwt>
<totfact> 0.16221335E+03</totfact>
</mgrwt>
</event>
<event>
 4    1  0.9012200E-005  0.3464539E+03  0.7818608E-02  0.1064080E+00
          2   -1    0    0  501    0  0.00000000000E+00  0.00000000000E+00  0.22734507279E+03  0.22734507280E+03  0.25500000000E-02 0.  1.
         -2   -1    0    0    0  501 -0.00000000000E+00 -0.00000000000E+00 -0.13199130268E+03  0.13199130270E+03  0.25500000000E-02 0. -1.
    5000001    1    1    2    0    0 -0.13208110853E+02  0.50185480245E+02  0.37862708257E+02  0.17706389044E+03  0.16500000000E+03 0.  0.
   -5000001    1    1    2    0    0  0.13208110853E+02 -0.50185480245E+02  0.57491061850E+02  0.18227248507E+03  0.16500000000E+03 0.  0.
<mgrwt>
<rscale>  0 0.34645388E+03</rscale>
<asrwt>0</asrwt>
<pdfrwt beam="1">  1        2 0.34976165E-01 0.34645388E+03</pdfrwt>
<pdfrwt beam="2">  1       -2 0.20306354E-01 0.34645388E+03</pdfrwt>
<totfact> 0.30412935E+03</totfact>
</mgrwt>
</event>
<event>
 4    1  0.9012200E-005  0.4927068E+03  0.7818608E-02  0.1015700E+00
         -2   -1    0    0    0  501 -0.00000000000E+00  0.00000000000E+00  0.77975742927E+02  0.77975742969E+02  0.25500000000E-02 0. -1.
          2   -1    0    0  501    0  0.00000000000E+00 -0.00000000000E+00 -0.77831904204E+03  0.77831904204E+03  0.25500000000E-02 0.  1.
    5000001    1    1    2    0    0  0.20778889702E+02 -0.18033179472E+03 -0.38956147442E+03  0.46036340081E+03  0.16500000000E+03 0.  0.
   -5000001    1    1    2    0    0 -0.20778889702E+02  0.18033179472E+03 -0.31078182469E+03  0.39593138421E+03  0.16500000000E+03 0.  0.
<mgrwt>
<rscale>  0 0.49270683E+03</rscale>
<asrwt>0</asrwt>
<pdfrwt beam="1">  1        2 0.11974139E+00 0.49270683E+03</pdfrwt>
<pdfrwt beam="2">  1       -2 0.11996269E-01 0.49270683E+03</pdfrwt>
<totfact> 0.18220780E+03</totfact>
</mgrwt>
</event>
<event>
 4    1  0.9012200E-005  0.5903208E+03  0.7818608E-02  0.9925693E-01
         -2   -1    0    0    0  501 -0.00000000000E+00  0.00000000000E+00  0.22457053614E+03  0.22457053615E+03  0.25500000000E-02 0. -1.
          2   -1    0    0  501    0  0.00000000000E+00 -0.00000000000E+00 -0.38793899723E+03  0.38793899724E+03  0.25500000000E-02 0.  1.
    5000001    1    1    2    0    0 -0.11258463154E+03 -0.12918321748E+03 -0.26298336525E+03  0.35461084774E+03  0.16500000000E+03 0.  0.
   -5000001    1    1    2    0    0  0.11258463154E+03  0.12918321748E+03  0.99614904155E+02  0.25789868566E+03  0.16500000000E+03 0.  0.
<mgrwt>
<rscale>  0 0.59032082E+03</rscale>
<asrwt>0</asrwt>
<pdfrwt beam="1">  1        2 0.59682923E-01 0.59032082E+03</pdfrwt>
<pdfrwt beam="2">  1       -2 0.34549313E-01 0.59032082E+03</pdfrwt>
<totfact> 0.65045769E+02</totfact>
</mgrwt>
</event>
<event>
 4    1  0.9012200E-005  0.6198603E+03  0.7818608E-02  0.9865038E-01
         -2   -1    0    0    0  501 -0.00000000000E+00  0.00000000000E+00  0.43752312547E+02  0.43752312622E+02  0.25500000000E-02 0. -1.
          2   -1    0    0  501    0  0.00000000000E+00 -0.00000000000E+00 -0.21954654889E+04  0.21954654889E+04  0.25500000000E-02 0.  1.
    5000001    1    1    2    0    0  0.10808852625E+03  0.11536689086E+03 -0.18322244417E+04  0.18464192519E+04  0.16500000000E+03 0.  0.
   -5000001    1    1    2    0    0 -0.10808852625E+03 -0.11536689086E+03 -0.31948873462E+03  0.39279854960E+03  0.16500000000E+03 0.  0.
<mgrwt>
<rscale>  0 0.61986028E+03</rscale>
<asrwt>0</asrwt>
<pdfrwt beam="1">  1        2 0.33776383E+00 0.61986028E+03</pdfrwt>
<pdfrwt beam="2">  1       -2 0.67311267E-02 0.61986028E+03</pdfrwt>
<totfact> 0.69868664E+02</totfact>
</mgrwt>
</event>
<event>
 4    1  0.9012200E-005  0.8041879E+03  0.7818608E-02  0.9553975E-01
          2   -1    0    0  501    0  0.00000000000E+00  0.00000000000E+00  0.23184229443E+04  0.23184229443E+04  0.25500000000E-02 0. -1.
         -2   -1    0    0    0  501 -0.00000000000E+00 -0.00000000000E+00 -0.69736868836E+02  0.69736868883E+02  0.25500000000E-02 0.  1.
    5000001    1    1    2    0    0  0.16153215060E+03  0.32813508321E+03  0.10463768506E+04  0.11206671147E+04  0.16500000000E+03 0.  0.
   -5000001    1    1    2    0    0 -0.16153215060E+03 -0.32813508321E+03  0.12023092249E+04  0.12674926985E+04  0.16500000000E+03 0.  0.
<mgrwt>
<rscale>  0 0.80418793E+03</rscale>
<asrwt>0</asrwt>
<pdfrwt beam="1">  1        2 0.35668048E+00 0.80418793E+03</pdfrwt>
<pdfrwt beam="2">  1       -2 0.10728748E-01 0.80418793E+03</pdfrwt>
<totfact> 0.27826064E+02</totfact>
</mgrwt>
</event>
<event>
 4    1  0.9012200E-005  0.4939958E+03  0.7818608E-02  0.1015358E+00
          2   -1    0    0  501    0  0.00000000000E+00  0.00000000000E+00  0.23056160936E+04  0.23056160936E+04  0.25500000000E-02 0.  1.
         -2   -1    0    0    0  501 -0.00000000000E+00 -0.00000000000E+00 -0.26460593717E+02  0.26460593840E+02  0.25500000000E-02 0. -1.
    5000001    1    1    2    0    0  0.18135574357E+03 -0.31225568116E+01  0.12798840882E+04  0.13031607481E+04  0.16500000000E+03 0.  0.
   -5000001    1    1    2    0    0 -0.18135574357E+03  0.31225568116E+01  0.99927141169E+03  0.10289159394E+04  0.16500000000E+03 0.  0.
<mgrwt>
<rscale>  0 0.49399583E+03</rscale>
<asrwt>0</asrwt>
<pdfrwt beam="1">  1        2 0.35471015E+00 0.49399583E+03</pdfrwt>
<pdfrwt beam="2">  1       -2 0.40708608E-02 0.49399583E+03</pdfrwt>
<totfact> 0.13403989E+03</totfact>
</mgrwt>
</event>
<event>
 4    1  0.9012200E-005  0.9328701E+03  0.7818608E-02  0.9385400E-01
          2   -1    0    0  501    0  0.00000000000E+00  0.00000000000E+00  0.14732798979E+04  0.14732798979E+04  0.25500000000E-02 0. -1.
         -2   -1    0    0    0  501 -0.00000000000E+00 -0.00000000000E+00 -0.14767162987E+03  0.14767162990E+03  0.25500000000E-02 0.  1.
    5000001    1    1    2    0    0  0.33649009039E+02 -0.43301064525E+03  0.73457693621E+03  0.86917130068E+03  0.16500000000E+03 0.  0.
   -5000001    1    1    2    0    0 -0.33649009039E+02  0.43301064525E+03  0.59103133183E+03  0.75178022714E+03  0.16500000000E+03 0.  0.
<mgrwt>
<rscale>  0 0.93287007E+03</rscale>
<asrwt>0</asrwt>
<pdfrwt beam="1">  1        2 0.22665845E+00 0.93287007E+03</pdfrwt>
<pdfrwt beam="2">  1       -2 0.22718712E-01 0.93287007E+03</pdfrwt>
<totfact> 0.22425124E+02</totfact>
</mgrwt>
</event>
<event>
 4    1  0.9012200E-005  0.8789241E+03  0.7818608E-02  0.9452318E-01
          2   -1    0    0  501    0  0.00000000000E+00  0.00000000000E+00  0.11861770160E+04  0.11861770160E+04  0.25500000000E-02 0.  1.
         -2   -1    0    0    0  501 -0.00000000000E+00 -0.00000000000E+00 -0.16281458119E+03  0.16281458121E+03  0.25500000000E-02 0. -1.
    5000001    1    1    2    0    0  0.21135509538E+03  0.34253986111E+03  0.41586383634E+03  0.60180749677E+03  0.16500000000E+03 0.  0.
   -5000001    1    1    2    0    0 -0.21135509538E+03 -0.34253986111E+03  0.60749859844E+03  0.74718410040E+03  0.16500000000E+03 0.  0.
<mgrwt>
<rscale>  0 0.87892415E+03</rscale>
<asrwt>0</asrwt>
<pdfrwt beam="1">  1        2 0.18248877E+00 0.87892415E+03</pdfrwt>
<pdfrwt beam="2">  1       -2 0.25048398E-01 0.87892415E+03</pdfrwt>
<totfact> 0.27649260E+02</totfact>
</mgrwt>
</event>
<event>
 4    1  0.9012200E-005  0.4356956E+03  0.7818608E-02  0.1032076E+00
          2   -1    0    0  501    0  0.00000000000E+00  0.00000000000E+00  0.54767722642E+03  0.54767722642E+03  0.25500000000E-02 0.  1.
         -2   -1    0    0    0  501 -0.00000000000E+00 -0.00000000000E+00 -0.86652595509E+02  0.86652595547E+02  0.25500000000E-02 0. -1.
    5000001    1    1    2    0    0 -0.67887347532E+02 -0.68949525494E+02  0.78721581189E+02  0.20684490897E+03  0.16500000000E+03 0.  0.
   -5000001    1    1    2    0    0  0.67887347532E+02  0.68949525494E+02  0.38230304972E+03  0.42748491300E+03  0.16500000000E+03 0.  0.
<mgrwt>
<rscale>  0 0.43569555E+03</rscale>
<asrwt>0</asrwt>
<pdfrwt beam="1">  1        2 0.84258034E-01 0.43569555E+03</pdfrwt>
<pdfrwt beam="2">  1       -2 0.13331169E-01 0.43569555E+03</pdfrwt>
<totfact> 0.23488780E+03</totfact>
</mgrwt>
</event>
<event>
 4    1  0.9012200E-005  0.4785102E+03  0.7818608E-02  0.1019545E+00
         -2   -1    0    0    0  501 -0.00000000000E+00  0.00000000000E+00  0.46408184702E+02  0.46408184772E+02  0.25500000000E-02 0. -1.
          2   -1    0    0  501    0  0.00000000000E+00 -0.00000000000E+00 -0.12334676332E+04  0.12334676332E+04  0.25500000000E-02 0.  1.
    5000001    1    1    2    0    0 -0.10464127878E+03  0.13797100868E+03 -0.60870674797E+03  0.65401429762E+03  0.16500000000E+03 0.  0.
   -5000001    1    1    2    0    0  0.10464127878E+03 -0.13797100868E+03 -0.57835270057E+03  0.62586152040E+03  0.16500000000E+03 0.  0.
<mgrwt>
<rscale>  0 0.47851016E+03</rscale>
<asrwt>0</asrwt>
<pdfrwt beam="1">  1        2 0.18976423E+00 0.47851016E+03</pdfrwt>
<pdfrwt beam="2">  1       -2 0.71397217E-02 0.47851016E+03</pdfrwt>
<totfact> 0.21577342E+03</totfact>
</mgrwt>
</event>
<event>
 4    1  0.9012200E-005  0.5457350E+03  0.7818608E-02  0.1002486E+00
          2   -1    0    0  501    0  0.00000000000E+00  0.00000000000E+00  0.39876917074E+03  0.39876917075E+03  0.25500000000E-02 0.  1.
         -2   -1    0    0    0  501 -0.00000000000E+00 -0.00000000000E+00 -0.18671620188E+03  0.18671620189E+03  0.25500000000E-02 0. -1.
    5000001    1    1    2    0    0  0.37382151100E+02  0.18768536056E+03 -0.44729697191E+01  0.25272163985E+03  0.16500000000E+03 0.  0.
   -5000001    1    1    2    0    0 -0.37382151100E+02 -0.18768536056E+03  0.21652593859E+03  0.33276373280E+03  0.16500000000E+03 0.  0.
<mgrwt>
<rscale>  0 0.54573497E+03</rscale>
<asrwt>0</asrwt>
<pdfrwt beam="1">  1        2 0.61349104E-01 0.54573497E+03</pdfrwt>
<pdfrwt beam="2">  1       -2 0.28725569E-01 0.54573497E+03</pdfrwt>
<totfact> 0.88987612E+02</totfact>
</mgrwt>
</event>
<event>
 4    1  0.9012200E-005  0.6768767E+03  0.7818608E-02  0.9757614E-01
         -2   -1    0    0    0  501 -0.00000000000E+00  0.00000000000E+00  0.48186756474E+02  0.48186756541E+02  0.25500000000E-02 0. -1.
          2   -1    0    0  501    0  0.00000000000E+00 -0.00000000000E+00 -0.23770121205E+04  0.23770121205E+04  0.25500000000E-02 0.  1.
    5000001    1    1    2    0    0 -0.16270691950E+02 -0.29397157525E+03 -0.12544491052E+04  0.12990579587E+04  0.16500000000E+03 0.  0.
   -5000001    1    1    2    0    0  0.16270691950E+02  0.29397157525E+03 -0.10743762587E+04  0.11261409183E+04  0.16500000000E+03 0.  0.
<mgrwt>
<rscale>  0 0.67687666E+03</rscale>
<asrwt>0</asrwt>
<pdfrwt beam="1">  1        2 0.36569408E+00 0.67687666E+03</pdfrwt>
<pdfrwt beam="2">  1       -2 0.74133490E-02 0.67687666E+03</pdfrwt>
<totfact> 0.47377061E+02</totfact>
</mgrwt>
</event>
<event>
 4    1  0.9012200E-005  0.5003824E+03  0.7818608E-02  0.1013679E+00
         -2   -1    0    0    0  501 -0.00000000000E+00  0.00000000000E+00  0.12152477718E+03  0.12152477720E+03  0.25500000000E-02 0. -1.
          2   -1    0    0  501    0  0.00000000000E+00 -0.00000000000E+00 -0.51508536837E+03  0.51508536838E+03  0.25500000000E-02 0.  1.
    5000001    1    1    2    0    0 -0.18732098109E+03 -0.40778771812E+01 -0.17607525394E+03  0.30550494937E+03  0.16500000000E+03 0.  0.
   -5000001    1    1    2    0    0  0.18732098109E+03  0.40778771812E+01 -0.21748533726E+03  0.33110519621E+03  0.16500000000E+03 0.  0.
<mgrwt>
<rscale>  0 0.50038239E+03</rscale>
<asrwt>0</asrwt>
<pdfrwt beam="1">  1        2 0.79243902E-01 0.50038239E+03</pdfrwt>
<pdfrwt beam="2">  1       -2 0.18696120E-01 0.50038239E+03</pdfrwt>
<totfact> 0.14272077E+03</totfact>
</mgrwt>
</event>
<event>
 4    1  0.9012200E-005  0.5597495E+03  0.7818608E-02  0.9992622E-01
         -2   -1    0    0    0  501 -0.00000000000E+00  0.00000000000E+00  0.33660259079E+03  0.33660259080E+03  0.25500000000E-02 0. -1.
          2   -1    0    0  501    0  0.00000000000E+00 -0.00000000000E+00 -0.23270729799E+03  0.23270729800E+03  0.25500000000E-02 0.  1.
    5000001    1    1    2    0    0  0.19642777011E+02  0.89356429506E+02 -0.15830630187E+03  0.24628498816E+03  0.16500000000E+03 0.  0.
   -5000001    1    1    2    0    0 -0.19642777011E+02 -0.89356429506E+02  0.26220159468E+03  0.32302490064E+03  0.16500000000E+03 0.  0.
<mgrwt>
<rscale>  0 0.55974951E+03</rscale>
<asrwt>0</asrwt>
<pdfrwt beam="1">  1        2 0.35801123E-01 0.55974951E+03</pdfrwt>
<pdfrwt beam="2">  1       -2 0.51785014E-01 0.55974951E+03</pdfrwt>
<totfact> 0.51773858E+02</totfact>
</mgrwt>
</event>
<event>
 4    1  0.9012200E-005  0.4630221E+03  0.7818608E-02  0.1023908E+00
         -2   -1    0    0    0  501 -0.00000000000E+00  0.00000000000E+00  0.38578353972E+02  0.38578354056E+02  0.25500000000E-02 0. -1.
          2   -1    0    0  501    0  0.00000000000E+00 -0.00000000000E+00 -0.13893120945E+04  0.13893120945E+04  0.25500000000E-02 0.  1.
    5000001    1    1    2    0    0  0.12340563693E+03  0.50479082865E+02 -0.38946086798E+03  0.44348828251E+03  0.16500000000E+03 0.  0.
   -5000001    1    1    2    0    0 -0.12340563693E+03 -0.50479082865E+02 -0.96127287257E+03  0.98440216607E+03  0.16500000000E+03 0.  0.
<mgrwt>
<rscale>  0 0.46302213E+03</rscale>
<asrwt>0</asrwt>
<pdfrwt beam="1">  1        2 0.21374028E+00 0.46302213E+03</pdfrwt>
<pdfrwt beam="2">  1       -2 0.59351325E-02 0.46302213E+03</pdfrwt>
<totfact> 0.23526628E+03</totfact>
</mgrwt>
</event>
<event>
 4    1  0.9012200E-005  0.6216472E+03  0.7818608E-02  0.9861486E-01
         -2   -1    0    0    0  501 -0.00000000000E+00  0.00000000000E+00  0.14394157473E+03  0.14394157475E+03  0.25500000000E-02 0. -1.
          2   -1    0    0  501    0  0.00000000000E+00 -0.00000000000E+00 -0.67118420717E+03  0.67118420718E+03  0.25500000000E-02 0.  1.
    5000001    1    1    2    0    0  0.18504956834E+03  0.16310176046E+03 -0.14244171131E+03  0.32918105676E+03  0.16500000000E+03 0.  0.
   -5000001    1    1    2    0    0 -0.18504956834E+03 -0.16310176046E+03 -0.38480092114E+03  0.48594472517E+03  0.16500000000E+03 0.  0.
<mgrwt>
<rscale>  0 0.62164720E+03</rscale>
<asrwt>0</asrwt>
<pdfrwt beam="1">  1        2 0.10325911E+00 0.62164720E+03</pdfrwt>
<pdfrwt beam="2">  1       -2 0.22144858E-01 0.62164720E+03</pdfrwt>
<totfact> 0.77394698E+02</totfact>
</mgrwt>
</event>
<event>
 4    1  0.9012200E-005  0.1013297E+04  0.7818608E-02  0.9294079E-01
          2   -1    0    0  501    0  0.00000000000E+00  0.00000000000E+00  0.52567361963E+03  0.52567361964E+03  0.25500000000E-02 0.  1.
         -2   -1    0    0    0  501 -0.00000000000E+00 -0.00000000000E+00 -0.48831236251E+03  0.48831236252E+03  0.25500000000E-02 0. -1.
    5000001    1    1    2    0    0  0.17275780943E+03  0.40131648397E+03 -0.17783954272E+03  0.49975202249E+03  0.16500000000E+03 0.  0.
   -5000001    1    1    2    0    0 -0.17275780943E+03 -0.40131648397E+03  0.21520079984E+03  0.51423395967E+03  0.16500000000E+03 0.  0.
<mgrwt>
<rscale>  0 0.10132974E+04</rscale>
<asrwt>0</asrwt>
<pdfrwt beam="1">  1        2 0.80872864E-01 0.10132974E+04</pdfrwt>
<pdfrwt beam="2">  1       -2 0.75124979E-01 0.10132974E+04</pdfrwt>
<totfact> 0.92249277E+01</totfact>
</mgrwt>
</event>
<event>
 4    1  0.9012200E-005  0.6733610E+03  0.7818608E-02  0.9763905E-01
         -2   -1    0    0    0  501 -0.00000000000E+00  0.00000000000E+00  0.64667133762E+03  0.64667133763E+03  0.25500000000E-02 0. -1.
          2   -1    0    0  501    0  0.00000000000E+00 -0.00000000000E+00 -0.17528806428E+03  0.17528806430E+03  0.25500000000E-02 0.  1.
    5000001    1    1    2    0    0 -0.93444890057E+02  0.13364262687E+03  0.53353911375E+03  0.58179144467E+03  0.16500000000E+03 0.  0.
   -5000001    1    1    2    0    0  0.93444890057E+02 -0.13364262687E+03 -0.62155840402E+02  0.24016795725E+03  0.16500000000E+03 0.  0.
<mgrwt>
<rscale>  0 0.67336102E+03</rscale>
<asrwt>0</asrwt>
<pdfrwt beam="1">  1        2 0.26967395E-01 0.67336102E+03</pdfrwt>
<pdfrwt beam="2">  1       -2 0.99487897E-01 0.67336102E+03</pdfrwt>
<totfact> 0.16981973E+02</totfact>
</mgrwt>
</event>
<event>
 4    1  0.9012200E-005  0.3870162E+03  0.7818608E-02  0.1048371E+00
          2   -1    0    0  501    0  0.00000000000E+00  0.00000000000E+00  0.30788002444E+02  0.30788002550E+02  0.25500000000E-02 0.  1.
         -2   -1    0    0    0  501 -0.00000000000E+00 -0.00000000000E+00 -0.12162329086E+04  0.12162329086E+04  0.25500000000E-02 0. -1.
    5000001    1    1    2    0    0 -0.82367705791E+02 -0.58158606690E+02 -0.56915026043E+03  0.60110222212E+03  0.16500000000E+03 0.  0.
   -5000001    1    1    2    0    0  0.82367705791E+02  0.58158606690E+02 -0.61629464569E+03  0.64591868900E+03  0.16500000000E+03 0.  0.
<mgrwt>
<rscale>  0 0.38701618E+03</rscale>
<asrwt>0</asrwt>
<pdfrwt beam="1">  1        2 0.47366167E-02 0.38701618E+03</pdfrwt>
<pdfrwt beam="2">  1       -2 0.18711272E+00 0.38701618E+03</pdfrwt>
<totfact> 0.29522864E+02</totfact>
</mgrwt>
</event>
<event>
 4    1  0.9012200E-005  0.4341815E+03  0.7818608E-02  0.1032547E+00
         -2   -1    0    0    0  501 -0.00000000000E+00  0.00000000000E+00  0.10001491404E+03  0.10001491407E+03  0.25500000000E-02 0. -1.
          2   -1    0    0  501    0  0.00000000000E+00 -0.00000000000E+00 -0.47121373276E+03  0.47121373277E+03  0.25500000000E-02 0.  1.
    5000001    1    1    2    0    0 -0.10997229484E+03  0.76042567822E+02 -0.12636582764E+03  0.24712284425E+03  0.16500000000E+03 0.  0.
   -5000001    1    1    2    0    0  0.10997229484E+03 -0.76042567822E+02 -0.24483299108E+03  0.32410580259E+03  0.16500000000E+03 0.  0.
<mgrwt>
<rscale>  0 0.43418153E+03</rscale>
<asrwt>0</asrwt>
<pdfrwt beam="1">  1        2 0.72494419E-01 0.43418153E+03</pdfrwt>
<pdfrwt beam="2">  1       -2 0.15386910E-01 0.43418153E+03</pdfrwt>
<totfact> 0.21972662E+03</totfact>
</mgrwt>
</event>
<event>
 4    1  0.9012200E-005  0.3892711E+03  0.7818608E-02  0.1047559E+00
          2   -1    0    0  501    0  0.00000000000E+00  0.00000000000E+00  0.55188443061E+03  0.55188443062E+03  0.25500000000E-02 0.  1.
         -2   -1    0    0    0  501 -0.00000000000E+00 -0.00000000000E+00 -0.68642990413E+02  0.68642990460E+02  0.25500000000E-02 0. -1.
    5000001    1    1    2    0    0 -0.14584551058E+02 -0.10194587184E+03  0.23008950758E+03  0.30128367266E+03  0.16500000000E+03 0.  0.
   -5000001    1    1    2    0    0  0.14584551058E+02  0.10194587184E+03  0.25315193262E+03  0.31924374842E+03  0.16500000000E+03 0.  0.
<mgrwt>
<rscale>  0 0.38927110E+03</rscale>
<asrwt>0</asrwt>
<pdfrwt beam="1">  1        2 0.84905299E-01 0.38927110E+03</pdfrwt>
<pdfrwt beam="2">  1       -2 0.10560460E-01 0.38927110E+03</pdfrwt>
<totfact> 0.33998420E+03</totfact>
</mgrwt>
</event>
<event>
 4    1  0.9012200E-005  0.1328555E+04  0.7818608E-02  0.9007222E-01
          2   -1    0    0  501    0  0.00000000000E+00  0.00000000000E+00  0.85482269973E+03  0.85482269973E+03  0.25500000000E-02 0.  1.
         -2   -1    0    0    0  501 -0.00000000000E+00 -0.00000000000E+00 -0.51620587332E+03  0.51620587333E+03  0.25500000000E-02 0. -1.
    5000001    1    1    2    0    0 -0.49454322830E+03  0.38434920014E+03  0.32147476173E+03  0.72309635231E+03  0.16500000000E+03 0.  0.
   -5000001    1    1    2    0    0  0.49454322830E+03 -0.38434920014E+03  0.17142064681E+02  0.64793222075E+03  0.16500000000E+03 0.  0.
<mgrwt>
<rscale>  0 0.13285549E+04</rscale>
<asrwt>0</asrwt>
<pdfrwt beam="1">  1        2 0.13151118E+00 0.13285549E+04</pdfrwt>
<pdfrwt beam="2">  1       -2 0.79416289E-01 0.13285549E+04</pdfrwt>
<totfact> 0.43310083E+01</totfact>
</mgrwt>
</event>
<event>
 4    1  0.9012200E-005  0.3881539E+03  0.7818608E-02  0.1047961E+00
         -2   -1    0    0    0  501 -0.00000000000E+00  0.00000000000E+00  0.42785848145E+03  0.42785848146E+03  0.25500000000E-02 0. -1.
          2   -1    0    0  501    0  0.00000000000E+00 -0.00000000000E+00 -0.88033474383E+02  0.88033474420E+02  0.25500000000E-02 0.  1.
    5000001    1    1    2    0    0 -0.27217890946E+02  0.23207563752E+02  0.42697829934E+02  0.17414795228E+03  0.16500000000E+03 0.  0.
   -5000001    1    1    2    0    0  0.27217890946E+02 -0.23207563752E+02  0.29712717713E+03  0.34174400359E+03  0.16500000000E+03 0.  0.
<mgrwt>
<rscale>  0 0.38815393E+03</rscale>
<asrwt>0</asrwt>
<pdfrwt beam="1">  1        2 0.13543612E-01 0.38815393E+03</pdfrwt>
<pdfrwt beam="2">  1       -2 0.65824381E-01 0.38815393E+03</pdfrwt>
<totfact> 0.96544096E+02</totfact>
</mgrwt>
</event>
<event>
 4    1  0.9012200E-005  0.5572781E+03  0.7818608E-02  0.9998232E-01
          2   -1    0    0  501    0  0.00000000000E+00  0.00000000000E+00  0.12113458159E+04  0.12113458159E+04  0.25500000000E-02 0.  1.
         -2   -1    0    0    0  501 -0.00000000000E+00 -0.00000000000E+00 -0.64093772824E+02  0.64093772875E+02  0.25500000000E-02 0. -1.
    5000001    1    1    2    0    0  0.18305331049E+03  0.11456849805E+03  0.71434388152E+03  0.76429486214E+03  0.16500000000E+03 0.  0.
   -5000001    1    1    2    0    0 -0.18305331049E+03 -0.11456849805E+03  0.43290816154E+03  0.51114472662E+03  0.16500000000E+03 0.  0.
<mgrwt>
<rscale>  0 0.55727811E+03</rscale>
<asrwt>0</asrwt>
<pdfrwt beam="1">  1        2 0.18636088E+00 0.55727811E+03</pdfrwt>
<pdfrwt beam="2">  1       -2 0.98605812E-02 0.55727811E+03</pdfrwt>
<totfact> 0.13255001E+03</totfact>
</mgrwt>
</event>
<event>
 4    1  0.9012200E-005  0.8350186E+03  0.7818608E-02  0.9510668E-01
          2   -1    0    0  501    0  0.00000000000E+00  0.00000000000E+00  0.13638873028E+04  0.13638873028E+04  0.25500000000E-02 0.  1.
         -2   -1    0    0    0  501 -0.00000000000E+00 -0.00000000000E+00 -0.12780677374E+03  0.12780677377E+03  0.25500000000E-02 0. -1.
    5000001    1    1    2    0    0 -0.12119495749E+03 -0.25901555076E+03  0.10745807464E+04  0.11241557071E+04  0.16500000000E+03 0.  0.
   -5000001    1    1    2    0    0  0.12119495749E+03  0.25901555076E+03  0.16149978268E+03  0.36753836951E+03  0.16500000000E+03 0.  0.
<mgrwt>
<rscale>  0 0.83501865E+03</rscale>
<asrwt>0</asrwt>
<pdfrwt beam="1">  1        2 0.20982881E+00 0.83501865E+03</pdfrwt>
<pdfrwt beam="2">  1       -2 0.19662581E-01 0.83501865E+03</pdfrwt>
<totfact> 0.33576946E+02</totfact>
</mgrwt>
</event>
<event>
 4    1  0.9012200E-005  0.6989693E+03  0.7818608E-02  0.9718996E-01
         -2   -1    0    0    0  501 -0.00000000000E+00  0.00000000000E+00  0.18648458113E+03  0.18648458114E+03  0.25500000000E-02 0. -1.
          2   -1    0    0  501    0  0.00000000000E+00 -0.00000000000E+00 -0.65495780395E+03  0.65495780396E+03  0.25500000000E-02 0.  1.
    5000001    1    1    2    0    0 -0.13082124288E+03 -0.17686119290E+03  0.25413330121E+02  0.27616103362E+03  0.16500000000E+03 0.  0.
   -5000001    1    1    2    0    0  0.13082124288E+03  0.17686119290E+03 -0.49388655295E+03  0.56528135148E+03  0.16500000000E+03 0.  0.
<mgrwt>
<rscale>  0 0.69896933E+03</rscale>
<asrwt>0</asrwt>
<pdfrwt beam="1">  1        2 0.10076274E+00 0.69896933E+03</pdfrwt>
<pdfrwt beam="2">  1       -2 0.28689936E-01 0.69896933E+03</pdfrwt>
<totfact> 0.49916161E+02</totfact>
</mgrwt>
</event>
<event>
 4    1  0.9012200E-005  0.6238391E+03  0.7818608E-02  0.9857146E-01
         -2   -1    0    0    0  501 -0.00000000000E+00  0.00000000000E+00  0.11169822925E+03  0.11169822928E+03  0.25500000000E-02 0. -1.
          2   -1    0    0  501    0  0.00000000000E+00 -0.00000000000E+00 -0.87104150636E+03  0.87104150637E+03  0.25500000000E-02 0.  1.
    5000001    1    1    2    0    0  0.42495142712E+02 -0.17770753485E+03 -0.68138761534E+03  0.72449974978E+03  0.16500000000E+03 0.  0.
   -5000001    1    1    2    0    0 -0.42495142712E+02  0.17770753485E+03 -0.77955661776E+02  0.25823998586E+03  0.16500000000E+03 0.  0.
<mgrwt>
<rscale>  0 0.62383906E+03</rscale>
<asrwt>0</asrwt>
<pdfrwt beam="1">  1        2 0.13400638E+00 0.62383906E+03</pdfrwt>
<pdfrwt beam="2">  1       -2 0.17184344E-01 0.62383906E+03</pdfrwt>
<totfact> 0.85790963E+02</totfact>
</mgrwt>
</event>
<event>
 4    1  0.9012200E-005  0.5427065E+03  0.7818608E-02  0.1003196E+00
         -2   -1    0    0    0  501 -0.00000000000E+00  0.00000000000E+00  0.18165864568E+03  0.18165864570E+03  0.25500000000E-02 0. -1.
          2   -1    0    0  501    0  0.00000000000E+00 -0.00000000000E+00 -0.40533493814E+03  0.40533493815E+03  0.25500000000E-02 0.  1.
    5000001    1    1    2    0    0  0.11570449227E+03 -0.16628608345E+03 -0.19109105308E+03  0.32369643441E+03  0.16500000000E+03 0.  0.
   -5000001    1    1    2    0    0 -0.11570449227E+03  0.16628608345E+03 -0.32585239384E+02  0.26329714945E+03  0.16500000000E+03 0.  0.
<mgrwt>
<rscale>  0 0.54270654E+03</rscale>
<asrwt>0</asrwt>
<pdfrwt beam="1">  1        2 0.62359221E-01 0.54270654E+03</pdfrwt>
<pdfrwt beam="2">  1       -2 0.27947484E-01 0.54270654E+03</pdfrwt>
<totfact> 0.91881447E+02</totfact>
</mgrwt>
</event>
<event>
 4    1  0.9012200E-005  0.7068925E+03  0.7818608E-02  0.9705517E-01
          2   -1    0    0  501    0  0.00000000000E+00  0.00000000000E+00  0.34935106349E+04  0.34935106349E+04  0.25500000000E-02 0.  1.
         -2   -1    0    0    0  501 -0.00000000000E+00 -0.00000000000E+00 -0.35758945515E+02  0.35758945606E+02  0.25500000000E-02 0. -1.
    5000001    1    1    2    0    0 -0.22156487340E+03  0.22306906581E+02  0.28239716920E+04  0.28375393757E+04  0.16500000000E+03 0.  0.
   -5000001    1    1    2    0    0  0.22156487340E+03 -0.22306906581E+02  0.63377999733E+03  0.69173020479E+03  0.16500000000E+03 0.  0.
<mgrwt>
<rscale>  0 0.70689251E+03</rscale>
<asrwt>0</asrwt>
<pdfrwt beam="1">  1        2 0.53746319E+00 0.70689251E+03</pdfrwt>
<pdfrwt beam="2">  1       -2 0.55013761E-02 0.70689251E+03</pdfrwt>
<totfact> 0.15814434E+02</totfact>
</mgrwt>
</event>
<event>
 4    1  0.9012200E-005  0.6010974E+03  0.7818608E-02  0.9903132E-01
          2   -1    0    0  501    0  0.00000000000E+00  0.00000000000E+00  0.11350816953E+04  0.11350816953E+04  0.25500000000E-02 0. -1.
         -2   -1    0    0    0  501 -0.00000000000E+00 -0.00000000000E+00 -0.79579765572E+02  0.79579765613E+02  0.25500000000E-02 0.  1.
    5000001    1    1    2    0    0  0.17829984421E+03  0.22512798282E+02  0.17307301461E+03  0.29912694449E+03  0.16500000000E+03 0.  0.
   -5000001    1    1    2    0    0 -0.17829984421E+03 -0.22512798282E+02  0.88242891517E+03  0.91553451648E+03  0.16500000000E+03 0.  0.
<mgrwt>
<rscale>  0 0.60109745E+03</rscale>
<asrwt>0</asrwt>
<pdfrwt beam="1">  1        2 0.17462793E+00 0.60109745E+03</pdfrwt>
<pdfrwt beam="2">  1       -2 0.12243043E-01 0.60109745E+03</pdfrwt>
<totfact> 0.10312936E+03</totfact>
</mgrwt>
</event>
<event>
 4    1  0.9012200E-005  0.5265758E+03  0.7818608E-02  0.1007066E+00
         -2   -1    0    0    0  501 -0.00000000000E+00  0.00000000000E+00  0.29610838905E+02  0.29610839015E+02  0.25500000000E-02 0. -1.
          2   -1    0    0  501    0  0.00000000000E+00 -0.00000000000E+00 -0.23410517750E+04  0.23410517750E+04  0.25500000000E-02 0.  1.
    5000001    1    1    2    0    0 -0.17985548010E+03  0.98072956161E+02 -0.12068950963E+04  0.12352275385E+04  0.16500000000E+03 0.  0.
   -5000001    1    1    2    0    0  0.17985548010E+03 -0.98072956161E+02 -0.11045458399E+04  0.11354350756E+04  0.16500000000E+03 0.  0.
<mgrwt>
<rscale>  0 0.52657576E+03</rscale>
<asrwt>0</asrwt>
<pdfrwt beam="1">  1        2 0.36016167E+00 0.52657576E+03</pdfrwt>
<pdfrwt beam="2">  1       -2 0.45555155E-02 0.52657576E+03</pdfrwt>
<totfact> 0.10756789E+03</totfact>
</mgrwt>
</event>
<event>
 4    1  0.9012200E-005  0.4116779E+03  0.7818608E-02  0.1039809E+00
         -2   -1    0    0    0  501 -0.00000000000E+00  0.00000000000E+00  0.16230869394E+04  0.16230869394E+04  0.25500000000E-02 0.  1.
          2   -1    0    0  501    0  0.00000000000E+00 -0.00000000000E+00 -0.26104373391E+02  0.26104373515E+02  0.25500000000E-02 0. -1.
    5000001    1    1    2    0    0 -0.10326640393E+03 -0.52829723744E+02  0.63381799220E+03  0.66513545773E+03  0.16500000000E+03 0.  0.
   -5000001    1    1    2    0    0  0.10326640393E+03  0.52829723744E+02  0.96316457381E+03  0.98405585519E+03  0.16500000000E+03 0.  0.
<mgrwt>
<rscale>  0 0.41167787E+03</rscale>
<asrwt>0</asrwt>
<pdfrwt beam="1">  1        2 0.40160566E-02 0.41167787E+03</pdfrwt>
<pdfrwt beam="2">  1       -2 0.24970573E+00 0.41167787E+03</pdfrwt>
<totfact> 0.15070037E+02</totfact>
</mgrwt>
</event>
<event>
 4    1  0.9012200E-005  0.7130719E+03  0.7818608E-02  0.9695135E-01
          2   -1    0    0  501    0  0.00000000000E+00  0.00000000000E+00  0.21193475908E+04  0.21193475908E+04  0.25500000000E-02 0.  1.
         -2   -1    0    0    0  501 -0.00000000000E+00 -0.00000000000E+00 -0.59979728161E+02  0.59979728215E+02  0.25500000000E-02 0. -1.
    5000001    1    1    2    0    0 -0.28691800803E+03 -0.12460036326E+03  0.11679163629E+04  0.12202871894E+04  0.16500000000E+03 0.  0.
   -5000001    1    1    2    0    0  0.28691800803E+03  0.12460036326E+03  0.89145149977E+03  0.95904012966E+03  0.16500000000E+03 0.  0.
<mgrwt>
<rscale>  0 0.71307192E+03</rscale>
<asrwt>0</asrwt>
<pdfrwt beam="1">  1        2 0.32605348E+00 0.71307192E+03</pdfrwt>
<pdfrwt beam="2">  1       -2 0.92276502E-02 0.71307192E+03</pdfrwt>
<totfact> 0.46146060E+02</totfact>
</mgrwt>
</event>
<event>
 4    1  0.9012200E-005  0.4188784E+03  0.7818608E-02  0.1037432E+00
          2   -1    0    0  501    0  0.00000000000E+00  0.00000000000E+00  0.65027080443E+03  0.65027080444E+03  0.25500000000E-02 0.  1.
         -2   -1    0    0    0  501 -0.00000000000E+00 -0.00000000000E+00 -0.67456169930E+02  0.67456169978E+02  0.25500000000E-02 0. -1.
    5000001    1    1    2    0    0 -0.84987192259E+02 -0.96942780489E+02  0.29888635575E+03  0.36493667833E+03  0.16500000000E+03 0.  0.
   -5000001    1    1    2    0    0  0.84987192259E+02  0.96942780489E+02  0.28392827875E+03  0.35279029608E+03  0.16500000000E+03 0.  0.
<mgrwt>
<rscale>  0 0.41887840E+03</rscale>
<asrwt>0</asrwt>
<pdfrwt beam="1">  1        2 0.10004166E+00 0.41887840E+03</pdfrwt>
<pdfrwt beam="2">  1       -2 0.10377873E-01 0.41887840E+03</pdfrwt>
<totfact> 0.28837446E+03</totfact>
</mgrwt>
</event>
<event>
 4    1  0.9012200E-005  0.5376322E+03  0.7818608E-02  0.1004398E+00
          2   -1    0    0  501    0  0.00000000000E+00  0.00000000000E+00  0.51884261661E+03  0.51884261662E+03  0.25500000000E-02 0.  1.
         -2   -1    0    0    0  501 -0.00000000000E+00 -0.00000000000E+00 -0.13927555695E+03  0.13927555697E+03  0.25500000000E-02 0. -1.
    5000001    1    1    2    0    0 -0.48684479194E+02 -0.16453743119E+03  0.34264648431E+03  0.41722219259E+03  0.16500000000E+03 0.  0.
   -5000001    1    1    2    0    0  0.48684479194E+02  0.16453743119E+03  0.36920575354E+02  0.24089598100E+03  0.16500000000E+03 0.  0.
<mgrwt>
<rscale>  0 0.53763220E+03</rscale>
<asrwt>0</asrwt>
<pdfrwt beam="1">  1        2 0.79821942E-01 0.53763220E+03</pdfrwt>
<pdfrwt beam="2">  1       -2 0.21427008E-01 0.53763220E+03</pdfrwt>
<totfact> 0.11166194E+03</totfact>
</mgrwt>
</event>
<event>
 4    1  0.9012200E-005  0.5106372E+03  0.7818608E-02  0.1011039E+00
         -2   -1    0    0    0  501 -0.00000000000E+00  0.00000000000E+00  0.68426369351E+02  0.68426369399E+02  0.25500000000E-02 0. -1.
          2   -1    0    0  501    0  0.00000000000E+00 -0.00000000000E+00 -0.95266769788E+03  0.95266769789E+03  0.25500000000E-02 0.  1.
    5000001    1    1    2    0    0  0.46199120053E+02 -0.18799299938E+03 -0.39799841019E+03  0.47233829087E+03  0.16500000000E+03 0.  0.
   -5000001    1    1    2    0    0 -0.46199120053E+02  0.18799299938E+03 -0.48624291834E+03  0.54875577641E+03  0.16500000000E+03 0.  0.
<mgrwt>
<rscale>  0 0.51063722E+03</rscale>
<asrwt>0</asrwt>
<pdfrwt beam="1">  1        2 0.14656425E+00 0.51063722E+03</pdfrwt>
<pdfrwt beam="2">  1       -2 0.10527134E-01 0.51063722E+03</pdfrwt>
<totfact> 0.17165372E+03</totfact>
</mgrwt>
</event>
<event>
 4    1  0.9012200E-005  0.3843028E+03  0.7818608E-02  0.1049355E+00
         -2   -1    0    0    0  501 -0.00000000000E+00  0.00000000000E+00  0.85073845391E+02  0.85073845430E+02  0.25500000000E-02 0. -1.
          2   -1    0    0  501    0  0.00000000000E+00 -0.00000000000E+00 -0.43400120289E+03  0.43400120290E+03  0.25500000000E-02 0.  1.
    5000001    1    1    2    0    0  0.72248390688E+02 -0.66912567855E+02 -0.17469587332E+03  0.25969360764E+03  0.16500000000E+03 0.  0.
   -5000001    1    1    2    0    0 -0.72248390688E+02  0.66912567855E+02 -0.17423148418E+03  0.25938144069E+03  0.16500000000E+03 0.  0.
<mgrwt>
<rscale>  0 0.38430275E+03</rscale>
<asrwt>0</asrwt>
<pdfrwt beam="1">  1        2 0.66769414E-01 0.38430275E+03</pdfrwt>
<pdfrwt beam="2">  1       -2 0.13088284E-01 0.38430275E+03</pdfrwt>
<totfact> 0.31464614E+03</totfact>
</mgrwt>
</event>
<event>
 4    1  0.9012200E-005  0.1740614E+04  0.7818608E-02  0.8738534E-01
         -2   -1    0    0    0  501 -0.00000000000E+00  0.00000000000E+00  0.10882009345E+04  0.10882009345E+04  0.25500000000E-02 0. -1.
          2   -1    0    0  501    0  0.00000000000E+00 -0.00000000000E+00 -0.69604263301E+03  0.69604263302E+03  0.25500000000E-02 0.  1.
    5000001    1    1    2    0    0  0.76894273967E+03  0.11591651600E+03  0.55921821065E+03  0.97193599722E+03  0.16500000000E+03 0.  0.
   -5000001    1    1    2    0    0 -0.76894273967E+03 -0.11591651600E+03 -0.16705990913E+03  0.81230757033E+03  0.16500000000E+03 0.  0.
<mgrwt>
<rscale>  0 0.17406140E+04</rscale>
<asrwt>0</asrwt>
<pdfrwt beam="1">  1        2 0.10708348E+00 0.17406140E+04</pdfrwt>
<pdfrwt beam="2">  1       -2 0.16741553E+00 0.17406140E+04</pdfrwt>
<totfact> 0.86997445E+00</totfact>
</mgrwt>
</event>
<event>
 4    1  0.9012200E-005  0.4085413E+03  0.7818608E-02  0.1040862E+00
          2   -1    0    0  501    0  0.00000000000E+00  0.00000000000E+00  0.20275402910E+04  0.20275402910E+04  0.25500000000E-02 0.  1.
         -2   -1    0    0    0  501 -0.00000000000E+00 -0.00000000000E+00 -0.20579858815E+02  0.20579858972E+02  0.25500000000E-02 0. -1.
    5000001    1    1    2    0    0  0.64518191772E+02  0.82586149626E+02  0.70611266691E+03  0.73266852502E+03  0.16500000000E+03 0.  0.
   -5000001    1    1    2    0    0 -0.64518191772E+02 -0.82586149626E+02  0.13008477652E+04  0.13154516249E+04  0.16500000000E+03 0.  0.
<mgrwt>
<rscale>  0 0.40854127E+03</rscale>
<asrwt>0</asrwt>
<pdfrwt beam="1">  1        2 0.31192931E+00 0.40854127E+03</pdfrwt>
<pdfrwt beam="2">  1       -2 0.31661318E-02 0.40854127E+03</pdfrwt>
<totfact> 0.27907928E+03</totfact>
</mgrwt>
</event>
<event>
 4    1  0.9012200E-005  0.4141909E+03  0.7818608E-02  0.1038974E+00
          2   -1    0    0  501    0  0.00000000000E+00  0.00000000000E+00  0.80993077963E+03  0.80993077963E+03  0.25500000000E-02 0.  1.
         -2   -1    0    0    0  501 -0.00000000000E+00 -0.00000000000E+00 -0.52953330849E+02  0.52953330911E+02  0.25500000000E-02 0. -1.
    5000001    1    1    2    0    0 -0.95626908282E+02  0.79966768993E+02  0.40171942282E+03  0.45182151831E+03  0.16500000000E+03 0.  0.
   -5000001    1    1    2    0    0  0.95626908282E+02 -0.79966768993E+02  0.35525802596E+03  0.41106259224E+03  0.16500000000E+03 0.  0.
<mgrwt>
<rscale>  0 0.41419093E+03</rscale>
<asrwt>0</asrwt>
<pdfrwt beam="1">  1        2 0.12460474E+00 0.41419093E+03</pdfrwt>
<pdfrwt beam="2">  1       -2 0.81466662E-02 0.41419093E+03</pdfrwt>
<totfact> 0.32241737E+03</totfact>
</mgrwt>
</event>
<event>
 4    1  0.9012200E-005  0.5757701E+03  0.7818608E-02  0.9956991E-01
         -2   -1    0    0    0  501 -0.00000000000E+00  0.00000000000E+00  0.10430896518E+03  0.10430896522E+03  0.25500000000E-02 0. -1.
          2   -1    0    0  501    0  0.00000000000E+00 -0.00000000000E+00 -0.79454153868E+03  0.79454153868E+03  0.25500000000E-02 0.  1.
    5000001    1    1    2    0    0  0.41201578492E+02 -0.23228094015E+03 -0.34371954859E+03  0.44835268853E+03  0.16500000000E+03 0.  0.
   -5000001    1    1    2    0    0 -0.41201578492E+02  0.23228094015E+03 -0.34651302490E+03  0.45049781537E+03  0.16500000000E+03 0.  0.
<mgrwt>
<rscale>  0 0.57577011E+03</rscale>
<asrwt>0</asrwt>
<pdfrwt beam="1">  1        2 0.12223716E+00 0.57577011E+03</pdfrwt>
<pdfrwt beam="2">  1       -2 0.16047534E-01 0.57577011E+03</pdfrwt>
<totfact> 0.10911869E+03</totfact>
</mgrwt>
</event>
<event>
 4    1  0.9012200E-005  0.7396671E+03  0.7818608E-02  0.9651702E-01
          2   -1    0    0  501    0  0.00000000000E+00  0.00000000000E+00  0.14522895238E+04  0.14522895238E+04  0.25500000000E-02 0.  1.
         -2   -1    0    0    0  501 -0.00000000000E+00 -0.00000000000E+00 -0.94180162649E+02  0.94180162683E+02  0.25500000000E-02 0. -1.
    5000001    1    1    2    0    0 -0.46998425573E+02 -0.28146547910E+03  0.32845278121E+03  0.46533632721E+03  0.16500000000E+03 0.  0.
   -5000001    1    1    2    0    0  0.46998425573E+02  0.28146547910E+03  0.10296565799E+04  0.10811333593E+04  0.16500000000E+03 0.  0.
<mgrwt>
<rscale>  0 0.73966712E+03</rscale>
<asrwt>0</asrwt>
<pdfrwt beam="1">  1        2 0.22342915E+00 0.73966712E+03</pdfrwt>
<pdfrwt beam="2">  1       -2 0.14489256E-01 0.73966712E+03</pdfrwt>
<totfact> 0.50791155E+02</totfact>
</mgrwt>
</event>
<event>
 4    1  0.9012200E-005  0.4327508E+03  0.7818608E-02  0.1032995E+00
         -2   -1    0    0    0  501 -0.00000000000E+00  0.00000000000E+00  0.43888411040E+03  0.43888411041E+03  0.25500000000E-02 0. -1.
          2   -1    0    0  501    0  0.00000000000E+00 -0.00000000000E+00 -0.10667579783E+03  0.10667579786E+03  0.25500000000E-02 0.  1.
    5000001    1    1    2    0    0  0.77795628304E+02  0.71643075422E+02  0.28170522227E+03  0.34317302093E+03  0.16500000000E+03 0.  0.
   -5000001    1    1    2    0    0 -0.77795628304E+02 -0.71643075422E+02  0.50503090299E+02  0.20238688734E+03  0.16500000000E+03 0.  0.
<mgrwt>
<rscale>  0 0.43275080E+03</rscale>
<asrwt>0</asrwt>
<pdfrwt beam="1">  1        2 0.16411661E-01 0.43275080E+03</pdfrwt>
<pdfrwt beam="2">  1       -2 0.67520633E-01 0.43275080E+03</pdfrwt>
<totfact> 0.72638380E+02</totfact>
</mgrwt>
</event>
<event>
 4    1  0.9012200E-005  0.4212941E+03  0.7818608E-02  0.1036646E+00
         -2   -1    0    0    0  501 -0.00000000000E+00  0.00000000000E+00  0.20961231087E+02  0.20961231242E+02  0.25500000000E-02 0. -1.
          2   -1    0    0  501    0  0.00000000000E+00 -0.00000000000E+00 -0.21168688962E+04  0.21168688962E+04  0.25500000000E-02 0.  1.
    5000001    1    1    2    0    0  0.11612500557E+03  0.24210256698E+02 -0.76651582888E+03  0.79299600842E+03  0.16500000000E+03 0.  0.
   -5000001    1    1    2    0    0 -0.11612500557E+03 -0.24210256698E+02 -0.13293918363E+04  0.13448341191E+04  0.16500000000E+03 0.  0.
<mgrwt>
<rscale>  0 0.42129409E+03</rscale>
<asrwt>0</asrwt>
<pdfrwt beam="1">  1        2 0.32567197E+00 0.42129409E+03</pdfrwt>
<pdfrwt beam="2">  1       -2 0.32248065E-02 0.42129409E+03</pdfrwt>
<totfact> 0.24296075E+03</totfact>
</mgrwt>
</event>
<event>
 4    1  0.9012200E-005  0.7037033E+03  0.7818608E-02  0.9710920E-01
          2   -1    0    0  501    0  0.00000000000E+00  0.00000000000E+00  0.14956890693E+04  0.14956890693E+04  0.25500000000E-02 0.  1.
         -2   -1    0    0    0  501 -0.00000000000E+00 -0.00000000000E+00 -0.82770935008E+02  0.82770935048E+02  0.25500000000E-02 0. -1.
    5000001    1    1    2    0    0 -0.22547210371E+03 -0.20861983934E+03  0.81201899428E+03  0.88371927329E+03  0.16500000000E+03 0.  0.
   -5000001    1    1    2    0    0  0.22547210371E+03  0.20861983934E+03  0.60089913997E+03  0.69474073102E+03  0.16500000000E+03 0.  0.
<mgrwt>
<rscale>  0 0.70370330E+03</rscale>
<asrwt>0</asrwt>
<pdfrwt beam="1">  1        2 0.23010599E+00 0.70370330E+03</pdfrwt>
<pdfrwt beam="2">  1       -2 0.12733991E-01 0.70370330E+03</pdfrwt>
<totfact> 0.59736780E+02</totfact>
</mgrwt>
</event>
<event>
 4    1  0.9012200E-005  0.5238158E+03  0.7818608E-02  0.1007743E+00
         -2   -1    0    0    0  501 -0.00000000000E+00  0.00000000000E+00  0.13716514801E+03  0.13716514803E+03  0.25500000000E-02 0. -1.
          2   -1    0    0  501    0  0.00000000000E+00 -0.00000000000E+00 -0.50009597650E+03  0.50009597650E+03  0.25500000000E-02 0.  1.
    5000001    1    1    2    0    0 -0.10927286865E+03  0.16895105407E+03 -0.21767196254E+03  0.33925079479E+03  0.16500000000E+03 0.  0.
   -5000001    1    1    2    0    0  0.10927286865E+03 -0.16895105407E+03 -0.14525886595E+03  0.29801032974E+03  0.16500000000E+03 0.  0.
<mgrwt>
<rscale>  0 0.52381576E+03</rscale>
<asrwt>0</asrwt>
<pdfrwt beam="1">  1        2 0.76937842E-01 0.52381576E+03</pdfrwt>
<pdfrwt beam="2">  1       -2 0.21102331E-01 0.52381576E+03</pdfrwt>
<totfact> 0.11966527E+03</totfact>
</mgrwt>
</event>
<event>
 4    1  0.9012200E-005  0.8267910E+03  0.7818608E-02  0.9522028E-01
          2   -1    0    0  501    0  0.00000000000E+00  0.00000000000E+00  0.23483918389E+04  0.23483918389E+04  0.25500000000E-02 0.  1.
         -2   -1    0    0    0  501 -0.00000000000E+00 -0.00000000000E+00 -0.72771424563E+02  0.72771424608E+02  0.25500000000E-02 0. -1.
    5000001    1    1    2    0    0 -0.87856963211E+02 -0.35153661841E+03  0.81206123275E+03  0.90441433304E+03  0.16500000000E+03 0.  0.
   -5000001    1    1    2    0    0  0.87856963211E+02  0.35153661841E+03  0.14635591815E+04  0.15167489304E+04  0.16500000000E+03 0.  0.
<mgrwt>
<rscale>  0 0.82679095E+03</rscale>
<asrwt>0</asrwt>
<pdfrwt beam="1">  1        2 0.36129097E+00 0.82679095E+03</pdfrwt>
<pdfrwt beam="2">  1       -2 0.11195606E-01 0.82679095E+03</pdfrwt>
<totfact> 0.24916499E+02</totfact>
</mgrwt>
</event>
<event>
 4    1  0.9012200E-005  0.3667087E+03  0.7818608E-02  0.1055959E+00
         -2   -1    0    0    0  501 -0.00000000000E+00  0.00000000000E+00  0.21976112814E+02  0.21976112962E+02  0.25500000000E-02 0. -1.
          2   -1    0    0  501    0  0.00000000000E+00 -0.00000000000E+00 -0.15297888571E+04  0.15297888571E+04  0.25500000000E-02 0.  1.
    5000001    1    1    2    0    0  0.14327487065E+02  0.46001059000E+02 -0.10239488098E+04  0.10382762347E+04  0.16500000000E+03 0.  0.
   -5000001    1    1    2    0    0 -0.14327487065E+02 -0.46001059000E+02 -0.48386393445E+03  0.51348873539E+03  0.16500000000E+03 0.  0.
<mgrwt>
<rscale>  0 0.36670867E+03</rscale>
<asrwt>0</asrwt>
<pdfrwt beam="1">  1        2 0.23535205E+00 0.36670867E+03</pdfrwt>
<pdfrwt beam="2">  1       -2 0.33809416E-02 0.36670867E+03</pdfrwt>
<totfact> 0.46668156E+03</totfact>
</mgrwt>
</event>
<event>
 4    1  0.9012200E-005  0.4291013E+03  0.7818608E-02  0.1034144E+00
         -2   -1    0    0    0  501 -0.00000000000E+00  0.00000000000E+00  0.10765615517E+03  0.10765615520E+03  0.25500000000E-02 0. -1.
          2   -1    0    0  501    0  0.00000000000E+00 -0.00000000000E+00 -0.42758330581E+03  0.42758330581E+03  0.25500000000E-02 0.  1.
    5000001    1    1    2    0    0  0.74300240069E+02  0.11158692778E+03 -0.12392386728E+03  0.24607781901E+03  0.16500000000E+03 0.  0.
   -5000001    1    1    2    0    0 -0.74300240069E+02 -0.11158692778E+03 -0.19600328335E+03  0.28916164201E+03  0.16500000000E+03 0.  0.
<mgrwt>
<rscale>  0 0.42910127E+03</rscale>
<asrwt>0</asrwt>
<pdfrwt beam="1">  1        2 0.65782046E-01 0.42910127E+03</pdfrwt>
<pdfrwt beam="2">  1       -2 0.16562486E-01 0.42910127E+03</pdfrwt>
<totfact> 0.21643209E+03</totfact>
</mgrwt>
</event>
<event>
 4    1  0.9012200E-005  0.5444596E+03  0.7818608E-02  0.1002784E+00
         -2   -1    0    0    0  501 -0.00000000000E+00  0.00000000000E+00  0.48215067535E+02  0.48215067603E+02  0.25500000000E-02 0. -1.
          2   -1    0    0  501    0  0.00000000000E+00 -0.00000000000E+00 -0.15370521447E+04  0.15370521447E+04  0.25500000000E-02 0.  1.
    5000001    1    1    2    0    0  0.28111888483E+02  0.18567925623E+03 -0.43059613411E+03  0.49790068807E+03  0.16500000000E+03 0.  0.
   -5000001    1    1    2    0    0 -0.28111888483E+02 -0.18567925623E+03 -0.10582409430E+04  0.10873665242E+04  0.16500000000E+03 0.  0.
<mgrwt>
<rscale>  0 0.54445963E+03</rscale>
<asrwt>0</asrwt>
<pdfrwt beam="1">  1        2 0.23646952E+00 0.54445963E+03</pdfrwt>
<pdfrwt beam="2">  1       -2 0.74177039E-02 0.54445963E+03</pdfrwt>
<totfact> 0.13706917E+03</totfact>
</mgrwt>
</event>
<event>
 4    1  0.9012200E-005  0.3778685E+03  0.7818608E-02  0.1051724E+00
          2   -1    0    0  501    0  0.00000000000E+00  0.00000000000E+00  0.50707522806E+03  0.50707522807E+03  0.25500000000E-02 0.  1.
         -2   -1    0    0    0  501 -0.00000000000E+00 -0.00000000000E+00 -0.70396157559E+02  0.70396157605E+02  0.25500000000E-02 0. -1.
    5000001    1    1    2    0    0  0.54610112381E+02 -0.73650503257E+02  0.23061180067E+03  0.29801587812E+03  0.16500000000E+03 0.  0.
   -5000001    1    1    2    0    0 -0.54610112381E+02  0.73650503257E+02  0.20606726983E+03  0.27945550755E+03  0.16500000000E+03 0.  0.
<mgrwt>
<rscale>  0 0.37786848E+03</rscale>
<asrwt>0</asrwt>
<pdfrwt beam="1">  1        2 0.78011573E-01 0.37786848E+03</pdfrwt>
<pdfrwt beam="2">  1       -2 0.10830178E-01 0.37786848E+03</pdfrwt>
<totfact> 0.35951952E+03</totfact>
</mgrwt>
</event>
<event>
 4    1  0.9012200E-005  0.4398322E+03  0.7818608E-02  0.1030798E+00
         -2   -1    0    0    0  501 -0.00000000000E+00  0.00000000000E+00  0.13707055104E+03  0.13707055106E+03  0.25500000000E-02 0. -1.
          2   -1    0    0  501    0  0.00000000000E+00 -0.00000000000E+00 -0.35283354319E+03  0.35283354320E+03  0.25500000000E-02 0.  1.
    5000001    1    1    2    0    0 -0.21853877820E+02  0.14251279069E+03 -0.12873746914E+03  0.25413741056E+03  0.16500000000E+03 0.  0.
   -5000001    1    1    2    0    0  0.21853877820E+02 -0.14251279069E+03 -0.87025523006E+02  0.23576668369E+03  0.16500000000E+03 0.  0.
<mgrwt>
<rscale>  0 0.43983219E+03</rscale>
<asrwt>0</asrwt>
<pdfrwt beam="1">  1        2 0.54282083E-01 0.43983219E+03</pdfrwt>
<pdfrwt beam="2">  1       -2 0.21087777E-01 0.43983219E+03</pdfrwt>
<totfact> 0.17687285E+03</totfact>
</mgrwt>
</event>
<event>
 4    1  0.9012200E-005  0.8558560E+03  0.7818608E-02  0.9482511E-01
          2   -1    0    0  501    0  0.00000000000E+00  0.00000000000E+00  0.19621374386E+04  0.19621374386E+04  0.25500000000E-02 0.  1.
         -2   -1    0    0    0  501 -0.00000000000E+00 -0.00000000000E+00 -0.93328001581E+02  0.93328001616E+02  0.25500000000E-02 0. -1.
    5000001    1    1    2    0    0  0.22638536843E+03  0.32342425642E+03  0.95029581907E+03  0.10421807561E+04  0.16500000000E+03 0.  0.
   -5000001    1    1    2    0    0 -0.22638536843E+03 -0.32342425642E+03  0.91851361796E+03  0.10132846841E+04  0.16500000000E+03 0.  0.
<mgrwt>
<rscale>  0 0.85585598E+03</rscale>
<asrwt>0</asrwt>
<pdfrwt beam="1">  1        2 0.30186730E+00 0.85585598E+03</pdfrwt>
<pdfrwt beam="2">  1       -2 0.14358154E-01 0.85585598E+03</pdfrwt>
<totfact> 0.26838188E+02</totfact>
</mgrwt>
</event>
<event>
 4    1  0.9012200E-005  0.4622335E+03  0.7818608E-02  0.1024135E+00
          2   -1    0    0  501    0  0.00000000000E+00  0.00000000000E+00  0.66957592081E+03  0.66957592082E+03  0.25500000000E-02 0.  1.
         -2   -1    0    0    0  501 -0.00000000000E+00 -0.00000000000E+00 -0.79774315146E+02  0.79774315186E+02  0.25500000000E-02 0. -1.
    5000001    1    1    2    0    0  0.14230892944E+03 -0.76300717996E+02  0.27741568895E+03  0.36091286405E+03  0.16500000000E+03 0.  0.
   -5000001    1    1    2    0    0 -0.14230892944E+03  0.76300717996E+02  0.31238591672E+03  0.38843737195E+03  0.16500000000E+03 0.  0.
<mgrwt>
<rscale>  0 0.46223354E+03</rscale>
<asrwt>0</asrwt>
<pdfrwt beam="1">  1        2 0.10301168E+00 0.46223354E+03</pdfrwt>
<pdfrwt beam="2">  1       -2 0.12272972E-01 0.46223354E+03</pdfrwt>
<totfact> 0.21200318E+03</totfact>
</mgrwt>
</event>
<event>
 4    1  0.9012200E-005  0.4743372E+03  0.7818608E-02  0.1020703E+00
          2   -1    0    0  501    0  0.00000000000E+00  0.00000000000E+00  0.16776488051E+04  0.16776488051E+04  0.25500000000E-02 0. -1.
         -2   -1    0    0    0  501 -0.00000000000E+00 -0.00000000000E+00 -0.33528437423E+02  0.33528437520E+02  0.25500000000E-02 0.  1.
    5000001    1    1    2    0    0 -0.14003086734E+03  0.93817157036E+02  0.91142462719E+03  0.94145108944E+03  0.16500000000E+03 0.  0.
   -5000001    1    1    2    0    0  0.14003086734E+03 -0.93817157036E+02  0.73269574047E+03  0.76972615316E+03  0.16500000000E+03 0.  0.
<mgrwt>
<rscale>  0 0.47433719E+03</rscale>
<asrwt>0</asrwt>
<pdfrwt beam="1">  1        2 0.25809979E+00 0.47433719E+03</pdfrwt>
<pdfrwt beam="2">  1       -2 0.51582217E-02 0.47433719E+03</pdfrwt>
<totfact> 0.20344371E+03</totfact>
</mgrwt>
</event>
<event>
 4    1  0.9012200E-005  0.4630024E+03  0.7818608E-02  0.1023914E+00
         -2   -1    0    0    0  501 -0.00000000000E+00  0.00000000000E+00  0.15147635045E+02  0.15147635260E+02  0.25500000000E-02 0. -1.
          2   -1    0    0  501    0  0.00000000000E+00 -0.00000000000E+00 -0.35380306839E+04  0.35380306839E+04  0.25500000000E-02 0.  1.
    5000001    1    1    2    0    0 -0.14721236791E+03  0.30783229511E+02 -0.12915748060E+04  0.13107286401E+04  0.16500000000E+03 0.  0.
   -5000001    1    1    2    0    0  0.14721236791E+03 -0.30783229511E+02 -0.22313082429E+04  0.22424496791E+04  0.16500000000E+03 0.  0.
<mgrwt>
<rscale>  0 0.46300237E+03</rscale>
<asrwt>0</asrwt>
<pdfrwt beam="1">  1        2 0.54431176E+00 0.46300237E+03</pdfrwt>
<pdfrwt beam="2">  1       -2 0.23304082E-02 0.46300237E+03</pdfrwt>
<totfact> 0.56808645E+02</totfact>
</mgrwt>
</event>
<event>
 4    1  0.9012200E-005  0.4696114E+03  0.7818608E-02  0.1022030E+00
         -2   -1    0    0    0  501 -0.00000000000E+00  0.00000000000E+00  0.39663142567E+03  0.39663142568E+03  0.25500000000E-02 0. -1.
          2   -1    0    0  501    0  0.00000000000E+00 -0.00000000000E+00 -0.13900494215E+03  0.13900494218E+03  0.25500000000E-02 0.  1.
    5000001    1    1    2    0    0  0.14160965648E+03 -0.88586287641E+02  0.13201975837E+03  0.26936043096E+03  0.16500000000E+03 0.  0.
   -5000001    1    1    2    0    0 -0.14160965648E+03  0.88586287641E+02  0.12560672515E+03  0.26627593690E+03  0.16500000000E+03 0.  0.
<mgrwt>
<rscale>  0 0.46961145E+03</rscale>
<asrwt>0</asrwt>
<pdfrwt beam="1">  1        2 0.21385376E-01 0.46961145E+03</pdfrwt>
<pdfrwt beam="2">  1       -2 0.61020219E-01 0.46961145E+03</pdfrwt>
<totfact> 0.66030899E+02</totfact>
</mgrwt>
</event>
<event>
 4    1  0.9012200E-005  0.5837354E+03  0.7818608E-02  0.9939737E-01
         -2   -1    0    0    0  501 -0.00000000000E+00  0.00000000000E+00  0.11866852725E+03  0.11866852727E+03  0.25500000000E-02 0. -1.
          2   -1    0    0  501    0  0.00000000000E+00 -0.00000000000E+00 -0.71785464264E+03  0.71785464264E+03  0.25500000000E-02 0.  1.
    5000001    1    1    2    0    0  0.13471351257E+03 -0.18054856286E+03 -0.17785751213E+03  0.33106465931E+03  0.16500000000E+03 0.  0.
   -5000001    1    1    2    0    0 -0.13471351257E+03  0.18054856286E+03 -0.42132860326E+03  0.50545851061E+03  0.16500000000E+03 0.  0.
<mgrwt>
<rscale>  0 0.58373540E+03</rscale>
<asrwt>0</asrwt>
<pdfrwt beam="1">  1        2 0.11043917E+00 0.58373540E+03</pdfrwt>
<pdfrwt beam="2">  1       -2 0.18256697E-01 0.58373540E+03</pdfrwt>
<totfact> 0.99726133E+02</totfact>
</mgrwt>
</event>
<event>
 4    1  0.9012200E-005  0.4222947E+03  0.7818608E-02  0.1036322E+00
         -2   -1    0    0    0  501 -0.00000000000E+00  0.00000000000E+00  0.22502919683E+02  0.22502919827E+02  0.25500000000E-02 0. -1.
          2   -1    0    0  501    0  0.00000000000E+00 -0.00000000000E+00 -0.19812185338E+04  0.19812185338E+04  0.25500000000E-02 0.  1.
    5000001    1    1    2    0    0 -0.65653877596E+02 -0.10817770662E+03 -0.11533941649E+04  0.11719880321E+04  0.16500000000E+03 0.  0.
   -5000001    1    1    2    0    0  0.65653877596E+02  0.10817770662E+03 -0.80532144926E+03  0.83173342153E+03  0.16500000000E+03 0.  0.
<mgrwt>
<rscale>  0 0.42229469E+03</rscale>
<asrwt>0</asrwt>
<pdfrwt beam="1">  1        2 0.30480271E+00 0.42229469E+03</pdfrwt>
<pdfrwt beam="2">  1       -2 0.34619892E-02 0.42229469E+03</pdfrwt>
<totfact> 0.25798413E+03</totfact>
</mgrwt>
</event>
<event>
 4    1  0.9012200E-005  0.4544165E+03  0.7818608E-02  0.1026413E+00
         -2   -1    0    0    0  501 -0.00000000000E+00  0.00000000000E+00  0.12825468422E+03  0.12825468424E+03  0.25500000000E-02 0. -1.
          2   -1    0    0  501    0  0.00000000000E+00 -0.00000000000E+00 -0.40250842715E+03  0.40250842716E+03  0.25500000000E-02 0.  1.
    5000001    1    1    2    0    0  0.51609659453E+02 -0.13813297201E+03 -0.76950919696E+02  0.23428768415E+03  0.16500000000E+03 0.  0.
   -5000001    1    1    2    0    0 -0.51609659453E+02  0.13813297201E+03 -0.19730282324E+03  0.29647542725E+03  0.16500000000E+03 0.  0.
<mgrwt>
<rscale>  0 0.45441651E+03</rscale>
<asrwt>0</asrwt>
<pdfrwt beam="1">  1        2 0.61924373E-01 0.45441651E+03</pdfrwt>
<pdfrwt beam="2">  1       -2 0.19731490E-01 0.45441651E+03</pdfrwt>
<totfact> 0.17169842E+03</totfact>
</mgrwt>
</event>
<event>
 4    1  0.9012200E-005  0.7088040E+03  0.7818608E-02  0.9702294E-01
         -2   -1    0    0    0  501 -0.00000000000E+00  0.00000000000E+00  0.45053895875E+03  0.45053895876E+03  0.25500000000E-02 0. -1.
          2   -1    0    0  501    0  0.00000000000E+00 -0.00000000000E+00 -0.27877893143E+03  0.27877893144E+03  0.25500000000E-02 0.  1.
    5000001    1    1    2    0    0 -0.24236589963E+03 -0.18749217721E+03  0.17000664914E+02  0.34843732353E+03  0.16500000000E+03 0.  0.
   -5000001    1    1    2    0    0  0.24236589963E+03  0.18749217721E+03  0.15475936241E+03  0.38088056668E+03  0.16500000000E+03 0.  0.
<mgrwt>
<rscale>  0 0.70880398E+03</rscale>
<asrwt>0</asrwt>
<pdfrwt beam="1">  1        2 0.42889068E-01 0.70880398E+03</pdfrwt>
<pdfrwt beam="2">  1       -2 0.69313684E-01 0.70880398E+03</pdfrwt>
<totfact> 0.22852809E+02</totfact>
</mgrwt>
</event>
<event>
 4    1  0.9012200E-005  0.4656225E+03  0.7818608E-02  0.1023163E+00
          2   -1    0    0  501    0  0.00000000000E+00  0.00000000000E+00  0.27541050324E+03  0.27541050325E+03  0.25500000000E-02 0.  1.
         -2   -1    0    0    0  501 -0.00000000000E+00 -0.00000000000E+00 -0.19680101657E+03  0.19680101658E+03  0.25500000000E-02 0. -1.
    5000001    1    1    2    0    0  0.11707065993E+03 -0.45913736355E+02  0.14645236906E+03  0.25394272387E+03  0.16500000000E+03 0.  0.
   -5000001    1    1    2    0    0 -0.11707065993E+03  0.45913736355E+02 -0.67842882383E+02  0.21826879597E+03  0.16500000000E+03 0.  0.
<mgrwt>
<rscale>  0 0.46562245E+03</rscale>
<asrwt>0</asrwt>
<pdfrwt beam="1">  1        2 0.42370847E-01 0.46562245E+03</pdfrwt>
<pdfrwt beam="2">  1       -2 0.30277080E-01 0.46562245E+03</pdfrwt>
<totfact> 0.12151024E+03</totfact>
</mgrwt>
</event>
<event>
 4    1  0.9012200E-005  0.3512193E+03  0.7818608E-02  0.1062116E+00
          2   -1    0    0  501    0  0.00000000000E+00  0.00000000000E+00  0.42215961811E+03  0.42215961812E+03  0.25500000000E-02 0.  1.
         -2   -1    0    0    0  501 -0.00000000000E+00 -0.00000000000E+00 -0.73049976417E+02  0.73049976461E+02  0.25500000000E-02 0. -1.
    5000001    1    1    2    0    0  0.43098648198E+02 -0.41896810204E+02  0.17320685574E+03  0.24665451761E+03  0.16500000000E+03 0.  0.
   -5000001    1    1    2    0    0 -0.43098648198E+02  0.41896810204E+02  0.17590278595E+03  0.24855507697E+03  0.16500000000E+03 0.  0.
<mgrwt>
<rscale>  0 0.35121931E+03</rscale>
<asrwt>0</asrwt>
<pdfrwt beam="1">  1        2 0.64947633E-01 0.35121931E+03</pdfrwt>
<pdfrwt beam="2">  1       -2 0.11238458E-01 0.35121931E+03</pdfrwt>
<totfact> 0.41513713E+03</totfact>
</mgrwt>
</event>
<event>
 4    1  0.9012200E-005  0.5794819E+03  0.7818608E-02  0.9948913E-01
          2   -1    0    0  501    0  0.00000000000E+00  0.00000000000E+00  0.11425825536E+03  0.11425825539E+03  0.25500000000E-02 0.  1.
         -2   -1    0    0    0  501 -0.00000000000E+00 -0.00000000000E+00 -0.73473737812E+03  0.73473737813E+03  0.25500000000E-02 0. -1.
    5000001    1    1    2    0    0 -0.19788183752E+03  0.12026925238E+03 -0.39185066115E+03  0.48414239159E+03  0.16500000000E+03 0.  0.
   -5000001    1    1    2    0    0  0.19788183752E+03 -0.12026925238E+03 -0.22862846161E+03  0.36485324193E+03  0.16500000000E+03 0.  0.
<mgrwt>
<rscale>  0 0.57948188E+03</rscale>
<asrwt>0</asrwt>
<pdfrwt beam="1">  1        2 0.17578194E-01 0.57948188E+03</pdfrwt>
<pdfrwt beam="2">  1       -2 0.11303652E+00 0.57948188E+03</pdfrwt>
<totfact> 0.20635103E+02</totfact>
</mgrwt>
</event>
<event>
 4    1  0.9012200E-005  0.3793642E+03  0.7818608E-02  0.1051169E+00
          2   -1    0    0  501    0  0.00000000000E+00  0.00000000000E+00  0.52658598831E+03  0.52658598832E+03  0.25500000000E-02 0.  1.
         -2   -1    0    0    0  501 -0.00000000000E+00 -0.00000000000E+00 -0.68325605675E+02  0.68325605722E+02  0.25500000000E-02 0. -1.
    5000001    1    1    2    0    0  0.47930779595E+02 -0.79083130176E+02  0.20679776536E+03  0.28025312999E+03  0.16500000000E+03 0.  0.
   -5000001    1    1    2    0    0 -0.47930779595E+02  0.79083130176E+02  0.25146261727E+03  0.31465846405E+03  0.16500000000E+03 0.  0.
<mgrwt>
<rscale>  0 0.37936424E+03</rscale>
<asrwt>0</asrwt>
<pdfrwt beam="1">  1        2 0.81013228E-01 0.37936424E+03</pdfrwt>
<pdfrwt beam="2">  1       -2 0.10511632E-01 0.37936424E+03</pdfrwt>
<totfact> 0.36137232E+03</totfact>
</mgrwt>
</event>
<event>
 4    1  0.9012200E-005  0.5199284E+03  0.7818608E-02  0.1008704E+00
          2   -1    0    0  501    0  0.00000000000E+00  0.00000000000E+00  0.44356797574E+03  0.44356797574E+03  0.25500000000E-02 0.  1.
         -2   -1    0    0    0  501 -0.00000000000E+00 -0.00000000000E+00 -0.15235857269E+03  0.15235857271E+03  0.25500000000E-02 0. -1.
    5000001    1    1    2    0    0  0.14093587217E+03 -0.13984941434E+03  0.11054603063E+03  0.28083127256E+03  0.16500000000E+03 0.  0.
   -5000001    1    1    2    0    0 -0.14093587217E+03  0.13984941434E+03  0.18066337242E+03  0.31509527589E+03  0.16500000000E+03 0.  0.
<mgrwt>
<rscale>  0 0.51992839E+03</rscale>
<asrwt>0</asrwt>
<pdfrwt beam="1">  1        2 0.68241226E-01 0.51992839E+03</pdfrwt>
<pdfrwt beam="2">  1       -2 0.23439781E-01 0.51992839E+03</pdfrwt>
<totfact> 0.11396789E+03</totfact>
</mgrwt>
</event>
<event>
 4    1  0.9012200E-005  0.3675438E+03  0.7818608E-02  0.1055636E+00
         -2   -1    0    0    0  501 -0.00000000000E+00  0.00000000000E+00  0.50088929173E+02  0.50088929238E+02  0.25500000000E-02 0. -1.
          2   -1    0    0  501    0  0.00000000000E+00 -0.00000000000E+00 -0.67424285586E+03  0.67424285586E+03  0.25500000000E-02 0.  1.
    5000001    1    1    2    0    0 -0.48660815330E+02  0.44015403662E+02 -0.21876573626E+03  0.28175996534E+03  0.16500000000E+03 0.  0.
   -5000001    1    1    2    0    0  0.48660815330E+02 -0.44015403662E+02 -0.40538819042E+03  0.44257181976E+03  0.16500000000E+03 0.  0.
<mgrwt>
<rscale>  0 0.36754375E+03</rscale>
<asrwt>0</asrwt>
<pdfrwt beam="1">  1        2 0.10372966E+00 0.36754375E+03</pdfrwt>
<pdfrwt beam="2">  1       -2 0.77059896E-02 0.36754375E+03</pdfrwt>
<totfact> 0.44240252E+03</totfact>
</mgrwt>
</event>
<event>
 4    1  0.9012200E-005  0.9499216E+03  0.7818608E-02  0.9365242E-01
         -2   -1    0    0    0  501 -0.00000000000E+00  0.00000000000E+00  0.23903919944E+03  0.23903919945E+03  0.25500000000E-02 0. -1.
          2   -1    0    0  501    0  0.00000000000E+00 -0.00000000000E+00 -0.94372714409E+03  0.94372714410E+03  0.25500000000E-02 0.  1.
    5000001    1    1    2    0    0 -0.30928193030E+03  0.28588227041E+03 -0.53268787215E+03  0.69883142036E+03  0.16500000000E+03 0.  0.
   -5000001    1    1    2    0    0  0.30928193030E+03 -0.28588227041E+03 -0.17200007250E+03  0.48393492319E+03  0.16500000000E+03 0.  0.
<mgrwt>
<rscale>  0 0.94992164E+03</rscale>
<asrwt>0</asrwt>
<pdfrwt beam="1">  1        2 0.14518879E+00 0.94992164E+03</pdfrwt>
<pdfrwt beam="2">  1       -2 0.36775262E-01 0.94992164E+03</pdfrwt>
<totfact> 0.19085366E+02</totfact>
</mgrwt>
</event>
<event>
 4    1  0.9012200E-005  0.3856253E+03  0.7818608E-02  0.1048874E+00
          2   -1    0    0  501    0  0.00000000000E+00  0.00000000000E+00  0.91667294051E+03  0.91667294051E+03  0.25500000000E-02 0.  1.
         -2   -1    0    0    0  501 -0.00000000000E+00 -0.00000000000E+00 -0.40556142465E+02  0.40556142545E+02  0.25500000000E-02 0. -1.
    5000001    1    1    2    0    0 -0.10588691536E+02  0.71784569637E+02  0.60799153952E+03  0.63414813486E+03  0.16500000000E+03 0.  0.
   -5000001    1    1    2    0    0  0.10588691536E+02 -0.71784569637E+02  0.26812525853E+03  0.32308094820E+03  0.16500000000E+03 0.  0.
<mgrwt>
<rscale>  0 0.38562530E+03</rscale>
<asrwt>0</asrwt>
<pdfrwt beam="1">  1        2 0.14102659E+00 0.38562530E+03</pdfrwt>
<pdfrwt beam="2">  1       -2 0.62394073E-02 0.38562530E+03</pdfrwt>
<totfact> 0.41479656E+03</totfact>
</mgrwt>
</event>
<event>
 4    1  0.9012200E-005  0.4980761E+03  0.7818608E-02  0.1014282E+00
          2   -1    0    0  501    0  0.00000000000E+00  0.00000000000E+00  0.61665324460E+03  0.61665324461E+03  0.25500000000E-02 0.  1.
         -2   -1    0    0    0  501 -0.00000000000E+00 -0.00000000000E+00 -0.10057508499E+03  0.10057508502E+03  0.25500000000E-02 0. -1.
    5000001    1    1    2    0    0 -0.85078090168E+02 -0.11476912199E+03  0.85331090926E+02  0.23434297060E+03  0.16500000000E+03 0.  0.
   -5000001    1    1    2    0    0  0.85078090168E+02  0.11476912199E+03  0.43074706869E+03  0.48288535904E+03  0.16500000000E+03 0.  0.
<mgrwt>
<rscale>  0 0.49807611E+03</rscale>
<asrwt>0</asrwt>
<pdfrwt beam="1">  1        2 0.94869729E-01 0.49807611E+03</pdfrwt>
<pdfrwt beam="2">  1       -2 0.15473090E-01 0.49807611E+03</pdfrwt>
<totfact> 0.15942010E+03</totfact>
</mgrwt>
</event>
<event>
 4    1  0.9012200E-005  0.4205498E+03  0.7818608E-02  0.1036888E+00
         -2   -1    0    0    0  501 -0.00000000000E+00  0.00000000000E+00  0.42871068047E+02  0.42871068123E+02  0.25500000000E-02 0. -1.
          2   -1    0    0  501    0  0.00000000000E+00 -0.00000000000E+00 -0.10313608189E+04  0.10313608190E+04  0.25500000000E-02 0.  1.
    5000001    1    1    2    0    0 -0.37168911690E+02 -0.10910252635E+03 -0.33875116959E+03  0.39403330335E+03  0.16500000000E+03 0.  0.
   -5000001    1    1    2    0    0  0.37168911690E+02  0.10910252635E+03 -0.64973858131E+03  0.68019858372E+03  0.16500000000E+03 0.  0.
<mgrwt>
<rscale>  0 0.42054983E+03</rscale>
<asrwt>0</asrwt>
<pdfrwt beam="1">  1        2 0.15867088E+00 0.42054983E+03</pdfrwt>
<pdfrwt beam="2">  1       -2 0.65955497E-02 0.42054983E+03</pdfrwt>
<totfact> 0.32222951E+03</totfact>
</mgrwt>
</event>
<event>
 4    1  0.9012200E-005  0.4196654E+03  0.7818608E-02  0.1037175E+00
          2   -1    0    0  501    0  0.00000000000E+00  0.00000000000E+00  0.12183469897E+04  0.12183469897E+04  0.25500000000E-02 0.  1.
         -2   -1    0    0    0  501 -0.00000000000E+00 -0.00000000000E+00 -0.36138941554E+02  0.36138941644E+02  0.25500000000E-02 0. -1.
    5000001    1    1    2    0    0 -0.13301486454E+02  0.88843445174E+02  0.87047814387E+03  0.89052079495E+03  0.16500000000E+03 0.  0.
   -5000001    1    1    2    0    0  0.13301486454E+02 -0.88843445174E+02  0.31172990432E+03  0.36396513643E+03  0.16500000000E+03 0.  0.
<mgrwt>
<rscale>  0 0.41966544E+03</rscale>
<asrwt>0</asrwt>
<pdfrwt beam="1">  1        2 0.18743801E+00 0.41966544E+03</pdfrwt>
<pdfrwt beam="2">  1       -2 0.55598368E-02 0.41966544E+03</pdfrwt>
<totfact> 0.32537594E+03</totfact>
</mgrwt>
</event>
<event>
 4    1  0.9012200E-005  0.1039730E+04  0.7818608E-02  0.9266012E-01
          2   -1    0    0  501    0  0.00000000000E+00  0.00000000000E+00  0.17465121367E+03  0.17465121369E+03  0.25500000000E-02 0.  1.
         -2   -1    0    0    0  501 -0.00000000000E+00 -0.00000000000E+00 -0.15474255350E+04  0.15474255350E+04  0.25500000000E-02 0. -1.
    5000001    1    1    2    0    0  0.31951515153E+03  0.30462583801E+03 -0.32295733631E+03  0.57132589151E+03  0.16500000000E+03 0.  0.
   -5000001    1    1    2    0    0 -0.31951515153E+03 -0.30462583801E+03 -0.10498169850E+04  0.11507508572E+04  0.16500000000E+03 0.  0.
<mgrwt>
<rscale>  0 0.10397302E+04</rscale>
<asrwt>0</asrwt>
<pdfrwt beam="1">  1        2 0.26869419E-01 0.10397302E+04</pdfrwt>
<pdfrwt beam="2">  1       -2 0.23806546E+00 0.10397302E+04</pdfrwt>
<totfact> 0.15383787E+01</totfact>
</mgrwt>
</event>
<event>
 4    1  0.9012200E-005  0.5350075E+03  0.7818608E-02  0.1005025E+00
         -2   -1    0    0    0  501 -0.00000000000E+00  0.00000000000E+00  0.27586853286E+03  0.27586853287E+03  0.25500000000E-02 0. -1.
          2   -1    0    0  501    0  0.00000000000E+00 -0.00000000000E+00 -0.25939257876E+03  0.25939257878E+03  0.25500000000E-02 0.  1.
    5000001    1    1    2    0    0 -0.13392090817E+03  0.15416230612E+03 -0.43093498700E+02  0.26605051382E+03  0.16500000000E+03 0.  0.
   -5000001    1    1    2    0    0  0.13392090817E+03 -0.15416230612E+03  0.59569452792E+02  0.26921059782E+03  0.16500000000E+03 0.  0.
<mgrwt>
<rscale>  0 0.53500748E+03</rscale>
<asrwt>0</asrwt>
<pdfrwt beam="1">  1        2 0.39906551E-01 0.53500748E+03</pdfrwt>
<pdfrwt beam="2">  1       -2 0.42441313E-01 0.53500748E+03</pdfrwt>
<totfact> 0.68352374E+02</totfact>
</mgrwt>
</event>
<event>
 4    1  0.9012200E-005  0.8078992E+03  0.7818608E-02  0.9548653E-01
          2   -1    0    0  501    0  0.00000000000E+00  0.00000000000E+00  0.19398860487E+04  0.19398860487E+04  0.25500000000E-02 0.  1.
         -2   -1    0    0    0  501 -0.00000000000E+00 -0.00000000000E+00 -0.84115910267E+02  0.84115910306E+02  0.25500000000E-02 0. -1.
    5000001    1    1    2    0    0  0.23273574506E+03  0.20618101512E+03  0.43140148405E+03  0.55678431953E+03  0.16500000000E+03 0.  0.
   -5000001    1    1    2    0    0 -0.23273574506E+03 -0.20618101512E+03  0.14243686544E+04  0.14672176395E+04  0.16500000000E+03 0.  0.
<mgrwt>
<rscale>  0 0.80789920E+03</rscale>
<asrwt>0</asrwt>
<pdfrwt beam="1">  1        2 0.29844400E+00 0.80789920E+03</pdfrwt>
<pdfrwt beam="2">  1       -2 0.12940910E-01 0.80789920E+03</pdfrwt>
<totfact> 0.32973069E+02</totfact>
</mgrwt>
</event>
<event>
 4    1  0.9012200E-005  0.7313531E+03  0.7818608E-02  0.9665067E-01
         -2   -1    0    0    0  501 -0.00000000000E+00  0.00000000000E+00  0.13182365124E+03  0.13182365126E+03  0.25500000000E-02 0. -1.
          2   -1    0    0  501    0  0.00000000000E+00 -0.00000000000E+00 -0.10143804501E+04  0.10143804501E+04  0.25500000000E-02 0.  1.
    5000001    1    1    2    0    0 -0.47808994094E+02 -0.31626652818E+03 -0.54265478838E+03  0.65116006950E+03  0.16500000000E+03 0.  0.
   -5000001    1    1    2    0    0  0.47808994094E+02  0.31626652818E+03 -0.33990201050E+03  0.49504403188E+03  0.16500000000E+03 0.  0.
<mgrwt>
<rscale>  0 0.73135309E+03</rscale>
<asrwt>0</asrwt>
<pdfrwt beam="1">  1        2 0.15605853E+00 0.73135309E+03</pdfrwt>
<pdfrwt beam="2">  1       -2 0.20280562E-01 0.73135309E+03</pdfrwt>
<totfact> 0.51683658E+02</totfact>
</mgrwt>
</event>
<event>
 4    1  0.9012200E-005  0.4938472E+03  0.7818608E-02  0.1015397E+00
          2   -1    0    0  501    0  0.00000000000E+00  0.00000000000E+00  0.40066381460E+03  0.40066381461E+03  0.25500000000E-02 0.  1.
         -2   -1    0    0    0  501 -0.00000000000E+00 -0.00000000000E+00 -0.15217564581E+03  0.15217564583E+03  0.25500000000E-02 0. -1.
    5000001    1    1    2    0    0  0.16882051404E+03  0.55786143695E+02  0.17595530378E+03  0.29966269157E+03  0.16500000000E+03 0.  0.
   -5000001    1    1    2    0    0 -0.16882051404E+03 -0.55786143695E+02  0.72532865008E+02  0.25317676887E+03  0.16500000000E+03 0.  0.
<mgrwt>
<rscale>  0 0.49384724E+03</rscale>
<asrwt>0</asrwt>
<pdfrwt beam="1">  1        2 0.61640586E-01 0.49384724E+03</pdfrwt>
<pdfrwt beam="2">  1       -2 0.23411638E-01 0.49384724E+03</pdfrwt>
<totfact> 0.12798071E+03</totfact>
</mgrwt>
</event>
<event>
 4    1  0.9012200E-005  0.5842684E+03  0.7818608E-02  0.9938592E-01
          2   -1    0    0  501    0  0.00000000000E+00  0.00000000000E+00  0.31887291310E+04  0.31887291310E+04  0.25500000000E-02 0.  1.
         -2   -1    0    0    0  501 -0.00000000000E+00 -0.00000000000E+00 -0.26763765246E+02  0.26763765367E+02  0.25500000000E-02 0. -1.
    5000001    1    1    2    0    0 -0.19629351942E+03  0.10421955633E+03  0.10669315540E+04  0.11022526038E+04  0.16500000000E+03 0.  0.
   -5000001    1    1    2    0    0  0.19629351942E+03 -0.10421955633E+03  0.20950338117E+04  0.21132402925E+04  0.16500000000E+03 0.  0.
<mgrwt>
<rscale>  0 0.58426842E+03</rscale>
<asrwt>0</asrwt>
<pdfrwt beam="1">  1        2 0.49057374E+00 0.58426842E+03</pdfrwt>
<pdfrwt beam="2">  1       -2 0.41175022E-02 0.58426842E+03</pdfrwt>
<totfact> 0.39857163E+02</totfact>
</mgrwt>
</event>
<event>
 4    1  0.9012200E-005  0.5554610E+03  0.7818608E-02  0.1000238E+00
          2   -1    0    0  501    0  0.00000000000E+00  0.00000000000E+00  0.62984394185E+03  0.62984394185E+03  0.25500000000E-02 0.  1.
         -2   -1    0    0    0  501 -0.00000000000E+00 -0.00000000000E+00 -0.12246562847E+03  0.12246562850E+03  0.25500000000E-02 0. -1.
    5000001    1    1    2    0    0 -0.82931062871E+02  0.20470911257E+03  0.20824440847E+03  0.34550559419E+03  0.16500000000E+03 0.  0.
   -5000001    1    1    2    0    0  0.82931062871E+02 -0.20470911257E+03  0.29913390490E+03  0.40680397616E+03  0.16500000000E+03 0.  0.
<mgrwt>
<rscale>  0 0.55546101E+03</rscale>
<asrwt>0</asrwt>
<pdfrwt beam="1">  1        2 0.96899068E-01 0.55546101E+03</pdfrwt>
<pdfrwt beam="2">  1       -2 0.18840866E-01 0.55546101E+03</pdfrwt>
<totfact> 0.11106536E+03</totfact>
</mgrwt>
</event>
<event>
 4    1  0.9012200E-005  0.3650062E+03  0.7818608E-02  0.1056619E+00
         -2   -1    0    0    0  501 -0.00000000000E+00  0.00000000000E+00  0.32737923434E+03  0.32737923435E+03  0.25500000000E-02 0. -1.
          2   -1    0    0  501    0  0.00000000000E+00 -0.00000000000E+00 -0.10173942732E+03  0.10173942735E+03  0.25500000000E-02 0.  1.
    5000001    1    1    2    0    0 -0.53189390528E+01  0.52727831733E+02  0.45552094777E+02  0.17918847254E+03  0.16500000000E+03 0.  0.
   -5000001    1    1    2    0    0  0.53189390528E+01 -0.52727831733E+02  0.18008771225E+03  0.24993018916E+03  0.16500000000E+03 0.  0.
<mgrwt>
<rscale>  0 0.36500617E+03</rscale>
<asrwt>0</asrwt>
<pdfrwt beam="1">  1        2 0.15652220E-01 0.36500617E+03</pdfrwt>
<pdfrwt beam="2">  1       -2 0.50366035E-01 0.36500617E+03</pdfrwt>
<totfact> 0.14103608E+03</totfact>
</mgrwt>
</event>
<event>
 4    1  0.9012200E-005  0.1422101E+04  0.7818608E-02  0.8937975E-01
         -2   -1    0    0    0  501 -0.00000000000E+00  0.00000000000E+00  0.32521152289E+03  0.32521152290E+03  0.25500000000E-02 0. -1.
          2   -1    0    0  501    0  0.00000000000E+00 -0.00000000000E+00 -0.15546573922E+04  0.15546573922E+04  0.25500000000E-02 0.  1.
    5000001    1    1    2    0    0 -0.66189519879E+03  0.18519551817E+03 -0.51262956644E+03  0.87316476482E+03  0.16500000000E+03 0.  0.
   -5000001    1    1    2    0    0  0.66189519879E+03 -0.18519551817E+03 -0.71681630289E+03  0.10067041503E+04  0.16500000000E+03 0.  0.
<mgrwt>
<rscale>  0 0.14221006E+04</rscale>
<asrwt>0</asrwt>
<pdfrwt beam="1">  1        2 0.23917806E+00 0.14221006E+04</pdfrwt>
<pdfrwt beam="2">  1       -2 0.50032543E-01 0.14221006E+04</pdfrwt>
<totfact> 0.43416539E+01</totfact>
</mgrwt>
</event>
<event>
 4    1  0.9012200E-005  0.3718401E+03  0.7818608E-02  0.1053992E+00
         -2   -1    0    0    0  501 -0.00000000000E+00  0.00000000000E+00  0.86148551529E+02  0.86148551566E+02  0.25500000000E-02 0. -1.
          2   -1    0    0  501    0  0.00000000000E+00 -0.00000000000E+00 -0.40124017805E+03  0.40124017806E+03  0.25500000000E-02 0.  1.
    5000001    1    1    2    0    0 -0.30449183861E+02  0.55065585186E+02 -0.81320547973E+02  0.19441554205E+03  0.16500000000E+03 0.  0.
   -5000001    1    1    2    0    0  0.30449183861E+02 -0.55065585186E+02 -0.23377107855E+03  0.29297318757E+03  0.16500000000E+03 0.  0.
<mgrwt>
<rscale>  0 0.37184007E+03</rscale>
<asrwt>0</asrwt>
<pdfrwt beam="1">  1        2 0.61729257E-01 0.37184007E+03</pdfrwt>
<pdfrwt beam="2">  1       -2 0.13253624E-01 0.37184007E+03</pdfrwt>
<totfact> 0.33595991E+03</totfact>
</mgrwt>
</event>
<event>
 4    1  0.9012200E-005  0.3890303E+03  0.7818608E-02  0.1047646E+00
         -2   -1    0    0    0  501 -0.00000000000E+00  0.00000000000E+00  0.17986606440E+02  0.17986606621E+02  0.25500000000E-02 0. -1.
          2   -1    0    0  501    0  0.00000000000E+00 -0.00000000000E+00 -0.21035732188E+04  0.21035732188E+04  0.25500000000E-02 0.  1.
    5000001    1    1    2    0    0  0.10779196719E+02  0.78705543374E+02 -0.68517002529E+03  0.70922049970E+03  0.16500000000E+03 0.  0.
   -5000001    1    1    2    0    0 -0.10779196719E+02 -0.78705543374E+02 -0.14004165871E+04  0.14123393257E+04  0.16500000000E+03 0.  0.
<mgrwt>
<rscale>  0 0.38903030E+03</rscale>
<asrwt>0</asrwt>
<pdfrwt beam="1">  1        2 0.32362645E+00 0.38903030E+03</pdfrwt>
<pdfrwt beam="2">  1       -2 0.27671719E-02 0.38903030E+03</pdfrwt>
<totfact> 0.31145785E+03</totfact>
</mgrwt>
</event>
<event>
 4    1  0.9012200E-005  0.4947852E+03  0.7818608E-02  0.1015149E+00
          2   -1    0    0  501    0  0.00000000000E+00  0.00000000000E+00  0.94979195000E+03  0.94979195000E+03  0.25500000000E-02 0.  1.
         -2   -1    0    0    0  501 -0.00000000000E+00 -0.00000000000E+00 -0.64438428278E+02  0.64438428329E+02  0.25500000000E-02 0. -1.
    5000001    1    1    2    0    0 -0.17527154060E+03  0.53555614254E+02  0.48314662552E+03  0.54244260389E+03  0.16500000000E+03 0.  0.
   -5000001    1    1    2    0    0  0.17527154060E+03 -0.53555614254E+02  0.40220689620E+03  0.47178777444E+03  0.16500000000E+03 0.  0.
<mgrwt>
<rscale>  0 0.49478521E+03</rscale>
<asrwt>0</asrwt>
<pdfrwt beam="1">  1        2 0.14612184E+00 0.49478521E+03</pdfrwt>
<pdfrwt beam="2">  1       -2 0.99136042E-02 0.49478521E+03</pdfrwt>
<totfact> 0.19000952E+03</totfact>
</mgrwt>
</event>
<event>
 4    1  0.9012200E-005  0.4552995E+03  0.7818608E-02  0.1026153E+00
         -2   -1    0    0    0  501 -0.00000000000E+00  0.00000000000E+00  0.24798538890E+02  0.24798539021E+02  0.25500000000E-02 0. -1.
          2   -1    0    0  501    0  0.00000000000E+00 -0.00000000000E+00 -0.20898174555E+04  0.20898174555E+04  0.25500000000E-02 0.  1.
    5000001    1    1    2    0    0 -0.27982851423E+02  0.15115353655E+03 -0.88793436122E+03  0.91612382428E+03  0.16500000000E+03 0.  0.
   -5000001    1    1    2    0    0  0.27982851423E+02 -0.15115353655E+03 -0.11770845554E+04  0.11984921702E+04  0.16500000000E+03 0.  0.
<mgrwt>
<rscale>  0 0.45529955E+03</rscale>
<asrwt>0</asrwt>
<pdfrwt beam="1">  1        2 0.32151024E+00 0.45529955E+03</pdfrwt>
<pdfrwt beam="2">  1       -2 0.38151615E-02 0.45529955E+03</pdfrwt>
<totfact> 0.19432871E+03</totfact>
</mgrwt>
</event>
<event>
 4    1  0.9012200E-005  0.4693299E+03  0.7818608E-02  0.1022110E+00
          2   -1    0    0  501    0  0.00000000000E+00  0.00000000000E+00  0.86849878763E+03  0.86849878763E+03  0.25500000000E-02 0.  1.
         -2   -1    0    0    0  501 -0.00000000000E+00 -0.00000000000E+00 -0.63405545719E+02  0.63405545770E+02  0.25500000000E-02 0. -1.
    5000001    1    1    2    0    0  0.99808519994E+02  0.25062742909E+02  0.14173774438E+03  0.24063347633E+03  0.16500000000E+03 0.  0.
   -5000001    1    1    2    0    0 -0.99808519994E+02 -0.25062742909E+02  0.66335549753E+03  0.69127085708E+03  0.16500000000E+03 0.  0.
<mgrwt>
<rscale>  0 0.46932990E+03</rscale>
<asrwt>0</asrwt>
<pdfrwt beam="1">  1        2 0.13361520E+00 0.46932990E+03</pdfrwt>
<pdfrwt beam="2">  1       -2 0.97546994E-02 0.46932990E+03</pdfrwt>
<totfact> 0.22062944E+03</totfact>
</mgrwt>
</event>
<event>
 4    1  0.9012200E-005  0.3398118E+03  0.7818608E-02  0.1066876E+00
         -2   -1    0    0    0  501 -0.00000000000E+00  0.00000000000E+00  0.22110367459E+03  0.22110367461E+03  0.25500000000E-02 0. -1.
          2   -1    0    0  501    0  0.00000000000E+00 -0.00000000000E+00 -0.13056328662E+03  0.13056328664E+03  0.25500000000E-02 0.  1.
    5000001    1    1    2    0    0  0.36678397090E+02  0.17232462304E+02  0.46172313857E+02  0.17606574095E+03  0.16500000000E+03 0.  0.
   -5000001    1    1    2    0    0 -0.36678397090E+02 -0.17232462304E+02  0.44368074116E+02  0.17560122030E+03  0.16500000000E+03 0.  0.
<mgrwt>
<rscale>  0 0.33981184E+03</rscale>
<asrwt>0</asrwt>
<pdfrwt beam="1">  1        2 0.20086660E-01 0.33981184E+03</pdfrwt>
<pdfrwt beam="2">  1       -2 0.34015950E-01 0.33981184E+03</pdfrwt>
<totfact> 0.22477069E+03</totfact>
</mgrwt>
</event>
<event>
 4    1  0.9012200E-005  0.4682887E+03  0.7818608E-02  0.1022404E+00
         -2   -1    0    0    0  501 -0.00000000000E+00  0.00000000000E+00  0.52004859419E+02  0.52004859482E+02  0.25500000000E-02 0. -1.
          2   -1    0    0  501    0  0.00000000000E+00 -0.00000000000E+00 -0.10542008258E+04  0.10542008258E+04  0.25500000000E-02 0.  1.
    5000001    1    1    2    0    0 -0.14265349879E+03  0.51027577662E+02 -0.34010662946E+03  0.40724851603E+03  0.16500000000E+03 0.  0.
   -5000001    1    1    2    0    0  0.14265349879E+03 -0.51027577662E+02 -0.66208933694E+03  0.69895716928E+03  0.16500000000E+03 0.  0.
<mgrwt>
<rscale>  0 0.46828865E+03</rscale>
<asrwt>0</asrwt>
<pdfrwt beam="1">  1        2 0.16218473E+00 0.46828865E+03</pdfrwt>
<pdfrwt beam="2">  1       -2 0.80007484E-02 0.46828865E+03</pdfrwt>
<totfact> 0.23025384E+03</totfact>
</mgrwt>
</event>
<event>
 4    1  0.9012200E-005  0.1053737E+04  0.7818608E-02  0.9251494E-01
         -2   -1    0    0    0  501 -0.00000000000E+00  0.00000000000E+00  0.52780766539E+03  0.52780766540E+03  0.25500000000E-02 0. -1.
          2   -1    0    0  501    0  0.00000000000E+00 -0.00000000000E+00 -0.52593102641E+03  0.52593102642E+03  0.25500000000E-02 0.  1.
    5000001    1    1    2    0    0 -0.41141105524E+03 -0.25087265272E+03  0.13573201588E+03  0.52710940457E+03  0.16500000000E+03 0.  0.
   -5000001    1    1    2    0    0  0.41141105524E+03  0.25087265272E+03 -0.13385537691E+03  0.52662928724E+03  0.16500000000E+03 0.  0.
<mgrwt>
<rscale>  0 0.10537370E+04</rscale>
<asrwt>0</asrwt>
<pdfrwt beam="1">  1        2 0.80912466E-01 0.10537370E+04</pdfrwt>
<pdfrwt beam="2">  1       -2 0.81201179E-01 0.10537370E+04</pdfrwt>
<totfact> 0.77281487E+01</totfact>
</mgrwt>
</event>
<event>
 4    1  0.9012200E-005  0.8476316E+03  0.7818608E-02  0.9493521E-01
          2   -1    0    0  501    0  0.00000000000E+00  0.00000000000E+00  0.22034836248E+04  0.22034836248E+04  0.25500000000E-02 0.  1.
         -2   -1    0    0    0  501 -0.00000000000E+00 -0.00000000000E+00 -0.81516292472E+02  0.81516292512E+02  0.25500000000E-02 0. -1.
    5000001    1    1    2    0    0  0.33847504097E+03 -0.11873494052E+03  0.64570325398E+03  0.75684941148E+03  0.16500000000E+03 0.  0.
   -5000001    1    1    2    0    0 -0.33847504097E+03  0.11873494052E+03  0.14762640783E+04  0.15281505058E+04  0.16500000000E+03 0.  0.
<mgrwt>
<rscale>  0 0.84763156E+03</rscale>
<asrwt>0</asrwt>
<pdfrwt beam="1">  1        2 0.33899746E+00 0.84763156E+03</pdfrwt>
<pdfrwt beam="2">  1       -2 0.12540969E-01 0.84763156E+03</pdfrwt>
<totfact> 0.24818731E+02</totfact>
</mgrwt>
</event>
<event>
 4    1  0.9012200E-005  0.5414379E+03  0.7818608E-02  0.1003495E+00
          2   -1    0    0  501    0  0.00000000000E+00  0.00000000000E+00  0.19805628125E+03  0.19805628127E+03  0.25500000000E-02 0.  1.
         -2   -1    0    0    0  501 -0.00000000000E+00 -0.00000000000E+00 -0.37004006628E+03  0.37004006629E+03  0.25500000000E-02 0. -1.
    5000001    1    1    2    0    0  0.18550103792E+03 -0.10115564667E+03 -0.12553932740E+03  0.29602064565E+03  0.16500000000E+03 0.  0.
   -5000001    1    1    2    0    0 -0.18550103792E+03  0.10115564667E+03 -0.46444457623E+02  0.27207570191E+03  0.16500000000E+03 0.  0.
<mgrwt>
<rscale>  0 0.54143794E+03</rscale>
<asrwt>0</asrwt>
<pdfrwt beam="1">  1        2 0.30470197E-01 0.54143794E+03</pdfrwt>
<pdfrwt beam="2">  1       -2 0.56929241E-01 0.54143794E+03</pdfrwt>
<totfact> 0.51007322E+02</totfact>
</mgrwt>
</event>
<event>
 4    1  0.9012200E-005  0.6998505E+03  0.7818608E-02  0.9717488E-01
          2   -1    0    0  501    0  0.00000000000E+00  0.00000000000E+00  0.71310494704E+03  0.71310494704E+03  0.25500000000E-02 0.  1.
         -2   -1    0    0    0  501 -0.00000000000E+00 -0.00000000000E+00 -0.17171061593E+03  0.17171061595E+03  0.25500000000E-02 0. -1.
    5000001    1    1    2    0    0  0.41915125333E+02  0.29720002958E+03  0.36132103069E+03  0.49785803452E+03  0.16500000000E+03 0.  0.
   -5000001    1    1    2    0    0 -0.41915125333E+02 -0.29720002958E+03  0.18007330042E+03  0.38695752847E+03  0.16500000000E+03 0.  0.
<mgrwt>
<rscale>  0 0.69985053E+03</rscale>
<asrwt>0</asrwt>
<pdfrwt beam="1">  1        2 0.10970845E+00 0.69985053E+03</pdfrwt>
<pdfrwt beam="2">  1       -2 0.26417018E-01 0.69985053E+03</pdfrwt>
<totfact> 0.52191069E+02</totfact>
</mgrwt>
</event>
<event>
 4    1  0.9012200E-005  0.3785813E+03  0.7818608E-02  0.1051459E+00
         -2   -1    0    0    0  501 -0.00000000000E+00  0.00000000000E+00  0.15023598916E+02  0.15023599132E+02  0.25500000000E-02 0. -1.
          2   -1    0    0  501    0  0.00000000000E+00 -0.00000000000E+00 -0.23849781135E+04  0.23849781135E+04  0.25500000000E-02 0.  1.
    5000001    1    1    2    0    0  0.22037668433E+02  0.90105925325E+02 -0.11779801069E+04  0.11930913078E+04  0.16500000000E+03 0.  0.
   -5000001    1    1    2    0    0 -0.22037668433E+02 -0.90105925325E+02 -0.11919744077E+04  0.12069104048E+04  0.16500000000E+03 0.  0.
<mgrwt>
<rscale>  0 0.37858132E+03</rscale>
<asrwt>0</asrwt>
<pdfrwt beam="1">  1        2 0.36691941E+00 0.37858132E+03</pdfrwt>
<pdfrwt beam="2">  1       -2 0.23113248E-02 0.37858132E+03</pdfrwt>
<totfact> 0.28731281E+03</totfact>
</mgrwt>
</event>
<event>
 4    1  0.9012200E-005  0.1277736E+04  0.7818608E-02  0.9047410E-01
         -2   -1    0    0    0  501 -0.00000000000E+00  0.00000000000E+00  0.14525519558E+03  0.14525519560E+03  0.25500000000E-02 0. -1.
          2   -1    0    0  501    0  0.00000000000E+00 -0.00000000000E+00 -0.28098974711E+04  0.28098974711E+04  0.25500000000E-02 0.  1.
    5000001    1    1    2    0    0  0.20461019886E+03  0.20096076431E+03 -0.68343229000E+02  0.33785553010E+03  0.16500000000E+03 0.  0.
   -5000001    1    1    2    0    0 -0.20461019886E+03 -0.20096076431E+03 -0.25962990465E+04  0.26172971366E+04  0.16500000000E+03 0.  0.
<mgrwt>
<rscale>  0 0.12777358E+04</rscale>
<asrwt>0</asrwt>
<pdfrwt beam="1">  1        2 0.43229188E+00 0.12777358E+04</pdfrwt>
<pdfrwt beam="2">  1       -2 0.22346955E-01 0.12777358E+04</pdfrwt>
<totfact> 0.39667862E+01</totfact>
</mgrwt>
</event>
<event>
 4    1  0.9012200E-005  0.5331292E+03  0.7818608E-02  0.1005476E+00
          2   -1    0    0  501    0  0.00000000000E+00  0.00000000000E+00  0.14404482552E+04  0.14404482552E+04  0.25500000000E-02 0.  1.
         -2   -1    0    0    0  501 -0.00000000000E+00 -0.00000000000E+00 -0.49329564802E+02  0.49329564868E+02  0.25500000000E-02 0. -1.
    5000001    1    1    2    0    0 -0.20369266572E+03  0.21842971025E+02  0.81620081745E+03  0.85754101468E+03  0.16500000000E+03 0.  0.
   -5000001    1    1    2    0    0  0.20369266572E+03 -0.21842971025E+02  0.57491787292E+03  0.63223680536E+03  0.16500000000E+03 0.  0.
<mgrwt>
<rscale>  0 0.53312920E+03</rscale>
<asrwt>0</asrwt>
<pdfrwt beam="1">  1        2 0.22160742E+00 0.53312920E+03</pdfrwt>
<pdfrwt beam="2">  1       -2 0.75891640E-02 0.53312920E+03</pdfrwt>
<totfact> 0.14950734E+03</totfact>
</mgrwt>
</event>
<event>
 4    1  0.9012200E-005  0.4684738E+03  0.7818608E-02  0.1022352E+00
         -2   -1    0    0    0  501 -0.00000000000E+00  0.00000000000E+00  0.18646447236E+03  0.18646447237E+03  0.25500000000E-02 0. -1.
          2   -1    0    0  501    0  0.00000000000E+00 -0.00000000000E+00 -0.29424862099E+03  0.29424862100E+03  0.25500000000E-02 0.  1.
    5000001    1    1    2    0    0 -0.88425547384E+02  0.13831030135E+03 -0.26877527306E+02  0.23429942032E+03  0.16500000000E+03 0.  0.
   -5000001    1    1    2    0    0  0.88425547384E+02 -0.13831030135E+03 -0.80906621329E+02  0.24641367305E+03  0.16500000000E+03 0.  0.
<mgrwt>
<rscale>  0 0.46847375E+03</rscale>
<asrwt>0</asrwt>
<pdfrwt beam="1">  1        2 0.45269019E-01 0.46847375E+03</pdfrwt>
<pdfrwt beam="2">  1       -2 0.28686842E-01 0.46847375E+03</pdfrwt>
<totfact> 0.12476421E+03</totfact>
</mgrwt>
</event>
<event>
 4    1  0.9012200E-005  0.5537987E+03  0.7818608E-02  0.1000618E+00
         -2   -1    0    0    0  501 -0.00000000000E+00  0.00000000000E+00  0.40335824907E+02  0.40335824987E+02  0.25500000000E-02 0. -1.
          2   -1    0    0  501    0  0.00000000000E+00 -0.00000000000E+00 -0.19008723148E+04  0.19008723148E+04  0.25500000000E-02 0.  1.
    5000001    1    1    2    0    0 -0.12280679255E+03 -0.17311554784E+03 -0.69781505086E+03  0.74781103657E+03  0.16500000000E+03 0.  0.
   -5000001    1    1    2    0    0  0.12280679255E+03  0.17311554784E+03 -0.11627214390E+04  0.11933971032E+04  0.16500000000E+03 0.  0.
<mgrwt>
<rscale>  0 0.55379871E+03</rscale>
<asrwt>0</asrwt>
<pdfrwt beam="1">  1        2 0.29244183E+00 0.55379871E+03</pdfrwt>
<pdfrwt beam="2">  1       -2 0.62055130E-02 0.55379871E+03</pdfrwt>
<totfact> 0.11524834E+03</totfact>
</mgrwt>
</event>
<event>
 4    1  0.9012200E-005  0.4755978E+03  0.7818608E-02  0.1020352E+00
         -2   -1    0    0    0  501 -0.00000000000E+00  0.00000000000E+00  0.10297861880E+03  0.10297861883E+03  0.25500000000E-02 0. -1.
          2   -1    0    0  501    0  0.00000000000E+00 -0.00000000000E+00 -0.54912681860E+03  0.54912681861E+03  0.25500000000E-02 0.  1.
    5000001    1    1    2    0    0 -0.15321632075E+03  0.75585697488E+02 -0.23899824548E+03  0.33694747358E+03  0.16500000000E+03 0.  0.
   -5000001    1    1    2    0    0  0.15321632075E+03 -0.75585697488E+02 -0.20714995432E+03  0.31515796386E+03  0.16500000000E+03 0.  0.
<mgrwt>
<rscale>  0 0.47559782E+03</rscale>
<asrwt>0</asrwt>
<pdfrwt beam="1">  1        2 0.84481048E-01 0.47559782E+03</pdfrwt>
<pdfrwt beam="2">  1       -2 0.15842865E-01 0.47559782E+03</pdfrwt>
<totfact> 0.17566874E+03</totfact>
</mgrwt>
</event>
<event>
 4    1  0.9012200E-005  0.8489359E+03  0.7818608E-02  0.9491766E-01
          2   -1    0    0  501    0  0.00000000000E+00  0.00000000000E+00  0.10587065307E+04  0.10587065307E+04  0.25500000000E-02 0.  1.
         -2   -1    0    0    0  501 -0.00000000000E+00 -0.00000000000E+00 -0.17018224424E+03  0.17018224426E+03  0.25500000000E-02 0. -1.
    5000001    1    1    2    0    0  0.25961373457E+03  0.26915638896E+03  0.27855814623E+03  0.49463531387E+03  0.16500000000E+03 0.  0.
   -5000001    1    1    2    0    0 -0.25961373457E+03 -0.26915638896E+03  0.60996614023E+03  0.73425346109E+03  0.16500000000E+03 0.  0.
<mgrwt>
<rscale>  0 0.84893593E+03</rscale>
<asrwt>0</asrwt>
<pdfrwt beam="1">  1        2 0.16287792E+00 0.84893593E+03</pdfrwt>
<pdfrwt beam="2">  1       -2 0.26181885E-01 0.84893593E+03</pdfrwt>
<totfact> 0.30564263E+02</totfact>
</mgrwt>
</event>
<event>
 4    1  0.9012200E-005  0.4622543E+03  0.7818608E-02  0.1024129E+00
         -2   -1    0    0    0  501 -0.00000000000E+00  0.00000000000E+00  0.40239631569E+02  0.40239631650E+02  0.25500000000E-02 0. -1.
          2   -1    0    0  501    0  0.00000000000E+00 -0.00000000000E+00 -0.13275411419E+04  0.13275411419E+04  0.25500000000E-02 0.  1.
    5000001    1    1    2    0    0  0.38337448670E+01  0.16175948504E+03 -0.65469749605E+03  0.69428714516E+03  0.16500000000E+03 0.  0.
   -5000001    1    1    2    0    0 -0.38337448670E+01 -0.16175948504E+03 -0.63260401430E+03  0.67349362841E+03  0.16500000000E+03 0.  0.
<mgrwt>
<rscale>  0 0.46225433E+03</rscale>
<asrwt>0</asrwt>
<pdfrwt beam="1">  1        2 0.20423706E+00 0.46225433E+03</pdfrwt>
<pdfrwt beam="2">  1       -2 0.61907136E-02 0.46225433E+03</pdfrwt>
<totfact> 0.23856451E+03</totfact>
</mgrwt>
</event>
<event>
 4    1  0.9012200E-005  0.4346017E+03  0.7818608E-02  0.1032416E+00
         -2   -1    0    0    0  501 -0.00000000000E+00  0.00000000000E+00  0.10984320069E+03  0.10984320072E+03  0.25500000000E-02 0.  1.
          2   -1    0    0  501    0  0.00000000000E+00 -0.00000000000E+00 -0.42988241209E+03  0.42988241210E+03  0.25500000000E-02 0. -1.
    5000001    1    1    2    0    0  0.25380061040E+01  0.13895518656E+03 -0.19239627471E+03  0.28906108674E+03  0.16500000000E+03 0.  0.
   -5000001    1    1    2    0    0 -0.25380061040E+01 -0.13895518656E+03 -0.12764293670E+03  0.25066452608E+03  0.16500000000E+03 0.  0.
<mgrwt>
<rscale>  0 0.43460170E+03</rscale>
<asrwt>0</asrwt>
<pdfrwt beam="1">  1        2 0.66135755E-01 0.43460170E+03</pdfrwt>
<pdfrwt beam="2">  1       -2 0.16898954E-01 0.43460170E+03</pdfrwt>
<totfact> 0.20796981E+03</totfact>
</mgrwt>
</event>
<event>
 4    1  0.9012200E-005  0.5580077E+03  0.7818608E-02  0.9996573E-01
         -2   -1    0    0    0  501 -0.00000000000E+00  0.00000000000E+00  0.19729875570E+03  0.19729875572E+03  0.25500000000E-02 0.  1.
          2   -1    0    0  501    0  0.00000000000E+00 -0.00000000000E+00 -0.39454461108E+03  0.39454461109E+03  0.25500000000E-02 0. -1.
    5000001    1    1    2    0    0 -0.58652335306E+02 -0.42472928763E+02  0.12730537527E+03  0.22062571175E+03  0.16500000000E+03 0.  0.
   -5000001    1    1    2    0    0  0.58652335306E+02  0.42472928763E+02 -0.32455123064E+03  0.37121765506E+03  0.16500000000E+03 0.  0.
<mgrwt>
<rscale>  0 0.55800774E+03</rscale>
<asrwt>0</asrwt>
<pdfrwt beam="1">  1        2 0.60699171E-01 0.55800774E+03</pdfrwt>
<pdfrwt beam="2">  1       -2 0.30353655E-01 0.55800774E+03</pdfrwt>
<totfact> 0.81352357E+02</totfact>
</mgrwt>
</event>
<event>
 4    1  0.9012200E-005  0.4754585E+03  0.7818608E-02  0.1020391E+00
          2   -1    0    0  501    0  0.00000000000E+00  0.00000000000E+00  0.11265614504E+04  0.11265614504E+04  0.25500000000E-02 0.  1.
         -2   -1    0    0    0  501 -0.00000000000E+00 -0.00000000000E+00 -0.50166097796E+02  0.50166097861E+02  0.25500000000E-02 0. -1.
    5000001    1    1    2    0    0  0.13917867503E+03  0.72478056751E+02  0.36913208906E+03  0.43371335173E+03  0.16500000000E+03 0.  0.
   -5000001    1    1    2    0    0 -0.13917867503E+03 -0.72478056751E+02  0.70726326352E+03  0.74301419651E+03  0.16500000000E+03 0.  0.
<mgrwt>
<rscale>  0 0.47545848E+03</rscale>
<asrwt>0</asrwt>
<pdfrwt beam="1">  1        2 0.17331715E+00 0.47545848E+03</pdfrwt>
<pdfrwt beam="2">  1       -2 0.77178609E-02 0.47545848E+03</pdfrwt>
<totfact> 0.22042436E+03</totfact>
</mgrwt>
</event>
<event>
 4    1  0.9012200E-005  0.3600090E+03  0.7818608E-02  0.1058580E+00
         -2   -1    0    0    0  501 -0.00000000000E+00  0.00000000000E+00  0.50239023206E+02  0.50239023270E+02  0.25500000000E-02 0. -1.
          2   -1    0    0  501    0  0.00000000000E+00 -0.00000000000E+00 -0.64494907373E+03  0.64494907373E+03  0.25500000000E-02 0.  1.
    5000001    1    1    2    0    0  0.68493618796E+02 -0.17685548898E+02 -0.32271387224E+03  0.36928768974E+03  0.16500000000E+03 0.  0.
   -5000001    1    1    2    0    0 -0.68493618796E+02  0.17685548898E+02 -0.27199617828E+03  0.32590040726E+03  0.16500000000E+03 0.  0.
<mgrwt>
<rscale>  0 0.36000895E+03</rscale>
<asrwt>0</asrwt>
<pdfrwt beam="1">  1        2 0.99222929E-01 0.36000895E+03</pdfrwt>
<pdfrwt beam="2">  1       -2 0.77290809E-02 0.36000895E+03</pdfrwt>
<totfact> 0.46438816E+03</totfact>
</mgrwt>
</event>
<event>
 4    1  0.9012200E-005  0.3599394E+03  0.7818608E-02  0.1058608E+00
          2   -1    0    0  501    0  0.00000000000E+00  0.00000000000E+00  0.21170186724E+04  0.21170186724E+04  0.25500000000E-02 0.  1.
         -2   -1    0    0    0  501 -0.00000000000E+00 -0.00000000000E+00 -0.15299386021E+02  0.15299386234E+02  0.25500000000E-02 0. -1.
    5000001    1    1    2    0    0 -0.47789482934E+02 -0.52090517493E+02  0.97434246227E+03  0.99073987024E+03  0.16500000000E+03 0.  0.
   -5000001    1    1    2    0    0  0.47789482934E+02  0.52090517493E+02  0.11273768241E+04  0.11415781884E+04  0.16500000000E+03 0.  0.
<mgrwt>
<rscale>  0 0.35993936E+03</rscale>
<asrwt>0</asrwt>
<pdfrwt beam="1">  1        2 0.32569535E+00 0.35993936E+03</pdfrwt>
<pdfrwt beam="2">  1       -2 0.23537505E-02 0.35993936E+03</pdfrwt>
<totfact> 0.39059956E+03</totfact>
</mgrwt>
</event>
<event>
 4    1  0.9012200E-005  0.4891289E+03  0.7818608E-02  0.1016656E+00
         -2   -1    0    0    0  501 -0.00000000000E+00  0.00000000000E+00  0.27855459349E+03  0.27855459350E+03  0.25500000000E-02 0. -1.
          2   -1    0    0  501    0  0.00000000000E+00 -0.00000000000E+00 -0.21472186944E+03  0.21472186946E+03  0.25500000000E-02 0.  1.
    5000001    1    1    2    0    0 -0.82072582226E+02  0.14836729771E+03  0.94393271734E+02  0.25472309187E+03  0.16500000000E+03 0.  0.
   -5000001    1    1    2    0    0  0.82072582226E+02 -0.14836729771E+03 -0.30560547689E+02  0.23855337109E+03  0.16500000000E+03 0.  0.
<mgrwt>
<rscale>  0 0.48912887E+03</rscale>
<asrwt>0</asrwt>
<pdfrwt beam="1">  1        2 0.33034134E-01 0.48912887E+03</pdfrwt>
<pdfrwt beam="2">  1       -2 0.42854553E-01 0.48912887E+03</pdfrwt>
<totfact> 0.82693826E+02</totfact>
</mgrwt>
</event>
<event>
 4    1  0.9012200E-005  0.4635470E+03  0.7818608E-02  0.1023757E+00
          2   -1    0    0  501    0  0.00000000000E+00  0.00000000000E+00  0.30666331883E+04  0.30666331883E+04  0.25500000000E-02 0.  1.
         -2   -1    0    0    0  501 -0.00000000000E+00 -0.00000000000E+00 -0.17517243187E+02  0.17517243373E+02  0.25500000000E-02 0. -1.
    5000001    1    1    2    0    0  0.85442033292E+02  0.12074257288E+03  0.19765393478E+04  0.19889222969E+04  0.16500000000E+03 0.  0.
   -5000001    1    1    2    0    0 -0.85442033292E+02 -0.12074257288E+03  0.10725765974E+04  0.10952281348E+04  0.16500000000E+03 0.  0.
<mgrwt>
<rscale>  0 0.46354702E+03</rscale>
<asrwt>0</asrwt>
<pdfrwt beam="1">  1        2 0.47179019E+00 0.46354702E+03</pdfrwt>
<pdfrwt beam="2">  1       -2 0.26949578E-02 0.46354702E+03</pdfrwt>
<totfact> 0.91768310E+02</totfact>
</mgrwt>
</event>
<event>
 4    1  0.9012200E-005  0.2132022E+04  0.7818608E-02  0.8547267E-01
         -2   -1    0    0    0  501 -0.00000000000E+00  0.00000000000E+00  0.50953140460E+03  0.50953140461E+03  0.25500000000E-02 0. -1.
          2   -1    0    0  501    0  0.00000000000E+00 -0.00000000000E+00 -0.22302437228E+04  0.22302437228E+04  0.25500000000E-02 0.  1.
    5000001    1    1    2    0    0  0.10669872968E+03 -0.94020649794E+03 -0.14545226815E+04  0.17430530998E+04  0.16500000000E+03 0.  0.
   -5000001    1    1    2    0    0 -0.10669872968E+03  0.94020649794E+03 -0.26618963670E+03  0.99672202763E+03  0.16500000000E+03 0.  0.
<mgrwt>
<rscale>  0 0.21320218E+04</rscale>
<asrwt>0</asrwt>
<pdfrwt beam="1">  1        2 0.34311441E+00 0.21320218E+04</pdfrwt>
<pdfrwt beam="2">  1       -2 0.78389448E-01 0.21320218E+04</pdfrwt>
<totfact> 0.66026889E+00</totfact>
</mgrwt>
</event>
<event>
 4    1  0.9012200E-005  0.4290420E+03  0.7818608E-02  0.1034163E+00
         -2   -1    0    0    0  501 -0.00000000000E+00  0.00000000000E+00  0.62704767037E+02  0.62704767089E+02  0.25500000000E-02 0. -1.
          2   -1    0    0  501    0  0.00000000000E+00 -0.00000000000E+00 -0.73390361887E+03  0.73390361887E+03  0.25500000000E-02 0.  1.
    5000001    1    1    2    0    0 -0.23832067478E+02  0.11485725214E+03 -0.46733588586E+03  0.50930146870E+03  0.16500000000E+03 0.  0.
   -5000001    1    1    2    0    0  0.23832067478E+02 -0.11485725214E+03 -0.20386296597E+03  0.28730691726E+03  0.16500000000E+03 0.  0.
<mgrwt>
<rscale>  0 0.42904198E+03</rscale>
<asrwt>0</asrwt>
<pdfrwt beam="1">  1        2 0.11290824E+00 0.42904198E+03</pdfrwt>
<pdfrwt beam="2">  1       -2 0.96468877E-02 0.42904198E+03</pdfrwt>
<totfact> 0.27947836E+03</totfact>
</mgrwt>
</event>
<event>
 4    1  0.9012200E-005  0.1143525E+04  0.7818608E-02  0.9163778E-01
         -2   -1    0    0    0  501 -0.00000000000E+00  0.00000000000E+00  0.38010618683E+03  0.38010618684E+03  0.25500000000E-02 0. -1.
          2   -1    0    0  501    0  0.00000000000E+00 -0.00000000000E+00 -0.86005532418E+03  0.86005532419E+03  0.25500000000E-02 0.  1.
    5000001    1    1    2    0    0 -0.14342633598E+02 -0.54276834505E+03 -0.16418182490E+03  0.59074855832E+03  0.16500000000E+03 0.  0.
   -5000001    1    1    2    0    0  0.14342633598E+02  0.54276834505E+03 -0.31576731245E+03  0.64941295271E+03  0.16500000000E+03 0.  0.
<mgrwt>
<rscale>  0 0.11435250E+04</rscale>
<asrwt>0</asrwt>
<pdfrwt beam="1">  1        2 0.13231620E+00 0.11435250E+04</pdfrwt>
<pdfrwt beam="2">  1       -2 0.58477875E-01 0.11435250E+04</pdfrwt>
<totfact> 0.84584514E+01</totfact>
</mgrwt>
</event>
<event>
 4    1  0.9012200E-005  0.6676057E+03  0.7818608E-02  0.9774293E-01
          2   -1    0    0  501    0  0.00000000000E+00  0.00000000000E+00  0.77112802637E+03  0.77112802637E+03  0.25500000000E-02 0.  1.
         -2   -1    0    0    0  501 -0.00000000000E+00 -0.00000000000E+00 -0.14449527323E+03  0.14449527325E+03  0.25500000000E-02 0. -1.
    5000001    1    1    2    0    0  0.24404667312E+03 -0.11468381674E+03  0.46031820586E+03  0.55841651760E+03  0.16500000000E+03 0.  0.
   -5000001    1    1    2    0    0 -0.24404667312E+03  0.11468381674E+03  0.16631454729E+03  0.35720678202E+03  0.16500000000E+03 0.  0.
<mgrwt>
<rscale>  0 0.66760574E+03</rscale>
<asrwt>0</asrwt>
<pdfrwt beam="1">  1        2 0.11863508E+00 0.66760574E+03</pdfrwt>
<pdfrwt beam="2">  1       -2 0.22230042E-01 0.66760574E+03</pdfrwt>
<totfact> 0.64386784E+02</totfact>
</mgrwt>
</event>
<event>
 4    1  0.9012200E-005  0.5580013E+03  0.7818608E-02  0.9996587E-01
         -2   -1    0    0    0  501 -0.00000000000E+00  0.00000000000E+00  0.19463464376E+03  0.19463464378E+03  0.25500000000E-02 0.  1.
          2   -1    0    0  501    0  0.00000000000E+00 -0.00000000000E+00 -0.39993584188E+03  0.39993584189E+03  0.25500000000E-02 0. -1.
    5000001    1    1    2    0    0 -0.41439513566E+01  0.18468455096E+03  0.34181871359E+02  0.25003790917E+03  0.16500000000E+03 0.  0.
   -5000001    1    1    2    0    0  0.41439513566E+01 -0.18468455096E+03 -0.23948306948E+03  0.34453257649E+03  0.16500000000E+03 0.  0.
<mgrwt>
<rscale>  0 0.55800133E+03</rscale>
<asrwt>0</asrwt>
<pdfrwt beam="1">  1        2 0.61528591E-01 0.55800133E+03</pdfrwt>
<pdfrwt beam="2">  1       -2 0.29943791E-01 0.55800133E+03</pdfrwt>
<totfact> 0.82167784E+02</totfact>
</mgrwt>
</event>
<event>
 4    1  0.9012200E-005  0.1546290E+04  0.7818608E-02  0.8854241E-01
          2   -1    0    0  501    0  0.00000000000E+00  0.00000000000E+00  0.22381157912E+04  0.22381157912E+04  0.25500000000E-02 0.  1.
         -2   -1    0    0    0  501 -0.00000000000E+00 -0.00000000000E+00 -0.26707869959E+03  0.26707869960E+03  0.25500000000E-02 0. -1.
    5000001    1    1    2    0    0  0.74898862311E+03 -0.76746361346E+02  0.88758299285E+03  0.11755435044E+04  0.16500000000E+03 0.  0.
   -5000001    1    1    2    0    0 -0.74898862311E+03  0.76746361346E+02  0.10834540988E+04  0.13296509864E+04  0.16500000000E+03 0.  0.
<mgrwt>
<rscale>  0 0.15462898E+04</rscale>
<asrwt>0</asrwt>
<pdfrwt beam="1">  1        2 0.34432550E+00 0.15462898E+04</pdfrwt>
<pdfrwt beam="2">  1       -2 0.41089031E-01 0.15462898E+04</pdfrwt>
<totfact> 0.26575314E+01</totfact>
</mgrwt>
</event>
<event>
 4    1  0.9012200E-005  0.4421246E+03  0.7818608E-02  0.1030097E+00
          2   -1    0    0  501    0  0.00000000000E+00  0.00000000000E+00  0.12789965660E+04  0.12789965660E+04  0.25500000000E-02 0.  1.
         -2   -1    0    0    0  501 -0.00000000000E+00 -0.00000000000E+00 -0.38208507102E+02  0.38208507187E+02  0.25500000000E-02 0. -1.
    5000001    1    1    2    0    0  0.30412127236E+02  0.14172799587E+03  0.69528126735E+03  0.72914522766E+03  0.16500000000E+03 0.  0.
   -5000001    1    1    2    0    0 -0.30412127236E+02 -0.14172799587E+03  0.54550679157E+03  0.58805984555E+03  0.16500000000E+03 0.  0.
<mgrwt>
<rscale>  0 0.44212464E+03</rscale>
<asrwt>0</asrwt>
<pdfrwt beam="1">  1        2 0.19676869E+00 0.44212464E+03</pdfrwt>
<pdfrwt beam="2">  1       -2 0.58782323E-02 0.44212464E+03</pdfrwt>
<totfact> 0.27553515E+03</totfact>
</mgrwt>
</event>
<event>
 4    1  0.9012200E-005  0.4100515E+03  0.7818608E-02  0.1040354E+00
         -2   -1    0    0    0  501 -0.00000000000E+00  0.00000000000E+00  0.59820811174E+02  0.59820811228E+02  0.25500000000E-02 0. -1.
          2   -1    0    0  501    0  0.00000000000E+00 -0.00000000000E+00 -0.70269137760E+03  0.70269137761E+03  0.25500000000E-02 0.  1.
    5000001    1    1    2    0    0 -0.89823246085E+01 -0.68529138494E+02 -0.13516753636E+03  0.22421460225E+03  0.16500000000E+03 0.  0.
   -5000001    1    1    2    0    0  0.89823246085E+01  0.68529138494E+02 -0.50770303007E+03  0.53829758658E+03  0.16500000000E+03 0.  0.
<mgrwt>
<rscale>  0 0.41005155E+03</rscale>
<asrwt>0</asrwt>
<pdfrwt beam="1">  1        2 0.10810636E+00 0.41005155E+03</pdfrwt>
<pdfrwt beam="2">  1       -2 0.92032022E-02 0.41005155E+03</pdfrwt>
<totfact> 0.31799797E+03</totfact>
</mgrwt>
</event>
<event>
 4    1  0.9012200E-005  0.6139014E+03  0.7818608E-02  0.9876978E-01
          2   -1    0    0  501    0  0.00000000000E+00  0.00000000000E+00  0.11691793536E+04  0.11691793537E+04  0.25500000000E-02 0. -1.
         -2   -1    0    0    0  501 -0.00000000000E+00 -0.00000000000E+00 -0.80585341814E+02  0.80585341855E+02  0.25500000000E-02 0.  1.
    5000001    1    1    2    0    0  0.13061585906E+03 -0.12093476341E+03  0.16176638131E+03  0.29168318731E+03  0.16500000000E+03 0.  0.
   -5000001    1    1    2    0    0 -0.13061585906E+03  0.12093476341E+03  0.92682763053E+03  0.95808150819E+03  0.16500000000E+03 0.  0.
<mgrwt>
<rscale>  0 0.61390135E+03</rscale>
<asrwt>0</asrwt>
<pdfrwt beam="1">  1        2 0.17987376E+00 0.61390135E+03</pdfrwt>
<pdfrwt beam="2">  1       -2 0.12397744E-01 0.61390135E+03</pdfrwt>
<totfact> 0.96350917E+02</totfact>
</mgrwt>
</event>
<event>
 4    1  0.9012200E-005  0.6728653E+03  0.7818608E-02  0.9764795E-01
         -2   -1    0    0    0  501 -0.00000000000E+00  0.00000000000E+00  0.40981177352E+02  0.40981177431E+02  0.25500000000E-02 0. -1.
          2   -1    0    0  501    0  0.00000000000E+00 -0.00000000000E+00 -0.27619251383E+04  0.27619251383E+04  0.25500000000E-02 0.  1.
    5000001    1    1    2    0    0  0.29249210419E+03  0.16539710447E+00 -0.12760950751E+04  0.13195435950E+04  0.16500000000E+03 0.  0.
   -5000001    1    1    2    0    0 -0.29249210419E+03 -0.16539710447E+00 -0.14448488858E+04  0.14833627207E+04  0.16500000000E+03 0.  0.
<mgrwt>
<rscale>  0 0.67286535E+03</rscale>
<asrwt>0</asrwt>
<pdfrwt beam="1">  1        2 0.42491141E+00 0.67286535E+03</pdfrwt>
<pdfrwt beam="2">  1       -2 0.63047987E-02 0.67286535E+03</pdfrwt>
<totfact> 0.36933255E+02</totfact>
</mgrwt>
</event>
<event>
 4    1  0.9012200E-005  0.5543007E+03  0.7818608E-02  0.1000503E+00
         -2   -1    0    0    0  501 -0.00000000000E+00  0.00000000000E+00  0.49618019982E+02  0.49618020048E+02  0.25500000000E-02 0. -1.
          2   -1    0    0  501    0  0.00000000000E+00 -0.00000000000E+00 -0.15480731068E+04  0.15480731068E+04  0.25500000000E-02 0.  1.
    5000001    1    1    2    0    0  0.40281712120E+02 -0.21378262268E+03 -0.88630452222E+03  0.92740839559E+03  0.16500000000E+03 0.  0.
   -5000001    1    1    2    0    0 -0.40281712120E+02  0.21378262268E+03 -0.61215056456E+03  0.67028273123E+03  0.16500000000E+03 0.  0.
<mgrwt>
<rscale>  0 0.55430072E+03</rscale>
<asrwt>0</asrwt>
<pdfrwt beam="1">  1        2 0.23816506E+00 0.55430072E+03</pdfrwt>
<pdfrwt beam="2">  1       -2 0.76335427E-02 0.55430072E+03</pdfrwt>
<totfact> 0.12911474E+03</totfact>
</mgrwt>
</event>
<event>
 4    1  0.9012200E-005  0.4275970E+03  0.7818608E-02  0.1034622E+00
          2   -1    0    0  501    0  0.00000000000E+00  0.00000000000E+00  0.10226656068E+03  0.10226656071E+03  0.25500000000E-02 0.  1.
         -2   -1    0    0    0  501 -0.00000000000E+00 -0.00000000000E+00 -0.44696712533E+03  0.44696712534E+03  0.25500000000E-02 0. -1.
    5000001    1    1    2    0    0 -0.11988130806E+03 -0.62965596980E+02 -0.18800792759E+03  0.28444362405E+03  0.16500000000E+03 0.  0.
   -5000001    1    1    2    0    0  0.11988130806E+03  0.62965596980E+02 -0.15669263706E+03  0.26479006200E+03  0.16500000000E+03 0.  0.
<mgrwt>
<rscale>  0 0.42759696E+03</rscale>
<asrwt>0</asrwt>
<pdfrwt beam="1">  1        2 0.15733317E-01 0.42759696E+03</pdfrwt>
<pdfrwt beam="2">  1       -2 0.68764172E-01 0.42759696E+03</pdfrwt>
<totfact> 0.73448694E+02</totfact>
</mgrwt>
</event>
<event>
 4    1  0.9012200E-005  0.7465496E+03  0.7818608E-02  0.9640779E-01
         -2   -1    0    0    0  501 -0.00000000000E+00  0.00000000000E+00  0.17285054422E+03  0.17285054424E+03  0.25500000000E-02 0. -1.
          2   -1    0    0  501    0  0.00000000000E+00 -0.00000000000E+00 -0.80609566761E+03  0.80609566762E+03  0.25500000000E-02 0.  1.
    5000001    1    1    2    0    0  0.30048593723E+03  0.14708212970E+03 -0.33441579124E+03  0.50098290668E+03  0.16500000000E+03 0.  0.
   -5000001    1    1    2    0    0 -0.30048593723E+03 -0.14708212970E+03 -0.29882933214E+03  0.47796330518E+03  0.16500000000E+03 0.  0.
<mgrwt>
<rscale>  0 0.74654960E+03</rscale>
<asrwt>0</asrwt>
<pdfrwt beam="1">  1        2 0.12401472E+00 0.74654960E+03</pdfrwt>
<pdfrwt beam="2">  1       -2 0.26592392E-01 0.74654960E+03</pdfrwt>
<totfact> 0.43918784E+02</totfact>
</mgrwt>
</event>
<event>
 4    1  0.9012200E-005  0.3725941E+03  0.7818608E-02  0.1053705E+00
          2   -1    0    0  501    0  0.00000000000E+00  0.00000000000E+00  0.91357467179E+03  0.91357467179E+03  0.25500000000E-02 0.  1.
         -2   -1    0    0    0  501 -0.00000000000E+00 -0.00000000000E+00 -0.37989886554E+02  0.37989886640E+02  0.25500000000E-02 0. -1.
    5000001    1    1    2    0    0  0.34401218064E+02  0.78916170688E+02  0.45921957517E+03  0.49549856107E+03  0.16500000000E+03 0.  0.
   -5000001    1    1    2    0    0 -0.34401218064E+02 -0.78916170688E+02  0.41636521006E+03  0.45606599736E+03  0.16500000000E+03 0.  0.
<mgrwt>
<rscale>  0 0.37259414E+03</rscale>
<asrwt>0</asrwt>
<pdfrwt beam="1">  1        2 0.14054995E+00 0.37259414E+03</pdfrwt>
<pdfrwt beam="2">  1       -2 0.58445978E-02 0.37259414E+03</pdfrwt>
<totfact> 0.46093224E+03</totfact>
</mgrwt>
</event>
<event>
 4    1  0.9012200E-005  0.6728457E+03  0.7818608E-02  0.9764831E-01
          2   -1    0    0  501    0  0.00000000000E+00  0.00000000000E+00  0.10019402069E+04  0.10019402069E+04  0.25500000000E-02 0.  1.
         -2   -1    0    0    0  501 -0.00000000000E+00 -0.00000000000E+00 -0.11296117633E+03  0.11296117636E+03  0.25500000000E-02 0. -1.
    5000001    1    1    2    0    0  0.23251254204E+03  0.13242574604E+03  0.24594951260E+03  0.39914261007E+03  0.16500000000E+03 0.  0.
   -5000001    1    1    2    0    0 -0.23251254204E+03 -0.13242574604E+03  0.64302951801E+03  0.71575877323E+03  0.16500000000E+03 0.  0.
<mgrwt>
<rscale>  0 0.67284573E+03</rscale>
<asrwt>0</asrwt>
<pdfrwt beam="1">  1        2 0.15414464E+00 0.67284573E+03</pdfrwt>
<pdfrwt beam="2">  1       -2 0.17378643E-01 0.67284573E+03</pdfrwt>
<totfact> 0.68942875E+02</totfact>
</mgrwt>
</event>
<event>
 4    1  0.9012200E-005  0.5632845E+03  0.7818608E-02  0.9984650E-01
          2   -1    0    0  501    0  0.00000000000E+00  0.00000000000E+00  0.14874326610E+04  0.14874326610E+04  0.25500000000E-02 0.  1.
         -2   -1    0    0    0  501 -0.00000000000E+00 -0.00000000000E+00 -0.53328361723E+02  0.53328361784E+02  0.25500000000E-02 0. -1.
    5000001    1    1    2    0    0 -0.15522957140E+03 -0.13431660028E+03  0.99003858129E+03  0.10244698929E+04  0.16500000000E+03 0.  0.
   -5000001    1    1    2    0    0  0.15522957140E+03  0.13431660028E+03  0.44406571803E+03  0.51629112997E+03  0.16500000000E+03 0.  0.
<mgrwt>
<rscale>  0 0.56328446E+03</rscale>
<asrwt>0</asrwt>
<pdfrwt beam="1">  1        2 0.22883578E+00 0.56328446E+03</pdfrwt>
<pdfrwt beam="2">  1       -2 0.82043640E-02 0.56328446E+03</pdfrwt>
<totfact> 0.12426159E+03</totfact>
</mgrwt>
</event>
<event>
 4    1  0.9012200E-005  0.6007869E+03  0.7818608E-02  0.9903775E-01
         -2   -1    0    0    0  501 -0.00000000000E+00  0.00000000000E+00  0.66719266094E+02  0.66719266143E+02  0.25500000000E-02 0. -1.
          2   -1    0    0  501    0  0.00000000000E+00 -0.00000000000E+00 -0.13524761688E+04  0.13524761688E+04  0.25500000000E-02 0.  1.
    5000001    1    1    2    0    0  0.58575570459E+01  0.24262858242E+03 -0.49146946511E+03  0.57242482050E+03  0.16500000000E+03 0.  0.
   -5000001    1    1    2    0    0 -0.58575570459E+01 -0.24262858242E+03 -0.79428743762E+03  0.84677061448E+03  0.16500000000E+03 0.  0.
<mgrwt>
<rscale>  0 0.60078688E+03</rscale>
<asrwt>0</asrwt>
<pdfrwt beam="1">  1        2 0.20807324E+00 0.60078688E+03</pdfrwt>
<pdfrwt beam="2">  1       -2 0.10264503E-01 0.60078688E+03</pdfrwt>
<totfact> 0.10290419E+03</totfact>
</mgrwt>
</event>
<event>
 4    1  0.9012200E-005  0.5665610E+03  0.7818608E-02  0.9977318E-01
          2   -1    0    0  501    0  0.00000000000E+00  0.00000000000E+00  0.17378729839E+04  0.17378729839E+04  0.25500000000E-02 0.  1.
         -2   -1    0    0    0  501 -0.00000000000E+00 -0.00000000000E+00 -0.46175900300E+02  0.46175900370E+02  0.25500000000E-02 0. -1.
    5000001    1    1    2    0    0 -0.56702941974E+02 -0.22298972446E+03  0.81712454705E+03  0.86478735319E+03  0.16500000000E+03 0.  0.
   -5000001    1    1    2    0    0  0.56702941974E+02  0.22298972446E+03  0.87457253653E+03  0.91926153106E+03  0.16500000000E+03 0.  0.
<mgrwt>
<rscale>  0 0.56656103E+03</rscale>
<asrwt>0</asrwt>
<pdfrwt beam="1">  1        2 0.26736507E+00 0.56656103E+03</pdfrwt>
<pdfrwt beam="2">  1       -2 0.71039849E-02 0.56656103E+03</pdfrwt>
<totfact> 0.11400451E+03</totfact>
</mgrwt>
</event>
<event>
 4    1  0.9012200E-005  0.5829539E+03  0.7818608E-02  0.9941416E-01
         -2   -1    0    0    0  501 -0.00000000000E+00  0.00000000000E+00  0.25828405642E+03  0.25828405644E+03  0.25500000000E-02 0. -1.
          2   -1    0    0  501    0  0.00000000000E+00 -0.00000000000E+00 -0.32893560347E+03  0.32893560348E+03  0.25500000000E-02 0.  1.
    5000001    1    1    2    0    0 -0.11114370303E+03 -0.19511510728E+03  0.50804250631E+02  0.28324706476E+03  0.16500000000E+03 0.  0.
   -5000001    1    1    2    0    0  0.11114370303E+03  0.19511510728E+03 -0.12145579768E+03  0.30397259516E+03  0.16500000000E+03 0.  0.
<mgrwt>
<rscale>  0 0.58295393E+03</rscale>
<asrwt>0</asrwt>
<pdfrwt beam="1">  1        2 0.50605477E-01 0.58295393E+03</pdfrwt>
<pdfrwt beam="2">  1       -2 0.39736009E-01 0.58295393E+03</pdfrwt>
<totfact> 0.59772281E+02</totfact>
</mgrwt>
</event>
<event>
 4    1  0.9012200E-005  0.8416510E+03  0.7818608E-02  0.9501612E-01
          2   -1    0    0  501    0  0.00000000000E+00  0.00000000000E+00  0.18019296574E+03  0.18019296576E+03  0.25500000000E-02 0.  1.
         -2   -1    0    0    0  501 -0.00000000000E+00 -0.00000000000E+00 -0.98280257625E+03  0.98280257626E+03  0.25500000000E-02 0. -1.
    5000001    1    1    2    0    0  0.35189991213E+03 -0.23254014489E+02 -0.18067107115E+03  0.42923342519E+03  0.16500000000E+03 0.  0.
   -5000001    1    1    2    0    0 -0.35189991213E+03  0.23254014489E+02 -0.62193853936E+03  0.73376211683E+03  0.16500000000E+03 0.  0.
<mgrwt>
<rscale>  0 0.84165102E+03</rscale>
<asrwt>0</asrwt>
<pdfrwt beam="1">  1        2 0.27721995E-01 0.84165102E+03</pdfrwt>
<pdfrwt beam="2">  1       -2 0.15120039E+00 0.84165102E+03</pdfrwt>
<totfact> 0.57468555E+01</totfact>
</mgrwt>
</event>
<event>
 4    1  0.9012200E-005  0.6498226E+03  0.7818608E-02  0.9807112E-01
         -2   -1    0    0    0  501 -0.00000000000E+00  0.00000000000E+00  0.84620461349E+02  0.84620461388E+02  0.25500000000E-02 0. -1.
          2   -1    0    0  501    0  0.00000000000E+00 -0.00000000000E+00 -0.12475391468E+04  0.12475391468E+04  0.25500000000E-02 0.  1.
    5000001    1    1    2    0    0  0.36432001074E+02  0.22682863888E+03 -0.25368547772E+03  0.37994715913E+03  0.16500000000E+03 0.  0.
   -5000001    1    1    2    0    0 -0.36432001074E+02 -0.22682863888E+03 -0.90923320774E+03  0.95221244908E+03  0.16500000000E+03 0.  0.
<mgrwt>
<rscale>  0 0.64982255E+03</rscale>
<asrwt>0</asrwt>
<pdfrwt beam="1">  1        2 0.19192909E+00 0.64982255E+03</pdfrwt>
<pdfrwt beam="2">  1       -2 0.13018533E-01 0.64982255E+03</pdfrwt>
<totfact> 0.79816058E+02</totfact>
</mgrwt>
</event>
<event>
 4    1  0.9012200E-005  0.6892475E+03  0.7818608E-02  0.9735799E-01
         -2   -1    0    0    0  501 -0.00000000000E+00  0.00000000000E+00  0.12525296448E+03  0.12525296451E+03  0.25500000000E-02 0. -1.
          2   -1    0    0  501    0  0.00000000000E+00 -0.00000000000E+00 -0.94820526574E+03  0.94820526574E+03  0.25500000000E-02 0.  1.
    5000001    1    1    2    0    0  0.20575215434E+03 -0.18299017928E+03 -0.21619859075E+03  0.38702220268E+03  0.16500000000E+03 0.  0.
   -5000001    1    1    2    0    0 -0.20575215434E+03  0.18299017928E+03 -0.60675371051E+03  0.68643602757E+03  0.16500000000E+03 0.  0.
<mgrwt>
<rscale>  0 0.68924748E+03</rscale>
<asrwt>0</asrwt>
<pdfrwt beam="1">  1        2 0.14587773E+00 0.68924748E+03</pdfrwt>
<pdfrwt beam="2">  1       -2 0.19269687E-01 0.68924748E+03</pdfrwt>
<totfact> 0.62423516E+02</totfact>
</mgrwt>
</event>
<event>
 4    1  0.9012200E-005  0.4782946E+03  0.7818608E-02  0.1019605E+00
          2   -1    0    0  501    0  0.00000000000E+00  0.00000000000E+00  0.44851530938E+03  0.44851530938E+03  0.25500000000E-02 0.  1.
         -2   -1    0    0    0  501 -0.00000000000E+00 -0.00000000000E+00 -0.12751277682E+03  0.12751277685E+03  0.25500000000E-02 0. -1.
    5000001    1    1    2    0    0 -0.11337079618E+03 -0.30730949208E+02  0.31364215108E+03  0.37335469409E+03  0.16500000000E+03 0.  0.
   -5000001    1    1    2    0    0  0.11337079618E+03  0.30730949208E+02  0.73603814683E+01  0.20267339214E+03  0.16500000000E+03 0.  0.
<mgrwt>
<rscale>  0 0.47829461E+03</rscale>
<asrwt>0</asrwt>
<pdfrwt beam="1">  1        2 0.69002355E-01 0.47829461E+03</pdfrwt>
<pdfrwt beam="2">  1       -2 0.19617350E-01 0.47829461E+03</pdfrwt>
<totfact> 0.15373335E+03</totfact>
</mgrwt>
</event>
<event>
 4    1  0.9012200E-005  0.5124137E+03  0.7818608E-02  0.1010589E+00
         -2   -1    0    0    0  501 -0.00000000000E+00  0.00000000000E+00  0.35514238500E+03  0.35514238501E+03  0.25500000000E-02 0.  1.
          2   -1    0    0  501    0  0.00000000000E+00 -0.00000000000E+00 -0.18483279618E+03  0.18483279620E+03  0.25500000000E-02 0. -1.
    5000001    1    1    2    0    0  0.16331653693E+03 -0.19132818200E+02 -0.27253284720E+02  0.23453378754E+03  0.16500000000E+03 0.  0.
   -5000001    1    1    2    0    0 -0.16331653693E+03  0.19132818200E+02  0.19756287354E+03  0.30544139368E+03  0.16500000000E+03 0.  0.
<mgrwt>
<rscale>  0 0.51241374E+03</rscale>
<asrwt>0</asrwt>
<pdfrwt beam="1">  1        2 0.28435815E-01 0.51241374E+03</pdfrwt>
<pdfrwt beam="2">  1       -2 0.54637290E-01 0.51241374E+03</pdfrwt>
<totfact> 0.60030003E+02</totfact>
</mgrwt>
</event>
<event>
 4    1  0.9012200E-005  0.5034950E+03  0.7818608E-02  0.1012871E+00
         -2   -1    0    0    0  501 -0.00000000000E+00  0.00000000000E+00  0.44872434342E+02  0.44872434414E+02  0.25500000000E-02 0. -1.
          2   -1    0    0  501    0  0.00000000000E+00 -0.00000000000E+00 -0.14123771896E+04  0.14123771896E+04  0.25500000000E-02 0.  1.
    5000001    1    1    2    0    0 -0.18861656566E+03 -0.92226218009E+01 -0.74785484572E+03  0.78877952298E+03  0.16500000000E+03 0.  0.
   -5000001    1    1    2    0    0  0.18861656566E+03  0.92226218009E+01 -0.61964990953E+03  0.66847010103E+03  0.16500000000E+03 0.  0.
<mgrwt>
<rscale>  0 0.50349500E+03</rscale>
<asrwt>0</asrwt>
<pdfrwt beam="1">  1        2 0.21728876E+00 0.50349500E+03</pdfrwt>
<pdfrwt beam="2">  1       -2 0.69034525E-02 0.50349500E+03</pdfrwt>
<totfact> 0.18013918E+03</totfact>
</mgrwt>
</event>
<event>
 4    1  0.9012200E-005  0.6114994E+03  0.7818608E-02  0.9881832E-01
         -2   -1    0    0    0  501 -0.00000000000E+00  0.00000000000E+00  0.10607486912E+03  0.10607486915E+03  0.25500000000E-02 0. -1.
          2   -1    0    0  501    0  0.00000000000E+00 -0.00000000000E+00 -0.88129154608E+03  0.88129154609E+03  0.25500000000E-02 0.  1.
    5000001    1    1    2    0    0 -0.12833314793E+03  0.21874567054E+03 -0.45870530430E+03  0.54950397763E+03  0.16500000000E+03 0.  0.
   -5000001    1    1    2    0    0  0.12833314793E+03 -0.21874567054E+03 -0.31651137266E+03  0.43786243760E+03  0.16500000000E+03 0.  0.
<mgrwt>
<rscale>  0 0.61149942E+03</rscale>
<asrwt>0</asrwt>
<pdfrwt beam="1">  1        2 0.13558331E+00 0.61149942E+03</pdfrwt>
<pdfrwt beam="2">  1       -2 0.16319211E-01 0.61149942E+03</pdfrwt>
<totfact> 0.92236815E+02</totfact>
</mgrwt>
</event>
<event>
 4    1  0.9012200E-005  0.4332296E+03  0.7818608E-02  0.1032845E+00
          2   -1    0    0  501    0  0.00000000000E+00  0.00000000000E+00  0.10090454979E+04  0.10090454979E+04  0.25500000000E-02 0.  1.
         -2   -1    0    0    0  501 -0.00000000000E+00 -0.00000000000E+00 -0.46501351677E+02  0.46501351747E+02  0.25500000000E-02 0. -1.
    5000001    1    1    2    0    0  0.74514280786E+02 -0.96844121184E+02  0.31307126805E+03  0.37439254898E+03  0.16500000000E+03 0.  0.
   -5000001    1    1    2    0    0 -0.74514280786E+02  0.96844121184E+02  0.64947287821E+03  0.68115430071E+03  0.16500000000E+03 0.  0.
<mgrwt>
<rscale>  0 0.43322964E+03</rscale>
<asrwt>0</asrwt>
<pdfrwt beam="1">  1        2 0.15523777E+00 0.43322964E+03</pdfrwt>
<pdfrwt beam="2">  1       -2 0.71540542E-02 0.43322964E+03</pdfrwt>
<totfact> 0.29290482E+03</totfact>
</mgrwt>
</event>
<event>
 4    1  0.9012200E-005  0.4614839E+03  0.7818608E-02  0.1024352E+00
         -2   -1    0    0    0  501 -0.00000000000E+00  0.00000000000E+00  0.16514453126E+04  0.16514453126E+04  0.25500000000E-02 0. -1.
          2   -1    0    0  501    0  0.00000000000E+00 -0.00000000000E+00 -0.32239549390E+02  0.32239549491E+02  0.25500000000E-02 0.  1.
    5000001    1    1    2    0    0 -0.58226569754E+02  0.14161264833E+03  0.62456035135E+03  0.66388636683E+03  0.16500000000E+03 0.  0.
   -5000001    1    1    2    0    0  0.58226569754E+02 -0.14161264833E+03  0.99464541183E+03  0.10197984952E+04  0.16500000000E+03 0.  0.
<mgrwt>
<rscale>  0 0.46148392E+03</rscale>
<asrwt>0</asrwt>
<pdfrwt beam="1">  1        2 0.49599296E-02 0.46148392E+03</pdfrwt>
<pdfrwt beam="2">  1       -2 0.25406857E+00 0.46148392E+03</pdfrwt>
<totfact> 0.10637712E+02</totfact>
</mgrwt>
</event>
<event>
 4    1  0.9012200E-005  0.5845979E+03  0.7818608E-02  0.9937886E-01
         -2   -1    0    0    0  501 -0.00000000000E+00  0.00000000000E+00  0.17492928305E+03  0.17492928307E+03  0.25500000000E-02 0. -1.
          2   -1    0    0  501    0  0.00000000000E+00 -0.00000000000E+00 -0.48841845466E+03  0.48841845467E+03  0.25500000000E-02 0.  1.
    5000001    1    1    2    0    0 -0.47673504590E+01  0.14443123734E+03 -0.37598284031E+03  0.43528290359E+03  0.16500000000E+03 0.  0.
   -5000001    1    1    2    0    0  0.47673504590E+01 -0.14443123734E+03  0.62493668694E+02  0.22806483415E+03  0.16500000000E+03 0.  0.
<mgrwt>
<rscale>  0 0.58459795E+03</rscale>
<asrwt>0</asrwt>
<pdfrwt beam="1">  1        2 0.75141300E-01 0.58459795E+03</pdfrwt>
<pdfrwt beam="2">  1       -2 0.26912198E-01 0.58459795E+03</pdfrwt>
<totfact> 0.79673625E+02</totfact>
</mgrwt>
</event>
<event>
 4    1  0.9012200E-005  0.5603400E+03  0.7818608E-02  0.9991286E-01
          2   -1    0    0  501    0  0.00000000000E+00  0.00000000000E+00  0.12362867377E+04  0.12362867377E+04  0.25500000000E-02 0.  1.
         -2   -1    0    0    0  501 -0.00000000000E+00 -0.00000000000E+00 -0.63492747914E+02  0.63492747966E+02  0.25500000000E-02 0. -1.
    5000001    1    1    2    0    0  0.63220254749E+02  0.14823258063E+03  0.95536010141E+03  0.98280599405E+03  0.16500000000E+03 0.  0.
   -5000001    1    1    2    0    0 -0.63220254749E+02 -0.14823258063E+03  0.21743388835E+03  0.31697349159E+03  0.16500000000E+03 0.  0.
<mgrwt>
<rscale>  0 0.56034005E+03</rscale>
<asrwt>0</asrwt>
<pdfrwt beam="1">  1        2 0.19019794E+00 0.56034005E+03</pdfrwt>
<pdfrwt beam="2">  1       -2 0.97681159E-02 0.56034005E+03</pdfrwt>
<totfact> 0.13015114E+03</totfact>
</mgrwt>
</event>
<event>
 4    1  0.9012200E-005  0.7197838E+03  0.7818608E-02  0.9683985E-01
          2   -1    0    0  501    0  0.00000000000E+00  0.00000000000E+00  0.27704559258E+03  0.27704559259E+03  0.25500000000E-02 0.  1.
         -2   -1    0    0    0  501 -0.00000000000E+00 -0.00000000000E+00 -0.46751211751E+03  0.46751211751E+03  0.25500000000E-02 0. -1.
    5000001    1    1    2    0    0 -0.28433343158E+03 -0.13668912365E+03 -0.40813064473E+02  0.35835753525E+03  0.16500000000E+03 0.  0.
   -5000001    1    1    2    0    0  0.28433343158E+03  0.13668912365E+03 -0.14965346045E+03  0.38620017486E+03  0.16500000000E+03 0.  0.
<mgrwt>
<rscale>  0 0.71978378E+03</rscale>
<asrwt>0</asrwt>
<pdfrwt beam="1">  1        2 0.42622399E-01 0.71978378E+03</pdfrwt>
<pdfrwt beam="2">  1       -2 0.71924941E-01 0.71978378E+03</pdfrwt>
<totfact> 0.21218329E+02</totfact>
</mgrwt>
</event>
<event>
 4    1  0.9012200E-005  0.5977956E+03  0.7818608E-02  0.9909990E-01
          2   -1    0    0  501    0  0.00000000000E+00  0.00000000000E+00  0.10960266368E+04  0.10960266368E+04  0.25500000000E-02 0.  1.
         -2   -1    0    0    0  501 -0.00000000000E+00 -0.00000000000E+00 -0.81512534272E+02  0.81512534312E+02  0.25500000000E-02 0. -1.
    5000001    1    1    2    0    0  0.19789739275E+03 -0.15860307459E+02  0.80403755367E+03  0.84446214546E+03  0.16500000000E+03 0.  0.
   -5000001    1    1    2    0    0 -0.19789739275E+03  0.15860307459E+02  0.21047654890E+03  0.33307702570E+03  0.16500000000E+03 0.  0.
<mgrwt>
<rscale>  0 0.59779565E+03</rscale>
<asrwt>0</asrwt>
<pdfrwt beam="1">  1        2 0.16861948E+00 0.59779565E+03</pdfrwt>
<pdfrwt beam="2">  1       -2 0.12540390E-01 0.59779565E+03</pdfrwt>
<totfact> 0.10466121E+03</totfact>
</mgrwt>
</event>
<event>
 4    1  0.9012200E-005  0.4897064E+03  0.7818608E-02  0.1016501E+00
         -2   -1    0    0    0  501 -0.00000000000E+00  0.00000000000E+00  0.59566326341E+02  0.59566326396E+02  0.25500000000E-02 0. -1.
          2   -1    0    0  501    0  0.00000000000E+00 -0.00000000000E+00 -0.10064930240E+04  0.10064930240E+04  0.25500000000E-02 0.  1.
    5000001    1    1    2    0    0  0.91022185574E+02  0.10347645542E+03 -0.21832800362E+03  0.30640582935E+03  0.16500000000E+03 0.  0.
   -5000001    1    1    2    0    0 -0.91022185574E+02 -0.10347645542E+03 -0.72859869404E+03  0.75965352105E+03  0.16500000000E+03 0.  0.
<mgrwt>
<rscale>  0 0.48970641E+03</rscale>
<asrwt>0</asrwt>
<pdfrwt beam="1">  1        2 0.15484507E+00 0.48970641E+03</pdfrwt>
<pdfrwt beam="2">  1       -2 0.91640509E-02 0.48970641E+03</pdfrwt>
<totfact> 0.19847154E+03</totfact>
</mgrwt>
</event>
<event>
 4    1  0.9012200E-005  0.6468813E+03  0.7818608E-02  0.9812649E-01
         -2   -1    0    0    0  501 -0.00000000000E+00  0.00000000000E+00  0.47608042929E+02  0.47608042997E+02  0.25500000000E-02 0. -1.
          2   -1    0    0  501    0  0.00000000000E+00 -0.00000000000E+00 -0.21973986196E+04  0.21973986196E+04  0.25500000000E-02 0.  1.
    5000001    1    1    2    0    0 -0.25911647683E+03  0.28341954515E+02 -0.14121642655E+04  0.14454679269E+04  0.16500000000E+03 0.  0.
   -5000001    1    1    2    0    0  0.25911647683E+03 -0.28341954515E+02 -0.73762631120E+03  0.79953873573E+03  0.16500000000E+03 0.  0.
<mgrwt>
<rscale>  0 0.64688128E+03</rscale>
<asrwt>0</asrwt>
<pdfrwt beam="1">  1        2 0.33806125E+00 0.64688128E+03</pdfrwt>
<pdfrwt beam="2">  1       -2 0.73243160E-02 0.64688128E+03</pdfrwt>
<totfact> 0.60850967E+02</totfact>
</mgrwt>
</event>
<event>
 4    1  0.9012200E-005  0.4067850E+03  0.7818608E-02  0.1041455E+00
          2   -1    0    0  501    0  0.00000000000E+00  0.00000000000E+00  0.66004055128E+03  0.66004055129E+03  0.25500000000E-02 0.  1.
         -2   -1    0    0    0  501 -0.00000000000E+00 -0.00000000000E+00 -0.62675722849E+02  0.62675722901E+02  0.25500000000E-02 0. -1.
    5000001    1    1    2    0    0 -0.94184806374E+02 -0.67868579363E+02  0.25281180720E+03  0.32344355254E+03  0.16500000000E+03 0.  0.
   -5000001    1    1    2    0    0  0.94184806374E+02  0.67868579363E+02  0.34455302123E+03  0.39927272165E+03  0.16500000000E+03 0.  0.
<mgrwt>
<rscale>  0 0.40678505E+03</rscale>
<asrwt>0</asrwt>
<pdfrwt beam="1">  1        2 0.10154471E+00 0.40678505E+03</pdfrwt>
<pdfrwt beam="2">  1       -2 0.96424184E-02 0.40678505E+03</pdfrwt>
<totfact> 0.31863208E+03</totfact>
</mgrwt>
</event>
<event>
 4    1  0.9012200E-005  0.4569052E+03  0.7818608E-02  0.1025683E+00
          2   -1    0    0  501    0  0.00000000000E+00  0.00000000000E+00  0.21843144941E+04  0.21843144941E+04  0.25500000000E-02 0.  1.
         -2   -1    0    0    0  501 -0.00000000000E+00 -0.00000000000E+00 -0.23893351274E+02  0.23893351411E+02  0.25500000000E-02 0. -1.
    5000001    1    1    2    0    0  0.95667299592E+02  0.11519570868E+03  0.13239431012E+04  0.13425619608E+04  0.16500000000E+03 0.  0.
   -5000001    1    1    2    0    0 -0.95667299592E+02 -0.11519570868E+03  0.83647804163E+03  0.86564588467E+03  0.16500000000E+03 0.  0.
<mgrwt>
<rscale>  0 0.45690521E+03</rscale>
<asrwt>0</asrwt>
<pdfrwt beam="1">  1        2 0.33604859E+00 0.45690521E+03</pdfrwt>
<pdfrwt beam="2">  1       -2 0.36758980E-02 0.45690521E+03</pdfrwt>
<totfact> 0.18283586E+03</totfact>
</mgrwt>
</event>
<event>
 4    1  0.9012200E-005  0.5495530E+03  0.7818608E-02  0.1001597E+00
          2   -1    0    0  501    0  0.00000000000E+00  0.00000000000E+00  0.24952601661E+03  0.24952601662E+03  0.25500000000E-02 0.  1.
         -2   -1    0    0    0  501 -0.00000000000E+00 -0.00000000000E+00 -0.30258216289E+03  0.30258216290E+03  0.25500000000E-02 0. -1.
    5000001    1    1    2    0    0  0.12240997498E+03  0.12945141364E+03  0.10265928221E+03  0.26363952414E+03  0.16500000000E+03 0.  0.
   -5000001    1    1    2    0    0 -0.12240997498E+03 -0.12945141364E+03 -0.15571542849E+03  0.28846865538E+03  0.16500000000E+03 0.  0.
<mgrwt>
<rscale>  0 0.54955299E+03</rscale>
<asrwt>0</asrwt>
<pdfrwt beam="1">  1        2 0.38388618E-01 0.54955299E+03</pdfrwt>
<pdfrwt beam="2">  1       -2 0.46551102E-01 0.54955299E+03</pdfrwt>
<totfact> 0.59418200E+02</totfact>
</mgrwt>
</event>
<event>
 4    1  0.9012200E-005  0.4458118E+03  0.7818608E-02  0.1028978E+00
          2   -1    0    0  501    0  0.00000000000E+00  0.00000000000E+00  0.16723733487E+03  0.16723733489E+03  0.25500000000E-02 0.  1.
         -2   -1    0    0    0  501 -0.00000000000E+00 -0.00000000000E+00 -0.29710489226E+03  0.29710489227E+03  0.25500000000E-02 0. -1.
    5000001    1    1    2    0    0  0.66879020108E+02  0.12072410023E+03 -0.12580007077E+03  0.24919424053E+03  0.16500000000E+03 0.  0.
   -5000001    1    1    2    0    0 -0.66879020108E+02 -0.12072410023E+03 -0.40674866237E+01  0.21514798664E+03  0.16500000000E+03 0.  0.
<mgrwt>
<rscale>  0 0.44581176E+03</rscale>
<asrwt>0</asrwt>
<pdfrwt beam="1">  1        2 0.25728821E-01 0.44581176E+03</pdfrwt>
<pdfrwt beam="2">  1       -2 0.45708445E-01 0.44581176E+03</pdfrwt>
<totfact> 0.96345237E+02</totfact>
</mgrwt>
</event>
<event>
 4    1  0.9012200E-005  0.4631118E+03  0.7818608E-02  0.1023883E+00
          2   -1    0    0  501    0  0.00000000000E+00  0.00000000000E+00  0.74155453271E+03  0.74155453271E+03  0.25500000000E-02 0.  1.
         -2   -1    0    0    0  501 -0.00000000000E+00 -0.00000000000E+00 -0.72305032294E+02  0.72305032339E+02  0.25500000000E-02 0. -1.
    5000001    1    1    2    0    0  0.58722416382E+02 -0.15147465124E+03  0.33377773707E+03  0.40623327033E+03  0.16500000000E+03 0.  0.
   -5000001    1    1    2    0    0 -0.58722416382E+02  0.15147465124E+03  0.33547176334E+03  0.40762629473E+03  0.16500000000E+03 0.  0.
<mgrwt>
<rscale>  0 0.46311176E+03</rscale>
<asrwt>0</asrwt>
<pdfrwt beam="1">  1        2 0.11408531E+00 0.46311176E+03</pdfrwt>
<pdfrwt beam="2">  1       -2 0.11123852E-01 0.46311176E+03</pdfrwt>
<totfact> 0.21924385E+03</totfact>
</mgrwt>
</event>
<event>
 4    1  0.9012200E-005  0.4804572E+03  0.7818608E-02  0.1019010E+00
          2   -1    0    0  501    0  0.00000000000E+00  0.00000000000E+00  0.16849736612E+04  0.16849736612E+04  0.25500000000E-02 0.  1.
         -2   -1    0    0    0  501 -0.00000000000E+00 -0.00000000000E+00 -0.34249659535E+02  0.34249659630E+02  0.25500000000E-02 0. -1.
    5000001    1    1    2    0    0  0.72312635169E+02 -0.15037967709E+03  0.64144920561E+03  0.68302653525E+03  0.16500000000E+03 0.  0.
   -5000001    1    1    2    0    0 -0.72312635169E+02  0.15037967709E+03  0.10092747960E+04  0.10361967855E+04  0.16500000000E+03 0.  0.
<mgrwt>
<rscale>  0 0.48045718E+03</rscale>
<asrwt>0</asrwt>
<pdfrwt beam="1">  1        2 0.25922674E+00 0.48045718E+03</pdfrwt>
<pdfrwt beam="2">  1       -2 0.52691779E-02 0.48045718E+03</pdfrwt>
<totfact> 0.19502886E+03</totfact>
</mgrwt>
</event>
<event>
 4    1  0.9012200E-005  0.5641945E+03  0.7818608E-02  0.9982608E-01
         -2   -1    0    0    0  501 -0.00000000000E+00  0.00000000000E+00  0.11440075417E+03  0.11440075420E+03  0.25500000000E-02 0. -1.
          2   -1    0    0  501    0  0.00000000000E+00 -0.00000000000E+00 -0.69561492314E+03  0.69561492314E+03  0.25500000000E-02 0.  1.
    5000001    1    1    2    0    0  0.20668388942E+03  0.80062112276E+02 -0.20906599348E+03  0.34649929523E+03  0.16500000000E+03 0.  0.
   -5000001    1    1    2    0    0 -0.20668388942E+03 -0.80062112276E+02 -0.37214817549E+03  0.46351638211E+03  0.16500000000E+03 0.  0.
<mgrwt>
<rscale>  0 0.56419455E+03</rscale>
<asrwt>0</asrwt>
<pdfrwt beam="1">  1        2 0.10701768E+00 0.56419455E+03</pdfrwt>
<pdfrwt beam="2">  1       -2 0.17600116E-01 0.56419455E+03</pdfrwt>
<totfact> 0.11050942E+03</totfact>
</mgrwt>
</event>
<event>
 4    1  0.9012200E-005  0.4183521E+03  0.7818608E-02  0.1037604E+00
         -2   -1    0    0    0  501 -0.00000000000E+00  0.00000000000E+00  0.25055574990E+02  0.25055575120E+02  0.25500000000E-02 0. -1.
          2   -1    0    0  501    0  0.00000000000E+00 -0.00000000000E+00 -0.17463031569E+04  0.17463031569E+04  0.25500000000E-02 0.  1.
    5000001    1    1    2    0    0  0.78766180265E+02 -0.10125285372E+03 -0.82435373041E+03  0.85043537343E+03  0.16500000000E+03 0.  0.
   -5000001    1    1    2    0    0 -0.78766180265E+02  0.10125285372E+03 -0.89689385148E+03  0.92092335857E+03  0.16500000000E+03 0.  0.
<mgrwt>
<rscale>  0 0.41835215E+03</rscale>
<asrwt>0</asrwt>
<pdfrwt beam="1">  1        2 0.26866193E+00 0.41835215E+03</pdfrwt>
<pdfrwt beam="2">  1       -2 0.38547052E-02 0.41835215E+03</pdfrwt>
<totfact> 0.29261349E+03</totfact>
</mgrwt>
</event>
<event>
 4    1  0.9012200E-005  0.3770146E+03  0.7818608E-02  0.1052043E+00
         -2   -1    0    0    0  501 -0.00000000000E+00  0.00000000000E+00  0.15939242932E+03  0.15939242934E+03  0.25500000000E-02 0. -1.
          2   -1    0    0  501    0  0.00000000000E+00 -0.00000000000E+00 -0.22294038178E+03  0.22294038180E+03  0.25500000000E-02 0.  1.
    5000001    1    1    2    0    0 -0.58351306374E+02  0.16934340031E+02 -0.10069113352E+03  0.20262120125E+03  0.16500000000E+03 0.  0.
   -5000001    1    1    2    0    0  0.58351306374E+02 -0.16934340031E+02  0.37143181050E+02  0.17971160988E+03  0.16500000000E+03 0.  0.
<mgrwt>
<rscale>  0 0.37701464E+03</rscale>
<asrwt>0</asrwt>
<pdfrwt beam="1">  1        2 0.34298520E-01 0.37701464E+03</pdfrwt>
<pdfrwt beam="2">  1       -2 0.24521912E-01 0.37701464E+03</pdfrwt>
<totfact> 0.22378684E+03</totfact>
</mgrwt>
</event>
<event>
 4    1  0.9012200E-005  0.1327270E+04  0.7818608E-02  0.9008215E-01
          2   -1    0    0  501    0  0.00000000000E+00  0.00000000000E+00  0.30237212477E+03  0.30237212478E+03  0.25500000000E-02 0.  1.
         -2   -1    0    0    0  501 -0.00000000000E+00 -0.00000000000E+00 -0.14565222139E+04  0.14565222139E+04  0.25500000000E-02 0. -1.
    5000001    1    1    2    0    0  0.50281898095E+02 -0.63043737155E+03 -0.42478021030E+03  0.77951444874E+03  0.16500000000E+03 0.  0.
   -5000001    1    1    2    0    0 -0.50281898095E+02  0.63043737155E+03 -0.72936987887E+03  0.97937988999E+03  0.16500000000E+03 0.  0.
<mgrwt>
<rscale>  0 0.13272705E+04</rscale>
<asrwt>0</asrwt>
<pdfrwt beam="1">  1        2 0.46518789E-01 0.13272705E+04</pdfrwt>
<pdfrwt beam="2">  1       -2 0.22408034E+00 0.13272705E+04</pdfrwt>
<totfact> 0.99167088E+00</totfact>
</mgrwt>
</event>
<event>
 4    1  0.9012200E-005  0.3597627E+03  0.7818608E-02  0.1058678E+00
         -2   -1    0    0    0  501 -0.00000000000E+00  0.00000000000E+00  0.19260460358E+02  0.19260460527E+02  0.25500000000E-02 0. -1.
          2   -1    0    0  501    0  0.00000000000E+00 -0.00000000000E+00 -0.16799859745E+04  0.16799859745E+04  0.25500000000E-02 0.  1.
    5000001    1    1    2    0    0 -0.30338577883E+02 -0.64867903345E+02 -0.82088183480E+03  0.84035722220E+03  0.16500000000E+03 0.  0.
   -5000001    1    1    2    0    0  0.30338577883E+02  0.64867903345E+02 -0.83984367936E+03  0.85888921285E+03  0.16500000000E+03 0.  0.
<mgrwt>
<rscale>  0 0.35976272E+03</rscale>
<asrwt>0</asrwt>
<pdfrwt beam="1">  1        2 0.25845927E+00 0.35976272E+03</pdfrwt>
<pdfrwt beam="2">  1       -2 0.29631491E-02 0.35976272E+03</pdfrwt>
<totfact> 0.47274417E+03</totfact>
</mgrwt>
</event>
<event>
 4    1  0.9012200E-005  0.7540309E+03  0.7818608E-02  0.9629048E-01
         -2   -1    0    0    0  501 -0.00000000000E+00  0.00000000000E+00  0.89420496273E+02  0.89420496309E+02  0.25500000000E-02 0. -1.
          2   -1    0    0  501    0  0.00000000000E+00 -0.00000000000E+00 -0.15895758885E+04  0.15895758885E+04  0.25500000000E-02 0.  1.
    5000001    1    1    2    0    0  0.24516908181E+03  0.92284374564E+02 -0.27099480710E+03  0.41144558563E+03  0.16500000000E+03 0.  0.
   -5000001    1    1    2    0    0 -0.24516908181E+03 -0.92284374564E+02 -0.12291605851E+04  0.12675507992E+04  0.16500000000E+03 0.  0.
<mgrwt>
<rscale>  0 0.75403094E+03</rscale>
<asrwt>0</asrwt>
<pdfrwt beam="1">  1        2 0.24455011E+00 0.75403094E+03</pdfrwt>
<pdfrwt beam="2">  1       -2 0.13757001E-01 0.75403094E+03</pdfrwt>
<totfact> 0.46453252E+02</totfact>
</mgrwt>
</event>
<event>
 4    1  0.9012200E-005  0.4966718E+03  0.7818608E-02  0.1014651E+00
         -2   -1    0    0    0  501 -0.00000000000E+00  0.00000000000E+00  0.25969739526E+02  0.25969739651E+02  0.25500000000E-02 0. -1.
          2   -1    0    0  501    0  0.00000000000E+00 -0.00000000000E+00 -0.23747143765E+04  0.23747143765E+04  0.25500000000E-02 0.  1.
    5000001    1    1    2    0    0 -0.12024200690E+03 -0.13290418454E+03 -0.14073897474E+04  0.14283180890E+04  0.16500000000E+03 0.  0.
   -5000001    1    1    2    0    0  0.12024200690E+03  0.13290418454E+03 -0.94135488959E+03  0.97236602709E+03  0.16500000000E+03 0.  0.
<mgrwt>
<rscale>  0 0.49667178E+03</rscale>
<asrwt>0</asrwt>
<pdfrwt beam="1">  1        2 0.36534050E+00 0.49667178E+03</pdfrwt>
<pdfrwt beam="2">  1       -2 0.39953464E-02 0.49667178E+03</pdfrwt>
<totfact> 0.12635161E+03</totfact>
</mgrwt>
</event>
<event>
 4    1  0.9012200E-005  0.3670270E+03  0.7818608E-02  0.1055836E+00
         -2   -1    0    0    0  501 -0.00000000000E+00  0.00000000000E+00  0.17999281612E+02  0.17999281793E+02  0.25500000000E-02 0. -1.
          2   -1    0    0  501    0  0.00000000000E+00 -0.00000000000E+00 -0.18710300709E+04  0.18710300709E+04  0.25500000000E-02 0.  1.
    5000001    1    1    2    0    0 -0.42723240205E+02  0.67230566243E+02 -0.87328276815E+03  0.89229648517E+03  0.16500000000E+03 0.  0.
   -5000001    1    1    2    0    0  0.42723240205E+02 -0.67230566243E+02 -0.97974802117E+03  0.99673286756E+03  0.16500000000E+03 0.  0.
<mgrwt>
<rscale>  0 0.36702696E+03</rscale>
<asrwt>0</asrwt>
<pdfrwt beam="1">  1        2 0.28785063E+00 0.36702696E+03</pdfrwt>
<pdfrwt beam="2">  1       -2 0.27691217E-02 0.36702696E+03</pdfrwt>
<totfact> 0.41412012E+03</totfact>
</mgrwt>
</event>
<event>
 4    1  0.9012200E-005  0.4456909E+03  0.7818608E-02  0.1029015E+00
         -2   -1    0    0    0  501 -0.00000000000E+00  0.00000000000E+00  0.55676123725E+02  0.55676123783E+02  0.25500000000E-02 0. -1.
          2   -1    0    0  501    0  0.00000000000E+00 -0.00000000000E+00 -0.89194594174E+03  0.89194594175E+03  0.25500000000E-02 0.  1.
    5000001    1    1    2    0    0 -0.87470644304E+02 -0.78298470324E+02 -0.61591975048E+03  0.64835476639E+03  0.16500000000E+03 0.  0.
   -5000001    1    1    2    0    0  0.87470644304E+02  0.78298470324E+02 -0.22035006754E+03  0.29926729914E+03  0.16500000000E+03 0.  0.
<mgrwt>
<rscale>  0 0.44569089E+03</rscale>
<asrwt>0</asrwt>
<pdfrwt beam="1">  1        2 0.13722244E+00 0.44569089E+03</pdfrwt>
<pdfrwt beam="2">  1       -2 0.85655582E-02 0.44569089E+03</pdfrwt>
<totfact> 0.26198860E+03</totfact>
</mgrwt>
</event>
<event>
 4    1  0.9012200E-005  0.4144076E+03  0.7818608E-02  0.1038902E+00
          2   -1    0    0  501    0  0.00000000000E+00  0.00000000000E+00  0.73918126485E+03  0.73918126486E+03  0.25500000000E-02 0.  1.
         -2   -1    0    0    0  501 -0.00000000000E+00 -0.00000000000E+00 -0.58082392192E+02  0.58082392248E+02  0.25500000000E-02 0. -1.
    5000001    1    1    2    0    0  0.11289157000E+03 -0.54432556037E+02  0.34247946315E+03  0.40028064206E+03  0.16500000000E+03 0.  0.
   -5000001    1    1    2    0    0 -0.11289157000E+03  0.54432556037E+02  0.33861940951E+03  0.39698301504E+03  0.16500000000E+03 0.  0.
<mgrwt>
<rscale>  0 0.41440761E+03</rscale>
<asrwt>0</asrwt>
<pdfrwt beam="1">  1        2 0.11372019E+00 0.41440761E+03</pdfrwt>
<pdfrwt beam="2">  1       -2 0.89357531E-02 0.41440761E+03</pdfrwt>
<totfact> 0.31295299E+03</totfact>
</mgrwt>
</event>
<event>
 4    1  0.9012200E-005  0.5556378E+03  0.7818608E-02  0.1000197E+00
         -2   -1    0    0    0  501 -0.00000000000E+00  0.00000000000E+00  0.89102781946E+02  0.89102781983E+02  0.25500000000E-02 0. -1.
          2   -1    0    0  501    0  0.00000000000E+00 -0.00000000000E+00 -0.86622810732E+03  0.86622810732E+03  0.25500000000E-02 0.  1.
    5000001    1    1    2    0    0  0.17882680893E+02 -0.21465418189E+03 -0.49117904552E+03  0.56113996724E+03  0.16500000000E+03 0.  0.
   -5000001    1    1    2    0    0 -0.17882680893E+02  0.21465418189E+03 -0.28594627986E+03  0.39419092207E+03  0.16500000000E+03 0.  0.
<mgrwt>
<rscale>  0 0.55563777E+03</rscale>
<asrwt>0</asrwt>
<pdfrwt beam="1">  1        2 0.13326586E+00 0.55563777E+03</pdfrwt>
<pdfrwt beam="2">  1       -2 0.13708121E-01 0.55563777E+03</pdfrwt>
<totfact> 0.12678661E+03</totfact>
</mgrwt>
</event>
<event>
 4    1  0.9012200E-005  0.3723029E+03  0.7818608E-02  0.1053816E+00
         -2   -1    0    0    0  501 -0.00000000000E+00  0.00000000000E+00  0.84691426463E+03  0.84691426464E+03  0.25500000000E-02 0. -1.
          2   -1    0    0  501    0  0.00000000000E+00 -0.00000000000E+00 -0.40916019148E+02  0.40916019228E+02  0.25500000000E-02 0.  1.
    5000001    1    1    2    0    0  0.85484606195E+02 -0.74230406056E+01  0.42217199461E+03  0.46132083463E+03  0.16500000000E+03 0.  0.
   -5000001    1    1    2    0    0 -0.85484606195E+02  0.74230406056E+01  0.38382625088E+03  0.42650944924E+03  0.16500000000E+03 0.  0.
<mgrwt>
<rscale>  0 0.37230289E+03</rscale>
<asrwt>0</asrwt>
<pdfrwt beam="1">  1        2 0.62947723E-02 0.37230289E+03</pdfrwt>
<pdfrwt beam="2">  1       -2 0.13029450E+00 0.37230289E+03</pdfrwt>
<totfact> 0.52858444E+02</totfact>
</mgrwt>
</event>
<event>
 4    1  0.9012200E-005  0.7351803E+03  0.7818608E-02  0.9658891E-01
          2   -1    0    0  501    0  0.00000000000E+00  0.00000000000E+00  0.99304411045E+03  0.99304411045E+03  0.25500000000E-02 0.  1.
         -2   -1    0    0    0  501 -0.00000000000E+00 -0.00000000000E+00 -0.13606900042E+03  0.13606900045E+03  0.25500000000E-02 0. -1.
    5000001    1    1    2    0    0  0.25888288849E+03  0.25988659583E+01  0.11799720027E+03  0.32890035471E+03  0.16500000000E+03 0.  0.
   -5000001    1    1    2    0    0 -0.25888288849E+03 -0.25988659583E+01  0.73897790976E+03  0.80021275619E+03  0.16500000000E+03 0.  0.
<mgrwt>
<rscale>  0 0.73518030E+03</rscale>
<asrwt>0</asrwt>
<pdfrwt beam="1">  1        2 0.15277601E+00 0.73518030E+03</pdfrwt>
<pdfrwt beam="2">  1       -2 0.20933693E-01 0.73518030E+03</pdfrwt>
<totfact> 0.50430257E+02</totfact>
</mgrwt>
</event>
<event>
 4    1  0.9012200E-005  0.1083745E+04  0.7818608E-02  0.9221182E-01
          2   -1    0    0  501    0  0.00000000000E+00  0.00000000000E+00  0.18001711643E+04  0.18001711643E+04  0.25500000000E-02 0.  1.
         -2   -1    0    0    0  501 -0.00000000000E+00 -0.00000000000E+00 -0.16310991362E+03  0.16310991364E+03  0.25500000000E-02 0. -1.
    5000001    1    1    2    0    0  0.25261065650E+03 -0.44423842107E+03  0.68738432389E+03  0.87228557667E+03  0.16500000000E+03 0.  0.
   -5000001    1    1    2    0    0 -0.25261065650E+03  0.44423842107E+03  0.94967692682E+03  0.10909955013E+04  0.16500000000E+03 0.  0.
<mgrwt>
<rscale>  0 0.10837449E+04</rscale>
<asrwt>0</asrwt>
<pdfrwt beam="1">  1        2 0.27694941E+00 0.10837449E+04</pdfrwt>
<pdfrwt beam="2">  1       -2 0.25093833E-01 0.10837449E+04</pdfrwt>
<totfact> 0.12224083E+02</totfact>
</mgrwt>
</event>
<event>
 4    1  0.9012200E-005  0.1266729E+04  0.7818608E-02  0.9056374E-01
         -2   -1    0    0    0  501 -0.00000000000E+00  0.00000000000E+00  0.42459664895E+03  0.42459664896E+03  0.25500000000E-02 0. -1.
          2   -1    0    0  501    0  0.00000000000E+00 -0.00000000000E+00 -0.94478039871E+03  0.94478039871E+03  0.25500000000E-02 0.  1.
    5000001    1    1    2    0    0 -0.21800181176E+03 -0.36044618973E+03 -0.73927088042E+03  0.86671372452E+03  0.16500000000E+03 0.  0.
   -5000001    1    1    2    0    0  0.21800181176E+03  0.36044618973E+03  0.21908713067E+03  0.50266332315E+03  0.16500000000E+03 0.  0.
<mgrwt>
<rscale>  0 0.12667290E+04</rscale>
<asrwt>0</asrwt>
<pdfrwt beam="1">  1        2 0.14535083E+00 0.12667290E+04</pdfrwt>
<pdfrwt beam="2">  1       -2 0.65322562E-01 0.12667290E+04</pdfrwt>
<totfact> 0.58085044E+01</totfact>
</mgrwt>
</event>
<event>
 4    1  0.9012200E-005  0.7945070E+03  0.7818608E-02  0.9568002E-01
          2   -1    0    0  501    0  0.00000000000E+00  0.00000000000E+00  0.66068507159E+03  0.66068507160E+03  0.25500000000E-02 0.  1.
         -2   -1    0    0    0  501 -0.00000000000E+00 -0.00000000000E+00 -0.23885864481E+03  0.23885864482E+03  0.25500000000E-02 0. -1.
    5000001    1    1    2    0    0 -0.13733628529E+03  0.27002744460E+03 -0.12131665958E+02  0.34517858192E+03  0.16500000000E+03 0.  0.
   -5000001    1    1    2    0    0  0.13733628529E+03 -0.27002744460E+03  0.43395809274E+03  0.55436513450E+03  0.16500000000E+03 0.  0.
<mgrwt>
<rscale>  0 0.79450699E+03</rscale>
<asrwt>0</asrwt>
<pdfrwt beam="1">  1        2 0.10164385E+00 0.79450699E+03</pdfrwt>
<pdfrwt beam="2">  1       -2 0.36747485E-01 0.79450699E+03</pdfrwt>
<totfact> 0.30905619E+02</totfact>
</mgrwt>
</event>
<event>
 4    1  0.9012200E-005  0.3715896E+03  0.7818608E-02  0.1054087E+00
         -2   -1    0    0    0  501 -0.00000000000E+00  0.00000000000E+00  0.22378516356E+02  0.22378516501E+02  0.25500000000E-02 0. -1.
          2   -1    0    0  501    0  0.00000000000E+00 -0.00000000000E+00 -0.15425378344E+04  0.15425378344E+04  0.25500000000E-02 0.  1.
    5000001    1    1    2    0    0  0.75044014649E+02  0.23969213534E+02 -0.89902946258E+03  0.91743397687E+03  0.16500000000E+03 0.  0.
   -5000001    1    1    2    0    0 -0.75044014649E+02 -0.23969213534E+02 -0.62112985545E+03  0.64748237402E+03  0.16500000000E+03 0.  0.
<mgrwt>
<rscale>  0 0.37158960E+03</rscale>
<asrwt>0</asrwt>
<pdfrwt beam="1">  1        2 0.23731343E+00 0.37158960E+03</pdfrwt>
<pdfrwt beam="2">  1       -2 0.34428499E-02 0.37158960E+03</pdfrwt>
<totfact> 0.44694849E+03</totfact>
</mgrwt>
</event>
<event>
 4    1  0.9012200E-005  0.5137310E+03  0.7818608E-02  0.1010256E+00
         -2   -1    0    0    0  501 -0.00000000000E+00  0.00000000000E+00  0.78907528475E+02  0.78907528516E+02  0.25500000000E-02 0. -1.
          2   -1    0    0  501    0  0.00000000000E+00 -0.00000000000E+00 -0.83616721260E+03  0.83616721260E+03  0.25500000000E-02 0.  1.
    5000001    1    1    2    0    0 -0.15536336704E+03  0.10308547335E+03 -0.26610865444E+03  0.36442174277E+03  0.16500000000E+03 0.  0.
   -5000001    1    1    2    0    0  0.15536336704E+03 -0.10308547335E+03 -0.49115102968E+03  0.55065299835E+03  0.16500000000E+03 0.  0.
<mgrwt>
<rscale>  0 0.51373101E+03</rscale>
<asrwt>0</asrwt>
<pdfrwt beam="1">  1        2 0.12864110E+00 0.51373101E+03</pdfrwt>
<pdfrwt beam="2">  1       -2 0.12139620E-01 0.51373101E+03</pdfrwt>
<totfact> 0.16264031E+03</totfact>
</mgrwt>
</event>
<event>
 4    1  0.9012200E-005  0.5528916E+03  0.7818608E-02  0.1000827E+00
         -2   -1    0    0    0  501 -0.00000000000E+00  0.00000000000E+00  0.46755958832E+02  0.46755958901E+02  0.25500000000E-02 0. -1.
          2   -1    0    0  501    0  0.00000000000E+00 -0.00000000000E+00 -0.16344929998E+04  0.16344929998E+04  0.25500000000E-02 0.  1.
    5000001    1    1    2    0    0 -0.17505139998E+03  0.12780098461E+03 -0.65055533194E+03  0.70528244287E+03  0.16500000000E+03 0.  0.
   -5000001    1    1    2    0    0  0.17505139998E+03 -0.12780098461E+03 -0.93718170907E+03  0.97596651588E+03  0.16500000000E+03 0.  0.
<mgrwt>
<rscale>  0 0.55289163E+03</rscale>
<asrwt>0</asrwt>
<pdfrwt beam="1">  1        2 0.25146042E+00 0.55289163E+03</pdfrwt>
<pdfrwt beam="2">  1       -2 0.71932257E-02 0.55289163E+03</pdfrwt>
<totfact> 0.12726459E+03</totfact>
</mgrwt>
</event>
<event>
 4    1  0.9012200E-005  0.3648866E+03  0.7818608E-02  0.1056666E+00
          2   -1    0    0  501    0  0.00000000000E+00  0.00000000000E+00  0.16239454656E+04  0.16239454656E+04  0.25500000000E-02 0.  1.
         -2   -1    0    0    0  501 -0.00000000000E+00 -0.00000000000E+00 -0.20496718080E+02  0.20496718239E+02  0.25500000000E-02 0. -1.
    5000001    1    1    2    0    0  0.34211378098E+02  0.52440087292E+02  0.59323448230E+03  0.61892853557E+03  0.16500000000E+03 0.  0.
   -5000001    1    1    2    0    0 -0.34211378098E+02 -0.52440087292E+02  0.10102142652E+04  0.10255136482E+04  0.16500000000E+03 0.  0.
<mgrwt>
<rscale>  0 0.36488657E+03</rscale>
<asrwt>0</asrwt>
<pdfrwt beam="1">  1        2 0.24983788E+00 0.36488657E+03</pdfrwt>
<pdfrwt beam="2">  1       -2 0.31533398E-02 0.36488657E+03</pdfrwt>
<totfact> 0.46129410E+03</totfact>
</mgrwt>
</event>
<event>
 4    1  0.9012200E-005  0.5138883E+03  0.7818608E-02  0.1010216E+00
         -2   -1    0    0    0  501 -0.00000000000E+00  0.00000000000E+00  0.18761953322E+03  0.18761953323E+03  0.25500000000E-02 0. -1.
          2   -1    0    0  501    0  0.00000000000E+00 -0.00000000000E+00 -0.35188392071E+03  0.35188392072E+03  0.25500000000E-02 0.  1.
    5000001    1    1    2    0    0 -0.61257804177E+02  0.15923529707E+03  0.21195770430E+02  0.23829112256E+03  0.16500000000E+03 0.  0.
   -5000001    1    1    2    0    0  0.61257804177E+02 -0.15923529707E+03 -0.18546015792E+03  0.30121233140E+03  0.16500000000E+03 0.  0.
<mgrwt>
<rscale>  0 0.51388830E+03</rscale>
<asrwt>0</asrwt>
<pdfrwt beam="1">  1        2 0.54135988E-01 0.51388830E+03</pdfrwt>
<pdfrwt beam="2">  1       -2 0.28864544E-01 0.51388830E+03</pdfrwt>
<totfact> 0.10135023E+03</totfact>
</mgrwt>
</event>
<event>
 4    1  0.9012200E-005  0.1327650E+04  0.7818608E-02  0.9007922E-01
          2   -1    0    0  501    0  0.00000000000E+00  0.00000000000E+00  0.24912167021E+04  0.24912167021E+04  0.25500000000E-02 0.  1.
         -2   -1    0    0    0  501 -0.00000000000E+00 -0.00000000000E+00 -0.17688684126E+03  0.17688684128E+03  0.25500000000E-02 0. -1.
    5000001    1    1    2    0    0 -0.21450273388E+03  0.36726224678E+03  0.21262750120E+04  0.21746639757E+04  0.16500000000E+03 0.  0.
   -5000001    1    1    2    0    0  0.21450273388E+03 -0.36726224678E+03  0.18805484886E+03  0.49343956766E+03  0.16500000000E+03 0.  0.
<mgrwt>
<rscale>  0 0.13276497E+04</rscale>
<asrwt>0</asrwt>
<pdfrwt beam="1">  1        2 0.38326409E+00 0.13276497E+04</pdfrwt>
<pdfrwt beam="2">  1       -2 0.27213362E-01 0.13276497E+04</pdfrwt>
<totfact> 0.42519635E+01</totfact>
</mgrwt>
</event>
<event>
 4    1  0.9012200E-005  0.4042530E+03  0.7818608E-02  0.1042317E+00
         -2   -1    0    0    0  501 -0.00000000000E+00  0.00000000000E+00  0.13599352592E+03  0.13599352594E+03  0.25500000000E-02 0. -1.
          2   -1    0    0  501    0  0.00000000000E+00 -0.00000000000E+00 -0.30041964303E+03  0.30041964304E+03  0.25500000000E-02 0.  1.
    5000001    1    1    2    0    0 -0.11399136466E+03 -0.22462789588E+02 -0.94593547723E+02  0.22287114529E+03  0.16500000000E+03 0.  0.
   -5000001    1    1    2    0    0  0.11399136466E+03  0.22462789588E+02 -0.69832569393E+02  0.21354202369E+03  0.16500000000E+03 0.  0.
<mgrwt>
<rscale>  0 0.40425302E+03</rscale>
<asrwt>0</asrwt>
<pdfrwt beam="1">  1        2 0.46218406E-01 0.40425302E+03</pdfrwt>
<pdfrwt beam="2">  1       -2 0.20922081E-01 0.40425302E+03</pdfrwt>
<totfact> 0.21363563E+03</totfact>
</mgrwt>
</event>
<event>
 4    1  0.9012200E-005  0.8595657E+03  0.7818608E-02  0.9477587E-01
         -2   -1    0    0    0  501 -0.00000000000E+00  0.00000000000E+00  0.60073762326E+03  0.60073762327E+03  0.25500000000E-02 0. -1.
          2   -1    0    0  501    0  0.00000000000E+00 -0.00000000000E+00 -0.30747745935E+03  0.30747745936E+03  0.25500000000E-02 0.  1.
    5000001    1    1    2    0    0  0.67301858800E+01 -0.37577824508E+03  0.12007373390E+02  0.41063823725E+03  0.16500000000E+03 0.  0.
   -5000001    1    1    2    0    0 -0.67301858800E+01  0.37577824508E+03  0.28125279052E+03  0.49757684538E+03  0.16500000000E+03 0.  0.
<mgrwt>
<rscale>  0 0.85956565E+03</rscale>
<asrwt>0</asrwt>
<pdfrwt beam="1">  1        2 0.47304225E-01 0.85956565E+03</pdfrwt>
<pdfrwt beam="2">  1       -2 0.92421172E-01 0.85956565E+03</pdfrwt>
<totfact> 0.10670780E+02</totfact>
</mgrwt>
</event>
<event>
 4    1  0.9012200E-005  0.3637886E+03  0.7818608E-02  0.1057094E+00
         -2   -1    0    0    0  501 -0.00000000000E+00  0.00000000000E+00  0.14707360861E+02  0.14707361082E+02  0.25500000000E-02 0. -1.
          2   -1    0    0  501    0  0.00000000000E+00 -0.00000000000E+00 -0.22495903618E+04  0.22495903618E+04  0.25500000000E-02 0.  1.
    5000001    1    1    2    0    0 -0.20768019880E+02 -0.67487018125E+02 -0.13015277102E+04  0.13138436698E+04  0.16500000000E+03 0.  0.
   -5000001    1    1    2    0    0  0.20768019880E+02  0.67487018125E+02 -0.93335529074E+03  0.95045405308E+03  0.16500000000E+03 0.  0.
<mgrwt>
<rscale>  0 0.36378861E+03</rscale>
<asrwt>0</asrwt>
<pdfrwt beam="1">  1        2 0.34609055E+00 0.36378861E+03</pdfrwt>
<pdfrwt beam="2">  1       -2 0.22626727E-02 0.36378861E+03</pdfrwt>
<totfact> 0.35157049E+03</totfact>
</mgrwt>
</event>
<event>
 4    1  0.9012200E-005  0.4282683E+03  0.7818608E-02  0.1034408E+00
          2   -1    0    0  501    0  0.00000000000E+00  0.00000000000E+00  0.37887515959E+02  0.37887516044E+02  0.25500000000E-02 0.  1.
         -2   -1    0    0    0  501 -0.00000000000E+00 -0.00000000000E+00 -0.12102516376E+04  0.12102516376E+04  0.25500000000E-02 0. -1.
    5000001    1    1    2    0    0  0.99801649099E+02 -0.13148068606E+02 -0.31756500311E+03  0.37176036915E+03  0.16500000000E+03 0.  0.
   -5000001    1    1    2    0    0 -0.99801649099E+02  0.13148068606E+02 -0.85479911849E+03  0.87637878446E+03  0.16500000000E+03 0.  0.
<mgrwt>
<rscale>  0 0.42826827E+03</rscale>
<asrwt>0</asrwt>
<pdfrwt beam="1">  1        2 0.58288495E-02 0.42826827E+03</pdfrwt>
<pdfrwt beam="2">  1       -2 0.18619253E+00 0.42826827E+03</pdfrwt>
<totfact> 0.22681233E+02</totfact>
</mgrwt>
</event>
<event>
 4    1  0.9012200E-005  0.5069906E+03  0.7818608E-02  0.1011970E+00
         -2   -1    0    0    0  501 -0.00000000000E+00  0.00000000000E+00  0.85583315138E+02  0.85583315176E+02  0.25500000000E-02 0.  1.
          2   -1    0    0  501    0  0.00000000000E+00 -0.00000000000E+00 -0.75084561896E+03  0.75084561897E+03  0.25500000000E-02 0. -1.
    5000001    1    1    2    0    0 -0.16442286180E+03 -0.98554475735E+02 -0.30468214409E+03  0.39598493797E+03  0.16500000000E+03 0.  0.
   -5000001    1    1    2    0    0  0.16442286180E+03  0.98554475735E+02 -0.36058015973E+03  0.44044399617E+03  0.16500000000E+03 0.  0.
<mgrwt>
<rscale>  0 0.50699056E+03</rscale>
<asrwt>0</asrwt>
<pdfrwt beam="1">  1        2 0.11551471E+00 0.50699056E+03</pdfrwt>
<pdfrwt beam="2">  1       -2 0.13166664E-01 0.50699056E+03</pdfrwt>
<totfact> 0.16366638E+03</totfact>
</mgrwt>
</event>
<event>
 4    1  0.9012200E-005  0.4651116E+03  0.7818608E-02  0.1023309E+00
         -2   -1    0    0    0  501 -0.00000000000E+00  0.00000000000E+00  0.24207570909E+02  0.24207571044E+02  0.25500000000E-02 0. -1.
          2   -1    0    0  501    0  0.00000000000E+00 -0.00000000000E+00 -0.22341024502E+04  0.22341024502E+04  0.25500000000E-02 0.  1.
    5000001    1    1    2    0    0 -0.11256321470E+03 -0.98711147692E+02 -0.78131201550E+03  0.81245789647E+03  0.16500000000E+03 0.  0.
   -5000001    1    1    2    0    0  0.11256321470E+03  0.98711147692E+02 -0.14285828638E+04  0.14458521247E+04  0.16500000000E+03 0.  0.
<mgrwt>
<rscale>  0 0.46511157E+03</rscale>
<asrwt>0</asrwt>
<pdfrwt beam="1">  1        2 0.34370791E+00 0.46511157E+03</pdfrwt>
<pdfrwt beam="2">  1       -2 0.37242435E-02 0.46511157E+03</pdfrwt>
<totfact> 0.16833615E+03</totfact>
</mgrwt>
</event>
<event>
 4    1  0.9012200E-005  0.4072837E+03  0.7818608E-02  0.1041286E+00
          2   -1    0    0  501    0  0.00000000000E+00  0.00000000000E+00  0.19064753557E+04  0.19064753557E+04  0.25500000000E-02 0.  1.
         -2   -1    0    0    0  501 -0.00000000000E+00 -0.00000000000E+00 -0.21752188121E+02  0.21752188271E+02  0.25500000000E-02 0. -1.
    5000001    1    1    2    0    0 -0.94897024127E+02  0.50561579548E+02  0.11875946411E+04  0.12038139184E+04  0.16500000000E+03 0.  0.
   -5000001    1    1    2    0    0  0.94897024127E+02 -0.50561579548E+02  0.69712852648E+03  0.72441362559E+03  0.16500000000E+03 0.  0.
<mgrwt>
<rscale>  0 0.40728374E+03</rscale>
<asrwt>0</asrwt>
<pdfrwt beam="1">  1        2 0.29330390E+00 0.40728374E+03</pdfrwt>
<pdfrwt beam="2">  1       -2 0.33464904E-02 0.40728374E+03</pdfrwt>
<totfact> 0.29788366E+03</totfact>
</mgrwt>
</event>
<event>
 4    1  0.9012200E-005  0.5205380E+03  0.7818608E-02  0.1008553E+00
         -2   -1    0    0    0  501 -0.00000000000E+00  0.00000000000E+00  0.32495796459E+03  0.32495796460E+03  0.25500000000E-02 0. -1.
          2   -1    0    0  501    0  0.00000000000E+00 -0.00000000000E+00 -0.20845761321E+03  0.20845761323E+03  0.25500000000E-02 0.  1.
    5000001    1    1    2    0    0  0.19366460245E+03 -0.54837159076E+02  0.59651275841E+02  0.26701379546E+03  0.16500000000E+03 0.  0.
   -5000001    1    1    2    0    0 -0.19366460245E+03  0.54837159076E+02  0.56849075535E+02  0.26640178237E+03  0.16500000000E+03 0.  0.
<mgrwt>
<rscale>  0 0.52053804E+03</rscale>
<asrwt>0</asrwt>
<pdfrwt beam="1">  1        2 0.32070402E-01 0.52053804E+03</pdfrwt>
<pdfrwt beam="2">  1       -2 0.49993533E-01 0.52053804E+03</pdfrwt>
<totfact> 0.62881840E+02</totfact>
</mgrwt>
</event>
<event>
 4    1  0.9012200E-005  0.3714641E+03  0.7818608E-02  0.1054135E+00
         -2   -1    0    0    0  501 -0.00000000000E+00  0.00000000000E+00  0.37910906925E+02  0.37910907011E+02  0.25500000000E-02 0. -1.
          2   -1    0    0  501    0  0.00000000000E+00 -0.00000000000E+00 -0.90993318771E+03  0.90993318772E+03  0.25500000000E-02 0.  1.
    5000001    1    1    2    0    0  0.94699852521E+01 -0.33992099793E+02 -0.23792978094E+03  0.29168600263E+03  0.16500000000E+03 0.  0.
   -5000001    1    1    2    0    0 -0.94699852521E+01  0.33992099793E+02 -0.63409249984E+03  0.65615809210E+03  0.16500000000E+03 0.  0.
<mgrwt>
<rscale>  0 0.37146409E+03</rscale>
<asrwt>0</asrwt>
<pdfrwt beam="1">  1        2 0.13998970E+00 0.37146409E+03</pdfrwt>
<pdfrwt beam="2">  1       -2 0.58324479E-02 0.37146409E+03</pdfrwt>
<totfact> 0.46492609E+03</totfact>
</mgrwt>
</event>
<event>
 4    1  0.9012200E-005  0.8514506E+03  0.7818608E-02  0.9488392E-01
         -2   -1    0    0    0  501 -0.00000000000E+00  0.00000000000E+00  0.10136319225E+03  0.10136319228E+03  0.25500000000E-02 0. -1.
          2   -1    0    0  501    0  0.00000000000E+00 -0.00000000000E+00 -0.17880456920E+04  0.17880456920E+04  0.25500000000E-02 0.  1.
    5000001    1    1    2    0    0 -0.55164952658E+02  0.38775981560E+03 -0.78825823256E+03  0.89553162300E+03  0.16500000000E+03 0.  0.
   -5000001    1    1    2    0    0  0.55164952658E+02 -0.38775981560E+03 -0.89842426718E+03  0.99387726126E+03  0.16500000000E+03 0.  0.
<mgrwt>
<rscale>  0 0.85145057E+03</rscale>
<asrwt>0</asrwt>
<pdfrwt beam="1">  1        2 0.27508393E+00 0.85145057E+03</pdfrwt>
<pdfrwt beam="2">  1       -2 0.15594339E-01 0.85145057E+03</pdfrwt>
<totfact> 0.29065992E+02</totfact>
</mgrwt>
</event>
<event>
 4    1  0.9012200E-005  0.3808200E+03  0.7818608E-02  0.1050631E+00
          2   -1    0    0  501    0  0.00000000000E+00  0.00000000000E+00  0.24641339722E+04  0.24641339722E+04  0.25500000000E-02 0.  1.
         -2   -1    0    0    0  501 -0.00000000000E+00 -0.00000000000E+00 -0.14713473625E+02  0.14713473846E+02  0.25500000000E-02 0. -1.
    5000001    1    1    2    0    0  0.86370679297E+02  0.60153500743E+01  0.14797271250E+04  0.14914132369E+04  0.16500000000E+03 0.  0.
   -5000001    1    1    2    0    0 -0.86370679297E+02 -0.60153500743E+01  0.96969337355E+03  0.98743420914E+03  0.16500000000E+03 0.  0.
<mgrwt>
<rscale>  0 0.38082001E+03</rscale>
<asrwt>0</asrwt>
<pdfrwt beam="1">  1        2 0.37909740E+00 0.38082001E+03</pdfrwt>
<pdfrwt beam="2">  1       -2 0.22636121E-02 0.38082001E+03</pdfrwt>
<totfact> 0.26809573E+03</totfact>
</mgrwt>
</event>
<event>
 4    1  0.9012200E-005  0.4383867E+03  0.7818608E-02  0.1031243E+00
         -2   -1    0    0    0  501 -0.00000000000E+00  0.00000000000E+00  0.27055055702E+02  0.27055055823E+02  0.25500000000E-02 0. -1.
          2   -1    0    0  501    0  0.00000000000E+00 -0.00000000000E+00 -0.17758500425E+04  0.17758500425E+04  0.25500000000E-02 0.  1.
    5000001    1    1    2    0    0  0.13506895649E+02 -0.11672226296E+03 -0.52996465399E+03  0.56735708101E+03  0.16500000000E+03 0.  0.
   -5000001    1    1    2    0    0 -0.13506895649E+02  0.11672226296E+03 -0.12188303328E+04  0.12355480173E+04  0.16500000000E+03 0.  0.
<mgrwt>
<rscale>  0 0.43838669E+03</rscale>
<asrwt>0</asrwt>
<pdfrwt beam="1">  1        2 0.27320761E+00 0.43838669E+03</pdfrwt>
<pdfrwt beam="2">  1       -2 0.41623177E-02 0.43838669E+03</pdfrwt>
<totfact> 0.25084418E+03</totfact>
</mgrwt>
</event>
<event>
 4    1  0.9012200E-005  0.4688432E+03  0.7818608E-02  0.1022247E+00
         -2   -1    0    0    0  501 -0.00000000000E+00  0.00000000000E+00  0.41816720161E+03  0.41816720161E+03  0.25500000000E-02 0. -1.
          2   -1    0    0  501    0  0.00000000000E+00 -0.00000000000E+00 -0.13141510391E+03  0.13141510393E+03  0.25500000000E-02 0.  1.
    5000001    1    1    2    0    0 -0.13688589651E+03  0.94728819311E+02  0.14823589669E+03  0.27732684497E+03  0.16500000000E+03 0.  0.
   -5000001    1    1    2    0    0  0.13688589651E+03 -0.94728819311E+02  0.13851620101E+03  0.27225546058E+03  0.16500000000E+03 0.  0.
<mgrwt>
<rscale>  0 0.46884320E+03</rscale>
<asrwt>0</asrwt>
<pdfrwt beam="1">  1        2 0.20217708E-01 0.46884320E+03</pdfrwt>
<pdfrwt beam="2">  1       -2 0.64333417E-01 0.46884320E+03</pdfrwt>
<totfact> 0.63021352E+02</totfact>
</mgrwt>
</event>
<event>
 4    1  0.9012200E-005  0.4929848E+03  0.7818608E-02  0.1015626E+00
          2   -1    0    0  501    0  0.00000000000E+00  0.00000000000E+00  0.27160043051E+04  0.27160043051E+04  0.25500000000E-02 0.  1.
         -2   -1    0    0    0  501 -0.00000000000E+00 -0.00000000000E+00 -0.22370551878E+02  0.22370552024E+02  0.25500000000E-02 0. -1.
    5000001    1    1    2    0    0 -0.92772859011E+02  0.68458774130E+02  0.21370691283E+04  0.21465280959E+04  0.16500000000E+03 0.  0.
   -5000001    1    1    2    0    0  0.92772859011E+02 -0.68458774130E+02  0.55656462496E+03  0.59184676131E+03  0.16500000000E+03 0.  0.
<mgrwt>
<rscale>  0 0.49298485E+03</rscale>
<asrwt>0</asrwt>
<pdfrwt beam="1">  1        2 0.41784692E+00 0.49298485E+03</pdfrwt>
<pdfrwt beam="2">  1       -2 0.34416226E-02 0.49298485E+03</pdfrwt>
<totfact> 0.10193669E+03</totfact>
</mgrwt>
</event>
<event>
 4    1  0.9012200E-005  0.5513878E+03  0.7818608E-02  0.1001173E+00
          2   -1    0    0  501    0  0.00000000000E+00  0.00000000000E+00  0.11845592853E+04  0.11845592853E+04  0.25500000000E-02 0.  1.
         -2   -1    0    0    0  501 -0.00000000000E+00 -0.00000000000E+00 -0.64164902422E+02  0.64164902473E+02  0.25500000000E-02 0. -1.
    5000001    1    1    2    0    0  0.20945221323E+03 -0.26543419585E+02  0.41329996759E+03  0.49256131188E+03  0.16500000000E+03 0.  0.
   -5000001    1    1    2    0    0 -0.20945221323E+03  0.26543419585E+02  0.70709441527E+03  0.75616287588E+03  0.16500000000E+03 0.  0.
<mgrwt>
<rscale>  0 0.55138782E+03</rscale>
<asrwt>0</asrwt>
<pdfrwt beam="1">  1        2 0.18223989E+00 0.55138782E+03</pdfrwt>
<pdfrwt beam="2">  1       -2 0.98715232E-02 0.55138782E+03</pdfrwt>
<totfact> 0.13720331E+03</totfact>
</mgrwt>
</event>
<event>
 4    1  0.9012200E-005  0.4722785E+03  0.7818608E-02  0.1021279E+00
         -2   -1    0    0    0  501 -0.00000000000E+00  0.00000000000E+00  0.23930883865E+02  0.23930884001E+02  0.25500000000E-02 0. -1.
          2   -1    0    0  501    0  0.00000000000E+00 -0.00000000000E+00 -0.23301162546E+04  0.23301162546E+04  0.25500000000E-02 0.  1.
    5000001    1    1    2    0    0 -0.66095579236E+02 -0.43700088641E+02 -0.18967350864E+04  0.19055464600E+04  0.16500000000E+03 0.  0.
   -5000001    1    1    2    0    0  0.66095579236E+02  0.43700088641E+02 -0.40945028435E+03  0.44850067859E+03  0.16500000000E+03 0.  0.
<mgrwt>
<rscale>  0 0.47227848E+03</rscale>
<asrwt>0</asrwt>
<pdfrwt beam="1">  1        2 0.35847924E+00 0.47227848E+03</pdfrwt>
<pdfrwt beam="2">  1       -2 0.36816763E-02 0.47227848E+03</pdfrwt>
<totfact> 0.15174774E+03</totfact>
</mgrwt>
</event>
<event>
 4    1  0.9012200E-005  0.4810743E+03  0.7818608E-02  0.1018840E+00
         -2   -1    0    0    0  501 -0.00000000000E+00  0.00000000000E+00  0.31669277597E+03  0.31669277598E+03  0.25500000000E-02 0. -1.
          2   -1    0    0  501    0  0.00000000000E+00 -0.00000000000E+00 -0.18269477222E+03  0.18269477224E+03  0.25500000000E-02 0.  1.
    5000001    1    1    2    0    0 -0.10079990920E+03 -0.13612142230E+03  0.21236221425E+02  0.23741449072E+03  0.16500000000E+03 0.  0.
   -5000001    1    1    2    0    0  0.10079990920E+03  0.13612142230E+03  0.11276178233E+03  0.26197305750E+03  0.16500000000E+03 0.  0.
<mgrwt>
<rscale>  0 0.48107428E+03</rscale>
<asrwt>0</asrwt>
<pdfrwt beam="1">  1        2 0.28106888E-01 0.48107428E+03</pdfrwt>
<pdfrwt beam="2">  1       -2 0.48721965E-01 0.48107428E+03</pdfrwt>
<totfact> 0.76786919E+02</totfact>
</mgrwt>
</event>
<event>
 4    1  0.9012200E-005  0.6949919E+03  0.7818608E-02  0.9725835E-01
          2   -1    0    0  501    0  0.00000000000E+00  0.00000000000E+00  0.19593788908E+04  0.19593788908E+04  0.25500000000E-02 0.  1.
         -2   -1    0    0    0  501 -0.00000000000E+00 -0.00000000000E+00 -0.61628433352E+02  0.61628433405E+02  0.25500000000E-02 0. -1.
    5000001    1    1    2    0    0 -0.18014293122E+03 -0.15015963414E+03  0.37807738692E+03  0.47451754646E+03  0.16500000000E+03 0.  0.
   -5000001    1    1    2    0    0  0.18014293122E+03  0.15015963414E+03  0.15196730705E+04  0.15464897777E+04  0.16500000000E+03 0.  0.
<mgrwt>
<rscale>  0 0.69499195E+03</rscale>
<asrwt>0</asrwt>
<pdfrwt beam="1">  1        2 0.30144286E+00 0.69499195E+03</pdfrwt>
<pdfrwt beam="2">  1       -2 0.94812988E-02 0.69499195E+03</pdfrwt>
<totfact> 0.54065843E+02</totfact>
</mgrwt>
</event>
<event>
 4    1  0.9012200E-005  0.6661177E+03  0.7818608E-02  0.9776997E-01
         -2   -1    0    0    0  501 -0.00000000000E+00  0.00000000000E+00  0.22888631841E+03  0.22888631843E+03  0.25500000000E-02 0. -1.
          2   -1    0    0  501    0  0.00000000000E+00 -0.00000000000E+00 -0.48464320972E+03  0.48464320973E+03  0.25500000000E-02 0.  1.
    5000001    1    1    2    0    0 -0.34484625019E+01  0.13983625254E+03  0.14340027889E+03  0.25952785863E+03  0.16500000000E+03 0.  0.
   -5000001    1    1    2    0    0  0.34484625019E+01 -0.13983625254E+03 -0.39915717020E+03  0.45400166953E+03  0.16500000000E+03 0.  0.
<mgrwt>
<rscale>  0 0.66611771E+03</rscale>
<asrwt>0</asrwt>
<pdfrwt beam="1">  1        2 0.74560493E-01 0.66611771E+03</pdfrwt>
<pdfrwt beam="2">  1       -2 0.35213280E-01 0.66611771E+03</pdfrwt>
<totfact> 0.48700064E+02</totfact>
</mgrwt>
</event>
<event>
 4    1  0.9012200E-005  0.5088794E+03  0.7818608E-02  0.1011487E+00
         -2   -1    0    0    0  501 -0.00000000000E+00  0.00000000000E+00  0.18228217014E+03  0.18228217015E+03  0.25500000000E-02 0. -1.
          2   -1    0    0  501    0  0.00000000000E+00 -0.00000000000E+00 -0.35516120368E+03  0.35516120369E+03  0.25500000000E-02 0.  1.
    5000001    1    1    2    0    0  0.64873174304E+02  0.17091546776E+03 -0.15401482276E+03  0.29045858826E+03  0.16500000000E+03 0.  0.
   -5000001    1    1    2    0    0 -0.64873174304E+02 -0.17091546776E+03 -0.18864210789E+02  0.24698478559E+03  0.16500000000E+03 0.  0.
<mgrwt>
<rscale>  0 0.50887938E+03</rscale>
<asrwt>0</asrwt>
<pdfrwt beam="1">  1        2 0.54640185E-01 0.50887938E+03</pdfrwt>
<pdfrwt beam="2">  1       -2 0.28043411E-01 0.50887938E+03</pdfrwt>
<totfact> 0.10574987E+03</totfact>
</mgrwt>
</event>
<event>
 4    1  0.9012200E-005  0.5382761E+03  0.7818608E-02  0.1004245E+00
         -2   -1    0    0    0  501 -0.00000000000E+00  0.00000000000E+00  0.71744612042E+02  0.71744612088E+02  0.25500000000E-02 0. -1.
          2   -1    0    0  501    0  0.00000000000E+00 -0.00000000000E+00 -0.10096267489E+04  0.10096267489E+04  0.25500000000E-02 0.  1.
    5000001    1    1    2    0    0  0.77976873554E+02  0.14878384290E+03 -0.73082453531E+03  0.76781933170E+03  0.16500000000E+03 0.  0.
   -5000001    1    1    2    0    0 -0.77976873554E+02 -0.14878384290E+03 -0.20705760156E+03  0.31355202930E+03  0.16500000000E+03 0.  0.
<mgrwt>
<rscale>  0 0.53827606E+03</rscale>
<asrwt>0</asrwt>
<pdfrwt beam="1">  1        2 0.15532718E+00 0.53827606E+03</pdfrwt>
<pdfrwt beam="2">  1       -2 0.11037633E-01 0.53827606E+03</pdfrwt>
<totfact> 0.14615016E+03</totfact>
</mgrwt>
</event>
<event>
 4    1  0.9012200E-005  0.6496688E+03  0.7818608E-02  0.9807401E-01
         -2   -1    0    0    0  501 -0.00000000000E+00  0.00000000000E+00  0.52672812315E+02  0.52672812377E+02  0.25500000000E-02 0. -1.
          2   -1    0    0  501    0  0.00000000000E+00 -0.00000000000E+00 -0.20032610262E+04  0.20032610262E+04  0.25500000000E-02 0.  1.
    5000001    1    1    2    0    0  0.12315274597E+03  0.23796874633E+03 -0.12303659301E+04  0.12699689150E+04  0.16500000000E+03 0.  0.
   -5000001    1    1    2    0    0 -0.12315274597E+03 -0.23796874633E+03 -0.72022228383E+03  0.78596492364E+03  0.16500000000E+03 0.  0.
<mgrwt>
<rscale>  0 0.64966881E+03</rscale>
<asrwt>0</asrwt>
<pdfrwt beam="1">  1        2 0.30819395E+00 0.64966881E+03</pdfrwt>
<pdfrwt beam="2">  1       -2 0.81035111E-02 0.64966881E+03</pdfrwt>
<totfact> 0.66092129E+02</totfact>
</mgrwt>
</event>
<event>
 4    1  0.9012200E-005  0.4150628E+03  0.7818608E-02  0.1038685E+00
          2   -1    0    0  501    0  0.00000000000E+00  0.00000000000E+00  0.10905618071E+04  0.10905618072E+04  0.25500000000E-02 0.  1.
         -2   -1    0    0    0  501 -0.00000000000E+00 -0.00000000000E+00 -0.39492749260E+02  0.39492749342E+02  0.25500000000E-02 0. -1.
    5000001    1    1    2    0    0  0.73935436859E+02  0.94833378749E+02  0.42423051397E+03  0.47080393747E+03  0.16500000000E+03 0.  0.
   -5000001    1    1    2    0    0 -0.73935436859E+02 -0.94833378749E+02  0.62683854392E+03  0.65925061903E+03  0.16500000000E+03 0.  0.
<mgrwt>
<rscale>  0 0.41506281E+03</rscale>
<asrwt>0</asrwt>
<pdfrwt beam="1">  1        2 0.16777870E+00 0.41506281E+03</pdfrwt>
<pdfrwt beam="2">  1       -2 0.60758091E-02 0.41506281E+03</pdfrwt>
<totfact> 0.33705397E+03</totfact>
</mgrwt>
</event>
<event>
 4    1  0.9012200E-005  0.4908653E+03  0.7818608E-02  0.1016191E+00
         -2   -1    0    0    0  501 -0.00000000000E+00  0.00000000000E+00  0.10556634749E+03  0.10556634752E+03  0.25500000000E-02 0. -1.
          2   -1    0    0  501    0  0.00000000000E+00 -0.00000000000E+00 -0.57060981463E+03  0.57060981463E+03  0.25500000000E-02 0.  1.
    5000001    1    1    2    0    0  0.56226831008E+02 -0.34535884041E+02 -0.46571741864E+03  0.49846955558E+03  0.16500000000E+03 0.  0.
   -5000001    1    1    2    0    0 -0.56226831008E+02  0.34535884041E+02  0.67395150775E+00  0.17770660658E+03  0.16500000000E+03 0.  0.
<mgrwt>
<rscale>  0 0.49086533E+03</rscale>
<asrwt>0</asrwt>
<pdfrwt beam="1">  1        2 0.87786124E-01 0.49086533E+03</pdfrwt>
<pdfrwt beam="2">  1       -2 0.16240977E-01 0.49086533E+03</pdfrwt>
<totfact> 0.16108138E+03</totfact>
</mgrwt>
</event>
<event>
 4    1  0.9012200E-005  0.3740463E+03  0.7818608E-02  0.1053156E+00
          2   -1    0    0  501    0  0.00000000000E+00  0.00000000000E+00  0.20470679926E+04  0.20470679926E+04  0.25500000000E-02 0.  1.
         -2   -1    0    0    0  501 -0.00000000000E+00 -0.00000000000E+00 -0.17086706991E+02  0.17086707182E+02  0.25500000000E-02 0. -1.
    5000001    1    1    2    0    0 -0.76693653492E+02  0.29473153424E+02  0.11896796214E+04  0.12038742396E+04  0.16500000000E+03 0.  0.
   -5000001    1    1    2    0    0  0.76693653492E+02 -0.29473153424E+02  0.84030166422E+03  0.86028046017E+03  0.16500000000E+03 0.  0.
<mgrwt>
<rscale>  0 0.37404626E+03</rscale>
<asrwt>0</asrwt>
<pdfrwt beam="1">  1        2 0.31493354E+00 0.37404626E+03</pdfrwt>
<pdfrwt beam="2">  1       -2 0.26287242E-02 0.37404626E+03</pdfrwt>
<totfact> 0.36078046E+03</totfact>
</mgrwt>
</event>
<event>
 4    1  0.9012200E-005  0.5201681E+03  0.7818608E-02  0.1008645E+00
         -2   -1    0    0    0  501 -0.00000000000E+00  0.00000000000E+00  0.21032926532E+03  0.21032926533E+03  0.25500000000E-02 0. -1.
          2   -1    0    0  501    0  0.00000000000E+00 -0.00000000000E+00 -0.32160868349E+03  0.32160868350E+03  0.25500000000E-02 0.  1.
    5000001    1    1    2    0    0 -0.16645438198E+02 -0.20004059907E+03 -0.67091589582E+02  0.26836466474E+03  0.16500000000E+03 0.  0.
   -5000001    1    1    2    0    0  0.16645438198E+02  0.20004059907E+03 -0.44187828589E+02  0.26357328409E+03  0.16500000000E+03 0.  0.
<mgrwt>
<rscale>  0 0.52016812E+03</rscale>
<asrwt>0</asrwt>
<pdfrwt beam="1">  1        2 0.49478259E-01 0.52016812E+03</pdfrwt>
<pdfrwt beam="2">  1       -2 0.32358349E-01 0.52016812E+03</pdfrwt>
<totfact> 0.90610935E+02</totfact>
</mgrwt>
</event>
<event>
 4    1  0.9012200E-005  0.4978249E+03  0.7818608E-02  0.1014348E+00
         -2   -1    0    0    0  501 -0.00000000000E+00  0.00000000000E+00  0.70256299979E+02  0.70256300025E+02  0.25500000000E-02 0. -1.
          2   -1    0    0  501    0  0.00000000000E+00 -0.00000000000E+00 -0.88187674699E+03  0.88187674699E+03  0.25500000000E-02 0.  1.
    5000001    1    1    2    0    0 -0.64749402816E+02 -0.11488532705E+03 -0.15394885556E+03  0.26137401108E+03  0.16500000000E+03 0.  0.
   -5000001    1    1    2    0    0  0.64749402816E+02  0.11488532705E+03 -0.65767159144E+03  0.69075903594E+03  0.16500000000E+03 0.  0.
<mgrwt>
<rscale>  0 0.49782486E+03</rscale>
<asrwt>0</asrwt>
<pdfrwt beam="1">  1        2 0.13567334E+00 0.49782486E+03</pdfrwt>
<pdfrwt beam="2">  1       -2 0.10808662E-01 0.49782486E+03</pdfrwt>
<totfact> 0.18305732E+03</totfact>
</mgrwt>
</event>
<event>
 4    1  0.9012200E-005  0.3985924E+03  0.7818608E-02  0.1044268E+00
          2   -1    0    0  501    0  0.00000000000E+00  0.00000000000E+00  0.90753797768E+02  0.90753797804E+02  0.25500000000E-02 0.  1.
         -2   -1    0    0    0  501 -0.00000000000E+00 -0.00000000000E+00 -0.43765631710E+03  0.43765631711E+03  0.25500000000E-02 0. -1.
    5000001    1    1    2    0    0 -0.10432049072E+03  0.29037890852E+02 -0.21019008627E+03  0.28832418604E+03  0.16500000000E+03 0.  0.
   -5000001    1    1    2    0    0  0.10432049072E+03 -0.29037890852E+02 -0.13671243306E+03  0.24008592887E+03  0.16500000000E+03 0.  0.
<mgrwt>
<rscale>  0 0.39859239E+03</rscale>
<asrwt>0</asrwt>
<pdfrwt beam="1">  1        2 0.13962123E-01 0.39859239E+03</pdfrwt>
<pdfrwt beam="2">  1       -2 0.67331740E-01 0.39859239E+03</pdfrwt>
<totfact> 0.88680111E+02</totfact>
</mgrwt>
</event>
<event>
 4    1  0.9012200E-005  0.4115250E+03  0.7818608E-02  0.1039860E+00
          2   -1    0    0  501    0  0.00000000000E+00  0.00000000000E+00  0.54770166618E+03  0.54770166619E+03  0.25500000000E-02 0.  1.
         -2   -1    0    0    0  501 -0.00000000000E+00 -0.00000000000E+00 -0.77301575815E+02  0.77301575857E+02  0.25500000000E-02 0. -1.
    5000001    1    1    2    0    0  0.29632735744E+02  0.10772857833E+03  0.31308177014E+03  0.37111822969E+03  0.16500000000E+03 0.  0.
   -5000001    1    1    2    0    0 -0.29632735744E+02 -0.10772857833E+03  0.15731832023E+03  0.25388501235E+03  0.16500000000E+03 0.  0.
<mgrwt>
<rscale>  0 0.41152498E+03</rscale>
<asrwt>0</asrwt>
<pdfrwt beam="1">  1        2 0.84261794E-01 0.41152498E+03</pdfrwt>
<pdfrwt beam="2">  1       -2 0.11892550E-01 0.41152498E+03</pdfrwt>
<totfact> 0.28312740E+03</totfact>
</mgrwt>
</event>
<event>
 4    1  0.9012200E-005  0.6047279E+03  0.7818608E-02  0.9895646E-01
          2   -1    0    0  501    0  0.00000000000E+00  0.00000000000E+00  0.22959822449E+04  0.22959822449E+04  0.25500000000E-02 0.  1.
         -2   -1    0    0    0  501 -0.00000000000E+00 -0.00000000000E+00 -0.39819099942E+02  0.39819100024E+02  0.25500000000E-02 0. -1.
    5000001    1    1    2    0    0  0.17798699236E+03 -0.16310805814E+03  0.14251563131E+04  0.14548467702E+04  0.16500000000E+03 0.  0.
   -5000001    1    1    2    0    0 -0.17798699236E+03  0.16310805814E+03  0.83100683184E+03  0.88095457468E+03  0.16500000000E+03 0.  0.
<mgrwt>
<rscale>  0 0.60472786E+03</rscale>
<asrwt>0</asrwt>
<pdfrwt beam="1">  1        2 0.35322791E+00 0.60472786E+03</pdfrwt>
<pdfrwt beam="2">  1       -2 0.61260176E-02 0.60472786E+03</pdfrwt>
<totfact> 0.71436434E+02</totfact>
</mgrwt>
</event>
<event>
 4    1  0.9012200E-005  0.5194158E+03  0.7818608E-02  0.1008832E+00
          2   -1    0    0  501    0  0.00000000000E+00  0.00000000000E+00  0.27603782178E+03  0.27603782179E+03  0.25500000000E-02 0.  1.
         -2   -1    0    0    0  501 -0.00000000000E+00 -0.00000000000E+00 -0.24434403780E+03  0.24434403782E+03  0.25500000000E-02 0. -1.
    5000001    1    1    2    0    0 -0.11716787365E+03 -0.10430099971E+03  0.14104405328E+03  0.26781604531E+03  0.16500000000E+03 0.  0.
   -5000001    1    1    2    0    0  0.11716787365E+03  0.10430099971E+03 -0.10935026930E+03  0.25256581430E+03  0.16500000000E+03 0.  0.
<mgrwt>
<rscale>  0 0.51941581E+03</rscale>
<asrwt>0</asrwt>
<pdfrwt beam="1">  1        2 0.42467357E-01 0.51941581E+03</pdfrwt>
<pdfrwt beam="2">  1       -2 0.37591390E-01 0.51941581E+03</pdfrwt>
<totfact> 0.80749009E+02</totfact>
</mgrwt>
</event>
<event>
 4    1  0.9012200E-005  0.4927538E+03  0.7818608E-02  0.1015688E+00
         -2   -1    0    0    0  501 -0.00000000000E+00  0.00000000000E+00  0.32203498052E+02  0.32203498153E+02  0.25500000000E-02 0.  1.
          2   -1    0    0  501    0  0.00000000000E+00 -0.00000000000E+00 -0.18849377317E+04  0.18849377317E+04  0.25500000000E-02 0. -1.
    5000001    1    1    2    0    0  0.49000013905E+02 -0.17554162942E+03 -0.86354474986E+03  0.89785878624E+03  0.16500000000E+03 0.  0.
   -5000001    1    1    2    0    0 -0.49000013905E+02  0.17554162942E+03 -0.98918948378E+03  0.10192824436E+04  0.16500000000E+03 0.  0.
<mgrwt>
<rscale>  0 0.49275385E+03</rscale>
<asrwt>0</asrwt>
<pdfrwt beam="1">  1        2 0.28999033E+00 0.49275385E+03</pdfrwt>
<pdfrwt beam="2">  1       -2 0.49543858E-02 0.49275385E+03</pdfrwt>
<totfact> 0.16738739E+03</totfact>
</mgrwt>
</event>
<event>
 4    1  0.9012200E-005  0.7238931E+03  0.7818608E-02  0.9677222E-01
         -2   -1    0    0    0  501 -0.00000000000E+00  0.00000000000E+00  0.12476512765E+03  0.12476512767E+03  0.25500000000E-02 0. -1.
          2   -1    0    0  501    0  0.00000000000E+00 -0.00000000000E+00 -0.10500152961E+04  0.10500152961E+04  0.25500000000E-02 0.  1.
    5000001    1    1    2    0    0 -0.16026338570E+03 -0.25214832873E+03 -0.65815945867E+03  0.74139193785E+03  0.16500000000E+03 0.  0.
   -5000001    1    1    2    0    0  0.16026338570E+03  0.25214832873E+03 -0.26709070979E+03  0.43338848592E+03  0.16500000000E+03 0.  0.
<mgrwt>
<rscale>  0 0.72389307E+03</rscale>
<asrwt>0</asrwt>
<pdfrwt beam="1">  1        2 0.16154081E+00 0.72389307E+03</pdfrwt>
<pdfrwt beam="2">  1       -2 0.19194636E-01 0.72389307E+03</pdfrwt>
<totfact> 0.54054752E+02</totfact>
</mgrwt>
</event>
<event>
 4    1  0.9012200E-005  0.4068069E+03  0.7818608E-02  0.1041448E+00
          2   -1    0    0  501    0  0.00000000000E+00  0.00000000000E+00  0.23246867114E+03  0.23246867115E+03  0.25500000000E-02 0. -1.
         -2   -1    0    0    0  501 -0.00000000000E+00 -0.00000000000E+00 -0.17797218037E+03  0.17797218038E+03  0.25500000000E-02 0.  1.
    5000001    1    1    2    0    0 -0.10654919089E+03  0.36491951216E+02  0.65846540368E+02  0.21034533382E+03  0.16500000000E+03 0.  0.
   -5000001    1    1    2    0    0  0.10654919089E+03 -0.36491951216E+02 -0.11350049594E+02  0.20009551771E+03  0.16500000000E+03 0.  0.
<mgrwt>
<rscale>  0 0.40680686E+03</rscale>
<asrwt>0</asrwt>
<pdfrwt beam="1">  1        2 0.35764411E-01 0.40680686E+03</pdfrwt>
<pdfrwt beam="2">  1       -2 0.27380336E-01 0.40680686E+03</pdfrwt>
<totfact> 0.17564584E+03</totfact>
</mgrwt>
</event>
<event>
 4    1  0.9012200E-005  0.5681199E+03  0.7818608E-02  0.9973848E-01
          2   -1    0    0  501    0  0.00000000000E+00  0.00000000000E+00  0.10908838982E+04  0.10908838982E+04  0.25500000000E-02 0.  1.
         -2   -1    0    0    0  501 -0.00000000000E+00 -0.00000000000E+00 -0.73967584993E+02  0.73967585037E+02  0.25500000000E-02 0. -1.
    5000001    1    1    2    0    0 -0.12671130316E+03 -0.58020441879E+02  0.88676481677E+03  0.91268777043E+03  0.16500000000E+03 0.  0.
   -5000001    1    1    2    0    0  0.12671130316E+03  0.58020441879E+02  0.13015149640E+03  0.25216371277E+03  0.16500000000E+03 0.  0.
<mgrwt>
<rscale>  0 0.56811987E+03</rscale>
<asrwt>0</asrwt>
<pdfrwt beam="1">  1        2 0.16782830E+00 0.56811987E+03</pdfrwt>
<pdfrwt beam="2">  1       -2 0.11379628E-01 0.56811987E+03</pdfrwt>
<totfact> 0.12378945E+03</totfact>
</mgrwt>
</event>
<event>
 4    1  0.9012200E-005  0.6770170E+03  0.7818608E-02  0.9757364E-01
          2   -1    0    0  501    0  0.00000000000E+00  0.00000000000E+00  0.18473167376E+03  0.18473167378E+03  0.25500000000E-02 0.  1.
         -2   -1    0    0    0  501 -0.00000000000E+00 -0.00000000000E+00 -0.62029435871E+03  0.62029435872E+03  0.25500000000E-02 0. -1.
    5000001    1    1    2    0    0 -0.56097704278E+02 -0.18035671466E+03 -0.48811689855E+03  0.54877919385E+03  0.16500000000E+03 0.  0.
   -5000001    1    1    2    0    0  0.56097704278E+02  0.18035671466E+03  0.52554213608E+02  0.25624683865E+03  0.16500000000E+03 0.  0.
<mgrwt>
<rscale>  0 0.67701703E+03</rscale>
<asrwt>0</asrwt>
<pdfrwt beam="1">  1        2 0.28420258E-01 0.67701703E+03</pdfrwt>
<pdfrwt beam="2">  1       -2 0.95429900E-01 0.67701703E+03</pdfrwt>
<totfact> 0.17639363E+02</totfact>
</mgrwt>
</event>
<event>
 4    1  0.9012200E-005  0.6784389E+03  0.7818608E-02  0.9754832E-01
          2   -1    0    0  501    0  0.00000000000E+00  0.00000000000E+00  0.21570444890E+04  0.21570444890E+04  0.25500000000E-02 0.  1.
         -2   -1    0    0    0  501 -0.00000000000E+00 -0.00000000000E+00 -0.53346070716E+02  0.53346070777E+02  0.25500000000E-02 0. -1.
    5000001    1    1    2    0    0  0.22133064840E+03  0.43378025612E+02  0.16783445666E+04  0.17014506732E+04  0.16500000000E+03 0.  0.
   -5000001    1    1    2    0    0 -0.22133064840E+03 -0.43378025612E+02  0.42535385168E+03  0.50893988660E+03  0.16500000000E+03 0.  0.
<mgrwt>
<rscale>  0 0.67843894E+03</rscale>
<asrwt>0</asrwt>
<pdfrwt beam="1">  1        2 0.33185309E+00 0.67843894E+03</pdfrwt>
<pdfrwt beam="2">  1       -2 0.82070856E-02 0.67843894E+03</pdfrwt>
<totfact> 0.53276606E+02</totfact>
</mgrwt>
</event>
<event>
 4    1  0.9012200E-005  0.4740701E+03  0.7818608E-02  0.1020778E+00
          2   -1    0    0  501    0  0.00000000000E+00  0.00000000000E+00  0.40569265009E+03  0.40569265010E+03  0.25500000000E-02 0.  1.
         -2   -1    0    0    0  501 -0.00000000000E+00 -0.00000000000E+00 -0.13849305668E+03  0.13849305671E+03  0.25500000000E-02 0. -1.
    5000001    1    1    2    0    0  0.16063923699E+03  0.36268233018E+02  0.84356755500E+02  0.24791412099E+03  0.16500000000E+03 0.  0.
   -5000001    1    1    2    0    0 -0.16063923699E+03 -0.36268233018E+02  0.18284283791E+03  0.29627158582E+03  0.16500000000E+03 0.  0.
<mgrwt>
<rscale>  0 0.47407010E+03</rscale>
<asrwt>0</asrwt>
<pdfrwt beam="1">  1        2 0.62414253E-01 0.47407010E+03</pdfrwt>
<pdfrwt beam="2">  1       -2 0.21306624E-01 0.47407010E+03</pdfrwt>
<totfact> 0.14896431E+03</totfact>
</mgrwt>
</event>
<event>
 4    1  0.9012200E-005  0.4700723E+03  0.7818608E-02  0.1021900E+00
         -2   -1    0    0    0  501 -0.00000000000E+00  0.00000000000E+00  0.58977919458E+03  0.58977919458E+03  0.25500000000E-02 0. -1.
          2   -1    0    0  501    0  0.00000000000E+00 -0.00000000000E+00 -0.93665559145E+02  0.93665559180E+02  0.25500000000E-02 0.  1.
    5000001    1    1    2    0    0  0.14223718115E+03 -0.53434253538E+02  0.35014563502E+03  0.41582881198E+03  0.16500000000E+03 0.  0.
   -5000001    1    1    2    0    0 -0.14223718115E+03  0.53434253538E+02  0.14596800042E+03  0.26761594179E+03  0.16500000000E+03 0.  0.
<mgrwt>
<rscale>  0 0.47007233E+03</rscale>
<asrwt>0</asrwt>
<pdfrwt beam="1">  1        2 0.14410086E-01 0.47007233E+03</pdfrwt>
<pdfrwt beam="2">  1       -2 0.90735259E-01 0.47007233E+03</pdfrwt>
<totfact> 0.44093062E+02</totfact>
</mgrwt>
</event>
<event>
 4    1  0.9012200E-005  0.3778711E+03  0.7818608E-02  0.1051723E+00
          2   -1    0    0  501    0  0.00000000000E+00  0.00000000000E+00  0.59049591452E+03  0.59049591453E+03  0.25500000000E-02 0.  1.
         -2   -1    0    0    0  501 -0.00000000000E+00 -0.00000000000E+00 -0.60451979759E+02  0.60451979813E+02  0.25500000000E-02 0. -1.
    5000001    1    1    2    0    0  0.21971184786E+02 -0.76407775810E+02  0.18513074029E+03  0.26042133585E+03  0.16500000000E+03 0.  0.
   -5000001    1    1    2    0    0 -0.21971184786E+02  0.76407775810E+02  0.34491319448E+03  0.39052655849E+03  0.16500000000E+03 0.  0.
<mgrwt>
<rscale>  0 0.37787113E+03</rscale>
<asrwt>0</asrwt>
<pdfrwt beam="1">  1        2 0.90845528E-01 0.37787113E+03</pdfrwt>
<pdfrwt beam="2">  1       -2 0.93003043E-02 0.37787113E+03</pdfrwt>
<totfact> 0.38504447E+03</totfact>
</mgrwt>
</event>
<event>
 4    1  0.9012200E-005  0.5038146E+03  0.7818608E-02  0.1012788E+00
          2   -1    0    0  501    0  0.00000000000E+00  0.00000000000E+00  0.27040864969E+03  0.27040864970E+03  0.25500000000E-02 0.  1.
         -2   -1    0    0    0  501 -0.00000000000E+00 -0.00000000000E+00 -0.23467184764E+03  0.23467184765E+03  0.25500000000E-02 0. -1.
    5000001    1    1    2    0    0  0.26730731323E+02  0.10747329738E+03  0.17307099416E+03  0.26352155636E+03  0.16500000000E+03 0.  0.
   -5000001    1    1    2    0    0 -0.26730731323E+02 -0.10747329738E+03 -0.13733419212E+03  0.24155894099E+03  0.16500000000E+03 0.  0.
<mgrwt>
<rscale>  0 0.50381464E+03</rscale>
<asrwt>0</asrwt>
<pdfrwt beam="1">  1        2 0.41601331E-01 0.50381464E+03</pdfrwt>
<pdfrwt beam="2">  1       -2 0.36103361E-01 0.50381464E+03</pdfrwt>
<totfact> 0.89220947E+02</totfact>
</mgrwt>
</event>
<event>
 4    1  0.9012200E-005  0.4211124E+03  0.7818608E-02  0.1036705E+00
         -2   -1    0    0    0  501 -0.00000000000E+00  0.00000000000E+00  0.24925667832E+02  0.24925667963E+02  0.25500000000E-02 0. -1.
          2   -1    0    0  501    0  0.00000000000E+00 -0.00000000000E+00 -0.17786445415E+04  0.17786445415E+04  0.25500000000E-02 0.  1.
    5000001    1    1    2    0    0  0.11094812893E+03 -0.68560784389E+02 -0.91943787814E+03  0.94318666245E+03  0.16500000000E+03 0.  0.
   -5000001    1    1    2    0    0 -0.11094812893E+03  0.68560784389E+02 -0.83428099552E+03  0.86038354700E+03  0.16500000000E+03 0.  0.
<mgrwt>
<rscale>  0 0.42111235E+03</rscale>
<asrwt>0</asrwt>
<pdfrwt beam="1">  1        2 0.27363752E+00 0.42111235E+03</pdfrwt>
<pdfrwt beam="2">  1       -2 0.38347195E-02 0.42111235E+03</pdfrwt>
<totfact> 0.28340285E+03</totfact>
</mgrwt>
</event>
<event>
 4    1  0.9012200E-005  0.4768422E+03  0.7818608E-02  0.1020007E+00
          2   -1    0    0  501    0  0.00000000000E+00  0.00000000000E+00  0.74228516390E+03  0.74228516391E+03  0.25500000000E-02 0.  1.
         -2   -1    0    0    0  501 -0.00000000000E+00 -0.00000000000E+00 -0.76580585923E+02  0.76580585965E+02  0.25500000000E-02 0. -1.
    5000001    1    1    2    0    0  0.16213480328E+03 -0.57715758394E+02  0.33128816869E+03  0.40816130870E+03  0.16500000000E+03 0.  0.
   -5000001    1    1    2    0    0 -0.16213480328E+03  0.57715758394E+02  0.33441640929E+03  0.41070444118E+03  0.16500000000E+03 0.  0.
<mgrwt>
<rscale>  0 0.47684225E+03</rscale>
<asrwt>0</asrwt>
<pdfrwt beam="1">  1        2 0.11419772E+00 0.47684225E+03</pdfrwt>
<pdfrwt beam="2">  1       -2 0.11781628E-01 0.47684225E+03</pdfrwt>
<totfact> 0.19940087E+03</totfact>
</mgrwt>
</event>
<event>
 4    1  0.9012200E-005  0.5073609E+03  0.7818608E-02  0.1011875E+00
         -2   -1    0    0    0  501 -0.00000000000E+00  0.00000000000E+00  0.12868610819E+03  0.12868610822E+03  0.25500000000E-02 0. -1.
          2   -1    0    0  501    0  0.00000000000E+00 -0.00000000000E+00 -0.50008319658E+03  0.50008319659E+03  0.25500000000E-02 0.  1.
    5000001    1    1    2    0    0  0.79462886146E+02  0.10592267461E+03 -0.35917668428E+03  0.41685351600E+03  0.16500000000E+03 0.  0.
   -5000001    1    1    2    0    0 -0.79462886146E+02 -0.10592267461E+03 -0.12220404115E+02  0.21191578881E+03  0.16500000000E+03 0.  0.
<mgrwt>
<rscale>  0 0.50736086E+03</rscale>
<asrwt>0</asrwt>
<pdfrwt beam="1">  1        2 0.76935875E-01 0.50736086E+03</pdfrwt>
<pdfrwt beam="2">  1       -2 0.19797863E-01 0.50736086E+03</pdfrwt>
<totfact> 0.13374419E+03</totfact>
</mgrwt>
</event>
<event>
 4    1  0.9012200E-005  0.4969844E+03  0.7818608E-02  0.1014569E+00
          2   -1    0    0  501    0  0.00000000000E+00  0.00000000000E+00  0.44531856759E+03  0.44531856760E+03  0.25500000000E-02 0.  1.
         -2   -1    0    0    0  501 -0.00000000000E+00 -0.00000000000E+00 -0.13866111820E+03  0.13866111822E+03  0.25500000000E-02 0. -1.
    5000001    1    1    2    0    0  0.68389423829E+02 -0.14545913097E+03  0.43803951601E+02  0.23447656226E+03  0.16500000000E+03 0.  0.
   -5000001    1    1    2    0    0 -0.68389423829E+02  0.14545913097E+03  0.26285349779E+03  0.34950312356E+03  0.16500000000E+03 0.  0.
<mgrwt>
<rscale>  0 0.49698439E+03</rscale>
<asrwt>0</asrwt>
<pdfrwt beam="1">  1        2 0.68510549E-01 0.49698439E+03</pdfrwt>
<pdfrwt beam="2">  1       -2 0.21332480E-01 0.49698439E+03</pdfrwt>
<totfact> 0.13395963E+03</totfact>
</mgrwt>
</event>
<event>
 4    1  0.9012200E-005  0.8555919E+03  0.7818608E-02  0.9482862E-01
         -2   -1    0    0    0  501 -0.00000000000E+00  0.00000000000E+00  0.14994602240E+03  0.14994602242E+03  0.25500000000E-02 0. -1.
          2   -1    0    0  501    0  0.00000000000E+00 -0.00000000000E+00 -0.12205016863E+04  0.12205016863E+04  0.25500000000E-02 0.  1.
    5000001    1    1    2    0    0  0.21991223473E+03  0.12280123864E+03 -0.10220182553E+04  0.10654519461E+04  0.16500000000E+03 0.  0.
   -5000001    1    1    2    0    0 -0.21991223473E+03 -0.12280123864E+03 -0.48537408572E+02  0.30499576263E+03  0.16500000000E+03 0.  0.
<mgrwt>
<rscale>  0 0.85559190E+03</rscale>
<asrwt>0</asrwt>
<pdfrwt beam="1">  1        2 0.18776948E+00 0.85559190E+03</pdfrwt>
<pdfrwt beam="2">  1       -2 0.23068620E-01 0.85559190E+03</pdfrwt>
<totfact> 0.30627214E+02</totfact>
</mgrwt>
</event>
<event>
 4    1  0.9012200E-005  0.4781552E+03  0.7818608E-02  0.1019643E+00
          2   -1    0    0  501    0  0.00000000000E+00  0.00000000000E+00  0.95819457649E+03  0.95819457650E+03  0.25500000000E-02 0.  1.
         -2   -1    0    0    0  501 -0.00000000000E+00 -0.00000000000E+00 -0.59651878700E+02  0.59651878754E+02  0.25500000000E-02 0. -1.
    5000001    1    1    2    0    0  0.16485716725E+03  0.47986860377E+02  0.49455215608E+03  0.54889658356E+03  0.16500000000E+03 0.  0.
   -5000001    1    1    2    0    0 -0.16485716725E+03 -0.47986860377E+02  0.40399054172E+03  0.46894987169E+03  0.16500000000E+03 0.  0.
<mgrwt>
<rscale>  0 0.47815523E+03</rscale>
<asrwt>0</asrwt>
<pdfrwt beam="1">  1        2 0.14741455E+00 0.47815523E+03</pdfrwt>
<pdfrwt beam="2">  1       -2 0.91772118E-02 0.47815523E+03</pdfrwt>
<totfact> 0.21247879E+03</totfact>
</mgrwt>
</event>
<event>
 4    1  0.9012200E-005  0.5264826E+03  0.7818608E-02  0.1007089E+00
         -2   -1    0    0    0  501 -0.00000000000E+00  0.00000000000E+00  0.18009772487E+03  0.18009772488E+03  0.25500000000E-02 0. -1.
          2   -1    0    0  501    0  0.00000000000E+00 -0.00000000000E+00 -0.38476878942E+03  0.38476878943E+03  0.25500000000E-02 0.  1.
    5000001    1    1    2    0    0 -0.14706010116E+03  0.89630046852E+02 -0.22186117224E+03  0.32574161294E+03  0.16500000000E+03 0.  0.
   -5000001    1    1    2    0    0  0.14706010116E+03 -0.89630046852E+02  0.17190107688E+02  0.23912490137E+03  0.16500000000E+03 0.  0.
<mgrwt>
<rscale>  0 0.52648261E+03</rscale>
<asrwt>0</asrwt>
<pdfrwt beam="1">  1        2 0.59195198E-01 0.52648261E+03</pdfrwt>
<pdfrwt beam="2">  1       -2 0.27707342E-01 0.52648261E+03</pdfrwt>
<totfact> 0.98918450E+02</totfact>
</mgrwt>
</event>
<event>
 4    1  0.9012200E-005  0.4180924E+03  0.7818608E-02  0.1037689E+00
         -2   -1    0    0    0  501 -0.00000000000E+00  0.00000000000E+00  0.25858078929E+02  0.25858079055E+02  0.25500000000E-02 0.  1.
          2   -1    0    0  501    0  0.00000000000E+00 -0.00000000000E+00 -0.16900060515E+04  0.16900060515E+04  0.25500000000E-02 0. -1.
    5000001    1    1    2    0    0 -0.41990117214E+02  0.64351282248E+02 -0.41011547037E+03  0.44869138225E+03  0.16500000000E+03 0.  0.
   -5000001    1    1    2    0    0  0.41990117214E+02 -0.64351282248E+02 -0.12540325022E+04  0.12671727483E+04  0.16500000000E+03 0.  0.
<mgrwt>
<rscale>  0 0.41809238E+03</rscale>
<asrwt>0</asrwt>
<pdfrwt beam="1">  1        2 0.26000084E+00 0.41809238E+03</pdfrwt>
<pdfrwt beam="2">  1       -2 0.39781673E-02 0.41809238E+03</pdfrwt>
<totfact> 0.29895444E+03</totfact>
</mgrwt>
</event>
<event>
 4    1  0.9012200E-005  0.4874997E+03  0.7818608E-02  0.1017094E+00
         -2   -1    0    0    0  501 -0.00000000000E+00  0.00000000000E+00  0.24187088582E+02  0.24187088717E+02  0.25500000000E-02 0. -1.
          2   -1    0    0  501    0  0.00000000000E+00 -0.00000000000E+00 -0.24564341971E+04  0.24564341971E+04  0.25500000000E-02 0.  1.
    5000001    1    1    2    0    0 -0.35682711925E+02  0.17458232105E+03 -0.13224648708E+04  0.13445782154E+04  0.16500000000E+03 0.  0.
   -5000001    1    1    2    0    0  0.35682711925E+02 -0.17458232105E+03 -0.11097822377E+04  0.11360430705E+04  0.16500000000E+03 0.  0.
<mgrwt>
<rscale>  0 0.48749971E+03</rscale>
<asrwt>0</asrwt>
<pdfrwt beam="1">  1        2 0.37791276E+00 0.48749971E+03</pdfrwt>
<pdfrwt beam="2">  1       -2 0.37210925E-02 0.48749971E+03</pdfrwt>
<totfact> 0.12699177E+03</totfact>
</mgrwt>
</event>
<event>
 4    1  0.9012200E-005  0.1006752E+04  0.7818608E-02  0.9301170E-01
         -2   -1    0    0    0  501 -0.00000000000E+00  0.00000000000E+00  0.48305879243E+03  0.48305879244E+03  0.25500000000E-02 0. -1.
          2   -1    0    0  501    0  0.00000000000E+00 -0.00000000000E+00 -0.52454769524E+03  0.52454769525E+03  0.25500000000E-02 0.  1.
    5000001    1    1    2    0    0 -0.15772517641E+03 -0.39515140333E+03  0.19189885639E+03  0.49504750672E+03  0.16500000000E+03 0.  0.
   -5000001    1    1    2    0    0  0.15772517641E+03  0.39515140333E+03 -0.23338775920E+03  0.51255898097E+03  0.16500000000E+03 0.  0.
<mgrwt>
<rscale>  0 0.10067520E+04</rscale>
<asrwt>0</asrwt>
<pdfrwt beam="1">  1        2 0.80699646E-01 0.10067520E+04</pdfrwt>
<pdfrwt beam="2">  1       -2 0.74316737E-01 0.10067520E+04</pdfrwt>
<totfact> 0.94761158E+01</totfact>
</mgrwt>
</event>
<event>
 4    1  0.9012200E-005  0.5817555E+03  0.7818608E-02  0.9943998E-01
          2   -1    0    0  501    0  0.00000000000E+00  0.00000000000E+00  0.50294267251E+03  0.50294267252E+03  0.25500000000E-02 0.  1.
         -2   -1    0    0    0  501 -0.00000000000E+00 -0.00000000000E+00 -0.16822961842E+03  0.16822961844E+03  0.25500000000E-02 0. -1.
    5000001    1    1    2    0    0 -0.67359498392E+02 -0.16097110558E+03 -0.21990693037E+02  0.24115884689E+03  0.16500000000E+03 0.  0.
   -5000001    1    1    2    0    0  0.67359498392E+02  0.16097110558E+03  0.35670374713E+03  0.43001344406E+03  0.16500000000E+03 0.  0.
<mgrwt>
<rscale>  0 0.58175546E+03</rscale>
<asrwt>0</asrwt>
<pdfrwt beam="1">  1        2 0.77375794E-01 0.58175546E+03</pdfrwt>
<pdfrwt beam="2">  1       -2 0.25881480E-01 0.58175546E+03</pdfrwt>
<totfact> 0.82678338E+02</totfact>
</mgrwt>
</event>
<event>
 4    1  0.9012200E-005  0.9182222E+03  0.7818608E-02  0.9403085E-01
         -2   -1    0    0    0  501 -0.00000000000E+00  0.00000000000E+00  0.48761302900E+03  0.48761302900E+03  0.25500000000E-02 0. -1.
          2   -1    0    0  501    0  0.00000000000E+00 -0.00000000000E+00 -0.43227511756E+03  0.43227511757E+03  0.25500000000E-02 0.  1.
    5000001    1    1    2    0    0  0.14625129688E+03  0.31204872329E+03  0.28267771328E+03  0.47528469061E+03  0.16500000000E+03 0.  0.
   -5000001    1    1    2    0    0 -0.14625129688E+03 -0.31204872329E+03 -0.22733980185E+03  0.44460345596E+03  0.16500000000E+03 0.  0.
<mgrwt>
<rscale>  0 0.91822215E+03</rscale>
<asrwt>0</asrwt>
<pdfrwt beam="1">  1        2 0.66503865E-01 0.91822215E+03</pdfrwt>
<pdfrwt beam="2">  1       -2 0.75017389E-01 0.91822215E+03</pdfrwt>
<totfact> 0.11658671E+02</totfact>
</mgrwt>
</event>
<event>
 4    1  0.9012200E-005  0.1124933E+04  0.7818608E-02  0.9181226E-01
          2   -1    0    0  501    0  0.00000000000E+00  0.00000000000E+00  0.50418882726E+03  0.50418882727E+03  0.25500000000E-02 0.  1.
         -2   -1    0    0    0  501 -0.00000000000E+00 -0.00000000000E+00 -0.62748030430E+03  0.62748030430E+03  0.25500000000E-02 0. -1.
    5000001    1    1    2    0    0  0.29535393753E+03  0.40012843950E+03 -0.26733731132E+03  0.58824395835E+03  0.16500000000E+03 0.  0.
   -5000001    1    1    2    0    0 -0.29535393753E+03 -0.40012843950E+03  0.14404583428E+03  0.54342517322E+03  0.16500000000E+03 0.  0.
<mgrwt>
<rscale>  0 0.11249330E+04</rscale>
<asrwt>0</asrwt>
<pdfrwt beam="1">  1        2 0.77567512E-01 0.11249330E+04</pdfrwt>
<pdfrwt beam="2">  1       -2 0.96535432E-01 0.11249330E+04</pdfrwt>
<totfact> 0.54287768E+01</totfact>
</mgrwt>
</event>
<event>
 4    1  0.9012200E-005  0.4422219E+03  0.7818608E-02  0.1030067E+00
          2   -1    0    0  501    0  0.00000000000E+00  0.00000000000E+00  0.43987665403E+03  0.43987665404E+03  0.25500000000E-02 0.  1.
         -2   -1    0    0    0  501 -0.00000000000E+00 -0.00000000000E+00 -0.11114492740E+03  0.11114492743E+03  0.25500000000E-02 0. -1.
    5000001    1    1    2    0    0  0.77339381065E+02 -0.90698428735E+02  0.27196882026E+03  0.33970520166E+03  0.16500000000E+03 0.  0.
   -5000001    1    1    2    0    0 -0.77339381065E+02  0.90698428735E+02  0.56762906362E+02  0.21131637981E+03  0.16500000000E+03 0.  0.
<mgrwt>
<rscale>  0 0.44222193E+03</rscale>
<asrwt>0</asrwt>
<pdfrwt beam="1">  1        2 0.67673331E-01 0.44222193E+03</pdfrwt>
<pdfrwt beam="2">  1       -2 0.17099220E-01 0.44222193E+03</pdfrwt>
<totfact> 0.19872010E+03</totfact>
</mgrwt>
</event>
<event>
 4    1  0.9012200E-005  0.5905407E+03  0.7818608E-02  0.9925228E-01
          2   -1    0    0  501    0  0.00000000000E+00  0.00000000000E+00  0.32657381156E+04  0.32657381156E+04  0.25500000000E-02 0.  1.
         -2   -1    0    0    0  501 -0.00000000000E+00 -0.00000000000E+00 -0.26696745060E+02  0.26696745182E+02  0.25500000000E-02 0. -1.
    5000001    1    1    2    0    0 -0.10236856646E+03  0.44677237647E+02  0.40461680416E+03  0.45101567287E+03  0.16500000000E+03 0.  0.
   -5000001    1    1    2    0    0  0.10236856646E+03 -0.44677237647E+02  0.28344245664E+04  0.28414191879E+04  0.16500000000E+03 0.  0.
<mgrwt>
<rscale>  0 0.59054069E+03</rscale>
<asrwt>0</asrwt>
<pdfrwt beam="1">  1        2 0.50242134E+00 0.59054069E+03</pdfrwt>
<pdfrwt beam="2">  1       -2 0.41071908E-02 0.59054069E+03</pdfrwt>
<totfact> 0.35715323E+02</totfact>
</mgrwt>
</event>
<event>
 4    1  0.9012200E-005  0.7649929E+03  0.7818608E-02  0.9612118E-01
         -2   -1    0    0    0  501 -0.00000000000E+00  0.00000000000E+00  0.15785213736E+03  0.15785213738E+03  0.25500000000E-02 0. -1.
          2   -1    0    0  501    0  0.00000000000E+00 -0.00000000000E+00 -0.92683906068E+03  0.92683906068E+03  0.25500000000E-02 0.  1.
    5000001    1    1    2    0    0  0.21184693312E+03 -0.26647728102E+03 -0.30441903346E+03  0.48557719500E+03  0.16500000000E+03 0.  0.
   -5000001    1    1    2    0    0 -0.21184693312E+03  0.26647728102E+03 -0.46456788987E+03  0.59911400306E+03  0.16500000000E+03 0.  0.
<mgrwt>
<rscale>  0 0.76499288E+03</rscale>
<asrwt>0</asrwt>
<pdfrwt beam="1">  1        2 0.14259062E+00 0.76499288E+03</pdfrwt>
<pdfrwt beam="2">  1       -2 0.24284945E-01 0.76499288E+03</pdfrwt>
<totfact> 0.42715971E+02</totfact>
</mgrwt>
</event>
<event>
 4    1  0.9012200E-005  0.3686492E+03  0.7818608E-02  0.1055211E+00
          2   -1    0    0  501    0  0.00000000000E+00  0.00000000000E+00  0.15053993044E+04  0.15053993044E+04  0.25500000000E-02 0.  1.
         -2   -1    0    0    0  501 -0.00000000000E+00 -0.00000000000E+00 -0.22569132599E+02  0.22569132743E+02  0.25500000000E-02 0. -1.
    5000001    1    1    2    0    0 -0.24436121017E+02  0.53163613019E+02  0.98048867473E+03  0.99599524850E+03  0.16500000000E+03 0.  0.
   -5000001    1    1    2    0    0  0.24436121017E+02 -0.53163613019E+02  0.50234149708E+03  0.53197318866E+03  0.16500000000E+03 0.  0.
<mgrwt>
<rscale>  0 0.36864919E+03</rscale>
<asrwt>0</asrwt>
<pdfrwt beam="1">  1        2 0.23159990E+00 0.36864919E+03</pdfrwt>
<pdfrwt beam="2">  1       -2 0.34721742E-02 0.36864919E+03</pdfrwt>
<totfact> 0.46213881E+03</totfact>
</mgrwt>
</event>
<event>
 4    1  0.9012200E-005  0.4716878E+03  0.7818608E-02  0.1021445E+00
          2   -1    0    0  501    0  0.00000000000E+00  0.00000000000E+00  0.64013326985E+03  0.64013326985E+03  0.25500000000E-02 0.  1.
         -2   -1    0    0    0  501 -0.00000000000E+00 -0.00000000000E+00 -0.86891834076E+02  0.86891834114E+02  0.25500000000E-02 0. -1.
    5000001    1    1    2    0    0  0.15387557887E+03 -0.66523236099E+02  0.25017812702E+03  0.34339063754E+03  0.16500000000E+03 0.  0.
   -5000001    1    1    2    0    0 -0.15387557887E+03  0.66523236099E+02  0.30306330875E+03  0.38363446642E+03  0.16500000000E+03 0.  0.
<mgrwt>
<rscale>  0 0.47168784E+03</rscale>
<asrwt>0</asrwt>
<pdfrwt beam="1">  1        2 0.98482044E-01 0.47168784E+03</pdfrwt>
<pdfrwt beam="2">  1       -2 0.13367974E-01 0.47168784E+03</pdfrwt>
<totfact> 0.19451939E+03</totfact>
</mgrwt>
</event>
<event>
 4    1  0.9012200E-005  0.4938981E+03  0.7818608E-02  0.1015384E+00
          2   -1    0    0  501    0  0.00000000000E+00  0.00000000000E+00  0.43294334080E+03  0.43294334081E+03  0.25500000000E-02 0.  1.
         -2   -1    0    0    0  501 -0.00000000000E+00 -0.00000000000E+00 -0.14085871014E+03  0.14085871017E+03  0.25500000000E-02 0. -1.
    5000001    1    1    2    0    0 -0.13441924391E+03 -0.77801051631E+02  0.26009420612E+03  0.34495729131E+03  0.16500000000E+03 0.  0.
   -5000001    1    1    2    0    0  0.13441924391E+03  0.77801051631E+02  0.31990424541E+02  0.22884475967E+03  0.16500000000E+03 0.  0.
<mgrwt>
<rscale>  0 0.49389813E+03</rscale>
<asrwt>0</asrwt>
<pdfrwt beam="1">  1        2 0.66606667E-01 0.49389813E+03</pdfrwt>
<pdfrwt beam="2">  1       -2 0.21670571E-01 0.49389813E+03</pdfrwt>
<totfact> 0.13450976E+03</totfact>
</mgrwt>
</event>
<event>
 4    1  0.9012200E-005  0.4004519E+03  0.7818608E-02  0.1043623E+00
          2   -1    0    0  501    0  0.00000000000E+00  0.00000000000E+00  0.17425385525E+04  0.17425385525E+04  0.25500000000E-02 0.  1.
         -2   -1    0    0    0  501 -0.00000000000E+00 -0.00000000000E+00 -0.23006912588E+02  0.23006912730E+02  0.25500000000E-02 0. -1.
    5000001    1    1    2    0    0 -0.10954020378E+03 -0.25176224928E+02  0.79253451673E+03  0.81729361844E+03  0.16500000000E+03 0.  0.
   -5000001    1    1    2    0    0  0.10954020378E+03  0.25176224928E+02  0.92699712322E+03  0.94825184682E+03  0.16500000000E+03 0.  0.
<mgrwt>
<rscale>  0 0.40045191E+03</rscale>
<asrwt>0</asrwt>
<pdfrwt beam="1">  1        2 0.26808297E+00 0.40045191E+03</pdfrwt>
<pdfrwt beam="2">  1       -2 0.35395234E-02 0.40045191E+03</pdfrwt>
<totfact> 0.33474026E+03</totfact>
</mgrwt>
</event>
<event>
 4    1  0.9012200E-005  0.3925411E+03  0.7818608E-02  0.1046393E+00
          2   -1    0    0  501    0  0.00000000000E+00  0.00000000000E+00  0.25984215905E+03  0.25984215906E+03  0.25500000000E-02 0.  1.
         -2   -1    0    0    0  501 -0.00000000000E+00 -0.00000000000E+00 -0.14825201403E+03  0.14825201405E+03  0.25500000000E-02 0. -1.
    5000001    1    1    2    0    0  0.86590576861E+02 -0.55472846035E+02  0.27861178142E+02  0.19640878263E+03  0.16500000000E+03 0.  0.
   -5000001    1    1    2    0    0 -0.86590576861E+02  0.55472846035E+02  0.83728966880E+02  0.21168539048E+03  0.16500000000E+03 0.  0.
<mgrwt>
<rscale>  0 0.39254107E+03</rscale>
<asrwt>0</asrwt>
<pdfrwt beam="1">  1        2 0.39975717E-01 0.39254107E+03</pdfrwt>
<pdfrwt beam="2">  1       -2 0.22808002E-01 0.39254107E+03</pdfrwt>
<totfact> 0.21515210E+03</totfact>
</mgrwt>
</event>
<event>
 4    1  0.9012200E-005  0.5756755E+03  0.7818608E-02  0.9957198E-01
         -2   -1    0    0    0  501 -0.00000000000E+00  0.00000000000E+00  0.52139673818E+02  0.52139673880E+02  0.25500000000E-02 0. -1.
          2   -1    0    0  501    0  0.00000000000E+00 -0.00000000000E+00 -0.15890120272E+04  0.15890120272E+04  0.25500000000E-02 0.  1.
    5000001    1    1    2    0    0  0.22176333322E+03 -0.45323705612E+01 -0.53990626520E+03  0.60656680880E+03  0.16500000000E+03 0.  0.
   -5000001    1    1    2    0    0 -0.22176333322E+03  0.45323705612E+01 -0.99696608818E+03  0.10345848923E+04  0.16500000000E+03 0.  0.
<mgrwt>
<rscale>  0 0.57567549E+03</rscale>
<asrwt>0</asrwt>
<pdfrwt beam="1">  1        2 0.24446335E+00 0.57567549E+03</pdfrwt>
<pdfrwt beam="2">  1       -2 0.80214895E-02 0.57567549E+03</pdfrwt>
<totfact> 0.11321963E+03</totfact>
</mgrwt>
</event>
<event>
 4    1  0.9012200E-005  0.3479552E+03  0.7818608E-02  0.1063457E+00
         -2   -1    0    0    0  501 -0.00000000000E+00  0.00000000000E+00  0.53626964866E+02  0.53626964926E+02  0.25500000000E-02 0. -1.
          2   -1    0    0  501    0  0.00000000000E+00 -0.00000000000E+00 -0.56442129205E+03  0.56442129205E+03  0.25500000000E-02 0.  1.
    5000001    1    1    2    0    0  0.58607298412E+01  0.40993092609E+02 -0.19065806771E+03  0.25551962856E+03  0.16500000000E+03 0.  0.
   -5000001    1    1    2    0    0 -0.58607298412E+01 -0.40993092609E+02 -0.32013625947E+03  0.36252862842E+03  0.16500000000E+03 0.  0.
<mgrwt>
<rscale>  0 0.34795517E+03</rscale>
<asrwt>0</asrwt>
<pdfrwt beam="1">  1        2 0.86834041E-01 0.34795517E+03</pdfrwt>
<pdfrwt beam="2">  1       -2 0.82503027E-02 0.34795517E+03</pdfrwt>
<totfact> 0.48991925E+03</totfact>
</mgrwt>
</event>
<event>
 4    1  0.9012200E-005  0.1002251E+04  0.7818608E-02  0.9306079E-01
          2   -1    0    0  501    0  0.00000000000E+00  0.00000000000E+00  0.18186033082E+04  0.18186033082E+04  0.25500000000E-02 0.  1.
         -2   -1    0    0    0  501 -0.00000000000E+00 -0.00000000000E+00 -0.13808779269E+03  0.13808779271E+03  0.25500000000E-02 0. -1.
    5000001    1    1    2    0    0  0.19649751643E+03  0.42174539564E+03  0.10084439863E+04  0.11227932696E+04  0.16500000000E+03 0.  0.
   -5000001    1    1    2    0    0 -0.19649751643E+03 -0.42174539564E+03  0.67207152920E+03  0.83389783131E+03  0.16500000000E+03 0.  0.
<mgrwt>
<rscale>  0 0.10022513E+04</rscale>
<asrwt>0</asrwt>
<pdfrwt beam="1">  1        2 0.27978512E+00 0.10022513E+04</pdfrwt>
<pdfrwt beam="2">  1       -2 0.21244276E-01 0.10022513E+04</pdfrwt>
<totfact> 0.16185741E+02</totfact>
</mgrwt>
</event>
<event>
 4    1  0.9012200E-005  0.6864320E+03  0.7818608E-02  0.9740721E-01
         -2   -1    0    0    0  501 -0.00000000000E+00  0.00000000000E+00  0.98874768986E+02  0.98874769019E+02  0.25500000000E-02 0. -1.
          2   -1    0    0  501    0  0.00000000000E+00 -0.00000000000E+00 -0.11913780205E+04  0.11913780205E+04  0.25500000000E-02 0.  1.
    5000001    1    1    2    0    0  0.24593563301E+03  0.15733431746E+03 -0.40897525597E+03  0.52888957546E+03  0.16500000000E+03 0.  0.
   -5000001    1    1    2    0    0 -0.24593563301E+03 -0.15733431746E+03 -0.68352799557E+03  0.76136321409E+03  0.16500000000E+03 0.  0.
<mgrwt>
<rscale>  0 0.68643201E+03</rscale>
<asrwt>0</asrwt>
<pdfrwt beam="1">  1        2 0.18328892E+00 0.68643201E+03</pdfrwt>
<pdfrwt beam="2">  1       -2 0.15211504E-01 0.68643201E+03</pdfrwt>
<totfact> 0.66217027E+02</totfact>
</mgrwt>
</event>
<event>
 4    1  0.9012200E-005  0.6632563E+03  0.7818608E-02  0.9782218E-01
         -2   -1    0    0    0  501 -0.00000000000E+00  0.00000000000E+00  0.18862123626E+03  0.18862123627E+03  0.25500000000E-02 0. -1.
          2   -1    0    0  501    0  0.00000000000E+00 -0.00000000000E+00 -0.58305849551E+03  0.58305849551E+03  0.25500000000E-02 0.  1.
    5000001    1    1    2    0    0 -0.25497102798E+03 -0.29258822356E+02 -0.34840685921E+03  0.46311839020E+03  0.16500000000E+03 0.  0.
   -5000001    1    1    2    0    0  0.25497102798E+03  0.29258822356E+02 -0.46030400044E+02  0.30856134159E+03  0.16500000000E+03 0.  0.
<mgrwt>
<rscale>  0 0.66325625E+03</rscale>
<asrwt>0</asrwt>
<pdfrwt beam="1">  1        2 0.89701306E-01 0.66325625E+03</pdfrwt>
<pdfrwt beam="2">  1       -2 0.29018652E-01 0.66325625E+03</pdfrwt>
<totfact> 0.56340478E+02</totfact>
</mgrwt>
</event>
<event>
 4    1  0.9012200E-005  0.1033309E+04  0.7818608E-02  0.9272748E-01
         -2   -1    0    0    0  501 -0.00000000000E+00  0.00000000000E+00  0.20833836912E+03  0.20833836913E+03  0.25500000000E-02 0. -1.
          2   -1    0    0  501    0  0.00000000000E+00 -0.00000000000E+00 -0.12812424230E+04  0.12812424230E+04  0.25500000000E-02 0.  1.
    5000001    1    1    2    0    0 -0.46553863286E+03 -0.88230119268E+01 -0.75461394917E+03  0.90192642522E+03  0.16500000000E+03 0.  0.
   -5000001    1    1    2    0    0  0.46553863286E+03  0.88230119268E+01 -0.31829010475E+03  0.58765436695E+03  0.16500000000E+03 0.  0.
<mgrwt>
<rscale>  0 0.10333092E+04</rscale>
<asrwt>0</asrwt>
<pdfrwt beam="1">  1        2 0.19711421E+00 0.10333092E+04</pdfrwt>
<pdfrwt beam="2">  1       -2 0.32052058E-01 0.10333092E+04</pdfrwt>
<totfact> 0.15283338E+02</totfact>
</mgrwt>
</event>
<event>
 4    1  0.9012200E-005  0.5376391E+03  0.7818608E-02  0.1004396E+00
          2   -1    0    0  501    0  0.00000000000E+00  0.00000000000E+00  0.98333211521E+03  0.98333211521E+03  0.25500000000E-02 0.  1.
         -2   -1    0    0    0  501 -0.00000000000E+00 -0.00000000000E+00 -0.73488851013E+02  0.73488851057E+02  0.25500000000E-02 0. -1.
    5000001    1    1    2    0    0 -0.18020809090E+03 -0.55253677749E+02  0.64662254762E+03  0.69345053466E+03  0.16500000000E+03 0.  0.
   -5000001    1    1    2    0    0  0.18020809090E+03  0.55253677749E+02  0.26322071657E+03  0.36337043161E+03  0.16500000000E+03 0.  0.
<mgrwt>
<rscale>  0 0.53763909E+03</rscale>
<asrwt>0</asrwt>
<pdfrwt beam="1">  1        2 0.15128187E+00 0.53763909E+03</pdfrwt>
<pdfrwt beam="2">  1       -2 0.11305977E-01 0.53763909E+03</pdfrwt>
<totfact> 0.14600825E+03</totfact>
</mgrwt>
</event>
<event>
 4    1  0.9012200E-005  0.6509741E+03  0.7818608E-02  0.9804953E-01
         -2   -1    0    0    0  501 -0.00000000000E+00  0.00000000000E+00  0.10511760385E+03  0.10511760388E+03  0.25500000000E-02 0. -1.
          2   -1    0    0  501    0  0.00000000000E+00 -0.00000000000E+00 -0.10078408566E+04  0.10078408566E+04  0.25500000000E-02 0.  1.
    5000001    1    1    2    0    0  0.74385396386E+02  0.26922539147E+03 -0.40608515896E+03  0.51975537990E+03  0.16500000000E+03 0.  0.
   -5000001    1    1    2    0    0 -0.74385396386E+02 -0.26922539147E+03 -0.49663809379E+03  0.59320308058E+03  0.16500000000E+03 0.  0.
<mgrwt>
<rscale>  0 0.65097409E+03</rscale>
<asrwt>0</asrwt>
<pdfrwt beam="1">  1        2 0.15505243E+00 0.65097409E+03</pdfrwt>
<pdfrwt beam="2">  1       -2 0.16171940E-01 0.65097409E+03</pdfrwt>
<totfact> 0.77352120E+02</totfact>
</mgrwt>
</event>
<event>
 4    1  0.9012200E-005  0.5346527E+03  0.7818608E-02  0.1005110E+00
          2   -1    0    0  501    0  0.00000000000E+00  0.00000000000E+00  0.94779947735E+02  0.94779947770E+02  0.25500000000E-02 0.  1.
         -2   -1    0    0    0  501 -0.00000000000E+00 -0.00000000000E+00 -0.75399263631E+03  0.75399263631E+03  0.25500000000E-02 0. -1.
    5000001    1    1    2    0    0 -0.12843729187E+03 -0.30460958706E+02 -0.69648216868E+02  0.22248568956E+03  0.16500000000E+03 0.  0.
   -5000001    1    1    2    0    0  0.12843729187E+03  0.30460958706E+02 -0.58956447171E+03  0.62628689452E+03  0.16500000000E+03 0.  0.
<mgrwt>
<rscale>  0 0.53465272E+03</rscale>
<asrwt>0</asrwt>
<pdfrwt beam="1">  1        2 0.14581531E-01 0.53465272E+03</pdfrwt>
<pdfrwt beam="2">  1       -2 0.11599886E+00 0.53465272E+03</pdfrwt>
<totfact> 0.24287606E+02</totfact>
</mgrwt>
</event>
<event>
 4    1  0.9012200E-005  0.4406452E+03  0.7818608E-02  0.1030549E+00
         -2   -1    0    0    0  501 -0.00000000000E+00  0.00000000000E+00  0.25668306095E+03  0.25668306096E+03  0.25500000000E-02 0. -1.
          2   -1    0    0  501    0  0.00000000000E+00 -0.00000000000E+00 -0.18911282198E+03  0.18911282199E+03  0.25500000000E-02 0.  1.
    5000001    1    1    2    0    0 -0.46154530989E+02 -0.11576962311E+03 -0.43157869488E+02  0.21123552747E+03  0.16500000000E+03 0.  0.
   -5000001    1    1    2    0    0  0.46154530989E+02  0.11576962311E+03  0.11072810846E+03  0.23456035549E+03  0.16500000000E+03 0.  0.
<mgrwt>
<rscale>  0 0.44064525E+03</rscale>
<asrwt>0</asrwt>
<pdfrwt beam="1">  1        2 0.29094280E-01 0.44064525E+03</pdfrwt>
<pdfrwt beam="2">  1       -2 0.39489701E-01 0.44064525E+03</pdfrwt>
<totfact> 0.11163171E+03</totfact>
</mgrwt>
</event>
<event>
 4    1  0.9012200E-005  0.6314006E+03  0.7818608E-02  0.9842319E-01
          2   -1    0    0  501    0  0.00000000000E+00  0.00000000000E+00  0.14760911418E+04  0.14760911418E+04  0.25500000000E-02 0.  1.
         -2   -1    0    0    0  501 -0.00000000000E+00 -0.00000000000E+00 -0.67520688774E+02  0.67520688822E+02  0.25500000000E-02 0. -1.
    5000001    1    1    2    0    0  0.20636654610E+03 -0.14926637707E+03  0.91704928009E+03  0.96595651289E+03  0.16500000000E+03 0.  0.
   -5000001    1    1    2    0    0 -0.20636654610E+03  0.14926637707E+03  0.49152117298E+03  0.57765531778E+03  0.16500000000E+03 0.  0.
<mgrwt>
<rscale>  0 0.63140064E+03</rscale>
<asrwt>0</asrwt>
<pdfrwt beam="1">  1        2 0.22709092E+00 0.63140064E+03</pdfrwt>
<pdfrwt beam="2">  1       -2 0.10387799E-01 0.63140064E+03</pdfrwt>
<totfact> 0.85933153E+02</totfact>
</mgrwt>
</event>
<event>
 4    1  0.9012200E-005  0.5341446E+03  0.7818608E-02  0.1005232E+00
          2   -1    0    0  501    0  0.00000000000E+00  0.00000000000E+00  0.74945445700E+03  0.74945445700E+03  0.25500000000E-02 0.  1.
         -2   -1    0    0    0  501 -0.00000000000E+00 -0.00000000000E+00 -0.95172715951E+02  0.95172715986E+02  0.25500000000E-02 0. -1.
    5000001    1    1    2    0    0  0.19205879380E+03 -0.48520094109E+02  0.43739792025E+03  0.50772307456E+03  0.16500000000E+03 0.  0.
   -5000001    1    1    2    0    0 -0.19205879380E+03  0.48520094109E+02  0.21688382080E+03  0.33690409842E+03  0.16500000000E+03 0.  0.
<mgrwt>
<rscale>  0 0.53414461E+03</rscale>
<asrwt>0</asrwt>
<pdfrwt beam="1">  1        2 0.11530068E+00 0.53414461E+03</pdfrwt>
<pdfrwt beam="2">  1       -2 0.14641957E-01 0.53414461E+03</pdfrwt>
<totfact> 0.13742289E+03</totfact>
</mgrwt>
</event>
<event>
 4    1  0.9012200E-005  0.4366066E+03  0.7818608E-02  0.1031793E+00
         -2   -1    0    0    0  501 -0.00000000000E+00  0.00000000000E+00  0.12270935759E+03  0.12270935762E+03  0.25500000000E-02 0. -1.
          2   -1    0    0  501    0  0.00000000000E+00 -0.00000000000E+00 -0.38836745326E+03  0.38836745326E+03  0.25500000000E-02 0.  1.
    5000001    1    1    2    0    0 -0.12464205718E+03 -0.64525325895E+02 -0.16450277016E+03  0.27200242920E+03  0.16500000000E+03 0.  0.
   -5000001    1    1    2    0    0  0.12464205718E+03  0.64525325895E+02 -0.10115532550E+03  0.23907438168E+03  0.16500000000E+03 0.  0.
<mgrwt>
<rscale>  0 0.43660655E+03</rscale>
<asrwt>0</asrwt>
<pdfrwt beam="1">  1        2 0.59748839E-01 0.43660655E+03</pdfrwt>
<pdfrwt beam="2">  1       -2 0.18878363E-01 0.43660655E+03</pdfrwt>
<totfact> 0.19270787E+03</totfact>
</mgrwt>
</event>
<event>
 4    1  0.9012200E-005  0.5106032E+03  0.7818608E-02  0.1011048E+00
          2   -1    0    0  501    0  0.00000000000E+00  0.00000000000E+00  0.14759926344E+04  0.14759926344E+04  0.25500000000E-02 0.  1.
         -2   -1    0    0    0  501 -0.00000000000E+00 -0.00000000000E+00 -0.44159369147E+02  0.44159369220E+02  0.25500000000E-02 0. -1.
    5000001    1    1    2    0    0 -0.14539506826E+03 -0.12793124087E+03  0.65291763975E+03  0.70073716368E+03  0.16500000000E+03 0.  0.
   -5000001    1    1    2    0    0  0.14539506826E+03  0.12793124087E+03  0.77891562549E+03  0.81941483993E+03  0.16500000000E+03 0.  0.
<mgrwt>
<rscale>  0 0.51060319E+03</rscale>
<asrwt>0</asrwt>
<pdfrwt beam="1">  1        2 0.22707577E+00 0.51060319E+03</pdfrwt>
<pdfrwt beam="2">  1       -2 0.67937497E-02 0.51060319E+03</pdfrwt>
<totfact> 0.17031313E+03</totfact>
</mgrwt>
</event>
<event>
 4    1  0.9012200E-005  0.6961542E+03  0.7818608E-02  0.9723832E-01
          2   -1    0    0  501    0  0.00000000000E+00  0.00000000000E+00  0.90416213432E+03  0.90416213432E+03  0.25500000000E-02 0.  1.
         -2   -1    0    0    0  501 -0.00000000000E+00 -0.00000000000E+00 -0.13399994987E+03  0.13399994989E+03  0.25500000000E-02 0. -1.
    5000001    1    1    2    0    0 -0.12244786109E+03 -0.27702318161E+03  0.45498640549E+03  0.57094040934E+03  0.16500000000E+03 0.  0.
   -5000001    1    1    2    0    0  0.12244786109E+03  0.27702318161E+03  0.31517577896E+03  0.46722167488E+03  0.16500000000E+03 0.  0.
<mgrwt>
<rscale>  0 0.69615424E+03</rscale>
<asrwt>0</asrwt>
<pdfrwt beam="1">  1        2 0.13910187E+00 0.69615424E+03</pdfrwt>
<pdfrwt beam="2">  1       -2 0.20615376E-01 0.69615424E+03</pdfrwt>
<totfact> 0.59312019E+02</totfact>
</mgrwt>
</event>
<event>
 4    1  0.9012200E-005  0.4494606E+03  0.7818608E-02  0.1027883E+00
          2   -1    0    0  501    0  0.00000000000E+00  0.00000000000E+00  0.72803639395E+03  0.72803639396E+03  0.25500000000E-02 0.  1.
         -2   -1    0    0    0  501 -0.00000000000E+00 -0.00000000000E+00 -0.69369751210E+02  0.69369751256E+02  0.25500000000E-02 0. -1.
    5000001    1    1    2    0    0 -0.88602537299E+02  0.78672016859E+02  0.15880338370E+03  0.25784338372E+03  0.16500000000E+03 0.  0.
   -5000001    1    1    2    0    0  0.88602537299E+02 -0.78672016859E+02  0.49986325904E+03  0.53956276150E+03  0.16500000000E+03 0.  0.
<mgrwt>
<rscale>  0 0.44946058E+03</rscale>
<asrwt>0</asrwt>
<pdfrwt beam="1">  1        2 0.11200561E+00 0.44946058E+03</pdfrwt>
<pdfrwt beam="2">  1       -2 0.10672269E-01 0.44946058E+03</pdfrwt>
<totfact> 0.23996601E+03</totfact>
</mgrwt>
</event>
<event>
 4    1  0.9012200E-005  0.4449622E+03  0.7818608E-02  0.1029235E+00
          2   -1    0    0  501    0  0.00000000000E+00  0.00000000000E+00  0.23838603507E+03  0.23838603508E+03  0.25500000000E-02 0. -1.
         -2   -1    0    0    0  501 -0.00000000000E+00 -0.00000000000E+00 -0.20763730909E+03  0.20763730911E+03  0.25500000000E-02 0.  1.
    5000001    1    1    2    0    0 -0.41935043423E+02 -0.10113122351E+03 -0.86291195741E+02  0.21600287660E+03  0.16500000000E+03 0.  0.
   -5000001    1    1    2    0    0  0.41935043423E+02  0.10113122351E+03  0.11703992172E+03  0.23002046759E+03  0.16500000000E+03 0.  0.
<mgrwt>
<rscale>  0 0.44496218E+03</rscale>
<asrwt>0</asrwt>
<pdfrwt beam="1">  1        2 0.36674774E-01 0.44496218E+03</pdfrwt>
<pdfrwt beam="2">  1       -2 0.31944202E-01 0.44496218E+03</pdfrwt>
<totfact> 0.12893058E+03</totfact>
</mgrwt>
</event>
<event>
 4    1  0.9012200E-005  0.5776085E+03  0.7818608E-02  0.9952982E-01
          2   -1    0    0  501    0  0.00000000000E+00  0.00000000000E+00  0.80472400113E+03  0.80472400114E+03  0.25500000000E-02 0.  1.
         -2   -1    0    0    0  501 -0.00000000000E+00 -0.00000000000E+00 -0.10364782273E+03  0.10364782276E+03  0.25500000000E-02 0. -1.
    5000001    1    1    2    0    0 -0.21482623629E+03  0.41670577763E+02  0.49377936246E+03  0.56473870740E+03  0.16500000000E+03 0.  0.
   -5000001    1    1    2    0    0  0.21482623629E+03 -0.41670577763E+02  0.20729681595E+03  0.34363311649E+03  0.16500000000E+03 0.  0.
<mgrwt>
<rscale>  0 0.57760849E+03</rscale>
<asrwt>0</asrwt>
<pdfrwt beam="1">  1        2 0.12380369E+00 0.57760849E+03</pdfrwt>
<pdfrwt beam="2">  1       -2 0.15945819E-01 0.57760849E+03</pdfrwt>
<totfact> 0.10846861E+03</totfact>
</mgrwt>
</event>
<event>
 4    1  0.9012200E-005  0.5795042E+03  0.7818608E-02  0.9948865E-01
          2   -1    0    0  501    0  0.00000000000E+00  0.00000000000E+00  0.42613388555E+03  0.42613388556E+03  0.25500000000E-02 0.  1.
         -2   -1    0    0    0  501 -0.00000000000E+00 -0.00000000000E+00 -0.19701853111E+03  0.19701853113E+03  0.25500000000E-02 0. -1.
    5000001    1    1    2    0    0  0.54834858834E+02  0.21911494837E+03  0.19583543637E+03  0.34145972014E+03  0.16500000000E+03 0.  0.
   -5000001    1    1    2    0    0 -0.54834858834E+02 -0.21911494837E+03  0.33279918064E+02  0.28169269654E+03  0.16500000000E+03 0.  0.
<mgrwt>
<rscale>  0 0.57950417E+03</rscale>
<asrwt>0</asrwt>
<pdfrwt beam="1">  1        2 0.65559059E-01 0.57950417E+03</pdfrwt>
<pdfrwt beam="2">  1       -2 0.30310543E-01 0.57950417E+03</pdfrwt>
<totfact> 0.74808898E+02</totfact>
</mgrwt>
</event>
<event>
 4    1  0.9012200E-005  0.8476023E+03  0.7818608E-02  0.9493561E-01
          2   -1    0    0  501    0  0.00000000000E+00  0.00000000000E+00  0.55774035279E+03  0.55774035279E+03  0.25500000000E-02 0.  1.
         -2   -1    0    0    0  501 -0.00000000000E+00 -0.00000000000E+00 -0.32202692312E+03  0.32202692313E+03  0.25500000000E-02 0. -1.
    5000001    1    1    2    0    0 -0.18672269685E+03 -0.34170220401E+03  0.89305629684E+02  0.43223403063E+03  0.16500000000E+03 0.  0.
   -5000001    1    1    2    0    0  0.18672269685E+03  0.34170220401E+03  0.14640779998E+03  0.44753324529E+03  0.16500000000E+03 0.  0.
<mgrwt>
<rscale>  0 0.84760229E+03</rscale>
<asrwt>0</asrwt>
<pdfrwt beam="1">  1        2 0.85806207E-01 0.84760229E+03</pdfrwt>
<pdfrwt beam="2">  1       -2 0.49542604E-01 0.84760229E+03</pdfrwt>
<totfact> 0.20990823E+02</totfact>
</mgrwt>
</event>
<event>
 4    1  0.9012200E-005  0.3855007E+03  0.7818608E-02  0.1048919E+00
         -2   -1    0    0    0  501 -0.00000000000E+00  0.00000000000E+00  0.41169709419E+02  0.41169709498E+02  0.25500000000E-02 0. -1.
          2   -1    0    0  501    0  0.00000000000E+00 -0.00000000000E+00 -0.90242814024E+03  0.90242814024E+03  0.25500000000E-02 0.  1.
    5000001    1    1    2    0    0 -0.89047258273E+02 -0.58197815680E+01 -0.53911652414E+03  0.57081950796E+03  0.16500000000E+03 0.  0.
   -5000001    1    1    2    0    0  0.89047258273E+02  0.58197815680E+01 -0.32214190668E+03  0.37277834178E+03  0.16500000000E+03 0.  0.
<mgrwt>
<rscale>  0 0.38550074E+03</rscale>
<asrwt>0</asrwt>
<pdfrwt beam="1">  1        2 0.13883508E+00 0.38550074E+03</pdfrwt>
<pdfrwt beam="2">  1       -2 0.63338021E-02 0.38550074E+03</pdfrwt>
<totfact> 0.41399178E+03</totfact>
</mgrwt>
</event>
<event>
 4    1  0.9012200E-005  0.4356553E+03  0.7818608E-02  0.1032088E+00
          2   -1    0    0  501    0  0.00000000000E+00  0.00000000000E+00  0.18909179497E+04  0.18909179497E+04  0.25500000000E-02 0.  1.
         -2   -1    0    0    0  501 -0.00000000000E+00 -0.00000000000E+00 -0.25093041446E+02  0.25093041576E+02  0.25500000000E-02 0. -1.
    5000001    1    1    2    0    0  0.99460553856E+02  0.85462665374E+02  0.69091809992E+03  0.72234970046E+03  0.16500000000E+03 0.  0.
   -5000001    1    1    2    0    0 -0.99460553856E+02 -0.85462665374E+02  0.11749068083E+04  0.11936612908E+04  0.16500000000E+03 0.  0.
<mgrwt>
<rscale>  0 0.43565529E+03</rscale>
<asrwt>0</asrwt>
<pdfrwt beam="1">  1        2 0.29091047E+00 0.43565529E+03</pdfrwt>
<pdfrwt beam="2">  1       -2 0.38604677E-02 0.43565529E+03</pdfrwt>
<totfact> 0.24421364E+03</totfact>
</mgrwt>
</event>
<event>
 4    1  0.9012200E-005  0.6020673E+03  0.7818608E-02  0.9901126E-01
         -2   -1    0    0    0  501 -0.00000000000E+00  0.00000000000E+00  0.77291015029E+02  0.77291015071E+02  0.25500000000E-02 0. -1.
          2   -1    0    0  501    0  0.00000000000E+00 -0.00000000000E+00 -0.11724681134E+04  0.11724681134E+04  0.25500000000E-02 0.  1.
    5000001    1    1    2    0    0 -0.10032357866E+03  0.21329067036E+03 -0.36380851220E+03  0.46383118055E+03  0.16500000000E+03 0.  0.
   -5000001    1    1    2    0    0  0.10032357866E+03 -0.21329067036E+03 -0.73136858618E+03  0.78592794794E+03  0.16500000000E+03 0.  0.
<mgrwt>
<rscale>  0 0.60206727E+03</rscale>
<asrwt>0</asrwt>
<pdfrwt beam="1">  1        2 0.18037970E+00 0.60206727E+03</pdfrwt>
<pdfrwt beam="2">  1       -2 0.11890926E-01 0.60206727E+03</pdfrwt>
<totfact> 0.10279713E+03</totfact>
</mgrwt>
</event>
<event>
 4    1  0.9012200E-005  0.3827772E+03  0.7818608E-02  0.1049912E+00
         -2   -1    0    0    0  501 -0.00000000000E+00  0.00000000000E+00  0.52663568090E+02  0.52663568152E+02  0.25500000000E-02 0. -1.
          2   -1    0    0  501    0  0.00000000000E+00 -0.00000000000E+00 -0.69553970223E+03  0.69553970223E+03  0.25500000000E-02 0.  1.
    5000001    1    1    2    0    0 -0.68377906010E+02  0.60626595704E+02 -0.38488150728E+03  0.42861392509E+03  0.16500000000E+03 0.  0.
   -5000001    1    1    2    0    0  0.68377906010E+02 -0.60626595704E+02 -0.25799462686E+03  0.31958934529E+03  0.16500000000E+03 0.  0.
<mgrwt>
<rscale>  0 0.38277723E+03</rscale>
<asrwt>0</asrwt>
<pdfrwt beam="1">  1        2 0.10700610E+00 0.38277723E+03</pdfrwt>
<pdfrwt beam="2">  1       -2 0.81020879E-02 0.38277723E+03</pdfrwt>
<totfact> 0.39384928E+03</totfact>
</mgrwt>
</event>
<event>
 4    1  0.9012200E-005  0.4991729E+03  0.7818608E-02  0.1013995E+00
         -2   -1    0    0    0  501 -0.00000000000E+00  0.00000000000E+00  0.16630847906E+03  0.16630847908E+03  0.25500000000E-02 0. -1.
          2   -1    0    0  501    0  0.00000000000E+00 -0.00000000000E+00 -0.37456536685E+03  0.37456536685E+03  0.25500000000E-02 0.  1.
    5000001    1    1    2    0    0  0.25102432078E+02  0.18109699923E+03 -0.14803710918E+03  0.28734341983E+03  0.16500000000E+03 0.  0.
   -5000001    1    1    2    0    0 -0.25102432078E+02 -0.18109699923E+03 -0.60219778602E+02  0.25353042610E+03  0.16500000000E+03 0.  0.
<mgrwt>
<rscale>  0 0.49917290E+03</rscale>
<asrwt>0</asrwt>
<pdfrwt beam="1">  1        2 0.57625441E-01 0.49917290E+03</pdfrwt>
<pdfrwt beam="2">  1       -2 0.25585920E-01 0.49917290E+03</pdfrwt>
<totfact> 0.11769985E+03</totfact>
</mgrwt>
</event>
<event>
 4    1  0.9012200E-005  0.5846260E+03  0.7818608E-02  0.9937826E-01
          2   -1    0    0  501    0  0.00000000000E+00  0.00000000000E+00  0.38329016844E+04  0.38329016844E+04  0.25500000000E-02 0.  1.
         -2   -1    0    0    0  501 -0.00000000000E+00 -0.00000000000E+00 -0.22293004938E+02  0.22293005084E+02  0.25500000000E-02 0. -1.
    5000001    1    1    2    0    0  0.16207622289E+03  0.50073222637E+02  0.77373715515E+03  0.80911693526E+03  0.16500000000E+03 0.  0.
   -5000001    1    1    2    0    0 -0.16207622289E+03 -0.50073222637E+02  0.30368715243E+04  0.30460777542E+04  0.16500000000E+03 0.  0.
<mgrwt>
<rscale>  0 0.58462602E+03</rscale>
<asrwt>0</asrwt>
<pdfrwt beam="1">  1        2 0.58967687E+00 0.58462602E+03</pdfrwt>
<pdfrwt beam="2">  1       -2 0.34296949E-02 0.58462602E+03</pdfrwt>
<totfact> 0.19175753E+02</totfact>
</mgrwt>
</event>
<event>
 4    1  0.9012200E-005  0.5226641E+03  0.7818608E-02  0.1008027E+00
          2   -1    0    0  501    0  0.00000000000E+00  0.00000000000E+00  0.36369859453E+03  0.36369859454E+03  0.25500000000E-02 0.  1.
         -2   -1    0    0    0  501 -0.00000000000E+00 -0.00000000000E+00 -0.18777754754E+03  0.18777754756E+03  0.25500000000E-02 0. -1.
    5000001    1    1    2    0    0 -0.81176210877E+02  0.17961604086E+03  0.38269483649E+02  0.25988661513E+03  0.16500000000E+03 0.  0.
   -5000001    1    1    2    0    0  0.81176210877E+02 -0.17961604086E+03  0.13765156334E+03  0.29158952697E+03  0.16500000000E+03 0.  0.
<mgrwt>
<rscale>  0 0.52266406E+03</rscale>
<asrwt>0</asrwt>
<pdfrwt beam="1">  1        2 0.55953630E-01 0.52266406E+03</pdfrwt>
<pdfrwt beam="2">  1       -2 0.28888854E-01 0.52266406E+03</pdfrwt>
<totfact> 0.97561453E+02</totfact>
</mgrwt>
</event>
<event>
 4    1  0.9012200E-005  0.4250382E+03  0.7818608E-02  0.1035439E+00
          2   -1    0    0  501    0  0.00000000000E+00  0.00000000000E+00  0.99682302259E+02  0.99682302292E+02  0.25500000000E-02 0.  1.
         -2   -1    0    0    0  501 -0.00000000000E+00 -0.00000000000E+00 -0.45308303652E+03  0.45308303653E+03  0.25500000000E-02 0. -1.
    5000001    1    1    2    0    0  0.14246942629E+02  0.12544687643E+03 -0.11854766621E+03  0.23920376950E+03  0.16500000000E+03 0.  0.
   -5000001    1    1    2    0    0 -0.14246942629E+02 -0.12544687643E+03 -0.23485306805E+03  0.31356156932E+03  0.16500000000E+03 0.  0.
<mgrwt>
<rscale>  0 0.42503816E+03</rscale>
<asrwt>0</asrwt>
<pdfrwt beam="1">  1        2 0.15335739E-01 0.42503816E+03</pdfrwt>
<pdfrwt beam="2">  1       -2 0.69705081E-01 0.42503816E+03</pdfrwt>
<totfact> 0.73545821E+02</totfact>
</mgrwt>
</event>
<event>
 4    1  0.9012200E-005  0.4352526E+03  0.7818608E-02  0.1032213E+00
          2   -1    0    0  501    0  0.00000000000E+00  0.00000000000E+00  0.29398099599E+03  0.29398099600E+03  0.25500000000E-02 0.  1.
         -2   -1    0    0    0  501 -0.00000000000E+00 -0.00000000000E+00 -0.16110296406E+03  0.16110296408E+03  0.25500000000E-02 0. -1.
    5000001    1    1    2    0    0 -0.10785901737E+03 -0.55141502495E+02 -0.10834068754E+02  0.20497934035E+03  0.16500000000E+03 0.  0.
   -5000001    1    1    2    0    0  0.10785901737E+03  0.55141502495E+02  0.14371210068E+03  0.25010461973E+03  0.16500000000E+03 0.  0.
<mgrwt>
<rscale>  0 0.43525262E+03</rscale>
<asrwt>0</asrwt>
<pdfrwt beam="1">  1        2 0.45227845E-01 0.43525262E+03</pdfrwt>
<pdfrwt beam="2">  1       -2 0.24785071E-01 0.43525262E+03</pdfrwt>
<totfact> 0.16248883E+03</totfact>
</mgrwt>
</event>
<event>
 4    1  0.9012200E-005  0.1174756E+04  0.7818608E-02  0.9135244E-01
         -2   -1    0    0    0  501 -0.00000000000E+00  0.00000000000E+00  0.15911778053E+03  0.15911778055E+03  0.25500000000E-02 0. -1.
          2   -1    0    0  501    0  0.00000000000E+00 -0.00000000000E+00 -0.21682880958E+04  0.21682880958E+04  0.25500000000E-02 0.  1.
    5000001    1    1    2    0    0 -0.13098395117E+02  0.31812341066E+03 -0.82932933571E+02  0.36807192753E+03  0.16500000000E+03 0.  0.
   -5000001    1    1    2    0    0  0.13098395117E+02 -0.31812341066E+03 -0.19262373817E+04  0.19593339488E+04  0.16500000000E+03 0.  0.
<mgrwt>
<rscale>  0 0.11747565E+04</rscale>
<asrwt>0</asrwt>
<pdfrwt beam="1">  1        2 0.33358276E+00 0.11747565E+04</pdfrwt>
<pdfrwt beam="2">  1       -2 0.24479660E-01 0.11747565E+04</pdfrwt>
<totfact> 0.79486764E+01</totfact>
</mgrwt>
</event>
<event>
 4    1  0.9012200E-005  0.5082218E+03  0.7818608E-02  0.1011655E+00
         -2   -1    0    0    0  501 -0.00000000000E+00  0.00000000000E+00  0.57166868344E+02  0.57166868401E+02  0.25500000000E-02 0. -1.
          2   -1    0    0  501    0  0.00000000000E+00 -0.00000000000E+00 -0.11295413381E+04  0.11295413381E+04  0.25500000000E-02 0.  1.
    5000001    1    1    2    0    0 -0.16890857148E+03 -0.78122470787E+02 -0.65783518919E+03  0.70328185110E+03  0.16500000000E+03 0.  0.
   -5000001    1    1    2    0    0  0.16890857148E+03  0.78122470787E+02 -0.41453928057E+03  0.48342635540E+03  0.16500000000E+03 0.  0.
<mgrwt>
<rscale>  0 0.50822177E+03</rscale>
<asrwt>0</asrwt>
<pdfrwt beam="1">  1        2 0.17377557E+00 0.50822177E+03</pdfrwt>
<pdfrwt beam="2">  1       -2 0.87949037E-02 0.50822177E+03</pdfrwt>
<totfact> 0.17825436E+03</totfact>
</mgrwt>
</event>
<event>
 4    1  0.9012200E-005  0.6647296E+03  0.7818608E-02  0.9779526E-01
          2   -1    0    0  501    0  0.00000000000E+00  0.00000000000E+00  0.17992931864E+03  0.17992931866E+03  0.25500000000E-02 0.  1.
         -2   -1    0    0    0  501 -0.00000000000E+00 -0.00000000000E+00 -0.61394306497E+03  0.61394306497E+03  0.25500000000E-02 0. -1.
    5000001    1    1    2    0    0 -0.14442768437E+03  0.21461827993E+03 -0.64433410852E+02  0.31352356614E+03  0.16500000000E+03 0.  0.
   -5000001    1    1    2    0    0  0.14442768437E+03 -0.21461827993E+03 -0.36958033547E+03  0.48034881749E+03  0.16500000000E+03 0.  0.
<mgrwt>
<rscale>  0 0.66472959E+03</rscale>
<asrwt>0</asrwt>
<pdfrwt beam="1">  1        2 0.27681434E-01 0.66472959E+03</pdfrwt>
<pdfrwt beam="2">  1       -2 0.94452778E-01 0.66472959E+03</pdfrwt>
<totfact> 0.18623150E+02</totfact>
</mgrwt>
</event>
<event>
 4    1  0.9012200E-005  0.5812427E+03  0.7818608E-02  0.9945104E-01
          2   -1    0    0  501    0  0.00000000000E+00  0.00000000000E+00  0.29944937279E+04  0.29944937279E+04  0.25500000000E-02 0.  1.
         -2   -1    0    0    0  501 -0.00000000000E+00 -0.00000000000E+00 -0.28205361694E+02  0.28205361809E+02  0.25500000000E-02 0. -1.
    5000001    1    1    2    0    0 -0.23633568153E+03 -0.36986443247E+02  0.14642304861E+04  0.14927888223E+04  0.16500000000E+03 0.  0.
   -5000001    1    1    2    0    0  0.23633568153E+03  0.36986443247E+02  0.15020578801E+04  0.15299102674E+04  0.16500000000E+03 0.  0.
<mgrwt>
<rscale>  0 0.58124273E+03</rscale>
<asrwt>0</asrwt>
<pdfrwt beam="1">  1        2 0.46069111E+00 0.58124273E+03</pdfrwt>
<pdfrwt beam="2">  1       -2 0.43392886E-02 0.58124273E+03</pdfrwt>
<totfact> 0.48496118E+02</totfact>
</mgrwt>
</event>
<event>
 4    1  0.9012200E-005  0.5155910E+03  0.7818608E-02  0.1009788E+00
         -2   -1    0    0    0  501 -0.00000000000E+00  0.00000000000E+00  0.78673014225E+02  0.78673014267E+02  0.25500000000E-02 0. -1.
          2   -1    0    0  501    0  0.00000000000E+00 -0.00000000000E+00 -0.84474355003E+03  0.84474355004E+03  0.25500000000E-02 0.  1.
    5000001    1    1    2    0    0 -0.10908125915E+03 -0.16973468984E+02 -0.88491741103E+02  0.21735364729E+03  0.16500000000E+03 0.  0.
   -5000001    1    1    2    0    0  0.10908125915E+03  0.16973468984E+02 -0.67757879470E+03  0.70606291701E+03  0.16500000000E+03 0.  0.
<mgrwt>
<rscale>  0 0.51559101E+03</rscale>
<asrwt>0</asrwt>
<pdfrwt beam="1">  1        2 0.12996054E+00 0.51559101E+03</pdfrwt>
<pdfrwt beam="2">  1       -2 0.12103541E-01 0.51559101E+03</pdfrwt>
<totfact> 0.16122472E+03</totfact>
</mgrwt>
</event>
<event>
 4    1  0.9012200E-005  0.5632246E+03  0.7818608E-02  0.9984785E-01
         -2   -1    0    0    0  501 -0.00000000000E+00  0.00000000000E+00  0.49455047418E+02  0.49455047483E+02  0.25500000000E-02 0. -1.
          2   -1    0    0  501    0  0.00000000000E+00 -0.00000000000E+00 -0.16035871274E+04  0.16035871274E+04  0.25500000000E-02 0.  1.
    5000001    1    1    2    0    0 -0.16453392074E+03 -0.14837528205E+03 -0.93765540858E+03  0.97750156043E+03  0.16500000000E+03 0.  0.
   -5000001    1    1    2    0    0  0.16453392074E+03  0.14837528205E+03 -0.61647667142E+03  0.67554061447E+03  0.16500000000E+03 0.  0.
<mgrwt>
<rscale>  0 0.56322456E+03</rscale>
<asrwt>0</asrwt>
<pdfrwt beam="1">  1        2 0.24670567E+00 0.56322456E+03</pdfrwt>
<pdfrwt beam="2">  1       -2 0.76084700E-02 0.56322456E+03</pdfrwt>
<totfact> 0.12098294E+03</totfact>
</mgrwt>
</event>
<event>
 4    1  0.9012200E-005  0.7486287E+03  0.7818608E-02  0.9637504E-01
         -2   -1    0    0    0  501 -0.00000000000E+00  0.00000000000E+00  0.17553618723E+03  0.17553618725E+03  0.25500000000E-02 0. -1.
          2   -1    0    0  501    0  0.00000000000E+00 -0.00000000000E+00 -0.79818993545E+03  0.79818993546E+03  0.25500000000E-02 0.  1.
    5000001    1    1    2    0    0 -0.12880889713E+03 -0.28171585409E+03 -0.14208518116E+03  0.37864066492E+03  0.16500000000E+03 0.  0.
   -5000001    1    1    2    0    0  0.12880889713E+03  0.28171585409E+03 -0.48056856706E+03  0.59508545779E+03  0.16500000000E+03 0.  0.
<mgrwt>
<rscale>  0 0.74862866E+03</rscale>
<asrwt>0</asrwt>
<pdfrwt beam="1">  1        2 0.12279845E+00 0.74862866E+03</pdfrwt>
<pdfrwt beam="2">  1       -2 0.27005568E-01 0.74862866E+03</pdfrwt>
<totfact> 0.43260463E+02</totfact>
</mgrwt>
</event>
<event>
 4    1  0.9012200E-005  0.5195630E+03  0.7818608E-02  0.1008795E+00
          2   -1    0    0  501    0  0.00000000000E+00  0.00000000000E+00  0.65058811225E+03  0.65058811225E+03  0.25500000000E-02 0.  1.
         -2   -1    0    0    0  501 -0.00000000000E+00 -0.00000000000E+00 -0.10373141519E+03  0.10373141522E+03  0.25500000000E-02 0. -1.
    5000001    1    1    2    0    0 -0.14982889584E+03 -0.11831806714E+02  0.46643355995E+03  0.51708215549E+03  0.16500000000E+03 0.  0.
   -5000001    1    1    2    0    0  0.14982889584E+03  0.11831806714E+02  0.80423137110E+02  0.23723737198E+03  0.16500000000E+03 0.  0.
<mgrwt>
<rscale>  0 0.51956299E+03</rscale>
<asrwt>0</asrwt>
<pdfrwt beam="1">  1        2 0.10009048E+00 0.51956299E+03</pdfrwt>
<pdfrwt beam="2">  1       -2 0.15958679E-01 0.51956299E+03</pdfrwt>
<totfact> 0.14182709E+03</totfact>
</mgrwt>
</event>
<event>
 4    1  0.9012200E-005  0.9787756E+03  0.7818608E-02  0.9332135E-01
         -2   -1    0    0    0  501 -0.00000000000E+00  0.00000000000E+00  0.10633517236E+04  0.10633517236E+04  0.25500000000E-02 0. -1.
          2   -1    0    0  501    0  0.00000000000E+00 -0.00000000000E+00 -0.22523159590E+03  0.22523159591E+03  0.25500000000E-02 0.  1.
    5000001    1    1    2    0    0  0.24843826458E+03 -0.30587941723E+03  0.10476694649E+03  0.43986918768E+03  0.16500000000E+03 0.  0.
   -5000001    1    1    2    0    0 -0.24843826458E+03  0.30587941723E+03  0.73335318119E+03  0.84871413182E+03  0.16500000000E+03 0.  0.
<mgrwt>
<rscale>  0 0.97877557E+03</rscale>
<asrwt>0</asrwt>
<pdfrwt beam="1">  1        2 0.34651015E-01 0.97877557E+03</pdfrwt>
<pdfrwt beam="2">  1       -2 0.16359257E+00 0.97877557E+03</pdfrwt>
<totfact> 0.35825001E+01</totfact>
</mgrwt>
</event>
<event>
 4    1  0.9012200E-005  0.4331449E+03  0.7818608E-02  0.1032871E+00
         -2   -1    0    0    0  501 -0.00000000000E+00  0.00000000000E+00  0.40335510386E+03  0.40335510387E+03  0.25500000000E-02 0. -1.
          2   -1    0    0  501    0  0.00000000000E+00 -0.00000000000E+00 -0.11628371481E+03  0.11628371484E+03  0.25500000000E-02 0.  1.
    5000001    1    1    2    0    0  0.53420028514E+02 -0.11458893000E+03  0.70617671077E+02  0.21953627899E+03  0.16500000000E+03 0.  0.
   -5000001    1    1    2    0    0 -0.53420028514E+02  0.11458893000E+03  0.21645371797E+03  0.30010253972E+03  0.16500000000E+03 0.  0.
<mgrwt>
<rscale>  0 0.43314492E+03</rscale>
<asrwt>0</asrwt>
<pdfrwt beam="1">  1        2 0.17889802E-01 0.43314492E+03</pdfrwt>
<pdfrwt beam="2">  1       -2 0.62054632E-01 0.43314492E+03</pdfrwt>
<totfact> 0.78477519E+02</totfact>
</mgrwt>
</event>
<event>
 4    1  0.9012200E-005  0.4481923E+03  0.7818608E-02  0.1028262E+00
          2   -1    0    0  501    0  0.00000000000E+00  0.00000000000E+00  0.16158188153E+04  0.16158188153E+04  0.25500000000E-02 0.  1.
         -2   -1    0    0    0  501 -0.00000000000E+00 -0.00000000000E+00 -0.31079649601E+02  0.31079649706E+02  0.25500000000E-02 0. -1.
    5000001    1    1    2    0    0 -0.14623071866E+03  0.32250947688E+02  0.88013915058E+03  0.90790609156E+03  0.16500000000E+03 0.  0.
   -5000001    1    1    2    0    0  0.14623071866E+03 -0.32250947688E+02  0.70460001508E+03  0.73899237341E+03  0.16500000000E+03 0.  0.
<mgrwt>
<rscale>  0 0.44819229E+03</rscale>
<asrwt>0</asrwt>
<pdfrwt beam="1">  1        2 0.24858761E+00 0.44819229E+03</pdfrwt>
<pdfrwt beam="2">  1       -2 0.47814826E-02 0.44819229E+03</pdfrwt>
<totfact> 0.24714626E+03</totfact>
</mgrwt>
</event>
<event>
 4    1  0.9012200E-005  0.4167917E+03  0.7818608E-02  0.1038116E+00
          2   -1    0    0  501    0  0.00000000000E+00  0.00000000000E+00  0.28047943322E+03  0.28047943323E+03  0.25500000000E-02 0.  1.
         -2   -1    0    0    0  501 -0.00000000000E+00 -0.00000000000E+00 -0.15483784234E+03  0.15483784236E+03  0.25500000000E-02 0. -1.
    5000001    1    1    2    0    0  0.99072599801E+02  0.70494881528E+02  0.23477920839E+02  0.20630346851E+03  0.16500000000E+03 0.  0.
   -5000001    1    1    2    0    0 -0.99072599801E+02 -0.70494881528E+02  0.10216367004E+03  0.22901380707E+03  0.16500000000E+03 0.  0.
<mgrwt>
<rscale>  0 0.41679170E+03</rscale>
<asrwt>0</asrwt>
<pdfrwt beam="1">  1        2 0.43150682E-01 0.41679170E+03</pdfrwt>
<pdfrwt beam="2">  1       -2 0.23821207E-01 0.41679170E+03</pdfrwt>
<totfact> 0.18346706E+03</totfact>
</mgrwt>
</event>
<event>
 4    1  0.9012200E-005  0.5774577E+03  0.7818608E-02  0.9953310E-01
         -2   -1    0    0    0  501 -0.00000000000E+00  0.00000000000E+00  0.51858912836E+03  0.51858912837E+03  0.25500000000E-02 0. -1.
          2   -1    0    0  501    0  0.00000000000E+00 -0.00000000000E+00 -0.16075220573E+03  0.16075220575E+03  0.25500000000E-02 0.  1.
    5000001    1    1    2    0    0 -0.54781392284E+02 -0.17227046298E+03  0.35911368911E+03  0.43458687861E+03  0.16500000000E+03 0.  0.
   -5000001    1    1    2    0    0  0.54781392284E+02  0.17227046298E+03 -0.12767664748E+01  0.24475445550E+03  0.16500000000E+03 0.  0.
<mgrwt>
<rscale>  0 0.57745769E+03</rscale>
<asrwt>0</asrwt>
<pdfrwt beam="1">  1        2 0.24731109E-01 0.57745769E+03</pdfrwt>
<pdfrwt beam="2">  1       -2 0.79782941E-01 0.57745769E+03</pdfrwt>
<totfact> 0.31197788E+02</totfact>
</mgrwt>
</event>
<event>
 4    1  0.9012200E-005  0.4450813E+03  0.7818608E-02  0.1029199E+00
         -2   -1    0    0    0  501 -0.00000000000E+00  0.00000000000E+00  0.46433668620E+02  0.46433668690E+02  0.25500000000E-02 0. -1.
          2   -1    0    0  501    0  0.00000000000E+00 -0.00000000000E+00 -0.10665608093E+04  0.10665608093E+04  0.25500000000E-02 0.  1.
    5000001    1    1    2    0    0 -0.39988635022E+02  0.13745874655E+03 -0.40381272379E+03  0.45911187507E+03  0.16500000000E+03 0.  0.
   -5000001    1    1    2    0    0  0.39988635022E+02 -0.13745874655E+03 -0.61631441685E+03  0.65388260289E+03  0.16500000000E+03 0.  0.
<mgrwt>
<rscale>  0 0.44508126E+03</rscale>
<asrwt>0</asrwt>
<pdfrwt beam="1">  1        2 0.16408626E+00 0.44508126E+03</pdfrwt>
<pdfrwt beam="2">  1       -2 0.71436421E-02 0.44508126E+03</pdfrwt>
<totfact> 0.27062797E+03</totfact>
</mgrwt>
</event>
<event>
 4    1  0.9012200E-005  0.4709784E+03  0.7818608E-02  0.1021644E+00
          2   -1    0    0  501    0  0.00000000000E+00  0.00000000000E+00  0.72833775417E+03  0.72833775417E+03  0.25500000000E-02 0.  1.
         -2   -1    0    0    0  501 -0.00000000000E+00 -0.00000000000E+00 -0.76139338868E+02  0.76139338911E+02  0.25500000000E-02 0. -1.
    5000001    1    1    2    0    0  0.11147196776E+03 -0.12270477321E+03  0.27939298883E+03  0.36437330195E+03  0.16500000000E+03 0.  0.
   -5000001    1    1    2    0    0 -0.11147196776E+03  0.12270477321E+03  0.37280542647E+03  0.44010379114E+03  0.16500000000E+03 0.  0.
<mgrwt>
<rscale>  0 0.47097837E+03</rscale>
<asrwt>0</asrwt>
<pdfrwt beam="1">  1        2 0.11205196E+00 0.47097837E+03</pdfrwt>
<pdfrwt beam="2">  1       -2 0.11713744E-01 0.47097837E+03</pdfrwt>
<totfact> 0.20616696E+03</totfact>
</mgrwt>
</event>
<event>
 4    1  0.9012200E-005  0.5155861E+03  0.7818608E-02  0.1009789E+00
          2   -1    0    0  501    0  0.00000000000E+00  0.00000000000E+00  0.19234208240E+03  0.19234208242E+03  0.25500000000E-02 0.  1.
         -2   -1    0    0    0  501 -0.00000000000E+00 -0.00000000000E+00 -0.34551599372E+03  0.34551599373E+03  0.25500000000E-02 0. -1.
    5000001    1    1    2    0    0  0.17922606974E+03  0.53996443169E+02 -0.90229878822E+01  0.24968783362E+03  0.16500000000E+03 0.  0.
   -5000001    1    1    2    0    0 -0.17922606974E+03 -0.53996443169E+02 -0.14415092344E+03  0.28817024253E+03  0.16500000000E+03 0.  0.
<mgrwt>
<rscale>  0 0.51558614E+03</rscale>
<asrwt>0</asrwt>
<pdfrwt beam="1">  1        2 0.29591090E-01 0.51558614E+03</pdfrwt>
<pdfrwt beam="2">  1       -2 0.53156307E-01 0.51558614E+03</pdfrwt>
<totfact> 0.60732924E+02</totfact>
</mgrwt>
</event>
<event>
 4    1  0.9012200E-005  0.5188198E+03  0.7818608E-02  0.1008980E+00
          2   -1    0    0  501    0  0.00000000000E+00  0.00000000000E+00  0.10659820215E+04  0.10659820215E+04  0.25500000000E-02 0.  1.
         -2   -1    0    0    0  501 -0.00000000000E+00 -0.00000000000E+00 -0.63128162663E+02  0.63128162714E+02  0.25500000000E-02 0. -1.
    5000001    1    1    2    0    0  0.71319466628E+02  0.15804954293E+03  0.71908315881E+03  0.75787315141E+03  0.16500000000E+03 0.  0.
   -5000001    1    1    2    0    0 -0.71319466628E+02 -0.15804954293E+03  0.28377070005E+03  0.37123703283E+03  0.16500000000E+03 0.  0.
<mgrwt>
<rscale>  0 0.51881976E+03</rscale>
<asrwt>0</asrwt>
<pdfrwt beam="1">  1        2 0.16399723E+00 0.51881976E+03</pdfrwt>
<pdfrwt beam="2">  1       -2 0.97120254E-02 0.51881976E+03</pdfrwt>
<totfact> 0.16601958E+03</totfact>
</mgrwt>
</event>
<event>
 4    1  0.9012200E-005  0.4520342E+03  0.7818608E-02  0.1027117E+00
          2   -1    0    0  501    0  0.00000000000E+00  0.00000000000E+00  0.67829661238E+02  0.67829661286E+02  0.25500000000E-02 0.  1.
         -2   -1    0    0    0  501 -0.00000000000E+00 -0.00000000000E+00 -0.75311775127E+03  0.75311775128E+03  0.25500000000E-02 0. -1.
    5000001    1    1    2    0    0  0.89937674144E+02 -0.46459864670E+02 -0.13076121868E+03  0.23360393954E+03  0.16500000000E+03 0.  0.
   -5000001    1    1    2    0    0 -0.89937674144E+02  0.46459864670E+02 -0.55452687135E+03  0.58734347303E+03  0.16500000000E+03 0.  0.
<mgrwt>
<rscale>  0 0.45203417E+03</rscale>
<asrwt>0</asrwt>
<pdfrwt beam="1">  1        2 0.10435333E-01 0.45203417E+03</pdfrwt>
<pdfrwt beam="2">  1       -2 0.11586426E+00 0.45203417E+03</pdfrwt>
<totfact> 0.36869076E+02</totfact>
</mgrwt>
</event>
<event>
 4    1  0.9012200E-005  0.9079703E+03  0.7818608E-02  0.9415673E-01
         -2   -1    0    0    0  501 -0.00000000000E+00  0.00000000000E+00  0.11515346908E+03  0.11515346911E+03  0.25500000000E-02 0. -1.
          2   -1    0    0  501    0  0.00000000000E+00 -0.00000000000E+00 -0.17898071538E+04  0.17898071538E+04  0.25500000000E-02 0.  1.
    5000001    1    1    2    0    0  0.30603328967E+03  0.28692465710E+03 -0.72443400856E+03  0.85323605526E+03  0.16500000000E+03 0.  0.
   -5000001    1    1    2    0    0 -0.30603328967E+03 -0.28692465710E+03 -0.95021967618E+03  0.10517245677E+04  0.16500000000E+03 0.  0.
<mgrwt>
<rscale>  0 0.90797027E+03</rscale>
<asrwt>0</asrwt>
<pdfrwt beam="1">  1        2 0.27535493E+00 0.90797027E+03</pdfrwt>
<pdfrwt beam="2">  1       -2 0.17715920E-01 0.90797027E+03</pdfrwt>
<totfact> 0.23214592E+02</totfact>
</mgrwt>
</event>
<event>
 4    1  0.9012200E-005  0.4857520E+03  0.7818608E-02  0.1017566E+00
         -2   -1    0    0    0  501 -0.00000000000E+00  0.00000000000E+00  0.13196863477E+04  0.13196863477E+04  0.25500000000E-02 0. -1.
          2   -1    0    0  501    0  0.00000000000E+00 -0.00000000000E+00 -0.44699067051E+02  0.44699067123E+02  0.25500000000E-02 0.  1.
    5000001    1    1    2    0    0  0.36724589439E+02 -0.12788264762E+03  0.30442645672E+03  0.37094896493E+03  0.16500000000E+03 0.  0.
   -5000001    1    1    2    0    0 -0.36724589439E+02  0.12788264762E+03  0.97056082391E+03  0.99343644987E+03  0.16500000000E+03 0.  0.
<mgrwt>
<rscale>  0 0.48575199E+03</rscale>
<asrwt>0</asrwt>
<pdfrwt beam="1">  1        2 0.68767796E-02 0.48575199E+03</pdfrwt>
<pdfrwt beam="2">  1       -2 0.20302867E+00 0.48575199E+03</pdfrwt>
<totfact> 0.14141056E+02</totfact>
</mgrwt>
</event>
<event>
 4    1  0.9012200E-005  0.5176226E+03  0.7818608E-02  0.1009279E+00
          2   -1    0    0  501    0  0.00000000000E+00  0.00000000000E+00  0.74046082444E+03  0.74046082445E+03  0.25500000000E-02 0.  1.
         -2   -1    0    0    0  501 -0.00000000000E+00 -0.00000000000E+00 -0.90461622527E+02  0.90461622563E+02  0.25500000000E-02 0. -1.
    5000001    1    1    2    0    0  0.84841523106E+00 -0.19935238405E+03  0.33145963443E+03  0.42051466335E+03  0.16500000000E+03 0.  0.
   -5000001    1    1    2    0    0 -0.84841523106E+00  0.19935238405E+03  0.31853956749E+03  0.41040778366E+03  0.16500000000E+03 0.  0.
<mgrwt>
<rscale>  0 0.51762259E+03</rscale>
<asrwt>0</asrwt>
<pdfrwt beam="1">  1        2 0.11391705E+00 0.51762259E+03</pdfrwt>
<pdfrwt beam="2">  1       -2 0.13917172E-01 0.51762259E+03</pdfrwt>
<totfact> 0.15192873E+03</totfact>
</mgrwt>
</event>
<event>
 4    1  0.9012200E-005  0.3548913E+03  0.7818608E-02  0.1060625E+00
         -2   -1    0    0    0  501 -0.00000000000E+00  0.00000000000E+00  0.14348011259E+03  0.14348011261E+03  0.25500000000E-02 0. -1.
          2   -1    0    0  501    0  0.00000000000E+00 -0.00000000000E+00 -0.21945178261E+03  0.21945178262E+03  0.25500000000E-02 0.  1.
    5000001    1    1    2    0    0  0.29969539895E+02  0.19300194672E+02 -0.93917712728E+02  0.19317403449E+03  0.16500000000E+03 0.  0.
   -5000001    1    1    2    0    0 -0.29969539895E+02 -0.19300194672E+02  0.17946042704E+02  0.16975786074E+03  0.16500000000E+03 0.  0.
<mgrwt>
<rscale>  0 0.35489134E+03</rscale>
<asrwt>0</asrwt>
<pdfrwt beam="1">  1        2 0.33761813E-01 0.35489134E+03</pdfrwt>
<pdfrwt beam="2">  1       -2 0.22073863E-01 0.35489134E+03</pdfrwt>
<totfact> 0.27367257E+03</totfact>
</mgrwt>
</event>
<event>
 4    1  0.9012200E-005  0.5196487E+03  0.7818608E-02  0.1008774E+00
         -2   -1    0    0    0  501 -0.00000000000E+00  0.00000000000E+00  0.10021373997E+03  0.10021374001E+03  0.25500000000E-02 0. -1.
          2   -1    0    0  501    0  0.00000000000E+00 -0.00000000000E+00 -0.67364705525E+03  0.67364705526E+03  0.25500000000E-02 0.  1.
    5000001    1    1    2    0    0  0.19221684362E+03  0.56974898193E+02 -0.30086302615E+03  0.39741290178E+03  0.16500000000E+03 0.  0.
   -5000001    1    1    2    0    0 -0.19221684362E+03 -0.56974898193E+02 -0.27257028913E+03  0.37644789349E+03  0.16500000000E+03 0.  0.
<mgrwt>
<rscale>  0 0.51964869E+03</rscale>
<asrwt>0</asrwt>
<pdfrwt beam="1">  1        2 0.10363801E+00 0.51964869E+03</pdfrwt>
<pdfrwt beam="2">  1       -2 0.15417499E-01 0.51964869E+03</pdfrwt>
<totfact> 0.14404810E+03</totfact>
</mgrwt>
</event>
<event>
 4    1  0.9012200E-005  0.5641850E+03  0.7818608E-02  0.9982630E-01
         -2   -1    0    0    0  501 -0.00000000000E+00  0.00000000000E+00  0.63730367121E+02  0.63730367172E+02  0.25500000000E-02 0. -1.
          2   -1    0    0  501    0  0.00000000000E+00 -0.00000000000E+00 -0.12486383400E+04  0.12486383400E+04  0.25500000000E-02 0.  1.
    5000001    1    1    2    0    0 -0.14881202799E+03 -0.12196151552E+03 -0.88047710186E+03  0.91623389909E+03  0.16500000000E+03 0.  0.
   -5000001    1    1    2    0    0  0.14881202799E+03  0.12196151552E+03 -0.30443087101E+03  0.39613480807E+03  0.16500000000E+03 0.  0.
<mgrwt>
<rscale>  0 0.56418500E+03</rscale>
<asrwt>0</asrwt>
<pdfrwt beam="1">  1        2 0.19209819E+00 0.56418500E+03</pdfrwt>
<pdfrwt beam="2">  1       -2 0.98046728E-02 0.56418500E+03</pdfrwt>
<totfact> 0.12723991E+03</totfact>
</mgrwt>
</event>
<event>
 4    1  0.9012200E-005  0.5403833E+03  0.7818608E-02  0.1003745E+00
         -2   -1    0    0    0  501 -0.00000000000E+00  0.00000000000E+00  0.44326639549E+02  0.44326639623E+02  0.25500000000E-02 0. -1.
          2   -1    0    0  501    0  0.00000000000E+00 -0.00000000000E+00 -0.16469450346E+04  0.16469450346E+04  0.25500000000E-02 0.  1.
    5000001    1    1    2    0    0 -0.19038536263E+03  0.97228897203E+02 -0.77358045071E+03  0.81936057904E+03  0.16500000000E+03 0.  0.
   -5000001    1    1    2    0    0  0.19038536263E+03 -0.97228897203E+02 -0.82903794431E+03  0.87191109516E+03  0.16500000000E+03 0.  0.
<mgrwt>
<rscale>  0 0.54038334E+03</rscale>
<asrwt>0</asrwt>
<pdfrwt beam="1">  1        2 0.25337611E+00 0.54038334E+03</pdfrwt>
<pdfrwt beam="2">  1       -2 0.68194843E-02 0.54038334E+03</pdfrwt>
<totfact> 0.13638028E+03</totfact>
</mgrwt>
</event>
<event>
 4    1  0.9012200E-005  0.6948157E+03  0.7818608E-02  0.9726139E-01
          2   -1    0    0  501    0  0.00000000000E+00  0.00000000000E+00  0.55304193570E+03  0.55304193570E+03  0.25500000000E-02 0.  1.
         -2   -1    0    0    0  501 -0.00000000000E+00 -0.00000000000E+00 -0.21823337287E+03  0.21823337288E+03  0.25500000000E-02 0. -1.
    5000001    1    1    2    0    0 -0.11210472582E+03 -0.18214032652E+03  0.40990394671E+03  0.49090611488E+03  0.16500000000E+03 0.  0.
   -5000001    1    1    2    0    0  0.11210472582E+03  0.18214032652E+03 -0.75095383884E+02  0.28036919370E+03  0.16500000000E+03 0.  0.
<mgrwt>
<rscale>  0 0.69481568E+03</rscale>
<asrwt>0</asrwt>
<pdfrwt beam="1">  1        2 0.85083374E-01 0.69481568E+03</pdfrwt>
<pdfrwt beam="2">  1       -2 0.33574365E-01 0.69481568E+03</pdfrwt>
<totfact> 0.45668483E+02</totfact>
</mgrwt>
</event>
<event>
 4    1  0.9012200E-005  0.3694262E+03  0.7818608E-02  0.1054913E+00
          2   -1    0    0  501    0  0.00000000000E+00  0.00000000000E+00  0.17876973538E+04  0.17876973538E+04  0.25500000000E-02 0.  1.
         -2   -1    0    0    0  501 -0.00000000000E+00 -0.00000000000E+00 -0.19085410017E+02  0.19085410188E+02  0.25500000000E-02 0. -1.
    5000001    1    1    2    0    0  0.74488331639E+02  0.89386935513E+01  0.10582916982E+04  0.10737014157E+04  0.16500000000E+03 0.  0.
   -5000001    1    1    2    0    0 -0.74488331639E+02 -0.89386935513E+01  0.71032024563E+03  0.73308134825E+03  0.16500000000E+03 0.  0.
<mgrwt>
<rscale>  0 0.36942624E+03</rscale>
<asrwt>0</asrwt>
<pdfrwt beam="1">  1        2 0.27503038E+00 0.36942624E+03</pdfrwt>
<pdfrwt beam="2">  1       -2 0.29362167E-02 0.36942624E+03</pdfrwt>
<totfact> 0.41997659E+03</totfact>
</mgrwt>
</event>
<event>
 4    1  0.9012200E-005  0.6295881E+03  0.7818608E-02  0.9845853E-01
          2   -1    0    0  501    0  0.00000000000E+00  0.00000000000E+00  0.63452426782E+03  0.63452426782E+03  0.25500000000E-02 0.  1.
         -2   -1    0    0    0  501 -0.00000000000E+00 -0.00000000000E+00 -0.15617257363E+03  0.15617257365E+03  0.25500000000E-02 0. -1.
    5000001    1    1    2    0    0  0.19537900821E+03 -0.79895693889E+01  0.46950002220E+03  0.53468875144E+03  0.16500000000E+03 0.  0.
   -5000001    1    1    2    0    0 -0.19537900821E+03  0.79895693889E+01  0.88516719852E+01  0.25600809004E+03  0.16500000000E+03 0.  0.
<mgrwt>
<rscale>  0 0.62958808E+03</rscale>
<asrwt>0</asrwt>
<pdfrwt beam="1">  1        2 0.97619116E-01 0.62958808E+03</pdfrwt>
<pdfrwt beam="2">  1       -2 0.24026550E-01 0.62958808E+03</pdfrwt>
<totfact> 0.71717678E+02</totfact>
</mgrwt>
</event>
<event>
 4    1  0.9012200E-005  0.4752681E+03  0.7818608E-02  0.1020444E+00
          2   -1    0    0  501    0  0.00000000000E+00  0.00000000000E+00  0.32486829335E+04  0.32486829335E+04  0.25500000000E-02 0.  1.
         -2   -1    0    0    0  501 -0.00000000000E+00 -0.00000000000E+00 -0.17382412381E+02  0.17382412568E+02  0.25500000000E-02 0. -1.
    5000001    1    1    2    0    0 -0.10223543127E+03  0.13556291938E+03  0.17557386459E+04  0.17716299222E+04  0.16500000000E+03 0.  0.
   -5000001    1    1    2    0    0  0.10223543127E+03 -0.13556291938E+03  0.14755618752E+04  0.14944354239E+04  0.16500000000E+03 0.  0.
<mgrwt>
<rscale>  0 0.47526812E+03</rscale>
<asrwt>0</asrwt>
<pdfrwt beam="1">  1        2 0.49979771E+00 0.47526812E+03</pdfrwt>
<pdfrwt beam="2">  1       -2 0.26742155E-02 0.47526812E+03</pdfrwt>
<totfact> 0.71410547E+02</totfact>
</mgrwt>
</event>
<event>
 4    1  0.9012200E-005  0.5069284E+03  0.7818608E-02  0.1011986E+00
          2   -1    0    0  501    0  0.00000000000E+00  0.00000000000E+00  0.13956355139E+04  0.13956355139E+04  0.25500000000E-02 0.  1.
         -2   -1    0    0    0  501 -0.00000000000E+00 -0.00000000000E+00 -0.46032153077E+02  0.46032153148E+02  0.25500000000E-02 0. -1.
    5000001    1    1    2    0    0 -0.10973464607E+03 -0.15251144174E+03  0.55693554551E+03  0.61049458168E+03  0.16500000000E+03 0.  0.
   -5000001    1    1    2    0    0  0.10973464607E+03  0.15251144174E+03  0.79266781532E+03  0.83117308538E+03  0.16500000000E+03 0.  0.
<mgrwt>
<rscale>  0 0.50692843E+03</rscale>
<asrwt>0</asrwt>
<pdfrwt beam="1">  1        2 0.21471317E+00 0.50692843E+03</pdfrwt>
<pdfrwt beam="2">  1       -2 0.70818692E-02 0.50692843E+03</pdfrwt>
<totfact> 0.17678163E+03</totfact>
</mgrwt>
</event>
<event>
 4    1  0.9012200E-005  0.7129937E+03  0.7818608E-02  0.9695266E-01
         -2   -1    0    0    0  501 -0.00000000000E+00  0.00000000000E+00  0.14774671814E+03  0.14774671816E+03  0.25500000000E-02 0. -1.
          2   -1    0    0  501    0  0.00000000000E+00 -0.00000000000E+00 -0.86018824907E+03  0.86018824908E+03  0.25500000000E-02 0.  1.
    5000001    1    1    2    0    0  0.27441603481E+03 -0.13265455972E+03 -0.23825290546E+03  0.42058392663E+03  0.16500000000E+03 0.  0.
   -5000001    1    1    2    0    0 -0.27441603481E+03  0.13265455972E+03 -0.47418862548E+03  0.58735104061E+03  0.16500000000E+03 0.  0.
<mgrwt>
<rscale>  0 0.71299366E+03</rscale>
<asrwt>0</asrwt>
<pdfrwt beam="1">  1        2 0.13233665E+00 0.71299366E+03</pdfrwt>
<pdfrwt beam="2">  1       -2 0.22730265E-01 0.71299366E+03</pdfrwt>
<totfact> 0.53433919E+02</totfact>
</mgrwt>
</event>
<event>
 4    1  0.9012200E-005  0.5571060E+03  0.7818608E-02  0.9998624E-01
         -2   -1    0    0    0  501 -0.00000000000E+00  0.00000000000E+00  0.11876240649E+04  0.11876240649E+04  0.25500000000E-02 0. -1.
          2   -1    0    0  501    0  0.00000000000E+00 -0.00000000000E+00 -0.65333611118E+02  0.65333611167E+02  0.25500000000E-02 0.  1.
    5000001    1    1    2    0    0  0.42391078356E+02 -0.16166326238E+03  0.89801282806E+03  0.92821552093E+03  0.16500000000E+03 0.  0.
   -5000001    1    1    2    0    0 -0.42391078356E+02  0.16166326238E+03  0.22427762573E+03  0.32474215515E+03  0.16500000000E+03 0.  0.
<mgrwt>
<rscale>  0 0.55710598E+03</rscale>
<asrwt>0</asrwt>
<pdfrwt beam="1">  1        2 0.10051325E-01 0.55710598E+03</pdfrwt>
<pdfrwt beam="2">  1       -2 0.18271139E+00 0.55710598E+03</pdfrwt>
<totfact> 0.11737858E+02</totfact>
</mgrwt>
</event>
<event>
 4    1  0.9012200E-005  0.3572599E+03  0.7818608E-02  0.1059674E+00
          2   -1    0    0  501    0  0.00000000000E+00  0.00000000000E+00  0.19728677381E+04  0.19728677381E+04  0.25500000000E-02 0.  1.
         -2   -1    0    0    0  501 -0.00000000000E+00 -0.00000000000E+00 -0.16173747385E+02  0.16173747586E+02  0.25500000000E-02 0. -1.
    5000001    1    1    2    0    0  0.48866237636E+02  0.14111764492E+02  0.12332756914E+04  0.12453035702E+04  0.16500000000E+03 0.  0.
   -5000001    1    1    2    0    0 -0.48866237636E+02 -0.14111764492E+02  0.72341829935E+03  0.74373791547E+03  0.16500000000E+03 0.  0.
<mgrwt>
<rscale>  0 0.35725993E+03</rscale>
<asrwt>0</asrwt>
<pdfrwt beam="1">  1        2 0.30351837E+00 0.35725993E+03</pdfrwt>
<pdfrwt beam="2">  1       -2 0.24882668E-02 0.35725993E+03</pdfrwt>
<totfact> 0.42909845E+03</totfact>
</mgrwt>
</event>
<event>
 4    1  0.9012200E-005  0.4517104E+03  0.7818608E-02  0.1027213E+00
          2   -1    0    0  501    0  0.00000000000E+00  0.00000000000E+00  0.95861543708E+03  0.95861543709E+03  0.25500000000E-02 0.  1.
         -2   -1    0    0    0  501 -0.00000000000E+00 -0.00000000000E+00 -0.53212760920E+02  0.53212760981E+02  0.25500000000E-02 0. -1.
    5000001    1    1    2    0    0 -0.15311195269E+03 -0.12367780750E+02  0.42187867170E+03  0.47833340433E+03  0.16500000000E+03 0.  0.
   -5000001    1    1    2    0    0  0.15311195269E+03  0.12367780750E+02  0.48352400446E+03  0.53349479374E+03  0.16500000000E+03 0.  0.
<mgrwt>
<rscale>  0 0.45171041E+03</rscale>
<asrwt>0</asrwt>
<pdfrwt beam="1">  1        2 0.14747928E+00 0.45171041E+03</pdfrwt>
<pdfrwt beam="2">  1       -2 0.81865794E-02 0.45171041E+03</pdfrwt>
<totfact> 0.25476444E+03</totfact>
</mgrwt>
</event>
<event>
 4    1  0.9012200E-005  0.6649425E+03  0.7818608E-02  0.9779138E-01
          2   -1    0    0  501    0  0.00000000000E+00  0.00000000000E+00  0.13509676170E+03  0.13509676173E+03  0.25500000000E-02 0.  1.
         -2   -1    0    0    0  501 -0.00000000000E+00 -0.00000000000E+00 -0.81820719564E+03  0.81820719564E+03  0.25500000000E-02 0. -1.
    5000001    1    1    2    0    0  0.16792313838E+03 -0.21232058502E+03 -0.19794582433E+03  0.37374558271E+03  0.16500000000E+03 0.  0.
   -5000001    1    1    2    0    0 -0.16792313838E+03  0.21232058502E+03 -0.48516460960E+03  0.57955837466E+03  0.16500000000E+03 0.  0.
<mgrwt>
<rscale>  0 0.66494253E+03</rscale>
<asrwt>0</asrwt>
<pdfrwt beam="1">  1        2 0.20784118E-01 0.66494253E+03</pdfrwt>
<pdfrwt beam="2">  1       -2 0.12587803E+00 0.66494253E+03</pdfrwt>
<totfact> 0.12954525E+02</totfact>
</mgrwt>
</event>
<event>
 4    1  0.9012200E-005  0.5078376E+03  0.7818608E-02  0.1011753E+00
          2   -1    0    0  501    0  0.00000000000E+00  0.00000000000E+00  0.12820938816E+04  0.12820938816E+04  0.25500000000E-02 0.  1.
         -2   -1    0    0    0  501 -0.00000000000E+00 -0.00000000000E+00 -0.50288630758E+02  0.50288630823E+02  0.25500000000E-02 0. -1.
    5000001    1    1    2    0    0  0.18093750796E+03 -0.55555176078E+02  0.51686288805E+03  0.57462770940E+03  0.16500000000E+03 0.  0.
   -5000001    1    1    2    0    0 -0.18093750796E+03  0.55555176078E+02  0.71494236275E+03  0.75775480298E+03  0.16500000000E+03 0.  0.
<mgrwt>
<rscale>  0 0.50783756E+03</rscale>
<asrwt>0</asrwt>
<pdfrwt beam="1">  1        2 0.19724521E+00 0.50783756E+03</pdfrwt>
<pdfrwt beam="2">  1       -2 0.77367124E-02 0.50783756E+03</pdfrwt>
<totfact> 0.17813629E+03</totfact>
</mgrwt>
</event>
<event>
 4    1  0.9012200E-005  0.5771516E+03  0.7818608E-02  0.9953977E-01
         -2   -1    0    0    0  501 -0.00000000000E+00  0.00000000000E+00  0.18530505117E+03  0.18530505119E+03  0.25500000000E-02 0. -1.
          2   -1    0    0  501    0  0.00000000000E+00 -0.00000000000E+00 -0.44939951779E+03  0.44939951779E+03  0.25500000000E-02 0.  1.
    5000001    1    1    2    0    0  0.18872760327E+03  0.14046454849E+03 -0.16119710903E+03  0.32948126742E+03  0.16500000000E+03 0.  0.
   -5000001    1    1    2    0    0 -0.18872760327E+03 -0.14046454849E+03 -0.10289735758E+03  0.30522330156E+03  0.16500000000E+03 0.  0.
<mgrwt>
<rscale>  0 0.57715163E+03</rscale>
<asrwt>0</asrwt>
<pdfrwt beam="1">  1        2 0.69138387E-01 0.57715163E+03</pdfrwt>
<pdfrwt beam="2">  1       -2 0.28508470E-01 0.57715163E+03</pdfrwt>
<totfact> 0.78871425E+02</totfact>
</mgrwt>
</event>
<event>
 4    1  0.9012200E-005  0.4208153E+03  0.7818608E-02  0.1036801E+00
         -2   -1    0    0    0  501 -0.00000000000E+00  0.00000000000E+00  0.37597744251E+02  0.37597744337E+02  0.25500000000E-02 0. -1.
          2   -1    0    0  501    0  0.00000000000E+00 -0.00000000000E+00 -0.11775011130E+04  0.11775011130E+04  0.25500000000E-02 0.  1.
    5000001    1    1    2    0    0 -0.69109966546E+02  0.35640522160E+02 -0.87279322230E+03  0.89164984337E+03  0.16500000000E+03 0.  0.
   -5000001    1    1    2    0    0  0.69109966546E+02 -0.35640522160E+02 -0.26711014642E+03  0.32344901393E+03  0.16500000000E+03 0.  0.
<mgrwt>
<rscale>  0 0.42081533E+03</rscale>
<asrwt>0</asrwt>
<pdfrwt beam="1">  1        2 0.18115399E+00 0.42081533E+03</pdfrwt>
<pdfrwt beam="2">  1       -2 0.57842692E-02 0.42081533E+03</pdfrwt>
<totfact> 0.32317893E+03</totfact>
</mgrwt>
</event>
<event>
 4    1  0.9012200E-005  0.4108084E+03  0.7818608E-02  0.1040100E+00
          2   -1    0    0  501    0  0.00000000000E+00  0.00000000000E+00  0.24542395249E+04  0.24542395249E+04  0.25500000000E-02 0.  1.
         -2   -1    0    0    0  501 -0.00000000000E+00 -0.00000000000E+00 -0.17191019836E+02  0.17191020025E+02  0.25500000000E-02 0. -1.
    5000001    1    1    2    0    0 -0.37781768761E+02  0.11344496834E+03  0.10629595570E+04  0.10823147613E+04  0.16500000000E+03 0.  0.
   -5000001    1    1    2    0    0  0.37781768761E+02 -0.11344496834E+03  0.13740889481E+04  0.13891157836E+04  0.16500000000E+03 0.  0.
<mgrwt>
<rscale>  0 0.41080838E+03</rscale>
<asrwt>0</asrwt>
<pdfrwt beam="1">  1        2 0.37757489E+00 0.41080838E+03</pdfrwt>
<pdfrwt beam="2">  1       -2 0.26447753E-02 0.41080838E+03</pdfrwt>
<totfact> 0.21467210E+03</totfact>
</mgrwt>
</event>
<event>
 4    1  0.9012200E-005  0.4007533E+03  0.7818608E-02  0.1043519E+00
         -2   -1    0    0    0  501 -0.00000000000E+00  0.00000000000E+00  0.12610281409E+03  0.12610281412E+03  0.25500000000E-02 0. -1.
          2   -1    0    0  501    0  0.00000000000E+00 -0.00000000000E+00 -0.31839742099E+03  0.31839742100E+03  0.25500000000E-02 0.  1.
    5000001    1    1    2    0    0 -0.86220901618E+02  0.72123078877E+02 -0.11503657070E+03  0.23042177627E+03  0.16500000000E+03 0.  0.
   -5000001    1    1    2    0    0  0.86220901618E+02 -0.72123078877E+02 -0.77258036193E+02  0.21407845884E+03  0.16500000000E+03 0.  0.
<mgrwt>
<rscale>  0 0.40075334E+03</rscale>
<asrwt>0</asrwt>
<pdfrwt beam="1">  1        2 0.48984218E-01 0.40075334E+03</pdfrwt>
<pdfrwt beam="2">  1       -2 0.19400433E-01 0.40075334E+03</pdfrwt>
<totfact> 0.22844031E+03</totfact>
</mgrwt>
</event>
<event>
 4    1  0.9012200E-005  0.7527016E+03  0.7818608E-02  0.9631121E-01
         -2   -1    0    0    0  501 -0.00000000000E+00  0.00000000000E+00  0.10136487161E+04  0.10136487161E+04  0.25500000000E-02 0.  1.
          2   -1    0    0  501    0  0.00000000000E+00 -0.00000000000E+00 -0.13973276665E+03  0.13973276667E+03  0.25500000000E-02 0. -1.
    5000001    1    1    2    0    0 -0.53731880335E+01  0.26023706222E+03  0.10595245943E+03  0.32588820685E+03  0.16500000000E+03 0.  0.
   -5000001    1    1    2    0    0  0.53731880335E+01 -0.26023706222E+03  0.76796348997E+03  0.82749327589E+03  0.16500000000E+03 0.  0.
<mgrwt>
<rscale>  0 0.75270164E+03</rscale>
<asrwt>0</asrwt>
<pdfrwt beam="1">  1        2 0.21497348E-01 0.75270164E+03</pdfrwt>
<pdfrwt beam="2">  1       -2 0.15594596E+00 0.75270164E+03</pdfrwt>
<totfact> 0.71299069E+01</totfact>
</mgrwt>
</event>
<event>
 4    1  0.9012200E-005  0.6179651E+03  0.7818608E-02  0.9868820E-01
         -2   -1    0    0    0  501 -0.00000000000E+00  0.00000000000E+00  0.65764540265E+02  0.65764540314E+02  0.25500000000E-02 0. -1.
          2   -1    0    0  501    0  0.00000000000E+00 -0.00000000000E+00 -0.14516973998E+04  0.14516973999E+04  0.25500000000E-02 0.  1.
    5000001    1    1    2    0    0 -0.19615206713E+03 -0.16792502310E+03 -0.79028809245E+03  0.84761708093E+03  0.16500000000E+03 0.  0.
   -5000001    1    1    2    0    0  0.19615206713E+03  0.16792502310E+03 -0.59564476713E+03  0.66984485923E+03  0.16500000000E+03 0.  0.
<mgrwt>
<rscale>  0 0.61796509E+03</rscale>
<asrwt>0</asrwt>
<pdfrwt beam="1">  1        2 0.22333804E+00 0.61796509E+03</pdfrwt>
<pdfrwt beam="2">  1       -2 0.10117623E-01 0.61796509E+03</pdfrwt>
<totfact> 0.92599974E+02</totfact>
</mgrwt>
</event>
<event>
 4    1  0.9012200E-005  0.4171307E+03  0.7818608E-02  0.1038004E+00
         -2   -1    0    0    0  501 -0.00000000000E+00  0.00000000000E+00  0.29251544117E+02  0.29251544229E+02  0.25500000000E-02 0. -1.
          2   -1    0    0  501    0  0.00000000000E+00 -0.00000000000E+00 -0.14870841671E+04  0.14870841671E+04  0.25500000000E-02 0.  1.
    5000001    1    1    2    0    0 -0.49953972273E+02  0.11403303782E+03 -0.83015234839E+03  0.85549801554E+03  0.16500000000E+03 0.  0.
   -5000001    1    1    2    0    0  0.49953972273E+02 -0.11403303782E+03 -0.62768027454E+03  0.66083769574E+03  0.16500000000E+03 0.  0.
<mgrwt>
<rscale>  0 0.41713071E+03</rscale>
<asrwt>0</asrwt>
<pdfrwt beam="1">  1        2 0.22878212E+00 0.41713071E+03</pdfrwt>
<pdfrwt beam="2">  1       -2 0.45002387E-02 0.41713071E+03</pdfrwt>
<totfact> 0.31877315E+03</totfact>
</mgrwt>
</event>
<event>
 4    1  0.9012200E-005  0.8143990E+03  0.7818608E-02  0.9539406E-01
          2   -1    0    0  501    0  0.00000000000E+00  0.00000000000E+00  0.17541012812E+04  0.17541012812E+04  0.25500000000E-02 0.  1.
         -2   -1    0    0    0  501 -0.00000000000E+00 -0.00000000000E+00 -0.94527849439E+02  0.94527849474E+02  0.25500000000E-02 0. -1.
    5000001    1    1    2    0    0  0.35568156689E+03  0.11474072782E+02  0.10778787102E+04  0.11470346748E+04  0.16500000000E+03 0.  0.
   -5000001    1    1    2    0    0 -0.35568156689E+03 -0.11474072782E+02  0.58169472156E+03  0.70159445584E+03  0.16500000000E+03 0.  0.
<mgrwt>
<rscale>  0 0.81439897E+03</rscale>
<asrwt>0</asrwt>
<pdfrwt beam="1">  1        2 0.26986172E+00 0.81439897E+03</pdfrwt>
<pdfrwt beam="2">  1       -2 0.14542747E-01 0.81439897E+03</pdfrwt>
<totfact> 0.34232893E+02</totfact>
</mgrwt>
</event>
<event>
 4    1  0.9012200E-005  0.1002562E+04  0.7818608E-02  0.9305739E-01
         -2   -1    0    0    0  501 -0.00000000000E+00  0.00000000000E+00  0.63048797214E+03  0.63048797214E+03  0.25500000000E-02 0. -1.
          2   -1    0    0  501    0  0.00000000000E+00 -0.00000000000E+00 -0.39855296606E+03  0.39855296607E+03  0.25500000000E-02 0.  1.
    5000001    1    1    2    0    0  0.37065299596E+03 -0.27107432152E+03 -0.19264957178E+01  0.48794840156E+03  0.16500000000E+03 0.  0.
   -5000001    1    1    2    0    0 -0.37065299596E+03  0.27107432152E+03  0.23386150179E+03  0.54109253665E+03  0.16500000000E+03 0.  0.
<mgrwt>
<rscale>  0 0.10025624E+04</rscale>
<asrwt>0</asrwt>
<pdfrwt beam="1">  1        2 0.61315841E-01 0.10025624E+04</pdfrwt>
<pdfrwt beam="2">  1       -2 0.96998149E-01 0.10025624E+04</pdfrwt>
<totfact> 0.70772523E+01</totfact>
</mgrwt>
</event>
<event>
 4    1  0.9012200E-005  0.3785735E+03  0.7818608E-02  0.1051462E+00
          2   -1    0    0  501    0  0.00000000000E+00  0.00000000000E+00  0.58255177262E+03  0.58255177262E+03  0.25500000000E-02 0.  1.
         -2   -1    0    0    0  501 -0.00000000000E+00 -0.00000000000E+00 -0.61504354577E+02  0.61504354629E+02  0.25500000000E-02 0. -1.
    5000001    1    1    2    0    0 -0.88847972404E+02  0.15447405290E+02  0.29748032479E+03  0.35192631071E+03  0.16500000000E+03 0.  0.
   -5000001    1    1    2    0    0  0.88847972404E+02 -0.15447405290E+02  0.22356709325E+03  0.29212981655E+03  0.16500000000E+03 0.  0.
<mgrwt>
<rscale>  0 0.37857348E+03</rscale>
<asrwt>0</asrwt>
<pdfrwt beam="1">  1        2 0.89623351E-01 0.37857348E+03</pdfrwt>
<pdfrwt beam="2">  1       -2 0.94622083E-02 0.37857348E+03</pdfrwt>
<totfact> 0.38058761E+03</totfact>
</mgrwt>
</event>
<event>
 4    1  0.9012200E-005  0.6456206E+03  0.7818608E-02  0.9815032E-01
         -2   -1    0    0    0  501 -0.00000000000E+00  0.00000000000E+00  0.22359037874E+03  0.22359037876E+03  0.25500000000E-02 0. -1.
          2   -1    0    0  501    0  0.00000000000E+00 -0.00000000000E+00 -0.46605981801E+03  0.46605981802E+03  0.25500000000E-02 0.  1.
    5000001    1    1    2    0    0  0.92374158121E+02 -0.18537296820E+03 -0.31844769305E+03  0.41416187130E+03  0.16500000000E+03 0.  0.
   -5000001    1    1    2    0    0 -0.92374158121E+02  0.18537296820E+03  0.75978253780E+02  0.27548832548E+03  0.16500000000E+03 0.  0.
<mgrwt>
<rscale>  0 0.64562060E+03</rscale>
<asrwt>0</asrwt>
<pdfrwt beam="1">  1        2 0.71701510E-01 0.64562060E+03</pdfrwt>
<pdfrwt beam="2">  1       -2 0.34398520E-01 0.64562060E+03</pdfrwt>
<totfact> 0.53272354E+02</totfact>
</mgrwt>
</event>
<event>
 4    1  0.9012200E-005  0.4913351E+03  0.7818608E-02  0.1016066E+00
         -2   -1    0    0    0  501 -0.00000000000E+00  0.00000000000E+00  0.12646900931E+03  0.12646900933E+03  0.25500000000E-02 0. -1.
          2   -1    0    0  501    0  0.00000000000E+00 -0.00000000000E+00 -0.47721217055E+03  0.47721217056E+03  0.25500000000E-02 0.  1.
    5000001    1    1    2    0    0 -0.18018920647E+03 -0.36938053338E+01 -0.20659382316E+03  0.31998094021E+03  0.16500000000E+03 0.  0.
   -5000001    1    1    2    0    0  0.18018920647E+03  0.36938053338E+01 -0.14414933808E+03  0.28370023968E+03  0.16500000000E+03 0.  0.
<mgrwt>
<rscale>  0 0.49133512E+03</rscale>
<asrwt>0</asrwt>
<pdfrwt beam="1">  1        2 0.73417256E-01 0.49133512E+03</pdfrwt>
<pdfrwt beam="2">  1       -2 0.19456771E-01 0.49133512E+03</pdfrwt>
<totfact> 0.14539102E+03</totfact>
</mgrwt>
</event>
<event>
 4    1  0.9012200E-005  0.5787355E+03  0.7818608E-02  0.9950532E-01
         -2   -1    0    0    0  501 -0.00000000000E+00  0.00000000000E+00  0.25856198706E+03  0.25856198707E+03  0.25500000000E-02 0.  1.
          2   -1    0    0  501    0  0.00000000000E+00 -0.00000000000E+00 -0.32384383145E+03  0.32384383146E+03  0.25500000000E-02 0. -1.
    5000001    1    1    2    0    0  0.10341204403E+03 -0.16695185065E+03  0.10215531051E+03  0.27609360505E+03  0.16500000000E+03 0.  0.
   -5000001    1    1    2    0    0 -0.10341204403E+03  0.16695185065E+03 -0.16743715490E+03  0.30631221348E+03  0.16500000000E+03 0.  0.
<mgrwt>
<rscale>  0 0.57873553E+03</rscale>
<asrwt>0</asrwt>
<pdfrwt beam="1">  1        2 0.49822128E-01 0.57873553E+03</pdfrwt>
<pdfrwt beam="2">  1       -2 0.39778767E-01 0.57873553E+03</pdfrwt>
<totfact> 0.60689015E+02</totfact>
</mgrwt>
</event>
<event>
 4    1  0.9012200E-005  0.7462799E+03  0.7818608E-02  0.9641205E-01
         -2   -1    0    0    0  501 -0.00000000000E+00  0.00000000000E+00  0.15500469566E+03  0.15500469568E+03  0.25500000000E-02 0. -1.
          2   -1    0    0  501    0  0.00000000000E+00 -0.00000000000E+00 -0.89825281446E+03  0.89825281446E+03  0.25500000000E-02 0.  1.
    5000001    1    1    2    0    0 -0.20755661931E+03 -0.23432254201E+03 -0.53874529522E+03  0.64456054567E+03  0.16500000000E+03 0.  0.
   -5000001    1    1    2    0    0  0.20755661931E+03  0.23432254201E+03 -0.20450282358E+03  0.40869696447E+03  0.16500000000E+03 0.  0.
<mgrwt>
<rscale>  0 0.74627985E+03</rscale>
<asrwt>0</asrwt>
<pdfrwt beam="1">  1        2 0.13819274E+00 0.74627985E+03</pdfrwt>
<pdfrwt beam="2">  1       -2 0.23846877E-01 0.74627985E+03</pdfrwt>
<totfact> 0.46152311E+02</totfact>
</mgrwt>
</event>
<event>
 4    1  0.9012200E-005  0.4328937E+03  0.7818608E-02  0.1032950E+00
          2   -1    0    0  501    0  0.00000000000E+00  0.00000000000E+00  0.83155821045E+03  0.83155821045E+03  0.25500000000E-02 0.  1.
         -2   -1    0    0    0  501 -0.00000000000E+00 -0.00000000000E+00 -0.56339091201E+02  0.56339091259E+02  0.25500000000E-02 0. -1.
    5000001    1    1    2    0    0 -0.51378854017E+02  0.50247869150E+02  0.14097177161E+03  0.22861031338E+03  0.16500000000E+03 0.  0.
   -5000001    1    1    2    0    0  0.51378854017E+02 -0.50247869150E+02  0.63424734764E+03  0.65928698833E+03  0.16500000000E+03 0.  0.
<mgrwt>
<rscale>  0 0.43289368E+03</rscale>
<asrwt>0</asrwt>
<pdfrwt beam="1">  1        2 0.12793203E+00 0.43289368E+03</pdfrwt>
<pdfrwt beam="2">  1       -2 0.86675529E-02 0.43289368E+03</pdfrwt>
<totfact> 0.28238584E+03</totfact>
</mgrwt>
</event>
<event>
 4    1  0.9012200E-005  0.8439676E+03  0.7818608E-02  0.9498469E-01
          2   -1    0    0  501    0  0.00000000000E+00  0.00000000000E+00  0.36390409844E+03  0.36390409845E+03  0.25500000000E-02 0.  1.
         -2   -1    0    0    0  501 -0.00000000000E+00 -0.00000000000E+00 -0.48933314994E+03  0.48933314995E+03  0.25500000000E-02 0. -1.
    5000001    1    1    2    0    0  0.38299221004E+03 -0.56304740353E+01  0.22611458841E+01  0.41706695861E+03  0.16500000000E+03 0.  0.
   -5000001    1    1    2    0    0 -0.38299221004E+03  0.56304740353E+01 -0.12769019738E+03  0.43617028979E+03  0.16500000000E+03 0.  0.
<mgrwt>
<rscale>  0 0.84396763E+03</rscale>
<asrwt>0</asrwt>
<pdfrwt beam="1">  1        2 0.55985246E-01 0.84396763E+03</pdfrwt>
<pdfrwt beam="2">  1       -2 0.75282023E-01 0.84396763E+03</pdfrwt>
<totfact> 0.14095003E+02</totfact>
</mgrwt>
</event>
<event>
 4    1  0.9012200E-005  0.4369889E+03  0.7818608E-02  0.1031675E+00
         -2   -1    0    0    0  501 -0.00000000000E+00  0.00000000000E+00  0.39557706267E+02  0.39557706349E+02  0.25500000000E-02 0. -1.
          2   -1    0    0  501    0  0.00000000000E+00 -0.00000000000E+00 -0.12068403001E+04  0.12068403001E+04  0.25500000000E-02 0.  1.
    5000001    1    1    2    0    0  0.94596159667E+02 -0.10713194086E+03 -0.61057164983E+03  0.64841994552E+03  0.16500000000E+03 0.  0.
   -5000001    1    1    2    0    0 -0.94596159667E+02  0.10713194086E+03 -0.55671094397E+03  0.59797806090E+03  0.16500000000E+03 0.  0.
<mgrwt>
<rscale>  0 0.43698894E+03</rscale>
<asrwt>0</asrwt>
<pdfrwt beam="1">  1        2 0.18566771E+00 0.43698894E+03</pdfrwt>
<pdfrwt beam="2">  1       -2 0.60858019E-02 0.43698894E+03</pdfrwt>
<totfact> 0.28716252E+03</totfact>
</mgrwt>
</event>
<event>
 4    1  0.9012200E-005  0.5038275E+03  0.7818608E-02  0.1012785E+00
         -2   -1    0    0    0  501 -0.00000000000E+00  0.00000000000E+00  0.29870647216E+03  0.29870647217E+03  0.25500000000E-02 0. -1.
          2   -1    0    0  501    0  0.00000000000E+00 -0.00000000000E+00 -0.21245112459E+03  0.21245112461E+03  0.25500000000E-02 0.  1.
    5000001    1    1    2    0    0 -0.15639857519E+03  0.10333929048E+03  0.95400875262E+01  0.24991105728E+03  0.16500000000E+03 0.  0.
   -5000001    1    1    2    0    0  0.15639857519E+03 -0.10333929048E+03  0.76715260046E+02  0.26124653950E+03  0.16500000000E+03 0.  0.
<mgrwt>
<rscale>  0 0.50382745E+03</rscale>
<asrwt>0</asrwt>
<pdfrwt beam="1">  1        2 0.32684789E-01 0.50382745E+03</pdfrwt>
<pdfrwt beam="2">  1       -2 0.45954842E-01 0.50382745E+03</pdfrwt>
<totfact> 0.72899855E+02</totfact>
</mgrwt>
</event>
<event>
 4    1  0.9012200E-005  0.1251455E+04  0.7818608E-02  0.9068973E-01
          2   -1    0    0  501    0  0.00000000000E+00  0.00000000000E+00  0.29499098010E+03  0.29499098011E+03  0.25500000000E-02 0.  1.
         -2   -1    0    0    0  501 -0.00000000000E+00 -0.00000000000E+00 -0.13272771920E+04  0.13272771921E+04  0.25500000000E-02 0. -1.
    5000001    1    1    2    0    0 -0.18078763476E+03 -0.57353214427E+03 -0.44895355654E+03  0.76837984443E+03  0.16500000000E+03 0.  0.
   -5000001    1    1    2    0    0  0.18078763476E+03  0.57353214427E+03 -0.58333265541E+03  0.85388832774E+03  0.16500000000E+03 0.  0.
<mgrwt>
<rscale>  0 0.12514548E+04</rscale>
<asrwt>0</asrwt>
<pdfrwt beam="1">  1        2 0.45383228E-01 0.12514548E+04</pdfrwt>
<pdfrwt beam="2">  1       -2 0.20419649E+00 0.12514548E+04</pdfrwt>
<totfact> 0.13728060E+01</totfact>
</mgrwt>
</event>
<event>
 4    1  0.9012200E-005  0.3913665E+03  0.7818608E-02  0.1046811E+00
         -2   -1    0    0    0  501 -0.00000000000E+00  0.00000000000E+00  0.63383458134E+02  0.63383458186E+02  0.25500000000E-02 0. -1.
          2   -1    0    0  501    0  0.00000000000E+00 -0.00000000000E+00 -0.60413140680E+03  0.60413140681E+03  0.25500000000E-02 0.  1.
    5000001    1    1    2    0    0  0.30634929265E+02 -0.83210284808E+02 -0.36692492520E+03  0.41197251258E+03  0.16500000000E+03 0.  0.
   -5000001    1    1    2    0    0 -0.30634929265E+02  0.83210284808E+02 -0.17382302347E+03  0.25554235241E+03  0.16500000000E+03 0.  0.
<mgrwt>
<rscale>  0 0.39136652E+03</rscale>
<asrwt>0</asrwt>
<pdfrwt beam="1">  1        2 0.92943290E-01 0.39136652E+03</pdfrwt>
<pdfrwt beam="2">  1       -2 0.97513016E-02 0.39136652E+03</pdfrwt>
<totfact> 0.34771725E+03</totfact>
</mgrwt>
</event>
<event>
 4    1  0.9012200E-005  0.5990019E+03  0.7818608E-02  0.9907479E-01
         -2   -1    0    0    0  501 -0.00000000000E+00  0.00000000000E+00  0.45366042965E+02  0.45366043037E+02  0.25500000000E-02 0. -1.
          2   -1    0    0  501    0  0.00000000000E+00 -0.00000000000E+00 -0.19772676945E+04  0.19772676945E+04  0.25500000000E-02 0.  1.
    5000001    1    1    2    0    0  0.11097850232E+03 -0.17983541249E+03 -0.14166931982E+04  0.14418396657E+04  0.16500000000E+03 0.  0.
   -5000001    1    1    2    0    0 -0.11097850232E+03  0.17983541249E+03 -0.51520845326E+03  0.58079407183E+03  0.16500000000E+03 0.  0.
<mgrwt>
<rscale>  0 0.59900187E+03</rscale>
<asrwt>0</asrwt>
<pdfrwt beam="1">  1        2 0.30419496E+00 0.59900187E+03</pdfrwt>
<pdfrwt beam="2">  1       -2 0.69793928E-02 0.59900187E+03</pdfrwt>
<totfact> 0.86856831E+02</totfact>
</mgrwt>
</event>
<event>
 4    1  0.9012200E-005  0.5391814E+03  0.7818608E-02  0.1004029E+00
         -2   -1    0    0    0  501 -0.00000000000E+00  0.00000000000E+00  0.52619972662E+03  0.52619972663E+03  0.25500000000E-02 0. -1.
          2   -1    0    0  501    0  0.00000000000E+00 -0.00000000000E+00 -0.13812085172E+03  0.13812085175E+03  0.25500000000E-02 0.  1.
    5000001    1    1    2    0    0 -0.16382199975E+03  0.65564418199E+02  0.34146783105E+03  0.41828413809E+03  0.16500000000E+03 0.  0.
   -5000001    1    1    2    0    0  0.16382199975E+03 -0.65564418199E+02  0.46611043841E+02  0.24603644028E+03  0.16500000000E+03 0.  0.
<mgrwt>
<rscale>  0 0.53918143E+03</rscale>
<asrwt>0</asrwt>
<pdfrwt beam="1">  1        2 0.21249362E-01 0.53918143E+03</pdfrwt>
<pdfrwt beam="2">  1       -2 0.80953803E-01 0.53918143E+03</pdfrwt>
<totfact> 0.35994299E+02</totfact>
</mgrwt>
</event>
<event>
 4    1  0.9012200E-005  0.7652649E+03  0.7818608E-02  0.9611702E-01
         -2   -1    0    0    0  501 -0.00000000000E+00  0.00000000000E+00  0.11076775130E+03  0.11076775133E+03  0.25500000000E-02 0. -1.
          2   -1    0    0  501    0  0.00000000000E+00 -0.00000000000E+00 -0.13217528000E+04  0.13217528000E+04  0.25500000000E-02 0.  1.
    5000001    1    1    2    0    0 -0.56024581463E+02 -0.33292116721E+03 -0.47041081432E+03  0.60206859371E+03  0.16500000000E+03 0.  0.
   -5000001    1    1    2    0    0  0.56024581463E+02  0.33292116721E+03 -0.74057423438E+03  0.83045195763E+03  0.16500000000E+03 0.  0.
<mgrwt>
<rscale>  0 0.76526488E+03</rscale>
<asrwt>0</asrwt>
<pdfrwt beam="1">  1        2 0.20334657E+00 0.76526488E+03</pdfrwt>
<pdfrwt beam="2">  1       -2 0.17041193E-01 0.76526488E+03</pdfrwt>
<totfact> 0.45646999E+02</totfact>
</mgrwt>
</event>
<event>
 4    1  0.9012200E-005  0.3502372E+03  0.7818608E-02  0.1062518E+00
         -2   -1    0    0    0  501 -0.00000000000E+00  0.00000000000E+00  0.11368748875E+03  0.11368748878E+03  0.25500000000E-02 0. -1.
          2   -1    0    0  501    0  0.00000000000E+00 -0.00000000000E+00 -0.26974407902E+03  0.26974407903E+03  0.25500000000E-02 0.  1.
    5000001    1    1    2    0    0  0.22837339535E+02 -0.43297041743E+02 -0.11342446235E+03  0.20612201862E+03  0.16500000000E+03 0.  0.
   -5000001    1    1    2    0    0 -0.22837339535E+02  0.43297041743E+02 -0.42632127915E+02  0.17730954918E+03  0.16500000000E+03 0.  0.
<mgrwt>
<rscale>  0 0.35023722E+03</rscale>
<asrwt>0</asrwt>
<pdfrwt beam="1">  1        2 0.41499089E-01 0.35023722E+03</pdfrwt>
<pdfrwt beam="2">  1       -2 0.17490383E-01 0.35023722E+03</pdfrwt>
<totfact> 0.32575175E+03</totfact>
</mgrwt>
</event>
<event>
 4    1  0.9012200E-005  0.3844892E+03  0.7818608E-02  0.1049287E+00
         -2   -1    0    0    0  501 -0.00000000000E+00  0.00000000000E+00  0.18371952367E+03  0.18371952369E+03  0.25500000000E-02 0. -1.
          2   -1    0    0  501    0  0.00000000000E+00 -0.00000000000E+00 -0.20116529653E+03  0.20116529655E+03  0.25500000000E-02 0.  1.
    5000001    1    1    2    0    0 -0.66938192869E+02 -0.23794473068E+02  0.59802594489E+02  0.18933633809E+03  0.16500000000E+03 0.  0.
   -5000001    1    1    2    0    0  0.66938192869E+02  0.23794473068E+02 -0.77248367349E+02  0.19554848215E+03  0.16500000000E+03 0.  0.
<mgrwt>
<rscale>  0 0.38448923E+03</rscale>
<asrwt>0</asrwt>
<pdfrwt beam="1">  1        2 0.30948507E-01 0.38448923E+03</pdfrwt>
<pdfrwt beam="2">  1       -2 0.28264542E-01 0.38448923E+03</pdfrwt>
<totfact> 0.19436682E+03</totfact>
</mgrwt>
</event>
<event>
 4    1  0.9012200E-005  0.6734977E+03  0.7818608E-02  0.9763660E-01
          2   -1    0    0  501    0  0.00000000000E+00  0.00000000000E+00  0.71554872071E+03  0.71554872071E+03  0.25500000000E-02 0.  1.
         -2   -1    0    0    0  501 -0.00000000000E+00 -0.00000000000E+00 -0.15847948135E+03  0.15847948137E+03  0.25500000000E-02 0. -1.
    5000001    1    1    2    0    0  0.28852592867E+03 -0.36677876370E+02  0.22691255289E+03  0.40411234179E+03  0.16500000000E+03 0.  0.
   -5000001    1    1    2    0    0 -0.28852592867E+03  0.36677876370E+02  0.33015668647E+03  0.46991586029E+03  0.16500000000E+03 0.  0.
<mgrwt>
<rscale>  0 0.67349771E+03</rscale>
<asrwt>0</asrwt>
<pdfrwt beam="1">  1        2 0.11008442E+00 0.67349771E+03</pdfrwt>
<pdfrwt beam="2">  1       -2 0.24381459E-01 0.67349771E+03</pdfrwt>
<totfact> 0.60105662E+02</totfact>
</mgrwt>
</event>
<event>
 4    1  0.9012200E-005  0.4553540E+03  0.7818608E-02  0.1026137E+00
         -2   -1    0    0    0  501 -0.00000000000E+00  0.00000000000E+00  0.38740622204E+03  0.38740622205E+03  0.25500000000E-02 0. -1.
          2   -1    0    0  501    0  0.00000000000E+00 -0.00000000000E+00 -0.13380478291E+03  0.13380478294E+03  0.25500000000E-02 0.  1.
    5000001    1    1    2    0    0  0.10105309310E+03 -0.10345167977E+03  0.19640529788E+03  0.29447244134E+03  0.16500000000E+03 0.  0.
   -5000001    1    1    2    0    0 -0.10105309310E+03  0.10345167977E+03  0.57196141245E+02  0.22673856365E+03  0.16500000000E+03 0.  0.
<mgrwt>
<rscale>  0 0.45535395E+03</rscale>
<asrwt>0</asrwt>
<pdfrwt beam="1">  1        2 0.20585351E-01 0.45535395E+03</pdfrwt>
<pdfrwt beam="2">  1       -2 0.59600957E-01 0.45535395E+03</pdfrwt>
<totfact> 0.72498362E+02</totfact>
</mgrwt>
</event>
<event>
 4    1  0.9012200E-005  0.3935216E+03  0.7818608E-02  0.1046046E+00
          2   -1    0    0  501    0  0.00000000000E+00  0.00000000000E+00  0.14279498216E+04  0.14279498216E+04  0.25500000000E-02 0.  1.
         -2   -1    0    0    0  501 -0.00000000000E+00 -0.00000000000E+00 -0.27112162272E+02  0.27112162391E+02  0.25500000000E-02 0. -1.
    5000001    1    1    2    0    0  0.65124423302E+02 -0.85039854349E+02  0.71559228044E+03  0.74213898911E+03  0.16500000000E+03 0.  0.
   -5000001    1    1    2    0    0 -0.65124423302E+02  0.85039854349E+02  0.68524537885E+03  0.71292299485E+03  0.16500000000E+03 0.  0.
<mgrwt>
<rscale>  0 0.39352157E+03</rscale>
<asrwt>0</asrwt>
<pdfrwt beam="1">  1        2 0.21968458E+00 0.39352157E+03</pdfrwt>
<pdfrwt beam="2">  1       -2 0.41711021E-02 0.39352157E+03</pdfrwt>
<totfact> 0.38572811E+03</totfact>
</mgrwt>
</event>
<event>
 4    1  0.9012200E-005  0.7640050E+03  0.7818608E-02  0.9613631E-01
          2   -1    0    0  501    0  0.00000000000E+00  0.00000000000E+00  0.63786830568E+03  0.63786830568E+03  0.25500000000E-02 0.  1.
         -2   -1    0    0    0  501 -0.00000000000E+00 -0.00000000000E+00 -0.22877124383E+03  0.22877124384E+03  0.25500000000E-02 0. -1.
    5000001    1    1    2    0    0 -0.24873624089E+03 -0.21237026248E+03  0.32740351024E+03  0.49131344826E+03  0.16500000000E+03 0.  0.
   -5000001    1    1    2    0    0  0.24873624089E+03  0.21237026248E+03  0.81693551609E+02  0.37532610127E+03  0.16500000000E+03 0.  0.
<mgrwt>
<rscale>  0 0.76400504E+03</rscale>
<asrwt>0</asrwt>
<pdfrwt beam="1">  1        2 0.98133582E-01 0.76400504E+03</pdfrwt>
<pdfrwt beam="2">  1       -2 0.35195577E-01 0.76400504E+03</pdfrwt>
<totfact> 0.35093736E+02</totfact>
</mgrwt>
</event>
<event>
 4    1  0.9012200E-005  0.3912515E+03  0.7818608E-02  0.1046852E+00
          2   -1    0    0  501    0  0.00000000000E+00  0.00000000000E+00  0.25532255155E+04  0.25532255155E+04  0.25500000000E-02 0.  1.
         -2   -1    0    0    0  501 -0.00000000000E+00 -0.00000000000E+00 -0.14988662534E+02  0.14988662751E+02  0.25500000000E-02 0. -1.
    5000001    1    1    2    0    0  0.16712565840E+02  0.99208957119E+02  0.14685103497E+04  0.14811716221E+04  0.16500000000E+03 0.  0.
   -5000001    1    1    2    0    0 -0.16712565840E+02 -0.99208957119E+02  0.10697265033E+04  0.10870425562E+04  0.16500000000E+03 0.  0.
<mgrwt>
<rscale>  0 0.39125151E+03</rscale>
<asrwt>0</asrwt>
<pdfrwt beam="1">  1        2 0.39280408E+00 0.39125151E+03</pdfrwt>
<pdfrwt beam="2">  1       -2 0.23059472E-02 0.39125151E+03</pdfrwt>
<totfact> 0.23253121E+03</totfact>
</mgrwt>
</event>
<event>
 4    1  0.9012200E-005  0.6437893E+03  0.7818608E-02  0.9818503E-01
         -2   -1    0    0    0  501 -0.00000000000E+00  0.00000000000E+00  0.10512523749E+04  0.10512523749E+04  0.25500000000E-02 0. -1.
          2   -1    0    0  501    0  0.00000000000E+00 -0.00000000000E+00 -0.98564500949E+02  0.98564500982E+02  0.25500000000E-02 0.  1.
    5000001    1    1    2    0    0  0.24478820387E+03 -0.96557202286E+02  0.62732931628E+03  0.70000830647E+03  0.16500000000E+03 0.  0.
   -5000001    1    1    2    0    0 -0.24478820387E+03  0.96557202286E+02  0.32535855766E+03  0.44980856940E+03  0.16500000000E+03 0.  0.
<mgrwt>
<rscale>  0 0.64378930E+03</rscale>
<asrwt>0</asrwt>
<pdfrwt beam="1">  1        2 0.15163768E-01 0.64378930E+03</pdfrwt>
<pdfrwt beam="2">  1       -2 0.16173115E+00 0.64378930E+03</pdfrwt>
<totfact> 0.98425943E+01</totfact>
</mgrwt>
</event>
<event>
 4    1  0.9012200E-005  0.1199335E+04  0.7818608E-02  0.9113438E-01
          2   -1    0    0  501    0  0.00000000000E+00  0.00000000000E+00  0.10496371332E+04  0.10496371332E+04  0.25500000000E-02 0.  1.
         -2   -1    0    0    0  501 -0.00000000000E+00 -0.00000000000E+00 -0.34259589930E+03  0.34259589931E+03  0.25500000000E-02 0. -1.
    5000001    1    1    2    0    0  0.19897086469E+03  0.47376224867E+03  0.65697751125E+03  0.85022616024E+03  0.16500000000E+03 0.  0.
   -5000001    1    1    2    0    0 -0.19897086469E+03 -0.47376224867E+03  0.50063722644E+02  0.54200687227E+03  0.16500000000E+03 0.  0.
<mgrwt>
<rscale>  0 0.11993354E+04</rscale>
<asrwt>0</asrwt>
<pdfrwt beam="1">  1        2 0.16148263E+00 0.11993354E+04</pdfrwt>
<pdfrwt beam="2">  1       -2 0.52707062E-01 0.11993354E+04</pdfrwt>
<totfact> 0.78474229E+01</totfact>
</mgrwt>
</event>
<event>
 4    1  0.9012200E-005  0.6204301E+03  0.7818608E-02  0.9863904E-01
         -2   -1    0    0    0  501 -0.00000000000E+00  0.00000000000E+00  0.12903680807E+03  0.12903680809E+03  0.25500000000E-02 0. -1.
          2   -1    0    0  501    0  0.00000000000E+00 -0.00000000000E+00 -0.74578227977E+03  0.74578227978E+03  0.25500000000E-02 0.  1.
    5000001    1    1    2    0    0 -0.13361804280E+03 -0.20805070244E+03 -0.18328962357E+03  0.34922623363E+03  0.16500000000E+03 0.  0.
   -5000001    1    1    2    0    0  0.13361804280E+03  0.20805070244E+03 -0.43345584813E+03  0.52559285424E+03  0.16500000000E+03 0.  0.
<mgrwt>
<rscale>  0 0.62043006E+03</rscale>
<asrwt>0</asrwt>
<pdfrwt beam="1">  1        2 0.11473573E+00 0.62043006E+03</pdfrwt>
<pdfrwt beam="2">  1       -2 0.19851817E-01 0.62043006E+03</pdfrwt>
<totfact> 0.82109632E+02</totfact>
</mgrwt>
</event>
<event>
 4    1  0.9012200E-005  0.3800680E+03  0.7818608E-02  0.1050909E+00
         -2   -1    0    0    0  501 -0.00000000000E+00  0.00000000000E+00  0.20345133142E+02  0.20345133302E+02  0.25500000000E-02 0. -1.
          2   -1    0    0  501    0  0.00000000000E+00 -0.00000000000E+00 -0.17750151043E+04  0.17750151043E+04  0.25500000000E-02 0.  1.
    5000001    1    1    2    0    0  0.23504251536E+02 -0.63333412267E+02 -0.56669981869E+03  0.59408522575E+03  0.16500000000E+03 0.  0.
   -5000001    1    1    2    0    0 -0.23504251536E+02  0.63333412267E+02 -0.11879701524E+04  0.12012750118E+04  0.16500000000E+03 0.  0.
<mgrwt>
<rscale>  0 0.38006799E+03</rscale>
<asrwt>0</asrwt>
<pdfrwt beam="1">  1        2 0.27307913E+00 0.38006799E+03</pdfrwt>
<pdfrwt beam="2">  1       -2 0.31300219E-02 0.38006799E+03</pdfrwt>
<totfact> 0.38741577E+03</totfact>
</mgrwt>
</event>
<event>
 4    1  0.9012200E-005  0.4970858E+03  0.7818608E-02  0.1014542E+00
         -2   -1    0    0    0  501 -0.00000000000E+00  0.00000000000E+00  0.29357389336E+02  0.29357389447E+02  0.25500000000E-02 0. -1.
          2   -1    0    0  501    0  0.00000000000E+00 -0.00000000000E+00 -0.21041912883E+04  0.21041912883E+04  0.25500000000E-02 0.  1.
    5000001    1    1    2    0    0 -0.64058941919E+02  0.17436164056E+03 -0.10092607906E+04  0.10393930311E+04  0.16500000000E+03 0.  0.
   -5000001    1    1    2    0    0  0.64058941919E+02 -0.17436164056E+03 -0.10655731084E+04  0.10941556467E+04  0.16500000000E+03 0.  0.
<mgrwt>
<rscale>  0 0.49708576E+03</rscale>
<asrwt>0</asrwt>
<pdfrwt beam="1">  1        2 0.32372162E+00 0.49708576E+03</pdfrwt>
<pdfrwt beam="2">  1       -2 0.45165231E-02 0.49708576E+03</pdfrwt>
<totfact> 0.14706700E+03</totfact>
</mgrwt>
</event>
<event>
 4    1  0.9012200E-005  0.4299876E+03  0.7818608E-02  0.1033864E+00
          2   -1    0    0  501    0  0.00000000000E+00  0.00000000000E+00  0.11941484084E+03  0.11941484087E+03  0.25500000000E-02 0.  1.
         -2   -1    0    0    0  501 -0.00000000000E+00 -0.00000000000E+00 -0.38707359756E+03  0.38707359756E+03  0.25500000000E-02 0. -1.
    5000001    1    1    2    0    0 -0.12500719722E+03 -0.44494096664E+02 -0.89900793466E+02  0.23002972995E+03  0.16500000000E+03 0.  0.
   -5000001    1    1    2    0    0  0.12500719722E+03  0.44494096664E+02 -0.17775796325E+03  0.27645870848E+03  0.16500000000E+03 0.  0.
<mgrwt>
<rscale>  0 0.42998759E+03</rscale>
<asrwt>0</asrwt>
<pdfrwt beam="1">  1        2 0.18371514E-01 0.42998759E+03</pdfrwt>
<pdfrwt beam="2">  1       -2 0.59549784E-01 0.42998759E+03</pdfrwt>
<totfact> 0.82924454E+02</totfact>
</mgrwt>
</event>
<event>
 4    1  0.9012200E-005  0.6423761E+03  0.7818608E-02  0.9821191E-01
         -2   -1    0    0    0  501 -0.00000000000E+00  0.00000000000E+00  0.50171398713E+02  0.50171398778E+02  0.25500000000E-02 0. -1.
          2   -1    0    0  501    0  0.00000000000E+00 -0.00000000000E+00 -0.20561869035E+04  0.20561869035E+04  0.25500000000E-02 0.  1.
    5000001    1    1    2    0    0  0.83310485902E+02  0.26063239672E+03 -0.11101109965E+04  0.11551802057E+04  0.16500000000E+03 0.  0.
   -5000001    1    1    2    0    0 -0.83310485902E+02 -0.26063239672E+03 -0.89590450830E+03  0.95117809650E+03  0.16500000000E+03 0.  0.
<mgrwt>
<rscale>  0 0.64237613E+03</rscale>
<asrwt>0</asrwt>
<pdfrwt beam="1">  1        2 0.31633638E+00 0.64237613E+03</pdfrwt>
<pdfrwt beam="2">  1       -2 0.77186783E-02 0.64237613E+03</pdfrwt>
<totfact> 0.66882709E+02</totfact>
</mgrwt>
</event>
<event>
 4    1  0.9012200E-005  0.3574842E+03  0.7818608E-02  0.1059584E+00
         -2   -1    0    0    0  501 -0.00000000000E+00  0.00000000000E+00  0.62322879479E+02  0.62322879531E+02  0.25500000000E-02 0. -1.
          2   -1    0    0  501    0  0.00000000000E+00 -0.00000000000E+00 -0.51263265918E+03  0.51263265918E+03  0.25500000000E-02 0.  1.
    5000001    1    1    2    0    0 -0.24784519917E+02 -0.59042121992E+02 -0.26531502868E+03  0.31893151152E+03  0.16500000000E+03 0.  0.
   -5000001    1    1    2    0    0  0.24784519917E+02  0.59042121992E+02 -0.18499475101E+03  0.25602402719E+03  0.16500000000E+03 0.  0.
<mgrwt>
<rscale>  0 0.35748423E+03</rscale>
<asrwt>0</asrwt>
<pdfrwt beam="1">  1        2 0.78866560E-01 0.35748423E+03</pdfrwt>
<pdfrwt beam="2">  1       -2 0.95881357E-02 0.35748423E+03</pdfrwt>
<totfact> 0.43129628E+03</totfact>
</mgrwt>
</event>
<event>
 4    1  0.9012200E-005  0.5296303E+03  0.7818608E-02  0.1006322E+00
         -2   -1    0    0    0  501 -0.00000000000E+00  0.00000000000E+00  0.70851022350E+02  0.70851022396E+02  0.25500000000E-02 0. -1.
          2   -1    0    0  501    0  0.00000000000E+00 -0.00000000000E+00 -0.98978209720E+03  0.98978209720E+03  0.25500000000E-02 0.  1.
    5000001    1    1    2    0    0  0.16678045688E+03 -0.11408711369E+03 -0.36834250006E+03  0.45136768566E+03  0.16500000000E+03 0.  0.
   -5000001    1    1    2    0    0 -0.16678045688E+03  0.11408711369E+03 -0.55058857479E+03  0.60926543394E+03  0.16500000000E+03 0.  0.
<mgrwt>
<rscale>  0 0.52963034E+03</rscale>
<asrwt>0</asrwt>
<pdfrwt beam="1">  1        2 0.15227416E+00 0.52963034E+03</pdfrwt>
<pdfrwt beam="2">  1       -2 0.10900158E-01 0.52963034E+03</pdfrwt>
<totfact> 0.15354937E+03</totfact>
</mgrwt>
</event>
<event>
 4    1  0.9012200E-005  0.1025295E+04  0.7818608E-02  0.9281229E-01
         -2   -1    0    0    0  501 -0.00000000000E+00  0.00000000000E+00  0.31074538730E+03  0.31074538731E+03  0.25500000000E-02 0.  1.
          2   -1    0    0  501    0  0.00000000000E+00 -0.00000000000E+00 -0.84573228504E+03  0.84573228505E+03  0.25500000000E-02 0. -1.
    5000001    1    1    2    0    0 -0.21102110139E+03 -0.43461764812E+03 -0.31991567399E+03  0.60248937232E+03  0.16500000000E+03 0.  0.
   -5000001    1    1    2    0    0  0.21102110139E+03  0.43461764812E+03 -0.21507122375E+03  0.55398830004E+03  0.16500000000E+03 0.  0.
<mgrwt>
<rscale>  0 0.10252949E+04</rscale>
<asrwt>0</asrwt>
<pdfrwt beam="1">  1        2 0.13011266E+00 0.10252949E+04</pdfrwt>
<pdfrwt beam="2">  1       -2 0.47806983E-01 0.10252949E+04</pdfrwt>
<totfact> 0.13207583E+02</totfact>
</mgrwt>
</event>
<event>
 4    1  0.9012200E-005  0.3600523E+03  0.7818608E-02  0.1058563E+00
         -2   -1    0    0    0  501 -0.00000000000E+00  0.00000000000E+00  0.49910100890E+02  0.49910100955E+02  0.25500000000E-02 0. -1.
          2   -1    0    0  501    0  0.00000000000E+00 -0.00000000000E+00 -0.64935571273E+03  0.64935571273E+03  0.25500000000E-02 0.  1.
    5000001    1    1    2    0    0  0.51696891927E+02  0.47619029857E+02 -0.26936918573E+03  0.32361226624E+03  0.16500000000E+03 0.  0.
   -5000001    1    1    2    0    0 -0.51696891927E+02 -0.47619029857E+02 -0.33007642611E+03  0.37565354745E+03  0.16500000000E+03 0.  0.
<mgrwt>
<rscale>  0 0.36005227E+03</rscale>
<asrwt>0</asrwt>
<pdfrwt beam="1">  1        2 0.99900873E-01 0.36005227E+03</pdfrwt>
<pdfrwt beam="2">  1       -2 0.76784775E-02 0.36005227E+03</pdfrwt>
<totfact> 0.46538856E+03</totfact>
</mgrwt>
</event>
<event>
 4    1  0.9012200E-005  0.8414223E+03  0.7818608E-02  0.9501923E-01
          2   -1    0    0  501    0  0.00000000000E+00  0.00000000000E+00  0.23529843667E+03  0.23529843669E+03  0.25500000000E-02 0.  1.
         -2   -1    0    0    0  501 -0.00000000000E+00 -0.00000000000E+00 -0.75222708071E+03  0.75222708071E+03  0.25500000000E-02 0. -1.
    5000001    1    1    2    0    0 -0.35134562117E+03  0.16156883575E+03 -0.24087454244E+03  0.48455523875E+03  0.16500000000E+03 0.  0.
   -5000001    1    1    2    0    0  0.35134562117E+03 -0.16156883575E+03 -0.27605410160E+03  0.50297027865E+03  0.16500000000E+03 0.  0.
<mgrwt>
<rscale>  0 0.84142226E+03</rscale>
<asrwt>0</asrwt>
<pdfrwt beam="1">  1        2 0.36199760E-01 0.84142226E+03</pdfrwt>
<pdfrwt beam="2">  1       -2 0.11572724E+00 0.84142226E+03</pdfrwt>
<totfact> 0.84086431E+01</totfact>
</mgrwt>
</event>
<event>
 4    1  0.9012200E-005  0.4924328E+03  0.7818608E-02  0.1015773E+00
          2   -1    0    0  501    0  0.00000000000E+00  0.00000000000E+00  0.52636151570E+03  0.52636151570E+03  0.25500000000E-02 0.  1.
         -2   -1    0    0    0  501 -0.00000000000E+00 -0.00000000000E+00 -0.11517276082E+03  0.11517276085E+03  0.25500000000E-02 0. -1.
    5000001    1    1    2    0    0 -0.59589889410E+02 -0.14560146569E+03  0.84450965701E+02  0.24312076699E+03  0.16500000000E+03 0.  0.
   -5000001    1    1    2    0    0  0.59589889410E+02  0.14560146569E+03  0.32673778918E+03  0.39841350957E+03  0.16500000000E+03 0.  0.
<mgrwt>
<rscale>  0 0.49243277E+03</rscale>
<asrwt>0</asrwt>
<pdfrwt beam="1">  1        2 0.80978695E-01 0.49243277E+03</pdfrwt>
<pdfrwt beam="2">  1       -2 0.17718886E-01 0.49243277E+03</pdfrwt>
<totfact> 0.15261621E+03</totfact>
</mgrwt>
</event>
<event>
 4    1  0.9012200E-005  0.5007830E+03  0.7818608E-02  0.1013575E+00
          2   -1    0    0  501    0  0.00000000000E+00  0.00000000000E+00  0.24281416873E+03  0.24281416874E+03  0.25500000000E-02 0.  1.
         -2   -1    0    0    0  501 -0.00000000000E+00 -0.00000000000E+00 -0.25820524722E+03  0.25820524724E+03  0.25500000000E-02 0. -1.
    5000001    1    1    2    0    0 -0.14470755124E+03  0.10376381269E+03 -0.69073412871E+02  0.25239520712E+03  0.16500000000E+03 0.  0.
   -5000001    1    1    2    0    0  0.14470755124E+03 -0.10376381269E+03  0.53682334375E+02  0.24862420886E+03  0.16500000000E+03 0.  0.
<mgrwt>
<rscale>  0 0.50078296E+03</rscale>
<asrwt>0</asrwt>
<pdfrwt beam="1">  1        2 0.37356026E-01 0.50078296E+03</pdfrwt>
<pdfrwt beam="2">  1       -2 0.39723884E-01 0.50078296E+03</pdfrwt>
<totfact> 0.83645719E+02</totfact>
</mgrwt>
</event>
<event>
 4    1  0.9012200E-005  0.4972522E+03  0.7818608E-02  0.1014499E+00
          2   -1    0    0  501    0  0.00000000000E+00  0.00000000000E+00  0.37064675813E+04  0.37064675813E+04  0.25500000000E-02 0.  1.
         -2   -1    0    0    0  501 -0.00000000000E+00 -0.00000000000E+00 -0.16677588379E+02  0.16677588574E+02  0.25500000000E-02 0. -1.
    5000001    1    1    2    0    0  0.60664711142E+02 -0.16016993560E+03  0.13021034713E+04  0.13236438590E+04  0.16500000000E+03 0.  0.
   -5000001    1    1    2    0    0 -0.60664711142E+02  0.16016993560E+03  0.23876865216E+04  0.23995013109E+04  0.16500000000E+03 0.  0.
<mgrwt>
<rscale>  0 0.49725221E+03</rscale>
<asrwt>0</asrwt>
<pdfrwt beam="1">  1        2 0.57022617E+00 0.49725221E+03</pdfrwt>
<pdfrwt beam="2">  1       -2 0.25657811E-02 0.49725221E+03</pdfrwt>
<totfact> 0.37324245E+02</totfact>
</mgrwt>
</event>
<event>
 4    1  0.9012200E-005  0.4558250E+03  0.7818608E-02  0.1025999E+00
         -2   -1    0    0    0  501 -0.00000000000E+00  0.00000000000E+00  0.45978582576E+03  0.45978582577E+03  0.25500000000E-02 0. -1.
          2   -1    0    0  501    0  0.00000000000E+00 -0.00000000000E+00 -0.11297458620E+03  0.11297458623E+03  0.25500000000E-02 0.  1.
    5000001    1    1    2    0    0  0.59596744209E+02  0.12834864147E+03  0.25949406766E+03  0.33850748417E+03  0.16500000000E+03 0.  0.
   -5000001    1    1    2    0    0 -0.59596744209E+02 -0.12834864147E+03  0.87317171902E+02  0.23425292783E+03  0.16500000000E+03 0.  0.
<mgrwt>
<rscale>  0 0.45582503E+03</rscale>
<asrwt>0</asrwt>
<pdfrwt beam="1">  1        2 0.17380705E-01 0.45582503E+03</pdfrwt>
<pdfrwt beam="2">  1       -2 0.70736282E-01 0.45582503E+03</pdfrwt>
<totfact> 0.61384169E+02</totfact>
</mgrwt>
</event>
<event>
 4    1  0.9012200E-005  0.8248819E+03  0.7818608E-02  0.9524684E-01
         -2   -1    0    0    0  501 -0.00000000000E+00  0.00000000000E+00  0.48006879841E+03  0.48006879842E+03  0.25500000000E-02 0. -1.
          2   -1    0    0  501    0  0.00000000000E+00 -0.00000000000E+00 -0.35433994947E+03  0.35433994948E+03  0.25500000000E-02 0.  1.
    5000001    1    1    2    0    0  0.63396520972E+02 -0.34853486846E+03 -0.70517778575E+02  0.39710632141E+03  0.16500000000E+03 0.  0.
   -5000001    1    1    2    0    0 -0.63396520972E+02  0.34853486846E+03  0.19624662751E+03  0.43730242649E+03  0.16500000000E+03 0.  0.
<mgrwt>
<rscale>  0 0.82488194E+03</rscale>
<asrwt>0</asrwt>
<pdfrwt beam="1">  1        2 0.54513838E-01 0.82488194E+03</pdfrwt>
<pdfrwt beam="2">  1       -2 0.73856738E-01 0.82488194E+03</pdfrwt>
<totfact> 0.15161632E+02</totfact>
</mgrwt>
</event>
<event>
 4    1  0.9012200E-005  0.5275044E+03  0.7818608E-02  0.1006839E+00
         -2   -1    0    0    0  501 -0.00000000000E+00  0.00000000000E+00  0.34665038427E+02  0.34665038521E+02  0.25500000000E-02 0. -1.
          2   -1    0    0  501    0  0.00000000000E+00 -0.00000000000E+00 -0.20067832682E+04  0.20067832682E+04  0.25500000000E-02 0.  1.
    5000001    1    1    2    0    0  0.91761883823E+02  0.18022516388E+03 -0.83926031138E+03  0.87891081645E+03  0.16500000000E+03 0.  0.
   -5000001    1    1    2    0    0 -0.91761883823E+02 -0.18022516388E+03 -0.11328579184E+04  0.11625374903E+04  0.16500000000E+03 0.  0.
<mgrwt>
<rscale>  0 0.52750439E+03</rscale>
<asrwt>0</asrwt>
<pdfrwt beam="1">  1        2 0.30873580E+00 0.52750439E+03</pdfrwt>
<pdfrwt beam="2">  1       -2 0.53330844E-02 0.52750439E+03</pdfrwt>
<totfact> 0.12817318E+03</totfact>
</mgrwt>
</event>
<event>
 4    1  0.9012200E-005  0.4138902E+03  0.7818608E-02  0.1039073E+00
         -2   -1    0    0    0  501 -0.00000000000E+00  0.00000000000E+00  0.34586075425E+02  0.34586075519E+02  0.25500000000E-02 0. -1.
          2   -1    0    0  501    0  0.00000000000E+00 -0.00000000000E+00 -0.12382518192E+04  0.12382518192E+04  0.25500000000E-02 0.  1.
    5000001    1    1    2    0    0 -0.58325782131E+02  0.60081623204E+02 -0.31681391411E+03  0.36688929458E+03  0.16500000000E+03 0.  0.
   -5000001    1    1    2    0    0  0.58325782131E+02 -0.60081623204E+02 -0.88685182967E+03  0.90594860014E+03  0.16500000000E+03 0.  0.
<mgrwt>
<rscale>  0 0.41389018E+03</rscale>
<asrwt>0</asrwt>
<pdfrwt beam="1">  1        2 0.19050025E+00 0.41389018E+03</pdfrwt>
<pdfrwt beam="2">  1       -2 0.53209356E-02 0.41389018E+03</pdfrwt>
<totfact> 0.33916703E+03</totfact>
</mgrwt>
</event>
<event>
 4    1  0.9012200E-005  0.5767197E+03  0.7818608E-02  0.9954918E-01
          2   -1    0    0  501    0  0.00000000000E+00  0.00000000000E+00  0.64486880189E+03  0.64486880190E+03  0.25500000000E-02 0.  1.
         -2   -1    0    0    0  501 -0.00000000000E+00 -0.00000000000E+00 -0.12894311806E+03  0.12894311809E+03  0.25500000000E-02 0. -1.
    5000001    1    1    2    0    0 -0.14454018993E+03  0.18438585308E+03  0.21476807255E+03  0.35810659629E+03  0.16500000000E+03 0.  0.
   -5000001    1    1    2    0    0  0.14454018993E+03 -0.18438585308E+03  0.30115761128E+03  0.41570532370E+03  0.16500000000E+03 0.  0.
<mgrwt>
<rscale>  0 0.57671967E+03</rscale>
<asrwt>0</asrwt>
<pdfrwt beam="1">  1        2 0.99210585E-01 0.57671967E+03</pdfrwt>
<pdfrwt beam="2">  1       -2 0.19837403E-01 0.57671967E+03</pdfrwt>
<totfact> 0.98677960E+02</totfact>
</mgrwt>
</event>
<event>
 4    1  0.9012200E-005  0.8877626E+03  0.7818608E-02  0.9441009E-01
          2   -1    0    0  501    0  0.00000000000E+00  0.00000000000E+00  0.24182907892E+03  0.24182907893E+03  0.25500000000E-02 0. -1.
         -2   -1    0    0    0  501 -0.00000000000E+00 -0.00000000000E+00 -0.81475145358E+03  0.81475145358E+03  0.25500000000E-02 0.  1.
    5000001    1    1    2    0    0  0.35781811525E+03  0.34293246263E+02 -0.52625950474E+03  0.65831899310E+03  0.16500000000E+03 0.  0.
   -5000001    1    1    2    0    0 -0.35781811525E+03 -0.34293246263E+02 -0.46662869918E+02  0.39826153941E+03  0.16500000000E+03 0.  0.
<mgrwt>
<rscale>  0 0.88776257E+03</rscale>
<asrwt>0</asrwt>
<pdfrwt beam="1">  1        2 0.37204474E-01 0.88776257E+03</pdfrwt>
<pdfrwt beam="2">  1       -2 0.12534638E+00 0.88776257E+03</pdfrwt>
<totfact> 0.66732322E+01</totfact>
</mgrwt>
</event>
<event>
 4    1  0.9012200E-005  0.4961682E+03  0.7818608E-02  0.1014784E+00
         -2   -1    0    0    0  501 -0.00000000000E+00  0.00000000000E+00  0.28165848665E+02  0.28165848781E+02  0.25500000000E-02 0. -1.
          2   -1    0    0  501    0  0.00000000000E+00 -0.00000000000E+00 -0.21851182275E+04  0.21851182275E+04  0.25500000000E-02 0.  1.
    5000001    1    1    2    0    0  0.18349165408E+02 -0.18367618314E+03 -0.10083589658E+04  0.10383094125E+04  0.16500000000E+03 0.  0.
   -5000001    1    1    2    0    0 -0.18349165408E+02  0.18367618314E+03 -0.11485934130E+04  0.11749746638E+04  0.16500000000E+03 0.  0.
<mgrwt>
<rscale>  0 0.49616815E+03</rscale>
<asrwt>0</asrwt>
<pdfrwt beam="1">  1        2 0.33617190E+00 0.49616815E+03</pdfrwt>
<pdfrwt beam="2">  1       -2 0.43332092E-02 0.49616815E+03</pdfrwt>
<totfact> 0.14169069E+03</totfact>
</mgrwt>
</event>
<event>
 4    1  0.9012200E-005  0.9869122E+03  0.7818608E-02  0.9323017E-01
          2   -1    0    0  501    0  0.00000000000E+00  0.00000000000E+00  0.31486120995E+04  0.31486120995E+04  0.25500000000E-02 0.  1.
         -2   -1    0    0    0  501 -0.00000000000E+00 -0.00000000000E+00 -0.77335325732E+02  0.77335325774E+02  0.25500000000E-02 0. -1.
    5000001    1    1    2    0    0 -0.46067639111E+03 -0.60230056946E+02  0.14683672627E+04  0.15489279568E+04  0.16500000000E+03 0.  0.
   -5000001    1    1    2    0    0  0.46067639111E+03  0.60230056946E+02  0.16029095110E+04  0.16770194685E+04  0.16500000000E+03 0.  0.
<mgrwt>
<rscale>  0 0.98691224E+03</rscale>
<asrwt>0</asrwt>
<pdfrwt beam="1">  1        2 0.48440197E+00 0.98691224E+03</pdfrwt>
<pdfrwt beam="2">  1       -2 0.11897740E-01 0.98691224E+03</pdfrwt>
<totfact> 0.74546380E+01</totfact>
</mgrwt>
</event>
<event>
 4    1  0.9012200E-005  0.5864452E+03  0.7818608E-02  0.9933934E-01
          2   -1    0    0  501    0  0.00000000000E+00  0.00000000000E+00  0.62515968834E+03  0.62515968834E+03  0.25500000000E-02 0.  1.
         -2   -1    0    0    0  501 -0.00000000000E+00 -0.00000000000E+00 -0.13753202754E+03  0.13753202756E+03  0.25500000000E-02 0. -1.
    5000001    1    1    2    0    0  0.15365689690E+03 -0.17827886245E+03  0.31920760962E+03  0.42954894110E+03  0.16500000000E+03 0.  0.
   -5000001    1    1    2    0    0 -0.15365689690E+03  0.17827886245E+03  0.16842005118E+03  0.33314277480E+03  0.16500000000E+03 0.  0.
<mgrwt>
<rscale>  0 0.58644515E+03</rscale>
<asrwt>0</asrwt>
<pdfrwt beam="1">  1        2 0.96178413E-01 0.58644515E+03</pdfrwt>
<pdfrwt beam="2">  1       -2 0.21158774E-01 0.58644515E+03</pdfrwt>
<totfact> 0.91539964E+02</totfact>
</mgrwt>
</event>
<event>
 4    1  0.9012200E-005  0.4293030E+03  0.7818608E-02  0.1034080E+00
         -2   -1    0    0    0  501 -0.00000000000E+00  0.00000000000E+00  0.42224944599E+02  0.42224944676E+02  0.25500000000E-02 0. -1.
          2   -1    0    0  501    0  0.00000000000E+00 -0.00000000000E+00 -0.10911860086E+04  0.10911860086E+04  0.25500000000E-02 0.  1.
    5000001    1    1    2    0    0  0.76141426759E+02  0.11319598176E+03 -0.56533176587E+03  0.60451290528E+03  0.16500000000E+03 0.  0.
   -5000001    1    1    2    0    0 -0.76141426759E+02 -0.11319598176E+03 -0.48362929809E+03  0.52889804795E+03  0.16500000000E+03 0.  0.
<mgrwt>
<rscale>  0 0.42930301E+03</rscale>
<asrwt>0</asrwt>
<pdfrwt beam="1">  1        2 0.16787475E+00 0.42930301E+03</pdfrwt>
<pdfrwt beam="2">  1       -2 0.64961462E-02 0.42930301E+03</pdfrwt>
<totfact> 0.30346878E+03</totfact>
</mgrwt>
</event>
<event>
 4    1  0.9012200E-005  0.9283714E+03  0.7818608E-02  0.9390795E-01
          2   -1    0    0  501    0  0.00000000000E+00  0.00000000000E+00  0.15884793155E+04  0.15884793155E+04  0.25500000000E-02 0.  1.
         -2   -1    0    0    0  501 -0.00000000000E+00 -0.00000000000E+00 -0.13564441915E+03  0.13564441917E+03  0.25500000000E-02 0. -1.
    5000001    1    1    2    0    0 -0.36535542320E+03  0.22714394090E+03  0.62194727759E+03  0.77402995501E+03  0.16500000000E+03 0.  0.
   -5000001    1    1    2    0    0  0.36535542320E+03 -0.22714394090E+03  0.83088761875E+03  0.95009377966E+03  0.16500000000E+03 0.  0.
<mgrwt>
<rscale>  0 0.92837138E+03</rscale>
<asrwt>0</asrwt>
<pdfrwt beam="1">  1        2 0.24438145E+00 0.92837138E+03</pdfrwt>
<pdfrwt beam="2">  1       -2 0.20868371E-01 0.92837138E+03</pdfrwt>
<totfact> 0.22489606E+02</totfact>
</mgrwt>
</event>
<event>
 4    1  0.9012200E-005  0.4117842E+03  0.7818608E-02  0.1039774E+00
         -2   -1    0    0    0  501 -0.00000000000E+00  0.00000000000E+00  0.15584231120E+02  0.15584231328E+02  0.25500000000E-02 0. -1.
          2   -1    0    0  501    0  0.00000000000E+00 -0.00000000000E+00 -0.27201570121E+04  0.27201570121E+04  0.25500000000E-02 0.  1.
    5000001    1    1    2    0    0 -0.64598045408E+02  0.78727278101E+02 -0.89221024051E+03  0.91303614663E+03  0.16500000000E+03 0.  0.
   -5000001    1    1    2    0    0  0.64598045408E+02 -0.78727278101E+02 -0.18123625404E+04  0.18227050968E+04  0.16500000000E+03 0.  0.
<mgrwt>
<rscale>  0 0.41178420E+03</rscale>
<asrwt>0</asrwt>
<pdfrwt beam="1">  1        2 0.41848532E+00 0.41178420E+03</pdfrwt>
<pdfrwt beam="2">  1       -2 0.23975762E-02 0.41178420E+03</pdfrwt>
<totfact> 0.17620288E+03</totfact>
</mgrwt>
</event>
<event>
 4    1  0.9012200E-005  0.5839025E+03  0.7818608E-02  0.9939378E-01
         -2   -1    0    0    0  501 -0.00000000000E+00  0.00000000000E+00  0.64812195075E+03  0.64812195075E+03  0.25500000000E-02 0. -1.
          2   -1    0    0  501    0  0.00000000000E+00 -0.00000000000E+00 -0.13151155594E+03  0.13151155596E+03  0.25500000000E-02 0.  1.
    5000001    1    1    2    0    0  0.51997036860E+02 -0.19501635481E+03  0.43380027233E+03  0.50610547000E+03  0.16500000000E+03 0.  0.
   -5000001    1    1    2    0    0 -0.51997036860E+02  0.19501635481E+03  0.82810122474E+02  0.27352803672E+03  0.16500000000E+03 0.  0.
<mgrwt>
<rscale>  0 0.58390248E+03</rscale>
<asrwt>0</asrwt>
<pdfrwt beam="1">  1        2 0.20232548E-01 0.58390248E+03</pdfrwt>
<pdfrwt beam="2">  1       -2 0.99711067E-01 0.58390248E+03</pdfrwt>
<totfact> 0.23598332E+02</totfact>
</mgrwt>
</event>
<event>
 4    1  0.9012200E-005  0.4893213E+03  0.7818608E-02  0.1016604E+00
         -2   -1    0    0    0  501 -0.00000000000E+00  0.00000000000E+00  0.39050606790E+02  0.39050606873E+02  0.25500000000E-02 0.  1.
          2   -1    0    0  501    0  0.00000000000E+00 -0.00000000000E+00 -0.15328531458E+04  0.15328531458E+04  0.25500000000E-02 0. -1.
    5000001    1    1    2    0    0 -0.16659188295E+03  0.48091582131E+02 -0.90969787486E+03  0.94065981059E+03  0.16500000000E+03 0.  0.
   -5000001    1    1    2    0    0  0.16659188295E+03 -0.48091582131E+02 -0.58410466419E+03  0.63124394212E+03  0.16500000000E+03 0.  0.
<mgrwt>
<rscale>  0 0.48932135E+03</rscale>
<asrwt>0</asrwt>
<pdfrwt beam="1">  1        2 0.23582351E+00 0.48932135E+03</pdfrwt>
<pdfrwt beam="2">  1       -2 0.60077869E-02 0.48932135E+03</pdfrwt>
<totfact> 0.19229313E+03</totfact>
</mgrwt>
</event>
<event>
 4    1  0.9012200E-005  0.3797801E+03  0.7818608E-02  0.1051015E+00
          2   -1    0    0  501    0  0.00000000000E+00  0.00000000000E+00  0.87959655844E+03  0.87959655845E+03  0.25500000000E-02 0.  1.
         -2   -1    0    0    0  501 -0.00000000000E+00 -0.00000000000E+00 -0.40994055538E+02  0.40994055618E+02  0.25500000000E-02 0. -1.
    5000001    1    1    2    0    0 -0.45635204056E+02  0.62827635520E+02  0.29095808806E+03  0.34338242914E+03  0.16500000000E+03 0.  0.
   -5000001    1    1    2    0    0  0.45635204056E+02 -0.62827635520E+02  0.54764441484E+03  0.57720818492E+03  0.16500000000E+03 0.  0.
<mgrwt>
<rscale>  0 0.37978010E+03</rscale>
<asrwt>0</asrwt>
<pdfrwt beam="1">  1        2 0.13532254E+00 0.37978010E+03</pdfrwt>
<pdfrwt beam="2">  1       -2 0.63067779E-02 0.37978010E+03</pdfrwt>
<totfact> 0.43136655E+03</totfact>
</mgrwt>
</event>
<event>
 4    1  0.9012200E-005  0.8965537E+03  0.7818608E-02  0.9429900E-01
         -2   -1    0    0    0  501 -0.00000000000E+00  0.00000000000E+00  0.23865177480E+03  0.23865177482E+03  0.25500000000E-02 0. -1.
          2   -1    0    0  501    0  0.00000000000E+00 -0.00000000000E+00 -0.84203081651E+03  0.84203081652E+03  0.25500000000E-02 0.  1.
    5000001    1    1    2    0    0  0.20723530061E+03 -0.22136609554E+03  0.43008952613E+02  0.34788530880E+03  0.16500000000E+03 0.  0.
   -5000001    1    1    2    0    0 -0.20723530061E+03  0.22136609554E+03 -0.64638799432E+03  0.73279728253E+03  0.16500000000E+03 0.  0.
<mgrwt>
<rscale>  0 0.89655373E+03</rscale>
<asrwt>0</asrwt>
<pdfrwt beam="1">  1        2 0.12954320E+00 0.89655373E+03</pdfrwt>
<pdfrwt beam="2">  1       -2 0.36715658E-01 0.89655373E+03</pdfrwt>
<totfact> 0.22508036E+02</totfact>
</mgrwt>
</event>
<event>
 4    1  0.9012200E-005  0.3810622E+03  0.7818608E-02  0.1050542E+00
         -2   -1    0    0    0  501 -0.00000000000E+00  0.00000000000E+00  0.71967804856E+02  0.71967804901E+02  0.25500000000E-02 0. -1.
          2   -1    0    0  501    0  0.00000000000E+00 -0.00000000000E+00 -0.50442147793E+03  0.50442147793E+03  0.25500000000E-02 0.  1.
    5000001    1    1    2    0    0  0.72561862630E+02  0.71766127374E+01 -0.30898150712E+03  0.35778666747E+03  0.16500000000E+03 0.  0.
   -5000001    1    1    2    0    0 -0.72561862630E+02 -0.71766127374E+01 -0.12347216595E+03  0.21860261536E+03  0.16500000000E+03 0.  0.
<mgrwt>
<rscale>  0 0.38106223E+03</rscale>
<asrwt>0</asrwt>
<pdfrwt beam="1">  1        2 0.77603302E-01 0.38106223E+03</pdfrwt>
<pdfrwt beam="2">  1       -2 0.11071970E-01 0.38106223E+03</pdfrwt>
<totfact> 0.34904518E+03</totfact>
</mgrwt>
</event>
<event>
 4    1  0.9012200E-005  0.5488371E+03  0.7818608E-02  0.1001763E+00
         -2   -1    0    0    0  501 -0.00000000000E+00  0.00000000000E+00  0.16946341656E+02  0.16946341847E+02  0.25500000000E-02 0. -1.
          2   -1    0    0  501    0  0.00000000000E+00 -0.00000000000E+00 -0.44437635007E+04  0.44437635007E+04  0.25500000000E-02 0.  1.
    5000001    1    1    2    0    0  0.82510602945E+02  0.70004115792E+02 -0.66336511273E+03  0.69208875776E+03  0.16500000000E+03 0.  0.
   -5000001    1    1    2    0    0 -0.82510602945E+02 -0.70004115792E+02 -0.37634520463E+04  0.37686210848E+04  0.16500000000E+03 0.  0.
<mgrwt>
<rscale>  0 0.54883708E+03</rscale>
<asrwt>0</asrwt>
<pdfrwt beam="1">  1        2 0.68365499E+00 0.54883708E+03</pdfrwt>
<pdfrwt beam="2">  1       -2 0.26071330E-02 0.54883708E+03</pdfrwt>
<totfact> 0.91758401E+01</totfact>
</mgrwt>
</event>
<event>
 4    1  0.9012200E-005  0.7738407E+03  0.7818608E-02  0.9598673E-01
         -2   -1    0    0    0  501 -0.00000000000E+00  0.00000000000E+00  0.12557288205E+03  0.12557288208E+03  0.25500000000E-02 0. -1.
          2   -1    0    0  501    0  0.00000000000E+00 -0.00000000000E+00 -0.11921951055E+04  0.11921951055E+04  0.25500000000E-02 0.  1.
    5000001    1    1    2    0    0  0.30591936474E+03  0.88474159565E+02 -0.78048320410E+03  0.85894898947E+03  0.16500000000E+03 0.  0.
   -5000001    1    1    2    0    0 -0.30591936474E+03 -0.88474159565E+02 -0.28613901937E+03  0.45881899813E+03  0.16500000000E+03 0.  0.
<mgrwt>
<rscale>  0 0.77384075E+03</rscale>
<asrwt>0</asrwt>
<pdfrwt beam="1">  1        2 0.18341462E+00 0.77384075E+03</pdfrwt>
<pdfrwt beam="2">  1       -2 0.19318906E-01 0.77384075E+03</pdfrwt>
<totfact> 0.43712597E+02</totfact>
</mgrwt>
</event>
<event>
 4    1  0.9012200E-005  0.4697733E+03  0.7818608E-02  0.1021984E+00
          2   -1    0    0  501    0  0.00000000000E+00  0.00000000000E+00  0.73432489026E+03  0.73432489026E+03  0.25500000000E-02 0. -1.
         -2   -1    0    0    0  501 -0.00000000000E+00 -0.00000000000E+00 -0.75132590882E+02  0.75132590926E+02  0.25500000000E-02 0.  1.
    5000001    1    1    2    0    0 -0.11755236815E+03  0.53065605974E+02  0.14633114587E+03  0.25548448494E+03  0.16500000000E+03 0.  0.
   -5000001    1    1    2    0    0  0.11755236815E+03 -0.53065605974E+02  0.51286115351E+03  0.55397299625E+03  0.16500000000E+03 0.  0.
<mgrwt>
<rscale>  0 0.46977327E+03</rscale>
<asrwt>0</asrwt>
<pdfrwt beam="1">  1        2 0.11297306E+00 0.46977327E+03</pdfrwt>
<pdfrwt beam="2">  1       -2 0.11558860E-01 0.46977327E+03</pdfrwt>
<totfact> 0.20853481E+03</totfact>
</mgrwt>
</event>
<event>
 4    1  0.9012200E-005  0.9386721E+03  0.7818608E-02  0.9378490E-01
          2   -1    0    0  501    0  0.00000000000E+00  0.00000000000E+00  0.30960879704E+04  0.30960879704E+04  0.25500000000E-02 0.  1.
         -2   -1    0    0    0  501 -0.00000000000E+00 -0.00000000000E+00 -0.71146662266E+02  0.71146662312E+02  0.25500000000E-02 0. -1.
    5000001    1    1    2    0    0  0.39378325430E+03  0.18535189293E+03  0.17157833430E+04  0.17777958420E+04  0.16500000000E+03 0.  0.
   -5000001    1    1    2    0    0 -0.39378325430E+03 -0.18535189293E+03  0.13091579651E+04  0.13894387908E+04  0.16500000000E+03 0.  0.
<mgrwt>
<rscale>  0 0.93867209E+03</rscale>
<asrwt>0</asrwt>
<pdfrwt beam="1">  1        2 0.47632127E+00 0.93867209E+03</pdfrwt>
<pdfrwt beam="2">  1       -2 0.10945639E-01 0.93867209E+03</pdfrwt>
<totfact> 0.92823076E+01</totfact>
</mgrwt>
</event>
<event>
 4    1  0.9012200E-005  0.4925135E+03  0.7818608E-02  0.1015752E+00
         -2   -1    0    0    0  501 -0.00000000000E+00  0.00000000000E+00  0.91417166886E+02  0.91417166922E+02  0.25500000000E-02 0. -1.
          2   -1    0    0  501    0  0.00000000000E+00 -0.00000000000E+00 -0.66335872974E+03  0.66335872974E+03  0.25500000000E-02 0.  1.
    5000001    1    1    2    0    0 -0.14586421784E+03 -0.10372929305E+03 -0.22901544678E+03  0.33422927931E+03  0.16500000000E+03 0.  0.
   -5000001    1    1    2    0    0  0.14586421784E+03  0.10372929305E+03 -0.34292611608E+03  0.42054661736E+03  0.16500000000E+03 0.  0.
<mgrwt>
<rscale>  0 0.49251345E+03</rscale>
<asrwt>0</asrwt>
<pdfrwt beam="1">  1        2 0.10205519E+00 0.49251345E+03</pdfrwt>
<pdfrwt beam="2">  1       -2 0.14064180E-01 0.49251345E+03</pdfrwt>
<totfact> 0.17122751E+03</totfact>
</mgrwt>
</event>
<event>
 4    1  0.9012200E-005  0.5863307E+03  0.7818608E-02  0.9934178E-01
          2   -1    0    0  501    0  0.00000000000E+00  0.00000000000E+00  0.63951480036E+03  0.63951480036E+03  0.25500000000E-02 0.  1.
         -2   -1    0    0    0  501 -0.00000000000E+00 -0.00000000000E+00 -0.13439240574E+03  0.13439240577E+03  0.25500000000E-02 0. -1.
    5000001    1    1    2    0    0  0.95461871725E+01 -0.94889558685E+02  0.54659677323E+03  0.57886802515E+03  0.16500000000E+03 0.  0.
   -5000001    1    1    2    0    0 -0.95461871725E+01  0.94889558685E+02 -0.41474378610E+02  0.19503918098E+03  0.16500000000E+03 0.  0.
<mgrwt>
<rscale>  0 0.58633073E+03</rscale>
<asrwt>0</asrwt>
<pdfrwt beam="1">  1        2 0.98386893E-01 0.58633073E+03</pdfrwt>
<pdfrwt beam="2">  1       -2 0.20675755E-01 0.58633073E+03</pdfrwt>
<totfact> 0.92728128E+02</totfact>
</mgrwt>
</event>
<event>
 4    1  0.9012200E-005  0.7867659E+03  0.7818608E-02  0.9579373E-01
          2   -1    0    0  501    0  0.00000000000E+00  0.00000000000E+00  0.13959187236E+04  0.13959187236E+04  0.25500000000E-02 0.  1.
         -2   -1    0    0    0  501 -0.00000000000E+00 -0.00000000000E+00 -0.11085899841E+03  0.11085899844E+03  0.25500000000E-02 0. -1.
    5000001    1    1    2    0    0 -0.28247542359E+03 -0.21830729019E+03  0.62597583166E+03  0.73927070800E+03  0.16500000000E+03 0.  0.
   -5000001    1    1    2    0    0  0.28247542359E+03  0.21830729019E+03  0.65908389352E+03  0.76750701403E+03  0.16500000000E+03 0.  0.
<mgrwt>
<rscale>  0 0.78676592E+03</rscale>
<asrwt>0</asrwt>
<pdfrwt beam="1">  1        2 0.21475671E+00 0.78676592E+03</pdfrwt>
<pdfrwt beam="2">  1       -2 0.17055232E-01 0.78676592E+03</pdfrwt>
<totfact> 0.41306216E+02</totfact>
</mgrwt>
</event>
<event>
 4    1  0.9012200E-005  0.5419408E+03  0.7818608E-02  0.1003377E+00
         -2   -1    0    0    0  501 -0.00000000000E+00  0.00000000000E+00  0.13160160472E+03  0.13160160474E+03  0.25500000000E-02 0. -1.
          2   -1    0    0  501    0  0.00000000000E+00 -0.00000000000E+00 -0.55793353240E+03  0.55793353240E+03  0.25500000000E-02 0.  1.
    5000001    1    1    2    0    0  0.17300247102E+03 -0.97607386424E+02 -0.10868728743E+03  0.28016956172E+03  0.16500000000E+03 0.  0.
   -5000001    1    1    2    0    0 -0.17300247102E+03  0.97607386424E+02 -0.31764464025E+03  0.40936557543E+03  0.16500000000E+03 0.  0.
<mgrwt>
<rscale>  0 0.54194077E+03</rscale>
<asrwt>0</asrwt>
<pdfrwt beam="1">  1        2 0.85835927E-01 0.54194077E+03</pdfrwt>
<pdfrwt beam="2">  1       -2 0.20246401E-01 0.54194077E+03</pdfrwt>
<totfact> 0.11328466E+03</totfact>
</mgrwt>
</event>
<event>
 4    1  0.9012200E-005  0.1349679E+04  0.7818608E-02  0.8991071E-01
         -2   -1    0    0    0  501 -0.00000000000E+00  0.00000000000E+00  0.31369129533E+03  0.31369129534E+03  0.25500000000E-02 0. -1.
          2   -1    0    0  501    0  0.00000000000E+00 -0.00000000000E+00 -0.14517721283E+04  0.14517721283E+04  0.25500000000E-02 0.  1.
    5000001    1    1    2    0    0  0.55658778548E+03 -0.30919843998E+03 -0.76650854568E+03  0.10100267268E+04  0.16500000000E+03 0.  0.
   -5000001    1    1    2    0    0 -0.55658778548E+03  0.30919843998E+03 -0.37157228725E+03  0.75543669680E+03  0.16500000000E+03 0.  0.
<mgrwt>
<rscale>  0 0.13496789E+04</rscale>
<asrwt>0</asrwt>
<pdfrwt beam="1">  1        2 0.22334955E+00 0.13496789E+04</pdfrwt>
<pdfrwt beam="2">  1       -2 0.48260200E-01 0.13496789E+04</pdfrwt>
<totfact> 0.53692843E+01</totfact>
</mgrwt>
</event>
<event>
 4    1  0.9012200E-005  0.5347718E+03  0.7818608E-02  0.1005081E+00
         -2   -1    0    0    0  501 -0.00000000000E+00  0.00000000000E+00  0.43866556469E+02  0.43866556543E+02  0.25500000000E-02 0. -1.
          2   -1    0    0  501    0  0.00000000000E+00 -0.00000000000E+00 -0.16298345817E+04  0.16298345817E+04  0.25500000000E-02 0.  1.
    5000001    1    1    2    0    0  0.12605548401E+03 -0.11611258505E+03 -0.11749942630E+04  0.11988363673E+04  0.16500000000E+03 0.  0.
   -5000001    1    1    2    0    0 -0.12605548401E+03  0.11611258505E+03 -0.41097376227E+03  0.47486477100E+03  0.16500000000E+03 0.  0.
<mgrwt>
<rscale>  0 0.53477184E+03</rscale>
<asrwt>0</asrwt>
<pdfrwt beam="1">  1        2 0.25074374E+00 0.53477184E+03</pdfrwt>
<pdfrwt beam="2">  1       -2 0.67487022E-02 0.53477184E+03</pdfrwt>
<totfact> 0.14167193E+03</totfact>
</mgrwt>
</event>
<event>
 4    1  0.9012200E-005  0.5961888E+03  0.7818608E-02  0.9913345E-01
          2   -1    0    0  501    0  0.00000000000E+00  0.00000000000E+00  0.10140304805E+03  0.10140304808E+03  0.25500000000E-02 0.  1.
         -2   -1    0    0    0  501 -0.00000000000E+00 -0.00000000000E+00 -0.87630782756E+03  0.87630782756E+03  0.25500000000E-02 0. -1.
    5000001    1    1    2    0    0 -0.23845906235E+03  0.53641314113E+02 -0.31606020712E+03  0.43227210126E+03  0.16500000000E+03 0.  0.
   -5000001    1    1    2    0    0  0.23845906235E+03 -0.53641314113E+02 -0.45884457239E+03  0.54543877439E+03  0.16500000000E+03 0.  0.
<mgrwt>
<rscale>  0 0.59618885E+03</rscale>
<asrwt>0</asrwt>
<pdfrwt beam="1">  1        2 0.15600469E-01 0.59618885E+03</pdfrwt>
<pdfrwt beam="2">  1       -2 0.13481658E+00 0.59618885E+03</pdfrwt>
<totfact> 0.15362707E+02</totfact>
</mgrwt>
</event>
<event>
 4    1  0.9012200E-005  0.4856305E+03  0.7818608E-02  0.1017599E+00
          2   -1    0    0  501    0  0.00000000000E+00  0.00000000000E+00  0.17346767027E+04  0.17346767027E+04  0.25500000000E-02 0.  1.
         -2   -1    0    0    0  501 -0.00000000000E+00 -0.00000000000E+00 -0.33988611277E+02  0.33988611373E+02  0.25500000000E-02 0. -1.
    5000001    1    1    2    0    0  0.10778544829E+03  0.13466308333E+03  0.68818704931E+03  0.72840803381E+03  0.16500000000E+03 0.  0.
   -5000001    1    1    2    0    0 -0.10778544829E+03 -0.13466308333E+03  0.10125010422E+04  0.10402572803E+04  0.16500000000E+03 0.  0.
<mgrwt>
<rscale>  0 0.48563053E+03</rscale>
<asrwt>0</asrwt>
<pdfrwt beam="1">  1        2 0.26687325E+00 0.48563053E+03</pdfrwt>
<pdfrwt beam="2">  1       -2 0.52290189E-02 0.48563053E+03</pdfrwt>
<totfact> 0.18551575E+03</totfact>
</mgrwt>
</event>
<event>
 4    1  0.9012200E-005  0.4190156E+03  0.7818608E-02  0.1037387E+00
         -2   -1    0    0    0  501 -0.00000000000E+00  0.00000000000E+00  0.50472699053E+02  0.50472699117E+02  0.25500000000E-02 0. -1.
          2   -1    0    0  501    0  0.00000000000E+00 -0.00000000000E+00 -0.86964876381E+03  0.86964876382E+03  0.25500000000E-02 0.  1.
    5000001    1    1    2    0    0 -0.64472381908E+02  0.99235907789E+02 -0.52292915913E+03  0.56096734209E+03  0.16500000000E+03 0.  0.
   -5000001    1    1    2    0    0  0.64472381908E+02 -0.99235907789E+02 -0.29624690563E+03  0.35915412085E+03  0.16500000000E+03 0.  0.
<mgrwt>
<rscale>  0 0.41901561E+03</rscale>
<asrwt>0</asrwt>
<pdfrwt beam="1">  1        2 0.13379211E+00 0.41901561E+03</pdfrwt>
<pdfrwt beam="2">  1       -2 0.77650313E-02 0.41901561E+03</pdfrwt>
<totfact> 0.31661051E+03</totfact>
</mgrwt>
</event>
<event>
 4    1  0.9012200E-005  0.4344663E+03  0.7818608E-02  0.1032458E+00
          2   -1    0    0  501    0  0.00000000000E+00  0.00000000000E+00  0.79116478856E+03  0.79116478856E+03  0.25500000000E-02 0.  1.
         -2   -1    0    0    0  501 -0.00000000000E+00 -0.00000000000E+00 -0.59646532067E+02  0.59646532122E+02  0.25500000000E-02 0. -1.
    5000001    1    1    2    0    0 -0.11053023527E+03  0.70675398563E+02  0.46851419700E+03  0.51375334321E+03  0.16500000000E+03 0.  0.
   -5000001    1    1    2    0    0  0.11053023527E+03 -0.70675398563E+02  0.26300405950E+03  0.33705797748E+03  0.16500000000E+03 0.  0.
<mgrwt>
<rscale>  0 0.43446627E+03</rscale>
<asrwt>0</asrwt>
<pdfrwt beam="1">  1        2 0.12171766E+00 0.43446627E+03</pdfrwt>
<pdfrwt beam="2">  1       -2 0.91763897E-02 0.43446627E+03</pdfrwt>
<totfact> 0.27515588E+03</totfact>
</mgrwt>
</event>
<event>
 4    1  0.9012200E-005  0.8244856E+03  0.7818608E-02  0.9525236E-01
         -2   -1    0    0    0  501 -0.00000000000E+00  0.00000000000E+00  0.39480210549E+03  0.39480210550E+03  0.25500000000E-02 0. -1.
          2   -1    0    0  501    0  0.00000000000E+00 -0.00000000000E+00 -0.43045395710E+03  0.43045395711E+03  0.25500000000E-02 0.  1.
    5000001    1    1    2    0    0 -0.35031806802E+03 -0.38773426751E+02 -0.15394197786E+03  0.41850837500E+03  0.16500000000E+03 0.  0.
   -5000001    1    1    2    0    0  0.35031806802E+03  0.38773426751E+02  0.11829012625E+03  0.40674768760E+03  0.16500000000E+03 0.  0.
<mgrwt>
<rscale>  0 0.82448561E+03</rscale>
<asrwt>0</asrwt>
<pdfrwt beam="1">  1        2 0.66223686E-01 0.82448561E+03</pdfrwt>
<pdfrwt beam="2">  1       -2 0.60738786E-01 0.82448561E+03</pdfrwt>
<totfact> 0.18591484E+02</totfact>
</mgrwt>
</event>
<event>
 4    1  0.9012200E-005  0.5188171E+03  0.7818608E-02  0.1008981E+00
          2   -1    0    0  501    0  0.00000000000E+00  0.00000000000E+00  0.69921075992E+02  0.69921076039E+02  0.25500000000E-02 0.  1.
         -2   -1    0    0    0  501 -0.00000000000E+00 -0.00000000000E+00 -0.96241088520E+03  0.96241088521E+03  0.25500000000E-02 0. -1.
    5000001    1    1    2    0    0 -0.15189108100E+03  0.12566660931E+03 -0.37717897029E+03  0.45645588266E+03  0.16500000000E+03 0.  0.
   -5000001    1    1    2    0    0  0.15189108100E+03 -0.12566660931E+03 -0.51531083892E+03  0.57587607859E+03  0.16500000000E+03 0.  0.
<mgrwt>
<rscale>  0 0.51881713E+03</rscale>
<asrwt>0</asrwt>
<pdfrwt beam="1">  1        2 0.10757089E-01 0.51881713E+03</pdfrwt>
<pdfrwt beam="2">  1       -2 0.14806320E+00 0.51881713E+03</pdfrwt>
<totfact> 0.19116134E+02</totfact>
</mgrwt>
</event>
<event>
 4    1  0.9012200E-005  0.6689955E+03  0.7818608E-02  0.9771774E-01
         -2   -1    0    0    0  501 -0.00000000000E+00  0.00000000000E+00  0.14207122105E+03  0.14207122107E+03  0.25500000000E-02 0. -1.
          2   -1    0    0  501    0  0.00000000000E+00 -0.00000000000E+00 -0.78755390859E+03  0.78755390860E+03  0.25500000000E-02 0.  1.
    5000001    1    1    2    0    0  0.24248964771E+03 -0.15325679752E+03 -0.39045941778E+03  0.51183242587E+03  0.16500000000E+03 0.  0.
   -5000001    1    1    2    0    0 -0.24248964771E+03  0.15325679752E+03 -0.25502326976E+03  0.41779270380E+03  0.16500000000E+03 0.  0.
<mgrwt>
<rscale>  0 0.66899550E+03</rscale>
<asrwt>0</asrwt>
<pdfrwt beam="1">  1        2 0.12116214E+00 0.66899550E+03</pdfrwt>
<pdfrwt beam="2">  1       -2 0.21857111E-01 0.66899550E+03</pdfrwt>
<totfact> 0.64538109E+02</totfact>
</mgrwt>
</event>
<event>
 4    1  0.9012200E-005  0.4154415E+03  0.7818608E-02  0.1038560E+00
          2   -1    0    0  501    0  0.00000000000E+00  0.00000000000E+00  0.14292473252E+04  0.14292473252E+04  0.25500000000E-02 0.  1.
         -2   -1    0    0    0  501 -0.00000000000E+00 -0.00000000000E+00 -0.30189258547E+02  0.30189258654E+02  0.25500000000E-02 0. -1.
    5000001    1    1    2    0    0 -0.14851545162E+00  0.12097672185E+03  0.82558216097E+03  0.85055646127E+03  0.16500000000E+03 0.  0.
   -5000001    1    1    2    0    0  0.14851545162E+00 -0.12097672185E+03  0.57347590566E+03  0.60888012257E+03  0.16500000000E+03 0.  0.
<mgrwt>
<rscale>  0 0.41544153E+03</rscale>
<asrwt>0</asrwt>
<pdfrwt beam="1">  1        2 0.21988423E+00 0.41544153E+03</pdfrwt>
<pdfrwt beam="2">  1       -2 0.46445008E-02 0.41544153E+03</pdfrwt>
<totfact> 0.32673076E+03</totfact>
</mgrwt>
</event>
<event>
 4    1  0.9012200E-005  0.4063612E+03  0.7818608E-02  0.1041599E+00
         -2   -1    0    0    0  501 -0.00000000000E+00  0.00000000000E+00  0.22208208058E+02  0.22208208204E+02  0.25500000000E-02 0. -1.
          2   -1    0    0  501    0  0.00000000000E+00 -0.00000000000E+00 -0.18588783171E+04  0.18588783171E+04  0.25500000000E-02 0.  1.
    5000001    1    1    2    0    0  0.97636417196E+02  0.30079562086E+02 -0.11968401965E+04  0.12124723114E+04  0.16500000000E+03 0.  0.
   -5000001    1    1    2    0    0 -0.97636417196E+02 -0.30079562086E+02 -0.63982991254E+03  0.66861421388E+03  0.16500000000E+03 0.  0.
<mgrwt>
<rscale>  0 0.40636120E+03</rscale>
<asrwt>0</asrwt>
<pdfrwt beam="1">  1        2 0.28598116E+00 0.40636120E+03</pdfrwt>
<pdfrwt beam="2">  1       -2 0.34166489E-02 0.40636120E+03</pdfrwt>
<totfact> 0.30606271E+03</totfact>
</mgrwt>
</event>
<event>
 4    1  0.9012200E-005  0.5924913E+03  0.7818608E-02  0.9921108E-01
          2   -1    0    0  501    0  0.00000000000E+00  0.00000000000E+00  0.10576855542E+04  0.10576855542E+04  0.25500000000E-02 0.  1.
         -2   -1    0    0    0  501 -0.00000000000E+00 -0.00000000000E+00 -0.82975028852E+02  0.82975028892E+02  0.25500000000E-02 0. -1.
    5000001    1    1    2    0    0  0.21655801796E+03 -0.60067731068E+02  0.29453788578E+03  0.40556512870E+03  0.16500000000E+03 0.  0.
   -5000001    1    1    2    0    0 -0.21655801796E+03  0.60067731068E+02  0.68017263957E+03  0.73509545440E+03  0.16500000000E+03 0.  0.
<mgrwt>
<rscale>  0 0.59249131E+03</rscale>
<asrwt>0</asrwt>
<pdfrwt beam="1">  1        2 0.16272084E+00 0.59249131E+03</pdfrwt>
<pdfrwt beam="2">  1       -2 0.12765390E-01 0.59249131E+03</pdfrwt>
<totfact> 0.10728735E+03</totfact>
</mgrwt>
</event>
<event>
 4    1  0.9012200E-005  0.4776352E+03  0.7818608E-02  0.1019787E+00
          2   -1    0    0  501    0  0.00000000000E+00  0.00000000000E+00  0.24731699800E+04  0.24731699800E+04  0.25500000000E-02 0.  1.
         -2   -1    0    0    0  501 -0.00000000000E+00 -0.00000000000E+00 -0.23061031832E+02  0.23061031973E+02  0.25500000000E-02 0. -1.
    5000001    1    1    2    0    0  0.15382353570E+03 -0.77520818542E+02  0.11637282085E+04  0.11879223463E+04  0.16500000000E+03 0.  0.
   -5000001    1    1    2    0    0 -0.15382353570E+03  0.77520818542E+02  0.12863807397E+04  0.13083086657E+04  0.16500000000E+03 0.  0.
<mgrwt>
<rscale>  0 0.47763522E+03</rscale>
<asrwt>0</asrwt>
<pdfrwt beam="1">  1        2 0.38048770E+00 0.47763522E+03</pdfrwt>
<pdfrwt beam="2">  1       -2 0.35478510E-02 0.47763522E+03</pdfrwt>
<totfact> 0.13376550E+03</totfact>
</mgrwt>
</event>
<event>
 4    1  0.9012200E-005  0.6259324E+03  0.7818608E-02  0.9853019E-01
         -2   -1    0    0    0  501 -0.00000000000E+00  0.00000000000E+00  0.75326593392E+02  0.75326593436E+02  0.25500000000E-02 0. -1.
          2   -1    0    0  501    0  0.00000000000E+00 -0.00000000000E+00 -0.13003091382E+04  0.13003091382E+04  0.25500000000E-02 0.  1.
    5000001    1    1    2    0    0  0.23015121575E+03  0.12864874705E+03 -0.53627138991E+03  0.61994522812E+03  0.16500000000E+03 0.  0.
   -5000001    1    1    2    0    0 -0.23015121575E+03 -0.12864874705E+03 -0.68871115488E+03  0.75569050351E+03  0.16500000000E+03 0.  0.
<mgrwt>
<rscale>  0 0.62593245E+03</rscale>
<asrwt>0</asrwt>
<pdfrwt beam="1">  1        2 0.20004754E+00 0.62593245E+03</pdfrwt>
<pdfrwt beam="2">  1       -2 0.11588708E-01 0.62593245E+03</pdfrwt>
<totfact> 0.90277082E+02</totfact>
</mgrwt>
</event>
<event>
 4    1  0.9012200E-005  0.4652217E+03  0.7818608E-02  0.1023278E+00
          2   -1    0    0  501    0  0.00000000000E+00  0.00000000000E+00  0.46682807416E+03  0.46682807417E+03  0.25500000000E-02 0.  1.
         -2   -1    0    0    0  501 -0.00000000000E+00 -0.00000000000E+00 -0.11590521195E+03  0.11590521198E+03  0.25500000000E-02 0. -1.
    5000001    1    1    2    0    0  0.70615807202E+02  0.14494200142E+03  0.21278850105E+03  0.31384506079E+03  0.16500000000E+03 0.  0.
   -5000001    1    1    2    0    0 -0.70615807202E+02 -0.14494200142E+03  0.13813436117E+03  0.26888822536E+03  0.16500000000E+03 0.  0.
<mgrwt>
<rscale>  0 0.46522170E+03</rscale>
<asrwt>0</asrwt>
<pdfrwt beam="1">  1        2 0.71819706E-01 0.46522170E+03</pdfrwt>
<pdfrwt beam="2">  1       -2 0.17831570E-01 0.46522170E+03</pdfrwt>
<totfact> 0.17312168E+03</totfact>
</mgrwt>
</event>
<event>
 4    1  0.9012200E-005  0.6564113E+03  0.7818608E-02  0.9794823E-01
          2   -1    0    0  501    0  0.00000000000E+00  0.00000000000E+00  0.10219924679E+04  0.10219924679E+04  0.25500000000E-02 0.  1.
         -2   -1    0    0    0  501 -0.00000000000E+00 -0.00000000000E+00 -0.10540090765E+03  0.10540090768E+03  0.25500000000E-02 0. -1.
    5000001    1    1    2    0    0  0.16916707438E+03 -0.18507040034E+03  0.68631356611E+03  0.74907934371E+03  0.16500000000E+03 0.  0.
   -5000001    1    1    2    0    0 -0.16916707438E+03  0.18507040034E+03  0.23027799416E+03  0.37831403190E+03  0.16500000000E+03 0.  0.
<mgrwt>
<rscale>  0 0.65641125E+03</rscale>
<asrwt>0</asrwt>
<pdfrwt beam="1">  1        2 0.15722961E+00 0.65641125E+03</pdfrwt>
<pdfrwt beam="2">  1       -2 0.16215525E-01 0.65641125E+03</pdfrwt>
<totfact> 0.75418559E+02</totfact>
</mgrwt>
</event>
<event>
 4    1  0.9012200E-005  0.4158205E+03  0.7818608E-02  0.1038435E+00
          2   -1    0    0  501    0  0.00000000000E+00  0.00000000000E+00  0.13726675963E+04  0.13726675963E+04  0.25500000000E-02 0.  1.
         -2   -1    0    0    0  501 -0.00000000000E+00 -0.00000000000E+00 -0.31491003123E+02  0.31491003226E+02  0.25500000000E-02 0. -1.
    5000001    1    1    2    0    0 -0.11856988771E+03 -0.43986461702E+02  0.68017075613E+03  0.71123194851E+03  0.16500000000E+03 0.  0.
   -5000001    1    1    2    0    0  0.11856988771E+03  0.43986461702E+02  0.66100583707E+03  0.69292665104E+03  0.16500000000E+03 0.  0.
<mgrwt>
<rscale>  0 0.41582054E+03</rscale>
<asrwt>0</asrwt>
<pdfrwt beam="1">  1        2 0.21117959E+00 0.41582054E+03</pdfrwt>
<pdfrwt beam="2">  1       -2 0.48447705E-02 0.41582054E+03</pdfrwt>
<totfact> 0.32910721E+03</totfact>
</mgrwt>
</event>
<event>
 4    1  0.9012200E-005  0.1070589E+04  0.7818608E-02  0.9234341E-01
          2   -1    0    0  501    0  0.00000000000E+00  0.00000000000E+00  0.16364654165E+04  0.16364654165E+04  0.25500000000E-02 0.  1.
         -2   -1    0    0    0  501 -0.00000000000E+00 -0.00000000000E+00 -0.17509712808E+03  0.17509712809E+03  0.25500000000E-02 0. -1.
    5000001    1    1    2    0    0 -0.14070645909E+03  0.37577836469E+03  0.20013673956E+03  0.47779430880E+03  0.16500000000E+03 0.  0.
   -5000001    1    1    2    0    0  0.14070645909E+03 -0.37577836469E+03  0.12612315489E+04  0.13337682358E+04  0.16500000000E+03 0.  0.
<mgrwt>
<rscale>  0 0.10705894E+04</rscale>
<asrwt>0</asrwt>
<pdfrwt beam="1">  1        2 0.25176391E+00 0.10705894E+04</pdfrwt>
<pdfrwt beam="2">  1       -2 0.26938020E-01 0.10705894E+04</pdfrwt>
<totfact> 0.13243021E+02</totfact>
</mgrwt>
</event>
<event>
 4    1  0.9012200E-005  0.1213211E+04  0.7818608E-02  0.9101371E-01
          2   -1    0    0  501    0  0.00000000000E+00  0.00000000000E+00  0.51652191158E+03  0.51652191159E+03  0.25500000000E-02 0.  1.
         -2   -1    0    0    0  501 -0.00000000000E+00 -0.00000000000E+00 -0.71240030287E+03  0.71240030288E+03  0.25500000000E-02 0. -1.
    5000001    1    1    2    0    0  0.13510519024E+03  0.53055953597E+03  0.10716386120E+03  0.58176965097E+03  0.16500000000E+03 0.  0.
   -5000001    1    1    2    0    0 -0.13510519024E+03 -0.53055953597E+03 -0.30304225250E+03  0.64715256350E+03  0.16500000000E+03 0.  0.
<mgrwt>
<rscale>  0 0.12132112E+04</rscale>
<asrwt>0</asrwt>
<pdfrwt beam="1">  1        2 0.79464909E-01 0.12132112E+04</pdfrwt>
<pdfrwt beam="2">  1       -2 0.10960005E+00 0.12132112E+04</pdfrwt>
<totfact> 0.38741980E+01</totfact>
</mgrwt>
</event>
<event>
 4    1  0.9012200E-005  0.4351762E+03  0.7818608E-02  0.1032237E+00
          2   -1    0    0  501    0  0.00000000000E+00  0.00000000000E+00  0.12710175740E+04  0.12710175740E+04  0.25500000000E-02 0.  1.
         -2   -1    0    0    0  501 -0.00000000000E+00 -0.00000000000E+00 -0.37249350919E+02  0.37249351006E+02  0.25500000000E-02 0. -1.
    5000001    1    1    2    0    0 -0.28593197967E+02  0.10200745231E+03  0.90044122195E+03  0.92154353423E+03  0.16500000000E+03 0.  0.
   -5000001    1    1    2    0    0  0.28593197967E+02 -0.10200745231E+03  0.33332700118E+03  0.38672339082E+03  0.16500000000E+03 0.  0.
<mgrwt>
<rscale>  0 0.43517619E+03</rscale>
<asrwt>0</asrwt>
<pdfrwt beam="1">  1        2 0.19554115E+00 0.43517619E+03</pdfrwt>
<pdfrwt beam="2">  1       -2 0.57306700E-02 0.43517619E+03</pdfrwt>
<totfact> 0.28964803E+03</totfact>
</mgrwt>
</event>
<event>
 4    1  0.9012200E-005  0.6638673E+03  0.7818608E-02  0.9781101E-01
         -2   -1    0    0    0  501 -0.00000000000E+00  0.00000000000E+00  0.27983927890E+03  0.27983927891E+03  0.25500000000E-02 0. -1.
          2   -1    0    0  501    0  0.00000000000E+00 -0.00000000000E+00 -0.39372575531E+03  0.39372575532E+03  0.25500000000E-02 0.  1.
    5000001    1    1    2    0    0 -0.11773282625E+03 -0.26159788898E+03 -0.30868452542E+02  0.33237378847E+03  0.16500000000E+03 0.  0.
   -5000001    1    1    2    0    0  0.11773282625E+03  0.26159788898E+03 -0.83018023873E+02  0.34119124576E+03  0.16500000000E+03 0.  0.
<mgrwt>
<rscale>  0 0.66386725E+03</rscale>
<asrwt>0</asrwt>
<pdfrwt beam="1">  1        2 0.60573193E-01 0.66386725E+03</pdfrwt>
<pdfrwt beam="2">  1       -2 0.43052197E-01 0.66386725E+03</pdfrwt>
<totfact> 0.41766217E+02</totfact>
</mgrwt>
</event>
<event>
 4    1  0.9012200E-005  0.8153597E+03  0.7818608E-02  0.9538047E-01
         -2   -1    0    0    0  501 -0.00000000000E+00  0.00000000000E+00  0.13836222863E+03  0.13836222866E+03  0.25500000000E-02 0. -1.
          2   -1    0    0  501    0  0.00000000000E+00 -0.00000000000E+00 -0.12012154275E+04  0.12012154275E+04  0.25500000000E-02 0.  1.
    5000001    1    1    2    0    0 -0.31990105038E+03 -0.16503556387E+03 -0.69075191268E+03  0.79620137166E+03  0.16500000000E+03 0.  0.
   -5000001    1    1    2    0    0  0.31990105038E+03  0.16503556387E+03 -0.37210128620E+03  0.54337628451E+03  0.16500000000E+03 0.  0.
<mgrwt>
<rscale>  0 0.81535966E+03</rscale>
<asrwt>0</asrwt>
<pdfrwt beam="1">  1        2 0.18480237E+00 0.81535966E+03</pdfrwt>
<pdfrwt beam="2">  1       -2 0.21286498E-01 0.81535966E+03</pdfrwt>
<totfact> 0.36345978E+02</totfact>
</mgrwt>
</event>
<event>
 4    1  0.9012200E-005  0.5131881E+03  0.7818608E-02  0.1010393E+00
         -2   -1    0    0    0  501 -0.00000000000E+00  0.00000000000E+00  0.84339869808E+02  0.84339869846E+02  0.25500000000E-02 0. -1.
          2   -1    0    0  501    0  0.00000000000E+00 -0.00000000000E+00 -0.78065707459E+03  0.78065707459E+03  0.25500000000E-02 0.  1.
    5000001    1    1    2    0    0 -0.18157321870E+03  0.74807735576E+02 -0.33618239917E+03  0.42285770250E+03  0.16500000000E+03 0.  0.
   -5000001    1    1    2    0    0  0.18157321870E+03 -0.74807735576E+02 -0.36013480560E+03  0.44213924193E+03  0.16500000000E+03 0.  0.
<mgrwt>
<rscale>  0 0.51318814E+03</rscale>
<asrwt>0</asrwt>
<pdfrwt beam="1">  1        2 0.12010108E+00 0.51318814E+03</pdfrwt>
<pdfrwt beam="2">  1       -2 0.12975365E-01 0.51318814E+03</pdfrwt>
<totfact> 0.15948999E+03</totfact>
</mgrwt>
</event>
<event>
 4    1  0.9012200E-005  0.7286500E+03  0.7818608E-02  0.9669454E-01
          2   -1    0    0  501    0  0.00000000000E+00  0.00000000000E+00  0.60091896448E+03  0.60091896449E+03  0.25500000000E-02 0.  1.
         -2   -1    0    0    0  501 -0.00000000000E+00 -0.00000000000E+00 -0.22088289534E+03  0.22088289535E+03  0.25500000000E-02 0. -1.
    5000001    1    1    2    0    0 -0.98847221142E+02 -0.29910934865E+03  0.10070789336E+03  0.36960012901E+03  0.16500000000E+03 0.  0.
   -5000001    1    1    2    0    0  0.98847221142E+02  0.29910934865E+03  0.27932817578E+03  0.45220173083E+03  0.16500000000E+03 0.  0.
<mgrwt>
<rscale>  0 0.72865004E+03</rscale>
<asrwt>0</asrwt>
<pdfrwt beam="1">  1        2 0.92449069E-01 0.72865004E+03</pdfrwt>
<pdfrwt beam="2">  1       -2 0.33981985E-01 0.72865004E+03</pdfrwt>
<totfact> 0.40386378E+02</totfact>
</mgrwt>
</event>
<event>
 4    1  0.9012200E-005  0.7578064E+03  0.7818608E-02  0.9623182E-01
         -2   -1    0    0    0  501 -0.00000000000E+00  0.00000000000E+00  0.40911516777E+03  0.40911516777E+03  0.25500000000E-02 0. -1.
          2   -1    0    0  501    0  0.00000000000E+00 -0.00000000000E+00 -0.35092226153E+03  0.35092226154E+03  0.25500000000E-02 0.  1.
    5000001    1    1    2    0    0 -0.29722409627E+03 -0.70549289050E+02 -0.12308442642E+03  0.36836685738E+03  0.16500000000E+03 0.  0.
   -5000001    1    1    2    0    0  0.29722409627E+03  0.70549289050E+02  0.18127733265E+03  0.39167057194E+03  0.16500000000E+03 0.  0.
<mgrwt>
<rscale>  0 0.75780636E+03</rscale>
<asrwt>0</asrwt>
<pdfrwt beam="1">  1        2 0.53988040E-01 0.75780636E+03</pdfrwt>
<pdfrwt beam="2">  1       -2 0.62940795E-01 0.75780636E+03</pdfrwt>
<totfact> 0.21743257E+02</totfact>
</mgrwt>
</event>
<event>
 4    1  0.9012200E-005  0.4806121E+03  0.7818608E-02  0.1018967E+00
         -2   -1    0    0    0  501 -0.00000000000E+00  0.00000000000E+00  0.20278847675E+03  0.20278847676E+03  0.25500000000E-02 0. -1.
          2   -1    0    0  501    0  0.00000000000E+00 -0.00000000000E+00 -0.28476468043E+03  0.28476468044E+03  0.25500000000E-02 0.  1.
    5000001    1    1    2    0    0 -0.59582395414E+02 -0.15441352970E+03 -0.97727944292E+02  0.25331670118E+03  0.16500000000E+03 0.  0.
   -5000001    1    1    2    0    0  0.59582395414E+02  0.15441352970E+03  0.15751740614E+02  0.23423645603E+03  0.16500000000E+03 0.  0.
<mgrwt>
<rscale>  0 0.48061209E+03</rscale>
<asrwt>0</asrwt>
<pdfrwt beam="1">  1        2 0.43809951E-01 0.48061209E+03</pdfrwt>
<pdfrwt beam="2">  1       -2 0.31198227E-01 0.48061209E+03</pdfrwt>
<totfact> 0.11084598E+03</totfact>
</mgrwt>
</event>
<event>
 4    1  0.9012200E-005  0.7549171E+03  0.7818608E-02  0.9627668E-01
         -2   -1    0    0    0  501 -0.00000000000E+00  0.00000000000E+00  0.79081251128E+03  0.79081251129E+03  0.25500000000E-02 0. -1.
          2   -1    0    0  501    0  0.00000000000E+00 -0.00000000000E+00 -0.18016273223E+03  0.18016273225E+03  0.25500000000E-02 0.  1.
    5000001    1    1    2    0    0 -0.51608302175E+02 -0.33406400440E+03  0.26490118265E+03  0.46006500895E+03  0.16500000000E+03 0.  0.
   -5000001    1    1    2    0    0  0.51608302175E+02  0.33406400440E+03  0.34574859640E+03  0.51091023458E+03  0.16500000000E+03 0.  0.
<mgrwt>
<rscale>  0 0.75491706E+03</rscale>
<asrwt>0</asrwt>
<pdfrwt beam="1">  1        2 0.27717344E-01 0.75491706E+03</pdfrwt>
<pdfrwt beam="2">  1       -2 0.12166346E+00 0.75491706E+03</pdfrwt>
<totfact> 0.10081680E+02</totfact>
</mgrwt>
</event>
<event>
 4    1  0.9012200E-005  0.6033133E+03  0.7818608E-02  0.9898556E-01
          2   -1    0    0  501    0  0.00000000000E+00  0.00000000000E+00  0.39714708268E+03  0.39714708269E+03  0.25500000000E-02 0.  1.
         -2   -1    0    0    0  501 -0.00000000000E+00 -0.00000000000E+00 -0.22912599939E+03  0.22912599941E+03  0.25500000000E-02 0. -1.
    5000001    1    1    2    0    0 -0.22542830840E+03  0.10410762544E+02  0.20166136280E+03  0.34470075638E+03  0.16500000000E+03 0.  0.
   -5000001    1    1    2    0    0  0.22542830840E+03 -0.10410762544E+02 -0.33640279510E+02  0.28157232572E+03  0.16500000000E+03 0.  0.
<mgrwt>
<rscale>  0 0.60331326E+03</rscale>
<asrwt>0</asrwt>
<pdfrwt beam="1">  1        2 0.61099551E-01 0.60331326E+03</pdfrwt>
<pdfrwt beam="2">  1       -2 0.35250154E-01 0.60331326E+03</pdfrwt>
<totfact> 0.60984496E+02</totfact>
</mgrwt>
</event>
<event>
 4    1  0.9012200E-005  0.5458362E+03  0.7818608E-02  0.1002462E+00
         -2   -1    0    0    0  501 -0.00000000000E+00  0.00000000000E+00  0.39724488195E+02  0.39724488277E+02  0.25500000000E-02 0. -1.
          2   -1    0    0  501    0  0.00000000000E+00 -0.00000000000E+00 -0.18750223250E+04  0.18750223250E+04  0.25500000000E-02 0.  1.
    5000001    1    1    2    0    0  0.20117813091E+03 -0.11476445681E+02 -0.63148064484E+03  0.68307917108E+03  0.16500000000E+03 0.  0.
   -5000001    1    1    2    0    0 -0.20117813091E+03  0.11476445681E+02 -0.12038171920E+04  0.12316676422E+04  0.16500000000E+03 0.  0.
<mgrwt>
<rscale>  0 0.54583625E+03</rscale>
<asrwt>0</asrwt>
<pdfrwt beam="1">  1        2 0.28846490E+00 0.54583625E+03</pdfrwt>
<pdfrwt beam="2">  1       -2 0.61114612E-02 0.54583625E+03</pdfrwt>
<totfact> 0.12194305E+03</totfact>
</mgrwt>
</event>
<event>
 4    1  0.9012200E-005  0.3544300E+03  0.7818608E-02  0.1060811E+00
         -2   -1    0    0    0  501 -0.00000000000E+00  0.00000000000E+00  0.21367938634E+03  0.21367938635E+03  0.25500000000E-02 0. -1.
          2   -1    0    0  501    0  0.00000000000E+00 -0.00000000000E+00 -0.14697322488E+03  0.14697322491E+03  0.25500000000E-02 0.  1.
    5000001    1    1    2    0    0 -0.41274618571E+02  0.49893623704E+01 -0.17030477618E+02  0.17100738301E+03  0.16500000000E+03 0.  0.
   -5000001    1    1    2    0    0  0.41274618571E+02 -0.49893623704E+01  0.83736639071E+02  0.18964522825E+03  0.16500000000E+03 0.  0.
<mgrwt>
<rscale>  0 0.35442996E+03</rscale>
<asrwt>0</asrwt>
<pdfrwt beam="1">  1        2 0.22611265E-01 0.35442996E+03</pdfrwt>
<pdfrwt beam="2">  1       -2 0.32873752E-01 0.35442996E+03</pdfrwt>
<totfact> 0.20928557E+03</totfact>
</mgrwt>
</event>
<event>
 4    1  0.9012200E-005  0.5456247E+03  0.7818608E-02  0.1002512E+00
          2   -1    0    0  501    0  0.00000000000E+00  0.00000000000E+00  0.12312547648E+03  0.12312547650E+03  0.25500000000E-02 0.  1.
         -2   -1    0    0    0  501 -0.00000000000E+00 -0.00000000000E+00 -0.60447743679E+03  0.60447743680E+03  0.25500000000E-02 0. -1.
    5000001    1    1    2    0    0 -0.15747702141E+03  0.14967424585E+03 -0.24010975395E+03  0.36342686483E+03  0.16500000000E+03 0.  0.
   -5000001    1    1    2    0    0  0.15747702141E+03 -0.14967424585E+03 -0.24124220637E+03  0.36417604847E+03  0.16500000000E+03 0.  0.
<mgrwt>
<rscale>  0 0.54562468E+03</rscale>
<asrwt>0</asrwt>
<pdfrwt beam="1">  1        2 0.18942381E-01 0.54562468E+03</pdfrwt>
<pdfrwt beam="2">  1       -2 0.92996527E-01 0.54562468E+03</pdfrwt>
<totfact> 0.30023624E+02</totfact>
</mgrwt>
</event>
<event>
 4    1  0.9012200E-005  0.4001881E+03  0.7818608E-02  0.1043715E+00
          2   -1    0    0  501    0  0.00000000000E+00  0.00000000000E+00  0.10004542831E+04  0.10004542831E+04  0.25500000000E-02 0.  1.
         -2   -1    0    0    0  501 -0.00000000000E+00 -0.00000000000E+00 -0.40019442227E+02  0.40019442309E+02  0.25500000000E-02 0. -1.
    5000001    1    1    2    0    0 -0.81778790982E+02 -0.78067544321E+02  0.49453145566E+03  0.53344978467E+03  0.16500000000E+03 0.  0.
   -5000001    1    1    2    0    0  0.81778790982E+02  0.78067544321E+02  0.46590338523E+03  0.50702394076E+03  0.16500000000E+03 0.  0.
<mgrwt>
<rscale>  0 0.40018807E+03</rscale>
<asrwt>0</asrwt>
<pdfrwt beam="1">  1        2 0.15391604E+00 0.40018807E+03</pdfrwt>
<pdfrwt beam="2">  1       -2 0.61568372E-02 0.40018807E+03</pdfrwt>
<totfact> 0.37474057E+03</totfact>
</mgrwt>
</event>
<event>
 4    1  0.9012200E-005  0.5379549E+03  0.7818608E-02  0.1004321E+00
         -2   -1    0    0    0  501 -0.00000000000E+00  0.00000000000E+00  0.87361295716E+02  0.87361295753E+02  0.25500000000E-02 0. -1.
          2   -1    0    0  501    0  0.00000000000E+00 -0.00000000000E+00 -0.82815694675E+03  0.82815694675E+03  0.25500000000E-02 0.  1.
    5000001    1    1    2    0    0  0.70663412912E+02  0.16766791375E+03 -0.18382965596E+03  0.30679665845E+03  0.16500000000E+03 0.  0.
   -5000001    1    1    2    0    0 -0.70663412912E+02 -0.16766791375E+03 -0.55696599507E+03  0.60872158405E+03  0.16500000000E+03 0.  0.
<mgrwt>
<rscale>  0 0.53795488E+03</rscale>
<asrwt>0</asrwt>
<pdfrwt beam="1">  1        2 0.12740876E+00 0.53795488E+03</pdfrwt>
<pdfrwt beam="2">  1       -2 0.13440200E-01 0.53795488E+03</pdfrwt>
<totfact> 0.13920110E+03</totfact>
</mgrwt>
</event>
<event>
 4    1  0.9012200E-005  0.4786379E+03  0.7818608E-02  0.1019510E+00
          2   -1    0    0  501    0  0.00000000000E+00  0.00000000000E+00  0.71166982984E+03  0.71166982984E+03  0.25500000000E-02 0. -1.
         -2   -1    0    0    0  501 -0.00000000000E+00 -0.00000000000E+00 -0.80477706861E+02  0.80477706902E+02  0.25500000000E-02 0.  1.
    5000001    1    1    2    0    0  0.72555840774E+02 -0.15742606640E+03  0.31743866333E+03  0.39754197438E+03  0.16500000000E+03 0.  0.
   -5000001    1    1    2    0    0 -0.72555840774E+02  0.15742606640E+03  0.31375345964E+03  0.39460556237E+03  0.16500000000E+03 0.  0.
<mgrwt>
<rscale>  0 0.47863788E+03</rscale>
<asrwt>0</asrwt>
<pdfrwt beam="1">  1        2 0.10948767E+00 0.47863788E+03</pdfrwt>
<pdfrwt beam="2">  1       -2 0.12381185E-01 0.47863788E+03</pdfrwt>
<totfact> 0.19382066E+03</totfact>
</mgrwt>
</event>
<event>
 4    1  0.9012200E-005  0.4079041E+03  0.7818608E-02  0.1041077E+00
          2   -1    0    0  501    0  0.00000000000E+00  0.00000000000E+00  0.63490166272E+03  0.63490166273E+03  0.25500000000E-02 0.  1.
         -2   -1    0    0    0  501 -0.00000000000E+00 -0.00000000000E+00 -0.65516336151E+02  0.65516336200E+02  0.25500000000E-02 0. -1.
    5000001    1    1    2    0    0  0.94149752335E+02 -0.73843825301E+02  0.27203432857E+03  0.33991875841E+03  0.16500000000E+03 0.  0.
   -5000001    1    1    2    0    0 -0.94149752335E+02  0.73843825301E+02  0.29735099801E+03  0.36049924052E+03  0.16500000000E+03 0.  0.
<mgrwt>
<rscale>  0 0.40790406E+03</rscale>
<asrwt>0</asrwt>
<pdfrwt beam="1">  1        2 0.97677179E-01 0.40790406E+03</pdfrwt>
<pdfrwt beam="2">  1       -2 0.10079436E-01 0.40790406E+03</pdfrwt>
<totfact> 0.31098650E+03</totfact>
</mgrwt>
</event>
<event>
 4    1  0.9012200E-005  0.4045346E+03  0.7818608E-02  0.1042221E+00
          2   -1    0    0  501    0  0.00000000000E+00  0.00000000000E+00  0.88726842332E+03  0.88726842332E+03  0.25500000000E-02 0.  1.
         -2   -1    0    0    0  501 -0.00000000000E+00 -0.00000000000E+00 -0.46110123905E+02  0.46110123975E+02  0.25500000000E-02 0. -1.
    5000001    1    1    2    0    0 -0.69576222973E+02  0.47273277044E+02  0.23297160266E+03  0.29761784418E+03  0.16500000000E+03 0.  0.
   -5000001    1    1    2    0    0  0.69576222973E+02 -0.47273277044E+02  0.60818669675E+03  0.63576070312E+03  0.16500000000E+03 0.  0.
<mgrwt>
<rscale>  0 0.40453458E+03</rscale>
<asrwt>0</asrwt>
<pdfrwt beam="1">  1        2 0.13650282E+00 0.40453458E+03</pdfrwt>
<pdfrwt beam="2">  1       -2 0.70938658E-02 0.40453458E+03</pdfrwt>
<totfact> 0.35513228E+03</totfact>
</mgrwt>
</event>
<event>
 4    1  0.9012200E-005  0.4249131E+03  0.7818608E-02  0.1035479E+00
          2   -1    0    0  501    0  0.00000000000E+00  0.00000000000E+00  0.11023090285E+04  0.11023090285E+04  0.25500000000E-02 0.  1.
         -2   -1    0    0    0  501 -0.00000000000E+00 -0.00000000000E+00 -0.40948398996E+02  0.40948399076E+02  0.25500000000E-02 0. -1.
    5000001    1    1    2    0    0 -0.12764832360E+03 -0.21595074852E+02  0.43934562628E+03  0.48683674996E+03  0.16500000000E+03 0.  0.
   -5000001    1    1    2    0    0  0.12764832360E+03  0.21595074852E+02  0.62201500320E+03  0.65642067760E+03  0.16500000000E+03 0.  0.
<mgrwt>
<rscale>  0 0.42491312E+03</rscale>
<asrwt>0</asrwt>
<pdfrwt beam="1">  1        2 0.16958597E+00 0.42491312E+03</pdfrwt>
<pdfrwt beam="2">  1       -2 0.62997550E-02 0.42491312E+03</pdfrwt>
<totfact> 0.31349429E+03</totfact>
</mgrwt>
</event>
<event>
 4    1  0.9012200E-005  0.4966284E+03  0.7818608E-02  0.1014663E+00
         -2   -1    0    0    0  501 -0.00000000000E+00  0.00000000000E+00  0.10371547444E+03  0.10371547447E+03  0.25500000000E-02 0. -1.
          2   -1    0    0  501    0  0.00000000000E+00 -0.00000000000E+00 -0.59451061589E+03  0.59451061589E+03  0.25500000000E-02 0.  1.
    5000001    1    1    2    0    0  0.10821054423E+03 -0.12131705119E+03 -0.37120773385E+03  0.43754717513E+03  0.16500000000E+03 0.  0.
   -5000001    1    1    2    0    0 -0.10821054423E+03  0.12131705119E+03 -0.11958740760E+03  0.26067891524E+03  0.16500000000E+03 0.  0.
<mgrwt>
<rscale>  0 0.49662843E+03</rscale>
<asrwt>0</asrwt>
<pdfrwt beam="1">  1        2 0.91463169E-01 0.49662843E+03</pdfrwt>
<pdfrwt beam="2">  1       -2 0.15956227E-01 0.49662843E+03</pdfrwt>
<totfact> 0.15811800E+03</totfact>
</mgrwt>
</event>
<event>
 4    1  0.9012200E-005  0.5016280E+03  0.7818608E-02  0.1013355E+00
          2   -1    0    0  501    0  0.00000000000E+00  0.00000000000E+00  0.45520206745E+03  0.45520206745E+03  0.25500000000E-02 0.  1.
         -2   -1    0    0    0  501 -0.00000000000E+00 -0.00000000000E+00 -0.13819719803E+03  0.13819719806E+03  0.25500000000E-02 0. -1.
    5000001    1    1    2    0    0  0.71617509332E+02 -0.17479493501E+03  0.15916458948E+03  0.29705336809E+03  0.16500000000E+03 0.  0.
   -5000001    1    1    2    0    0 -0.71617509332E+02  0.17479493501E+03  0.15784027994E+03  0.29634589742E+03  0.16500000000E+03 0.  0.
<mgrwt>
<rscale>  0 0.50162795E+03</rscale>
<asrwt>0</asrwt>
<pdfrwt beam="1">  1        2 0.70031087E-01 0.50162795E+03</pdfrwt>
<pdfrwt beam="2">  1       -2 0.21261108E-01 0.50162795E+03</pdfrwt>
<totfact> 0.13145493E+03</totfact>
</mgrwt>
</event>
<event>
 4    1  0.9012200E-005  0.1026371E+04  0.7818608E-02  0.9280085E-01
          2   -1    0    0  501    0  0.00000000000E+00  0.00000000000E+00  0.11218089696E+04  0.11218089696E+04  0.25500000000E-02 0.  1.
         -2   -1    0    0    0  501 -0.00000000000E+00 -0.00000000000E+00 -0.23476317134E+03  0.23476317135E+03  0.25500000000E-02 0. -1.
    5000001    1    1    2    0    0  0.22553591126E+03 -0.42965057340E+03  0.47769302405E+03  0.70062949390E+03  0.16500000000E+03 0.  0.
   -5000001    1    1    2    0    0 -0.22553591126E+03  0.42965057340E+03  0.40935277425E+03  0.65594264709E+03  0.16500000000E+03 0.  0.
<mgrwt>
<rscale>  0 0.10263711E+04</rscale>
<asrwt>0</asrwt>
<pdfrwt beam="1">  1        2 0.17258600E+00 0.10263711E+04</pdfrwt>
<pdfrwt beam="2">  1       -2 0.36117411E-01 0.10263711E+04</pdfrwt>
<totfact> 0.15170886E+02</totfact>
</mgrwt>
</event>
<event>
 4    1  0.9012200E-005  0.8877158E+03  0.7818608E-02  0.9441069E-01
         -2   -1    0    0    0  501 -0.00000000000E+00  0.00000000000E+00  0.28788934170E+03  0.28788934172E+03  0.25500000000E-02 0. -1.
          2   -1    0    0  501    0  0.00000000000E+00 -0.00000000000E+00 -0.68432489235E+03  0.68432489235E+03  0.25500000000E-02 0.  1.
    5000001    1    1    2    0    0 -0.23918288980E+03 -0.27348946289E+03  0.14654170075E+02  0.39930525389E+03  0.16500000000E+03 0.  0.
   -5000001    1    1    2    0    0  0.23918288980E+03  0.27348946289E+03 -0.41108972072E+03  0.57290898017E+03  0.16500000000E+03 0.  0.
<mgrwt>
<rscale>  0 0.88771582E+03</rscale>
<asrwt>0</asrwt>
<pdfrwt beam="1">  1        2 0.10528075E+00 0.88771582E+03</pdfrwt>
<pdfrwt beam="2">  1       -2 0.44290668E-01 0.88771582E+03</pdfrwt>
<totfact> 0.20450566E+02</totfact>
</mgrwt>
</event>
<event>
 4    1  0.9012200E-005  0.1265837E+04  0.7818608E-02  0.9057104E-01
          2   -1    0    0  501    0  0.00000000000E+00  0.00000000000E+00  0.14525928883E+04  0.14525928883E+04  0.25500000000E-02 0.  1.
         -2   -1    0    0    0  501 -0.00000000000E+00 -0.00000000000E+00 -0.27577295135E+03  0.27577295136E+03  0.25500000000E-02 0. -1.
    5000001    1    1    2    0    0 -0.59247143794E+03  0.14495116244E+02  0.38529961674E+03  0.72588794440E+03  0.16500000000E+03 0.  0.
   -5000001    1    1    2    0    0  0.59247143794E+03 -0.14495116244E+02  0.79152032022E+03  0.10024778953E+04  0.16500000000E+03 0.  0.
<mgrwt>
<rscale>  0 0.12658370E+04</rscale>
<asrwt>0</asrwt>
<pdfrwt beam="1">  1        2 0.22347583E+00 0.12658370E+04</pdfrwt>
<pdfrwt beam="2">  1       -2 0.42426607E-01 0.12658370E+04</pdfrwt>
<totfact> 0.69834634E+01</totfact>
</mgrwt>
</event>
<event>
 4    1  0.9012200E-005  0.7596350E+03  0.7818608E-02  0.9620355E-01
         -2   -1    0    0    0  501 -0.00000000000E+00  0.00000000000E+00  0.62699266710E+02  0.62699266761E+02  0.25500000000E-02 0. -1.
          2   -1    0    0  501    0  0.00000000000E+00 -0.00000000000E+00 -0.23008456958E+04  0.23008456958E+04  0.25500000000E-02 0.  1.
    5000001    1    1    2    0    0  0.24530868495E+03 -0.19936274750E+03 -0.15261166680E+04  0.15672201315E+04  0.16500000000E+03 0.  0.
   -5000001    1    1    2    0    0 -0.24530868495E+03  0.19936274750E+03 -0.71202976104E+03  0.79632483109E+03  0.16500000000E+03 0.  0.
<mgrwt>
<rscale>  0 0.75963501E+03</rscale>
<asrwt>0</asrwt>
<pdfrwt beam="1">  1        2 0.35397620E+00 0.75963501E+03</pdfrwt>
<pdfrwt beam="2">  1       -2 0.96460428E-02 0.75963501E+03</pdfrwt>
<totfact> 0.33981649E+02</totfact>
</mgrwt>
</event>
<event>
 4    1  0.9012200E-005  0.4532394E+03  0.7818608E-02  0.1026760E+00
          2   -1    0    0  501    0  0.00000000000E+00  0.00000000000E+00  0.56167814105E+02  0.56167814163E+02  0.25500000000E-02 0.  1.
         -2   -1    0    0    0  501 -0.00000000000E+00 -0.00000000000E+00 -0.91434014126E+03  0.91434014127E+03  0.25500000000E-02 0. -1.
    5000001    1    1    2    0    0  0.14824053151E+03 -0.36343627021E+02 -0.49097489629E+03  0.53997913218E+03  0.16500000000E+03 0.  0.
   -5000001    1    1    2    0    0 -0.14824053151E+03  0.36343627021E+02 -0.36719743087E+03  0.43052882325E+03  0.16500000000E+03 0.  0.
<mgrwt>
<rscale>  0 0.45323939E+03</rscale>
<asrwt>0</asrwt>
<pdfrwt beam="1">  1        2 0.86412028E-02 0.45323939E+03</pdfrwt>
<pdfrwt beam="2">  1       -2 0.14066770E+00 0.45323939E+03</pdfrwt>
<totfact> 0.28868781E+02</totfact>
</mgrwt>
</event>
<event>
 4    1  0.9012200E-005  0.3677627E+03  0.7818608E-02  0.1055552E+00
         -2   -1    0    0    0  501 -0.00000000000E+00  0.00000000000E+00  0.37804541539E+02  0.37804541625E+02  0.25500000000E-02 0. -1.
          2   -1    0    0  501    0  0.00000000000E+00 -0.00000000000E+00 -0.89439901188E+03  0.89439901188E+03  0.25500000000E-02 0.  1.
    5000001    1    1    2    0    0 -0.56325233791E+02 -0.24878646778E+02 -0.29426746862E+03  0.34294288462E+03  0.16500000000E+03 0.  0.
   -5000001    1    1    2    0    0  0.56325233791E+02  0.24878646778E+02 -0.56232700173E+03  0.58926066889E+03  0.16500000000E+03 0.  0.
<mgrwt>
<rscale>  0 0.36776267E+03</rscale>
<asrwt>0</asrwt>
<pdfrwt beam="1">  1        2 0.13759983E+00 0.36776267E+03</pdfrwt>
<pdfrwt beam="2">  1       -2 0.58160840E-02 0.36776267E+03</pdfrwt>
<totfact> 0.47792957E+03</totfact>
</mgrwt>
</event>
<event>
 4    1  0.9012200E-005  0.4279823E+03  0.7818608E-02  0.1034499E+00
          2   -1    0    0  501    0  0.00000000000E+00  0.00000000000E+00  0.73320993675E+03  0.73320993676E+03  0.25500000000E-02 0.  1.
         -2   -1    0    0    0  501 -0.00000000000E+00 -0.00000000000E+00 -0.62454445800E+02  0.62454445852E+02  0.25500000000E-02 0. -1.
    5000001    1    1    2    0    0  0.97946801071E+02  0.25692345123E+02  0.16586698532E+03  0.25493240135E+03  0.16500000000E+03 0.  0.
   -5000001    1    1    2    0    0 -0.97946801071E+02 -0.25692345123E+02  0.50488850563E+03  0.54073198126E+03  0.16500000000E+03 0.  0.
<mgrwt>
<rscale>  0 0.42798234E+03</rscale>
<asrwt>0</asrwt>
<pdfrwt beam="1">  1        2 0.11280153E+00 0.42798234E+03</pdfrwt>
<pdfrwt beam="2">  1       -2 0.96083763E-02 0.42798234E+03</pdfrwt>
<totfact> 0.28160637E+03</totfact>
</mgrwt>
</event>
<event>
 4    1  0.9012200E-005  0.4573410E+03  0.7818608E-02  0.1025555E+00
         -2   -1    0    0    0  501 -0.00000000000E+00  0.00000000000E+00  0.55346716800E+02  0.55346716859E+02  0.25500000000E-02 0. -1.
          2   -1    0    0  501    0  0.00000000000E+00 -0.00000000000E+00 -0.94477519230E+03  0.94477519230E+03  0.25500000000E-02 0.  1.
    5000001    1    1    2    0    0  0.13623554265E+03  0.79712445209E+02 -0.47158703068E+03  0.52395946838E+03  0.16500000000E+03 0.  0.
   -5000001    1    1    2    0    0 -0.13623554265E+03 -0.79712445209E+02 -0.41784144482E+03  0.47616244078E+03  0.16500000000E+03 0.  0.
<mgrwt>
<rscale>  0 0.45734103E+03</rscale>
<asrwt>0</asrwt>
<pdfrwt beam="1">  1        2 0.14535002E+00 0.45734103E+03</pdfrwt>
<pdfrwt beam="2">  1       -2 0.85148802E-02 0.45734103E+03</pdfrwt>
<totfact> 0.24428216E+03</totfact>
</mgrwt>
</event>
<event>
 4    1  0.9012200E-005  0.5453740E+03  0.7818608E-02  0.1002570E+00
         -2   -1    0    0    0  501 -0.00000000000E+00  0.00000000000E+00  0.58557726122E+03  0.58557726123E+03  0.25500000000E-02 0. -1.
          2   -1    0    0  501    0  0.00000000000E+00 -0.00000000000E+00 -0.12698273217E+03  0.12698273220E+03  0.25500000000E-02 0.  1.
    5000001    1    1    2    0    0 -0.20334136739E+03  0.19275284300E+02  0.32543285871E+03  0.41815163973E+03  0.16500000000E+03 0.  0.
   -5000001    1    1    2    0    0  0.20334136739E+03 -0.19275284300E+02  0.13316167034E+03  0.29440835369E+03  0.16500000000E+03 0.  0.
<mgrwt>
<rscale>  0 0.54537400E+03</rscale>
<asrwt>0</asrwt>
<pdfrwt beam="1">  1        2 0.19535805E-01 0.54537400E+03</pdfrwt>
<pdfrwt beam="2">  1       -2 0.90088811E-01 0.54537400E+03</pdfrwt>
<totfact> 0.31153634E+02</totfact>
</mgrwt>
</event>
<event>
 4    1  0.9012200E-005  0.4551636E+03  0.7818608E-02  0.1026193E+00
         -2   -1    0    0    0  501 -0.00000000000E+00  0.00000000000E+00  0.68721527726E+02  0.68721527773E+02  0.25500000000E-02 0. -1.
          2   -1    0    0  501    0  0.00000000000E+00 -0.00000000000E+00 -0.75367161515E+03  0.75367161515E+03  0.25500000000E-02 0.  1.
    5000001    1    1    2    0    0  0.41552968102E+02  0.12881080942E+03 -0.19963900356E+03  0.29223210899E+03  0.16500000000E+03 0.  0.
   -5000001    1    1    2    0    0 -0.41552968102E+02 -0.12881080942E+03 -0.48531108386E+03  0.53016103394E+03  0.16500000000E+03 0.  0.
<mgrwt>
<rscale>  0 0.45516355E+03</rscale>
<asrwt>0</asrwt>
<pdfrwt beam="1">  1        2 0.11594947E+00 0.45516355E+03</pdfrwt>
<pdfrwt beam="2">  1       -2 0.10572543E-01 0.45516355E+03</pdfrwt>
<totfact> 0.23323101E+03</totfact>
</mgrwt>
</event>
<event>
 4    1  0.9012200E-005  0.5409515E+03  0.7818608E-02  0.1003610E+00
         -2   -1    0    0    0  501 -0.00000000000E+00  0.00000000000E+00  0.54522269395E+02  0.54522269454E+02  0.25500000000E-02 0. -1.
          2   -1    0    0  501    0  0.00000000000E+00 -0.00000000000E+00 -0.13417842898E+04  0.13417842898E+04  0.25500000000E-02 0.  1.
    5000001    1    1    2    0    0  0.20002013888E+03 -0.72988449695E+02 -0.58057587885E+03  0.64002243777E+03  0.16500000000E+03 0.  0.
   -5000001    1    1    2    0    0 -0.20002013888E+03  0.72988449695E+02 -0.70668614159E+03  0.75628412152E+03  0.16500000000E+03 0.  0.
<mgrwt>
<rscale>  0 0.54095147E+03</rscale>
<asrwt>0</asrwt>
<pdfrwt beam="1">  1        2 0.20642833E+00 0.54095147E+03</pdfrwt>
<pdfrwt beam="2">  1       -2 0.83880425E-02 0.54095147E+03</pdfrwt>
<totfact> 0.14475084E+03</totfact>
</mgrwt>
</event>
<event>
 4    1  0.9012200E-005  0.4611140E+03  0.7818608E-02  0.1024459E+00
          2   -1    0    0  501    0  0.00000000000E+00  0.00000000000E+00  0.25569185928E+03  0.25569185930E+03  0.25500000000E-02 0.  1.
         -2   -1    0    0    0  501 -0.00000000000E+00 -0.00000000000E+00 -0.20789293483E+03  0.20789293484E+03  0.25500000000E-02 0. -1.
    5000001    1    1    2    0    0 -0.13075381532E+03  0.41564947687E+02  0.10865615216E+03  0.24053142102E+03  0.16500000000E+03 0.  0.
   -5000001    1    1    2    0    0  0.13075381532E+03 -0.41564947687E+02 -0.60857227705E+02  0.22305337312E+03  0.16500000000E+03 0.  0.
<mgrwt>
<rscale>  0 0.46111400E+03</rscale>
<asrwt>0</asrwt>
<pdfrwt beam="1">  1        2 0.39337209E-01 0.46111400E+03</pdfrwt>
<pdfrwt beam="2">  1       -2 0.31983528E-01 0.46111400E+03</pdfrwt>
<totfact> 0.11911069E+03</totfact>
</mgrwt>
</event>
<event>
 4    1  0.9012200E-005  0.4274422E+03  0.7818608E-02  0.1034671E+00
         -2   -1    0    0    0  501 -0.00000000000E+00  0.00000000000E+00  0.38431840144E+02  0.38431840228E+02  0.25500000000E-02 0. -1.
          2   -1    0    0  501    0  0.00000000000E+00 -0.00000000000E+00 -0.11885122094E+04  0.11885122094E+04  0.25500000000E-02 0.  1.
    5000001    1    1    2    0    0 -0.11650269822E+03 -0.31865240389E+02 -0.75345642456E+03  0.78071112195E+03  0.16500000000E+03 0.  0.
   -5000001    1    1    2    0    0  0.11650269822E+03  0.31865240389E+02 -0.39662394472E+03  0.44623292770E+03  0.16500000000E+03 0.  0.
<mgrwt>
<rscale>  0 0.42744221E+03</rscale>
<asrwt>0</asrwt>
<pdfrwt beam="1">  1        2 0.18284800E+00 0.42744221E+03</pdfrwt>
<pdfrwt beam="2">  1       -2 0.59125917E-02 0.42744221E+03</pdfrwt>
<totfact> 0.30779033E+03</totfact>
</mgrwt>
</event>
<event>
 4    1  0.9012200E-005  0.7712927E+03  0.7818608E-02  0.9602525E-01
          2   -1    0    0  501    0  0.00000000000E+00  0.00000000000E+00  0.54831604657E+03  0.54831604658E+03  0.25500000000E-02 0.  1.
         -2   -1    0    0    0  501 -0.00000000000E+00 -0.00000000000E+00 -0.27123612106E+03  0.27123612107E+03  0.25500000000E-02 0. -1.
    5000001    1    1    2    0    0  0.24769410974E+03 -0.15357724232E+03 -0.64629827271E+02  0.34108702105E+03  0.16500000000E+03 0.  0.
   -5000001    1    1    2    0    0 -0.24769410974E+03  0.15357724232E+03  0.34170975278E+03  0.47846514659E+03  0.16500000000E+03 0.  0.
<mgrwt>
<rscale>  0 0.77129273E+03</rscale>
<asrwt>0</asrwt>
<pdfrwt beam="1">  1        2 0.84356314E-01 0.77129273E+03</pdfrwt>
<pdfrwt beam="2">  1       -2 0.41728634E-01 0.77129273E+03</pdfrwt>
<totfact> 0.30276075E+02</totfact>
</mgrwt>
</event>
<event>
 4    1  0.9012200E-005  0.6424806E+03  0.7818608E-02  0.9820992E-01
         -2   -1    0    0    0  501 -0.00000000000E+00  0.00000000000E+00  0.44801626225E+03  0.44801626225E+03  0.25500000000E-02 0. -1.
          2   -1    0    0  501    0  0.00000000000E+00 -0.00000000000E+00 -0.23033837539E+03  0.23033837540E+03  0.25500000000E-02 0.  1.
    5000001    1    1    2    0    0 -0.16709879905E+03  0.18850071780E+03  0.22695970079E+03  0.37708120483E+03  0.16500000000E+03 0.  0.
   -5000001    1    1    2    0    0  0.16709879905E+03 -0.18850071780E+03 -0.92818139331E+01  0.30127343282E+03  0.16500000000E+03 0.  0.
<mgrwt>
<rscale>  0 0.64248062E+03</rscale>
<asrwt>0</asrwt>
<pdfrwt beam="1">  1        2 0.35436673E-01 0.64248062E+03</pdfrwt>
<pdfrwt beam="2">  1       -2 0.68925579E-01 0.64248062E+03</pdfrwt>
<totfact> 0.28655960E+02</totfact>
</mgrwt>
</event>
<event>
 4    1  0.9012200E-005  0.5002921E+03  0.7818608E-02  0.1013703E+00
         -2   -1    0    0    0  501 -0.00000000000E+00  0.00000000000E+00  0.87326426562E+02  0.87326426599E+02  0.25500000000E-02 0. -1.
          2   -1    0    0  501    0  0.00000000000E+00 -0.00000000000E+00 -0.71654201172E+03  0.71654201172E+03  0.25500000000E-02 0.  1.
    5000001    1    1    2    0    0  0.30051904142E+02  0.18464323331E+03 -0.34474598122E+03  0.42552442011E+03  0.16500000000E+03 0.  0.
   -5000001    1    1    2    0    0 -0.30051904142E+02 -0.18464323331E+03 -0.28446960394E+03  0.37834401821E+03  0.16500000000E+03 0.  0.
<mgrwt>
<rscale>  0 0.50029213E+03</rscale>
<asrwt>0</asrwt>
<pdfrwt beam="1">  1        2 0.11023723E+00 0.50029213E+03</pdfrwt>
<pdfrwt beam="2">  1       -2 0.13434835E-01 0.50029213E+03</pdfrwt>
<totfact> 0.16793533E+03</totfact>
</mgrwt>
</event>
<event>
 4    1  0.9012200E-005  0.6245515E+03  0.7818608E-02  0.9855739E-01
          2   -1    0    0  501    0  0.00000000000E+00  0.00000000000E+00  0.16814681319E+04  0.16814681319E+04  0.25500000000E-02 0.  1.
         -2   -1    0    0    0  501 -0.00000000000E+00 -0.00000000000E+00 -0.57994647392E+02  0.57994647448E+02  0.25500000000E-02 0. -1.
    5000001    1    1    2    0    0  0.23624474309E+03 -0.71800857878E+02  0.10806751829E+04  0.11207367187E+04  0.16500000000E+03 0.  0.
   -5000001    1    1    2    0    0 -0.23624474309E+03  0.71800857878E+02  0.54279830161E+03  0.61872606060E+03  0.16500000000E+03 0.  0.
<mgrwt>
<rscale>  0 0.62455152E+03</rscale>
<asrwt>0</asrwt>
<pdfrwt beam="1">  1        2 0.25868743E+00 0.62455152E+03</pdfrwt>
<pdfrwt beam="2">  1       -2 0.89222525E-02 0.62455152E+03</pdfrwt>
<totfact> 0.84805881E+02</totfact>
</mgrwt>
</event>
<event>
 4    1  0.9012200E-005  0.1131393E+04  0.7818608E-02  0.9175123E-01
         -2   -1    0    0    0  501 -0.00000000000E+00  0.00000000000E+00  0.16988398458E+03  0.16988398460E+03  0.25500000000E-02 0. -1.
          2   -1    0    0  501    0  0.00000000000E+00 -0.00000000000E+00 -0.18837124436E+04  0.18837124436E+04  0.25500000000E-02 0.  1.
    5000001    1    1    2    0    0  0.38689554464E+03  0.36441934999E+03 -0.67271959094E+03  0.87307861796E+03  0.16500000000E+03 0.  0.
   -5000001    1    1    2    0    0 -0.38689554464E+03 -0.36441934999E+03 -0.10411088681E+04  0.11805178103E+04  0.16500000000E+03 0.  0.
<mgrwt>
<rscale>  0 0.11313931E+04</rscale>
<asrwt>0</asrwt>
<pdfrwt beam="1">  1        2 0.28980190E+00 0.11313931E+04</pdfrwt>
<pdfrwt beam="2">  1       -2 0.26135999E-01 0.11313931E+04</pdfrwt>
<totfact> 0.10175367E+02</totfact>
</mgrwt>
</event>
<event>
 4    1  0.9012200E-005  0.4226724E+03  0.7818608E-02  0.1036200E+00
          2   -1    0    0  501    0  0.00000000000E+00  0.00000000000E+00  0.52586136068E+03  0.52586136069E+03  0.25500000000E-02 0.  1.
         -2   -1    0    0    0  501 -0.00000000000E+00 -0.00000000000E+00 -0.84933028273E+02  0.84933028311E+02  0.25500000000E-02 0. -1.
    5000001    1    1    2    0    0  0.10825671584E+03 -0.75356336068E+02  0.22959265474E+03  0.31198698854E+03  0.16500000000E+03 0.  0.
   -5000001    1    1    2    0    0 -0.10825671584E+03  0.75356336068E+02  0.21133567767E+03  0.29880740045E+03  0.16500000000E+03 0.  0.
<mgrwt>
<rscale>  0 0.42267244E+03</rscale>
<asrwt>0</asrwt>
<pdfrwt beam="1">  1        2 0.80901747E-01 0.42267244E+03</pdfrwt>
<pdfrwt beam="2">  1       -2 0.13066620E-01 0.42267244E+03</pdfrwt>
<totfact> 0.25437512E+03</totfact>
</mgrwt>
</event>
<event>
 4    1  0.9012200E-005  0.5047919E+03  0.7818608E-02  0.1012536E+00
         -2   -1    0    0    0  501 -0.00000000000E+00  0.00000000000E+00  0.25936392472E+03  0.25936392473E+03  0.25500000000E-02 0. -1.
          2   -1    0    0  501    0  0.00000000000E+00 -0.00000000000E+00 -0.24561522017E+03  0.24561522019E+03  0.25500000000E-02 0.  1.
    5000001    1    1    2    0    0 -0.14076048274E+02  0.16999085552E+03  0.92834684791E+02  0.25482995270E+03  0.16500000000E+03 0.  0.
   -5000001    1    1    2    0    0  0.14076048274E+02 -0.16999085552E+03 -0.79085980242E+02  0.25014919222E+03  0.16500000000E+03 0.  0.
<mgrwt>
<rscale>  0 0.50479195E+03</rscale>
<asrwt>0</asrwt>
<pdfrwt beam="1">  1        2 0.37786957E-01 0.50479195E+03</pdfrwt>
<pdfrwt beam="2">  1       -2 0.39902142E-01 0.50479195E+03</pdfrwt>
<totfact> 0.81879404E+02</totfact>
</mgrwt>
</event>
<event>
 4    1  0.9012200E-005  0.4498696E+03  0.7818608E-02  0.1027761E+00
          2   -1    0    0  501    0  0.00000000000E+00  0.00000000000E+00  0.25321218913E+04  0.25321218913E+04  0.25500000000E-02 0.  1.
         -2   -1    0    0    0  501 -0.00000000000E+00 -0.00000000000E+00 -0.19981525296E+02  0.19981525458E+02  0.25500000000E-02 0. -1.
    5000001    1    1    2    0    0 -0.54024831785E+02 -0.10467642819E+03  0.18088536372E+04  0.18201791994E+04  0.16500000000E+03 0.  0.
   -5000001    1    1    2    0    0  0.54024831785E+02  0.10467642819E+03  0.70328672885E+03  0.73192421742E+03  0.16500000000E+03 0.  0.
<mgrwt>
<rscale>  0 0.44986957E+03</rscale>
<asrwt>0</asrwt>
<pdfrwt beam="1">  1        2 0.38955706E+00 0.44986957E+03</pdfrwt>
<pdfrwt beam="2">  1       -2 0.30740820E-02 0.44986957E+03</pdfrwt>
<totfact> 0.15445248E+03</totfact>
</mgrwt>
</event>
<event>
 4    1  0.9012200E-005  0.4518443E+03  0.7818608E-02  0.1027173E+00
         -2   -1    0    0    0  501 -0.00000000000E+00  0.00000000000E+00  0.60419959722E+02  0.60419959776E+02  0.25500000000E-02 0. -1.
          2   -1    0    0  501    0  0.00000000000E+00 -0.00000000000E+00 -0.84476745772E+03  0.84476745772E+03  0.25500000000E-02 0.  1.
    5000001    1    1    2    0    0 -0.12153266360E+03  0.18248448406E+01 -0.20167632689E+03  0.28752714517E+03  0.16500000000E+03 0.  0.
   -5000001    1    1    2    0    0  0.12153266360E+03 -0.18248448406E+01 -0.58267117110E+03  0.61766027233E+03  0.16500000000E+03 0.  0.
<mgrwt>
<rscale>  0 0.45184429E+03</rscale>
<asrwt>0</asrwt>
<pdfrwt beam="1">  1        2 0.12996422E+00 0.45184429E+03</pdfrwt>
<pdfrwt beam="2">  1       -2 0.92953790E-02 0.45184429E+03</pdfrwt>
<totfact> 0.24738523E+03</totfact>
</mgrwt>
</event>
<event>
 4    1  0.9012200E-005  0.4927457E+03  0.7818608E-02  0.1015690E+00
         -2   -1    0    0    0  501 -0.00000000000E+00  0.00000000000E+00  0.11306466795E+03  0.11306466798E+03  0.25500000000E-02 0. -1.
          2   -1    0    0  501    0  0.00000000000E+00 -0.00000000000E+00 -0.53685709854E+03  0.53685709855E+03  0.25500000000E-02 0.  1.
    5000001    1    1    2    0    0  0.12275163381E+03 -0.13219154545E+03 -0.25216296185E+03  0.35121749333E+03  0.16500000000E+03 0.  0.
   -5000001    1    1    2    0    0 -0.12275163381E+03  0.13219154545E+03 -0.17162946874E+03  0.29870427320E+03  0.16500000000E+03 0.  0.
<mgrwt>
<rscale>  0 0.49274565E+03</rscale>
<asrwt>0</asrwt>
<pdfrwt beam="1">  1        2 0.82593399E-01 0.49274565E+03</pdfrwt>
<pdfrwt beam="2">  1       -2 0.17394565E-01 0.49274565E+03</pdfrwt>
<totfact> 0.15394394E+03</totfact>
</mgrwt>
</event>
<event>
 4    1  0.9012200E-005  0.5055998E+03  0.7818608E-02  0.1012328E+00
         -2   -1    0    0    0  501 -0.00000000000E+00  0.00000000000E+00  0.54090825118E+02  0.54090825178E+02  0.25500000000E-02 0. -1.
          2   -1    0    0  501    0  0.00000000000E+00 -0.00000000000E+00 -0.11814904742E+04  0.11814904742E+04  0.25500000000E-02 0.  1.
    5000001    1    1    2    0    0 -0.16062464860E+03 -0.39852913723E+02 -0.79929797408E+03  0.83276094039E+03  0.16500000000E+03 0.  0.
   -5000001    1    1    2    0    0  0.16062464860E+03  0.39852913723E+02 -0.32810167496E+03  0.40282035895E+03  0.16500000000E+03 0.  0.
<mgrwt>
<rscale>  0 0.50559982E+03</rscale>
<asrwt>0</asrwt>
<pdfrwt beam="1">  1        2 0.18176775E+00 0.50559982E+03</pdfrwt>
<pdfrwt beam="2">  1       -2 0.83216663E-02 0.50559982E+03</pdfrwt>
<totfact> 0.18141262E+03</totfact>
</mgrwt>
</event>
<event>
 4    1  0.9012200E-005  0.4764408E+03  0.7818608E-02  0.1020118E+00
         -2   -1    0    0    0  501 -0.00000000000E+00  0.00000000000E+00  0.87475466573E+02  0.87475466610E+02  0.25500000000E-02 0. -1.
          2   -1    0    0  501    0  0.00000000000E+00 -0.00000000000E+00 -0.64874144424E+03  0.64874144425E+03  0.25500000000E-02 0.  1.
    5000001    1    1    2    0    0 -0.62568811557E+02  0.15535357618E+03 -0.22129945884E+03  0.32287465106E+03  0.16500000000E+03 0.  0.
   -5000001    1    1    2    0    0  0.62568811557E+02 -0.15535357618E+03 -0.33996651883E+03  0.41334225980E+03  0.16500000000E+03 0.  0.
<mgrwt>
<rscale>  0 0.47644081E+03</rscale>
<asrwt>0</asrwt>
<pdfrwt beam="1">  1        2 0.99806373E-01 0.47644081E+03</pdfrwt>
<pdfrwt beam="2">  1       -2 0.13457764E-01 0.47644081E+03</pdfrwt>
<totfact> 0.18929365E+03</totfact>
</mgrwt>
</event>
<event>
 4    1  0.9012200E-005  0.7671202E+03  0.7818608E-02  0.9608868E-01
          2   -1    0    0  501    0  0.00000000000E+00  0.00000000000E+00  0.23174289590E+04  0.23174289590E+04  0.25500000000E-02 0.  1.
         -2   -1    0    0    0  501 -0.00000000000E+00 -0.00000000000E+00 -0.63483439886E+02  0.63483439938E+02  0.25500000000E-02 0. -1.
    5000001    1    1    2    0    0  0.15748056518E+03 -0.24667402503E+03  0.17013266594E+04  0.17341815375E+04  0.16500000000E+03 0.  0.
   -5000001    1    1    2    0    0 -0.15748056518E+03  0.24667402503E+03  0.55261885978E+03  0.64673086150E+03  0.16500000000E+03 0.  0.
<mgrwt>
<rscale>  0 0.76712023E+03</rscale>
<asrwt>0</asrwt>
<pdfrwt beam="1">  1        2 0.35652749E+00 0.76712023E+03</pdfrwt>
<pdfrwt beam="2">  1       -2 0.97666843E-02 0.76712023E+03</pdfrwt>
<totfact> 0.32581984E+02</totfact>
</mgrwt>
</event>
<event>
 4    1  0.9012200E-005  0.5890509E+03  0.7818608E-02  0.9928386E-01
          2   -1    0    0  501    0  0.00000000000E+00  0.00000000000E+00  0.20234101680E+04  0.20234101680E+04  0.25500000000E-02 0.  1.
         -2   -1    0    0    0  501 -0.00000000000E+00 -0.00000000000E+00 -0.42870811078E+02  0.42870811154E+02  0.25500000000E-02 0. -1.
    5000001    1    1    2    0    0 -0.11976792723E+03 -0.21057180904E+03  0.88888280832E+03  0.93596073106E+03  0.16500000000E+03 0.  0.
   -5000001    1    1    2    0    0  0.11976792723E+03  0.21057180904E+03  0.10916565486E+04  0.11303202481E+04  0.16500000000E+03 0.  0.
<mgrwt>
<rscale>  0 0.58905088E+03</rscale>
<asrwt>0</asrwt>
<pdfrwt beam="1">  1        2 0.31129387E+00 0.58905088E+03</pdfrwt>
<pdfrwt beam="2">  1       -2 0.65955094E-02 0.58905088E+03</pdfrwt>
<totfact> 0.89713662E+02</totfact>
</mgrwt>
</event>
<event>
 4    1  0.9012200E-005  0.4514341E+03  0.7818608E-02  0.1027295E+00
         -2   -1    0    0    0  501 -0.00000000000E+00  0.00000000000E+00  0.61972005298E+02  0.61972005350E+02  0.25500000000E-02 0. -1.
          2   -1    0    0  501    0  0.00000000000E+00 -0.00000000000E+00 -0.82211619065E+03  0.82211619066E+03  0.25500000000E-02 0.  1.
    5000001    1    1    2    0    0 -0.13864895004E+03 -0.60083437523E+02 -0.32165930718E+03  0.39182044447E+03  0.16500000000E+03 0.  0.
   -5000001    1    1    2    0    0  0.13864895004E+03  0.60083437523E+02 -0.43848487817E+03  0.49226775153E+03  0.16500000000E+03 0.  0.
<mgrwt>
<rscale>  0 0.45143411E+03</rscale>
<asrwt>0</asrwt>
<pdfrwt beam="1">  1        2 0.12647941E+00 0.45143411E+03</pdfrwt>
<pdfrwt beam="2">  1       -2 0.95341552E-02 0.45143411E+03</pdfrwt>
<totfact> 0.24621979E+03</totfact>
</mgrwt>
</event>
<event>
 4    1  0.9012200E-005  0.5138404E+03  0.7818608E-02  0.1010228E+00
          2   -1    0    0  501    0  0.00000000000E+00  0.00000000000E+00  0.20711847672E+03  0.20711847673E+03  0.25500000000E-02 0.  1.
         -2   -1    0    0    0  501 -0.00000000000E+00 -0.00000000000E+00 -0.31869678413E+03  0.31869678414E+03  0.25500000000E-02 0. -1.
    5000001    1    1    2    0    0  0.31580844198E+00  0.16213235741E+03 -0.17017974048E+03  0.28718138019E+03  0.16500000000E+03 0.  0.
   -5000001    1    1    2    0    0 -0.31580844198E+00 -0.16213235741E+03  0.58601433065E+02  0.23863388069E+03  0.16500000000E+03 0.  0.
<mgrwt>
<rscale>  0 0.51384041E+03</rscale>
<asrwt>0</asrwt>
<pdfrwt beam="1">  1        2 0.31864381E-01 0.51384041E+03</pdfrwt>
<pdfrwt beam="2">  1       -2 0.49030274E-01 0.51384041E+03</pdfrwt>
<totfact> 0.65874868E+02</totfact>
</mgrwt>
</event>
<event>
 4    1  0.9012200E-005  0.6439268E+03  0.7818608E-02  0.9818242E-01
          2   -1    0    0  501    0  0.00000000000E+00  0.00000000000E+00  0.28265027304E+04  0.28265027304E+04  0.25500000000E-02 0.  1.
         -2   -1    0    0    0  501 -0.00000000000E+00 -0.00000000000E+00 -0.36674447319E+02  0.36674447408E+02  0.25500000000E-02 0. -1.
    5000001    1    1    2    0    0  0.74651102141E+02  0.19439336773E+03  0.22035521624E+04  0.22195109148E+04  0.16500000000E+03 0.  0.
   -5000001    1    1    2    0    0 -0.74651102141E+02 -0.19439336773E+03  0.58627612072E+03  0.64366626306E+03  0.16500000000E+03 0.  0.
<mgrwt>
<rscale>  0 0.64392678E+03</rscale>
<asrwt>0</asrwt>
<pdfrwt beam="1">  1        2 0.43484658E+00 0.64392678E+03</pdfrwt>
<pdfrwt beam="2">  1       -2 0.56422226E-02 0.64392678E+03</pdfrwt>
<totfact> 0.40399035E+02</totfact>
</mgrwt>
</event>
<event>
 4    1  0.9012200E-005  0.4954911E+03  0.7818608E-02  0.1014963E+00
          2   -1    0    0  501    0  0.00000000000E+00  0.00000000000E+00  0.17144714861E+04  0.17144714861E+04  0.25500000000E-02 0.  1.
         -2   -1    0    0    0  501 -0.00000000000E+00 -0.00000000000E+00 -0.35799865976E+02  0.35799866067E+02  0.25500000000E-02 0. -1.
    5000001    1    1    2    0    0  0.34255544462E+02  0.95941056962E+02  0.13839980493E+04  0.13975169871E+04  0.16500000000E+03 0.  0.
   -5000001    1    1    2    0    0 -0.34255544462E+02 -0.95941056962E+02  0.29467357079E+03  0.35275436505E+03  0.16500000000E+03 0.  0.
<mgrwt>
<rscale>  0 0.49549107E+03</rscale>
<asrwt>0</asrwt>
<pdfrwt beam="1">  1        2 0.26376478E+00 0.49549107E+03</pdfrwt>
<pdfrwt beam="2">  1       -2 0.55076731E-02 0.49549107E+03</pdfrwt>
<totfact> 0.17544140E+03</totfact>
</mgrwt>
</event>
<event>
 4    1  0.9012200E-005  0.6506680E+03  0.7818608E-02  0.9805527E-01
          2   -1    0    0  501    0  0.00000000000E+00  0.00000000000E+00  0.28088062316E+04  0.28088062316E+04  0.25500000000E-02 0.  1.
         -2   -1    0    0    0  501 -0.00000000000E+00 -0.00000000000E+00 -0.37682277801E+02  0.37682277887E+02  0.25500000000E-02 0. -1.
    5000001    1    1    2    0    0  0.12502637485E+03 -0.10844031756E+03  0.23757018603E+04  0.23871688725E+04  0.16500000000E+03 0.  0.
   -5000001    1    1    2    0    0 -0.12502637485E+03  0.10844031756E+03  0.39542209351E+03  0.45931963698E+03  0.16500000000E+03 0.  0.
<mgrwt>
<rscale>  0 0.65066802E+03</rscale>
<asrwt>0</asrwt>
<pdfrwt beam="1">  1        2 0.43212415E+00 0.65066802E+03</pdfrwt>
<pdfrwt beam="2">  1       -2 0.57972720E-02 0.65066802E+03</pdfrwt>
<totfact> 0.39636016E+02</totfact>
</mgrwt>
</event>
<event>
 4    1  0.9012200E-005  0.5452343E+03  0.7818608E-02  0.1002603E+00
         -2   -1    0    0    0  501 -0.00000000000E+00  0.00000000000E+00  0.97886584761E+02  0.97886584795E+02  0.25500000000E-02 0. -1.
          2   -1    0    0  501    0  0.00000000000E+00 -0.00000000000E+00 -0.75924726642E+03  0.75924726642E+03  0.25500000000E-02 0.  1.
    5000001    1    1    2    0    0  0.94914042397E+02 -0.19280865142E+03 -0.37813611674E+03  0.46518359203E+03  0.16500000000E+03 0.  0.
   -5000001    1    1    2    0    0 -0.94914042397E+02  0.19280865142E+03 -0.28322456491E+03  0.39195025919E+03  0.16500000000E+03 0.  0.
<mgrwt>
<rscale>  0 0.54523434E+03</rscale>
<asrwt>0</asrwt>
<pdfrwt beam="1">  1        2 0.11680727E+00 0.54523434E+03</pdfrwt>
<pdfrwt beam="2">  1       -2 0.15059475E-01 0.54523434E+03</pdfrwt>
<totfact> 0.12890977E+03</totfact>
</mgrwt>
</event>
<event>
 4    1  0.9012200E-005  0.5792061E+03  0.7818608E-02  0.9949511E-01
          2   -1    0    0  501    0  0.00000000000E+00  0.00000000000E+00  0.24682648479E+04  0.24682648479E+04  0.25500000000E-02 0.  1.
         -2   -1    0    0    0  501 -0.00000000000E+00 -0.00000000000E+00 -0.33979303431E+02  0.33979303527E+02  0.25500000000E-02 0. -1.
    5000001    1    1    2    0    0 -0.18090547707E+03 -0.13203325853E+03  0.86923575177E+03  0.91266388399E+03  0.16500000000E+03 0.  0.
   -5000001    1    1    2    0    0  0.18090547707E+03  0.13203325853E+03  0.15650497927E+04  0.15895802674E+04  0.16500000000E+03 0.  0.
<mgrwt>
<rscale>  0 0.57920608E+03</rscale>
<asrwt>0</asrwt>
<pdfrwt beam="1">  1        2 0.37973299E+00 0.57920608E+03</pdfrwt>
<pdfrwt beam="2">  1       -2 0.52275861E-02 0.57920608E+03</pdfrwt>
<totfact> 0.73556628E+02</totfact>
</mgrwt>
</event>
<event>
 4    1  0.9012200E-005  0.9373322E+03  0.7818608E-02  0.9380081E-01
          2   -1    0    0  501    0  0.00000000000E+00  0.00000000000E+00  0.65782584701E+03  0.65782584701E+03  0.25500000000E-02 0. -1.
         -2   -1    0    0    0  501 -0.00000000000E+00 -0.00000000000E+00 -0.33389976212E+03  0.33389976213E+03  0.25500000000E-02 0.  1.
    5000001    1    1    2    0    0 -0.19594111018E+03 -0.39241338794E+03  0.16879599544E+03  0.49809464339E+03  0.16500000000E+03 0.  0.
   -5000001    1    1    2    0    0  0.19594111018E+03  0.39241338794E+03  0.15513008945E+03  0.49363096575E+03  0.16500000000E+03 0.  0.
<mgrwt>
<rscale>  0 0.93733216E+03</rscale>
<asrwt>0</asrwt>
<pdfrwt beam="1">  1        2 0.10120398E+00 0.93733216E+03</pdfrwt>
<pdfrwt beam="2">  1       -2 0.51369194E-01 0.93733216E+03</pdfrwt>
<totfact> 0.15888363E+02</totfact>
</mgrwt>
</event>
<event>
 4    1  0.9012200E-005  0.4383208E+03  0.7818608E-02  0.1031263E+00
          2   -1    0    0  501    0  0.00000000000E+00  0.00000000000E+00  0.15624053038E+03  0.15624053040E+03  0.25500000000E-02 0.  1.
         -2   -1    0    0    0  501 -0.00000000000E+00 -0.00000000000E+00 -0.30741883835E+03  0.30741883836E+03  0.25500000000E-02 0. -1.
    5000001    1    1    2    0    0  0.14255141679E+03  0.37815979501E+01 -0.98548112756E+02  0.23931556038E+03  0.16500000000E+03 0.  0.
   -5000001    1    1    2    0    0 -0.14255141679E+03 -0.37815979501E+01 -0.52630195217E+02  0.22434380838E+03  0.16500000000E+03 0.  0.
<mgrwt>
<rscale>  0 0.43832081E+03</rscale>
<asrwt>0</asrwt>
<pdfrwt beam="1">  1        2 0.24037005E-01 0.43832081E+03</pdfrwt>
<pdfrwt beam="2">  1       -2 0.47295206E-01 0.43832081E+03</pdfrwt>
<totfact> 0.97252233E+02</totfact>
</mgrwt>
</event>
<event>
 4    1  0.9012200E-005  0.3910772E+03  0.7818608E-02  0.1046914E+00
         -2   -1    0    0    0  501 -0.00000000000E+00  0.00000000000E+00  0.38519809382E+02  0.38519809467E+02  0.25500000000E-02 0. -1.
          2   -1    0    0  501    0  0.00000000000E+00 -0.00000000000E+00 -0.99261494098E+03  0.99261494098E+03  0.25500000000E-02 0.  1.
    5000001    1    1    2    0    0 -0.81587252158E+02  0.65042050545E+02 -0.50633581980E+03  0.54266740318E+03  0.16500000000E+03 0.  0.
   -5000001    1    1    2    0    0  0.81587252158E+02 -0.65042050545E+02 -0.44775931179E+03  0.48846734727E+03  0.16500000000E+03 0.  0.
<mgrwt>
<rscale>  0 0.39107717E+03</rscale>
<asrwt>0</asrwt>
<pdfrwt beam="1">  1        2 0.15270997E+00 0.39107717E+03</pdfrwt>
<pdfrwt beam="2">  1       -2 0.59261253E-02 0.39107717E+03</pdfrwt>
<totfact> 0.40202752E+03</totfact>
</mgrwt>
</event>
<event>
 4    1  0.9012200E-005  0.4636243E+03  0.7818608E-02  0.1023735E+00
         -2   -1    0    0    0  501 -0.00000000000E+00  0.00000000000E+00  0.11222917120E+03  0.11222917123E+03  0.25500000000E-02 0. -1.
          2   -1    0    0  501    0  0.00000000000E+00 -0.00000000000E+00 -0.47881385326E+03  0.47881385327E+03  0.25500000000E-02 0.  1.
    5000001    1    1    2    0    0  0.14495075663E+03 -0.61797955627E+02 -0.13100601022E+03  0.26309177844E+03  0.16500000000E+03 0.  0.
   -5000001    1    1    2    0    0 -0.14495075663E+03  0.61797955627E+02 -0.23557867184E+03  0.32795124606E+03  0.16500000000E+03 0.  0.
<mgrwt>
<rscale>  0 0.46362434E+03</rscale>
<asrwt>0</asrwt>
<pdfrwt beam="1">  1        2 0.73663668E-01 0.46362434E+03</pdfrwt>
<pdfrwt beam="2">  1       -2 0.17266027E-01 0.46362434E+03</pdfrwt>
<totfact> 0.17771864E+03</totfact>
</mgrwt>
</event>
<event>
 4    1  0.9012200E-005  0.1313269E+04  0.7818608E-02  0.9019108E-01
          2   -1    0    0  501    0  0.00000000000E+00  0.00000000000E+00  0.99550079147E+03  0.99550079147E+03  0.25500000000E-02 0.  1.
         -2   -1    0    0    0  501 -0.00000000000E+00 -0.00000000000E+00 -0.43311777334E+03  0.43311777335E+03  0.25500000000E-02 0. -1.
    5000001    1    1    2    0    0 -0.44887237643E+03 -0.34948501786E+02 -0.20680377411E+03  0.52220743875E+03  0.16500000000E+03 0.  0.
   -5000001    1    1    2    0    0  0.44887237643E+03  0.34948501786E+02  0.76918679224E+03  0.90641112607E+03  0.16500000000E+03 0.  0.
<mgrwt>
<rscale>  0 0.13132693E+04</rscale>
<asrwt>0</asrwt>
<pdfrwt beam="1">  1        2 0.15315397E+00 0.13132693E+04</pdfrwt>
<pdfrwt beam="2">  1       -2 0.66633504E-01 0.13132693E+04</pdfrwt>
<totfact> 0.51395149E+01</totfact>
</mgrwt>
</event>
<event>
 4    1  0.9012200E-005  0.6217242E+03  0.7818608E-02  0.9861333E-01
          2   -1    0    0  501    0  0.00000000000E+00  0.00000000000E+00  0.30035890145E+04  0.30035890145E+04  0.25500000000E-02 0.  1.
         -2   -1    0    0    0  501 -0.00000000000E+00 -0.00000000000E+00 -0.32173254467E+02  0.32173254568E+02  0.25500000000E-02 0. -1.
    5000001    1    1    2    0    0 -0.21707184608E+03 -0.94876972440E+02  0.20485757806E+04  0.20688183959E+04  0.16500000000E+03 0.  0.
   -5000001    1    1    2    0    0  0.21707184608E+03  0.94876972440E+02  0.92283997940E+03  0.96694387316E+03  0.16500000000E+03 0.  0.
<mgrwt>
<rscale>  0 0.62172416E+03</rscale>
<asrwt>0</asrwt>
<pdfrwt beam="1">  1        2 0.46209066E+00 0.62172416E+03</pdfrwt>
<pdfrwt beam="2">  1       -2 0.49497310E-02 0.62172416E+03</pdfrwt>
<totfact> 0.38885884E+02</totfact>
</mgrwt>
</event>
<event>
 4    1  0.9012200E-005  0.4944076E+03  0.7818608E-02  0.1015249E+00
          2   -1    0    0  501    0  0.00000000000E+00  0.00000000000E+00  0.10519156797E+04  0.10519156797E+04  0.25500000000E-02 0.  1.
         -2   -1    0    0    0  501 -0.00000000000E+00 -0.00000000000E+00 -0.58093735189E+02  0.58093735245E+02  0.25500000000E-02 0. -1.
    5000001    1    1    2    0    0  0.12970037290E+03 -0.10872768669E+02  0.78916025870E+03  0.81666352786E+03  0.16500000000E+03 0.  0.
   -5000001    1    1    2    0    0 -0.12970037290E+03  0.10872768669E+02  0.20466168579E+03  0.29334588707E+03  0.16500000000E+03 0.  0.
<mgrwt>
<rscale>  0 0.49440757E+03</rscale>
<asrwt>0</asrwt>
<pdfrwt beam="1">  1        2 0.16183317E+00 0.49440757E+03</pdfrwt>
<pdfrwt beam="2">  1       -2 0.89374984E-02 0.49440757E+03</pdfrwt>
<totfact> 0.19361165E+03</totfact>
</mgrwt>
</event>
<event>
 4    1  0.9012200E-005  0.4744036E+03  0.7818608E-02  0.1020685E+00
          2   -1    0    0  501    0  0.00000000000E+00  0.00000000000E+00  0.41308574267E+03  0.41308574268E+03  0.25500000000E-02 0.  1.
         -2   -1    0    0    0  501 -0.00000000000E+00 -0.00000000000E+00 -0.13620584795E+03  0.13620584797E+03  0.25500000000E-02 0. -1.
    5000001    1    1    2    0    0  0.14102813800E+03  0.67005217003E+01  0.24892804263E+03  0.33033922429E+03  0.16500000000E+03 0.  0.
   -5000001    1    1    2    0    0 -0.14102813800E+03 -0.67005217003E+01  0.27951852090E+02  0.21895236636E+03  0.16500000000E+03 0.  0.
<mgrwt>
<rscale>  0 0.47440360E+03</rscale>
<asrwt>0</asrwt>
<pdfrwt beam="1">  1        2 0.63551652E-01 0.47440360E+03</pdfrwt>
<pdfrwt beam="2">  1       -2 0.20954746E-01 0.47440360E+03</pdfrwt>
<totfact> 0.15030990E+03</totfact>
</mgrwt>
</event>
<event>
 4    1  0.9012200E-005  0.6052769E+03  0.7818608E-02  0.9894518E-01
         -2   -1    0    0    0  501 -0.00000000000E+00  0.00000000000E+00  0.44662543220E+02  0.44662543293E+02  0.25500000000E-02 0. -1.
          2   -1    0    0  501    0  0.00000000000E+00 -0.00000000000E+00 -0.20507120694E+04  0.20507120694E+04  0.25500000000E-02 0.  1.
    5000001    1    1    2    0    0  0.12348079738E+03  0.14302100894E+03 -0.15891152183E+04  0.16087929305E+04  0.16500000000E+03 0.  0.
   -5000001    1    1    2    0    0 -0.12348079738E+03 -0.14302100894E+03 -0.41693430786E+03  0.48658168214E+03  0.16500000000E+03 0.  0.
<mgrwt>
<rscale>  0 0.60527685E+03</rscale>
<asrwt>0</asrwt>
<pdfrwt beam="1">  1        2 0.31549409E+00 0.60527685E+03</pdfrwt>
<pdfrwt beam="2">  1       -2 0.68711621E-02 0.60527685E+03</pdfrwt>
<totfact> 0.81194966E+02</totfact>
</mgrwt>
</event>
<event>
 4    1  0.9012200E-005  0.5090923E+03  0.7818608E-02  0.1011433E+00
         -2   -1    0    0    0  501 -0.00000000000E+00  0.00000000000E+00  0.89852376063E+02  0.89852376099E+02  0.25500000000E-02 0. -1.
          2   -1    0    0  501    0  0.00000000000E+00 -0.00000000000E+00 -0.72111340272E+03  0.72111340272E+03  0.25500000000E-02 0.  1.
    5000001    1    1    2    0    0 -0.11344891437E+03  0.89915949326E+02 -0.11030975727E+03  0.24565988005E+03  0.16500000000E+03 0.  0.
   -5000001    1    1    2    0    0  0.11344891437E+03 -0.89915949326E+02 -0.52095126938E+03  0.56530589877E+03  0.16500000000E+03 0.  0.
<mgrwt>
<rscale>  0 0.50909234E+03</rscale>
<asrwt>0</asrwt>
<pdfrwt beam="1">  1        2 0.11094052E+00 0.50909234E+03</pdfrwt>
<pdfrwt beam="2">  1       -2 0.13823443E-01 0.50909234E+03</pdfrwt>
<totfact> 0.15888450E+03</totfact>
</mgrwt>
</event>
<event>
 4    1  0.9012200E-005  0.3938647E+03  0.7818608E-02  0.1045925E+00
         -2   -1    0    0    0  501 -0.00000000000E+00  0.00000000000E+00  0.26438196980E+02  0.26438197103E+02  0.25500000000E-02 0. -1.
          2   -1    0    0  501    0  0.00000000000E+00 -0.00000000000E+00 -0.14669058441E+04  0.14669058441E+04  0.25500000000E-02 0.  1.
    5000001    1    1    2    0    0 -0.64536322334E+02 -0.58570211540E+02 -0.95888673809E+03  0.97687470183E+03  0.16500000000E+03 0.  0.
   -5000001    1    1    2    0    0  0.64536322334E+02  0.58570211540E+02 -0.48158090907E+03  0.51646933942E+03  0.16500000000E+03 0.  0.
<mgrwt>
<rscale>  0 0.39386468E+03</rscale>
<asrwt>0</asrwt>
<pdfrwt beam="1">  1        2 0.22567776E+00 0.39386468E+03</pdfrwt>
<pdfrwt beam="2">  1       -2 0.40674161E-02 0.39386468E+03</pdfrwt>
<totfact> 0.38158708E+03</totfact>
</mgrwt>
</event>
<event>
 4    1  0.9012200E-005  0.4763680E+03  0.7818608E-02  0.1020138E+00
          2   -1    0    0  501    0  0.00000000000E+00  0.00000000000E+00  0.18466875661E+04  0.18466875661E+04  0.25500000000E-02 0.  1.
         -2   -1    0    0    0  501 -0.00000000000E+00 -0.00000000000E+00 -0.30720747344E+02  0.30720747450E+02  0.25500000000E-02 0. -1.
    5000001    1    1    2    0    0 -0.13589370156E+03  0.76446721107E+02  0.62391260953E+03  0.66393007435E+03  0.16500000000E+03 0.  0.
   -5000001    1    1    2    0    0  0.13589370156E+03 -0.76446721107E+02  0.11920542093E+04  0.12134782392E+04  0.16500000000E+03 0.  0.
<mgrwt>
<rscale>  0 0.47636802E+03</rscale>
<asrwt>0</asrwt>
<pdfrwt beam="1">  1        2 0.28410582E+00 0.47636802E+03</pdfrwt>
<pdfrwt beam="2">  1       -2 0.47262681E-02 0.47636802E+03</pdfrwt>
<totfact> 0.18886902E+03</totfact>
</mgrwt>
</event>
<event>
 4    1  0.9012200E-005  0.4489151E+03  0.7818608E-02  0.1028046E+00
         -2   -1    0    0    0  501 -0.00000000000E+00  0.00000000000E+00  0.25301987890E+02  0.25301988019E+02  0.25500000000E-02 0. -1.
          2   -1    0    0  501    0  0.00000000000E+00 -0.00000000000E+00 -0.19911946461E+04  0.19911946461E+04  0.25500000000E-02 0.  1.
    5000001    1    1    2    0    0 -0.82092462421E+02  0.64006517328E+02 -0.48435836905E+03  0.52217242010E+03  0.16500000000E+03 0.  0.
   -5000001    1    1    2    0    0  0.82092462421E+02 -0.64006517328E+02 -0.14815342892E+04  0.14943242140E+04  0.16500000000E+03 0.  0.
<mgrwt>
<rscale>  0 0.44891506E+03</rscale>
<asrwt>0</asrwt>
<pdfrwt beam="1">  1        2 0.30633752E+00 0.44891506E+03</pdfrwt>
<pdfrwt beam="2">  1       -2 0.38926151E-02 0.44891506E+03</pdfrwt>
<totfact> 0.21299007E+03</totfact>
</mgrwt>
</event>
<event>
 4    1  0.9012200E-005  0.4535891E+03  0.7818608E-02  0.1026657E+00
          2   -1    0    0  501    0  0.00000000000E+00  0.00000000000E+00  0.81645493340E+02  0.81645493380E+02  0.25500000000E-02 0.  1.
         -2   -1    0    0    0  501 -0.00000000000E+00 -0.00000000000E+00 -0.62998914714E+03  0.62998914714E+03  0.25500000000E-02 0. -1.
    5000001    1    1    2    0    0  0.11646484712E+03  0.93502763914E+02 -0.34262946302E+03  0.40856673434E+03  0.16500000000E+03 0.  0.
   -5000001    1    1    2    0    0 -0.11646484712E+03 -0.93502763914E+02 -0.20571419077E+03  0.30306790618E+03  0.16500000000E+03 0.  0.
<mgrwt>
<rscale>  0 0.45358913E+03</rscale>
<asrwt>0</asrwt>
<pdfrwt beam="1">  1        2 0.12560846E-01 0.45358913E+03</pdfrwt>
<pdfrwt beam="2">  1       -2 0.96921404E-01 0.45358913E+03</pdfrwt>
<totfact> 0.44776289E+02</totfact>
</mgrwt>
</event>
<event>
 4    1  0.9012200E-005  0.8093537E+03  0.7818608E-02  0.9546576E-01
         -2   -1    0    0    0  501 -0.00000000000E+00  0.00000000000E+00  0.13045577200E+03  0.13045577202E+03  0.25500000000E-02 0. -1.
          2   -1    0    0  501    0  0.00000000000E+00 -0.00000000000E+00 -0.12553169708E+04  0.12553169708E+04  0.25500000000E-02 0.  1.
    5000001    1    1    2    0    0  0.27049983352E+03  0.24589787511E+03 -0.65467367410E+03  0.76776203636E+03  0.16500000000E+03 0.  0.
   -5000001    1    1    2    0    0 -0.27049983352E+03 -0.24589787511E+03 -0.47018752471E+03  0.61801070647E+03  0.16500000000E+03 0.  0.
<mgrwt>
<rscale>  0 0.80935368E+03</rscale>
<asrwt>0</asrwt>
<pdfrwt beam="1">  1        2 0.19312568E+00 0.80935368E+03</pdfrwt>
<pdfrwt beam="2">  1       -2 0.20070120E-01 0.80935368E+03</pdfrwt>
<totfact> 0.37472149E+02</totfact>
</mgrwt>
</event>
<event>
 4    1  0.9012200E-005  0.4771385E+03  0.7818608E-02  0.1019925E+00
          2   -1    0    0  501    0  0.00000000000E+00  0.00000000000E+00  0.11287807953E+04  0.11287807953E+04  0.25500000000E-02 0.  1.
         -2   -1    0    0    0  501 -0.00000000000E+00 -0.00000000000E+00 -0.50421905089E+02  0.50421905153E+02  0.25500000000E-02 0. -1.
    5000001    1    1    2    0    0  0.15857908897E+03 -0.54929511846E+02  0.44264583885E+03  0.50132316662E+03  0.16500000000E+03 0.  0.
   -5000001    1    1    2    0    0 -0.15857908897E+03  0.54929511846E+02  0.63571305132E+03  0.67787953381E+03  0.16500000000E+03 0.  0.
<mgrwt>
<rscale>  0 0.47713846E+03</rscale>
<asrwt>0</asrwt>
<pdfrwt beam="1">  1        2 0.17365857E+00 0.47713846E+03</pdfrwt>
<pdfrwt beam="2">  1       -2 0.77572166E-02 0.47713846E+03</pdfrwt>
<totfact> 0.21798898E+03</totfact>
</mgrwt>
</event>
<event>
 4    1  0.9012200E-005  0.7560738E+03  0.7818608E-02  0.9625869E-01
         -2   -1    0    0    0  501 -0.00000000000E+00  0.00000000000E+00  0.38104328953E+02  0.38104329038E+02  0.25500000000E-02 0. -1.
          2   -1    0    0  501    0  0.00000000000E+00 -0.00000000000E+00 -0.37505420491E+04  0.37505420491E+04  0.25500000000E-02 0.  1.
    5000001    1    1    2    0    0  0.29553895601E+03  0.16422730974E+03 -0.16705428237E+04  0.17123820279E+04  0.16500000000E+03 0.  0.
   -5000001    1    1    2    0    0 -0.29553895601E+03 -0.16422730974E+03 -0.20418948964E+04  0.20762643502E+04  0.16500000000E+03 0.  0.
<mgrwt>
<rscale>  0 0.75607377E+03</rscale>
<asrwt>0</asrwt>
<pdfrwt beam="1">  1        2 0.57700618E+00 0.75607377E+03</pdfrwt>
<pdfrwt beam="2">  1       -2 0.58622074E-02 0.75607377E+03</pdfrwt>
<totfact> 0.93726902E+01</totfact>
</mgrwt>
</event>
<event>
 4    1  0.9012200E-005  0.4664814E+03  0.7818608E-02  0.1022918E+00
         -2   -1    0    0    0  501 -0.00000000000E+00  0.00000000000E+00  0.22946739040E+03  0.22946739041E+03  0.25500000000E-02 0. -1.
          2   -1    0    0  501    0  0.00000000000E+00 -0.00000000000E+00 -0.23707610686E+03  0.23707610687E+03  0.25500000000E-02 0.  1.
    5000001    1    1    2    0    0  0.12987004076E+03 -0.61112034635E+02  0.77294819562E+02  0.23194912674E+03  0.16500000000E+03 0.  0.
   -5000001    1    1    2    0    0 -0.12987004076E+03  0.61112034635E+02 -0.84903536023E+02  0.23459437055E+03  0.16500000000E+03 0.  0.
<mgrwt>
<rscale>  0 0.46648145E+03</rscale>
<asrwt>0</asrwt>
<pdfrwt beam="1">  1        2 0.36473247E-01 0.46648145E+03</pdfrwt>
<pdfrwt beam="2">  1       -2 0.35302676E-01 0.46648145E+03</pdfrwt>
<totfact> 0.10759499E+03</totfact>
</mgrwt>
</event>
<event>
 4    1  0.9012200E-005  0.6798846E+03  0.7818608E-02  0.9752264E-01
         -2   -1    0    0    0  501 -0.00000000000E+00  0.00000000000E+00  0.69740790620E+02  0.69740790667E+02  0.25500000000E-02 0. -1.
          2   -1    0    0  501    0  0.00000000000E+00 -0.00000000000E+00 -0.16570039049E+04  0.16570039049E+04  0.25500000000E-02 0.  1.
    5000001    1    1    2    0    0 -0.13943418675E+03 -0.21735160803E+03 -0.41991405801E+03  0.51984269743E+03  0.16500000000E+03 0.  0.
   -5000001    1    1    2    0    0  0.13943418675E+03  0.21735160803E+03 -0.11673490562E+04  0.12069019981E+04  0.16500000000E+03 0.  0.
<mgrwt>
<rscale>  0 0.67988459E+03</rscale>
<asrwt>0</asrwt>
<pdfrwt beam="1">  1        2 0.25492365E+00 0.67988459E+03</pdfrwt>
<pdfrwt beam="2">  1       -2 0.10729354E-01 0.67988459E+03</pdfrwt>
<totfact> 0.64643351E+02</totfact>
</mgrwt>
</event>
<event>
 4    1  0.9012200E-005  0.5559304E+03  0.7818608E-02  0.1000131E+00
          2   -1    0    0  501    0  0.00000000000E+00  0.00000000000E+00  0.50500113452E+03  0.50500113453E+03  0.25500000000E-02 0.  1.
         -2   -1    0    0    0  501 -0.00000000000E+00 -0.00000000000E+00 -0.15299898368E+03  0.15299898370E+03  0.25500000000E-02 0. -1.
    5000001    1    1    2    0    0 -0.12156290409E+03  0.17905754502E+03  0.10904105993E+03  0.29317929127E+03  0.16500000000E+03 0.  0.
   -5000001    1    1    2    0    0  0.12156290409E+03 -0.17905754502E+03  0.24296109091E+03  0.36482082695E+03  0.16500000000E+03 0.  0.
<mgrwt>
<rscale>  0 0.55593043E+03</rscale>
<asrwt>0</asrwt>
<pdfrwt beam="1">  1        2 0.77692481E-01 0.55593043E+03</pdfrwt>
<pdfrwt beam="2">  1       -2 0.23538306E-01 0.55593043E+03</pdfrwt>
<totfact> 0.97567505E+02</totfact>
</mgrwt>
</event>
<event>
 4    1  0.9012200E-005  0.4021693E+03  0.7818608E-02  0.1043031E+00
         -2   -1    0    0    0  501 -0.00000000000E+00  0.00000000000E+00  0.11614293315E+03  0.11614293318E+03  0.25500000000E-02 0. -1.
          2   -1    0    0  501    0  0.00000000000E+00 -0.00000000000E+00 -0.34814896321E+03  0.34814896322E+03  0.25500000000E-02 0.  1.
    5000001    1    1    2    0    0  0.80939787157E+02  0.67646896300E+02 -0.63317105630E+02  0.20581887083E+03  0.16500000000E+03 0.  0.
   -5000001    1    1    2    0    0 -0.80939787157E+02 -0.67646896300E+02 -0.16868892443E+03  0.25847302557E+03  0.16500000000E+03 0.  0.
<mgrwt>
<rscale>  0 0.40216933E+03</rscale>
<asrwt>0</asrwt>
<pdfrwt beam="1">  1        2 0.53561379E-01 0.40216933E+03</pdfrwt>
<pdfrwt beam="2">  1       -2 0.17868144E-01 0.40216933E+03</pdfrwt>
<totfact> 0.23852169E+03</totfact>
</mgrwt>
</event>
<event>
 4    1  0.9012200E-005  0.8198790E+03  0.7818608E-02  0.9531681E-01
         -2   -1    0    0    0  501 -0.00000000000E+00  0.00000000000E+00  0.67271986895E+03  0.67271986896E+03  0.25500000000E-02 0.  1.
          2   -1    0    0  501    0  0.00000000000E+00 -0.00000000000E+00 -0.24980738226E+03  0.24980738227E+03  0.25500000000E-02 0. -1.
    5000001    1    1    2    0    0 -0.24497933568E+03  0.27102053363E+03  0.11493549123E+03  0.41701579311E+03  0.16500000000E+03 0.  0.
   -5000001    1    1    2    0    0  0.24497933568E+03 -0.27102053363E+03  0.30797699546E+03  0.50551145812E+03  0.16500000000E+03 0.  0.
<mgrwt>
<rscale>  0 0.81987899E+03</rscale>
<asrwt>0</asrwt>
<pdfrwt beam="1">  1        2 0.38431904E-01 0.81987899E+03</pdfrwt>
<pdfrwt beam="2">  1       -2 0.10349537E+00 0.81987899E+03</pdfrwt>
<totfact> 0.10316169E+02</totfact>
</mgrwt>
</event>
<event>
 4    1  0.9012200E-005  0.6202673E+03  0.7818608E-02  0.9864228E-01
          2   -1    0    0  501    0  0.00000000000E+00  0.00000000000E+00  0.54969608509E+03  0.54969608509E+03  0.25500000000E-02 0.  1.
         -2   -1    0    0    0  501 -0.00000000000E+00 -0.00000000000E+00 -0.17497465312E+03  0.17497465314E+03  0.25500000000E-02 0. -1.
    5000001    1    1    2    0    0 -0.18061707458E+03  0.81287356232E+02 -0.14077857410E+02  0.25817309694E+03  0.16500000000E+03 0.  0.
   -5000001    1    1    2    0    0  0.18061707458E+03 -0.81287356232E+02  0.38879928938E+03  0.46649764129E+03  0.16500000000E+03 0.  0.
<mgrwt>
<rscale>  0 0.62026730E+03</rscale>
<asrwt>0</asrwt>
<pdfrwt beam="1">  1        2 0.84568628E-01 0.62026730E+03</pdfrwt>
<pdfrwt beam="2">  1       -2 0.26919178E-01 0.62026730E+03</pdfrwt>
<totfact> 0.69382543E+02</totfact>
</mgrwt>
</event>
<event>
 4    1  0.9012200E-005  0.1124421E+04  0.7818608E-02  0.9181711E-01
         -2   -1    0    0    0  501 -0.00000000000E+00  0.00000000000E+00  0.29827687977E+03  0.29827687978E+03  0.25500000000E-02 0. -1.
          2   -1    0    0  501    0  0.00000000000E+00 -0.00000000000E+00 -0.10596889510E+04  0.10596889510E+04  0.25500000000E-02 0.  1.
    5000001    1    1    2    0    0  0.38710766073E+03  0.35223425125E+03 -0.23311709630E+03  0.59622972865E+03  0.16500000000E+03 0.  0.
   -5000001    1    1    2    0    0 -0.38710766073E+03 -0.35223425125E+03 -0.52829497493E+03  0.76173610212E+03  0.16500000000E+03 0.  0.
<mgrwt>
<rscale>  0 0.11244211E+04</rscale>
<asrwt>0</asrwt>
<pdfrwt beam="1">  1        2 0.16302907E+00 0.11244211E+04</pdfrwt>
<pdfrwt beam="2">  1       -2 0.45888751E-01 0.11244211E+04</pdfrwt>
<totfact> 0.10300283E+02</totfact>
</mgrwt>
</event>
<event>
 4    1  0.9012200E-005  0.7322107E+03  0.7818608E-02  0.9663680E-01
         -2   -1    0    0    0  501 -0.00000000000E+00  0.00000000000E+00  0.63651349553E+02  0.63651349604E+02  0.25500000000E-02 0.  1.
          2   -1    0    0  501    0  0.00000000000E+00 -0.00000000000E+00 -0.21057390744E+04  0.21057390744E+04  0.25500000000E-02 0. -1.
    5000001    1    1    2    0    0  0.21641909818E+03  0.49071014576E+02 -0.31020177511E+03  0.41556627848E+03  0.16500000000E+03 0.  0.
   -5000001    1    1    2    0    0 -0.21641909818E+03 -0.49071014576E+02 -0.17318859498E+04  0.17538241455E+04  0.16500000000E+03 0.  0.
<mgrwt>
<rscale>  0 0.73221072E+03</rscale>
<asrwt>0</asrwt>
<pdfrwt beam="1">  1        2 0.32395980E+00 0.73221072E+03</pdfrwt>
<pdfrwt beam="2">  1       -2 0.97925169E-02 0.73221072E+03</pdfrwt>
<totfact> 0.42572709E+02</totfact>
</mgrwt>
</event>
<event>
 4    1  0.9012200E-005  0.5242799E+03  0.7818608E-02  0.1007629E+00
          2   -1    0    0  501    0  0.00000000000E+00  0.00000000000E+00  0.27842185832E+04  0.27842185832E+04  0.25500000000E-02 0.  1.
         -2   -1    0    0    0  501 -0.00000000000E+00 -0.00000000000E+00 -0.24681015141E+02  0.24681015273E+02  0.25500000000E-02 0. -1.
    5000001    1    1    2    0    0  0.15065472762E+03 -0.11484652552E+03  0.17809038951E+04  0.17985355862E+04  0.16500000000E+03 0.  0.
   -5000001    1    1    2    0    0 -0.15065472762E+03  0.11484652552E+03  0.97863367298E+03  0.10103640123E+04  0.16500000000E+03 0.  0.
<mgrwt>
<rscale>  0 0.52427985E+03</rscale>
<asrwt>0</asrwt>
<pdfrwt beam="1">  1        2 0.42834133E+00 0.52427985E+03</pdfrwt>
<pdfrwt beam="2">  1       -2 0.37970792E-02 0.52427985E+03</pdfrwt>
<totfact> 0.79870459E+02</totfact>
</mgrwt>
</event>
<event>
 4    1  0.9012200E-005  0.7395967E+03  0.7818608E-02  0.9651814E-01
          2   -1    0    0  501    0  0.00000000000E+00  0.00000000000E+00  0.33177481601E+03  0.33177481601E+03  0.25500000000E-02 0.  1.
         -2   -1    0    0    0  501 -0.00000000000E+00 -0.00000000000E+00 -0.41217966524E+03  0.41217966524E+03  0.25500000000E-02 0. -1.
    5000001    1    1    2    0    0 -0.21021392630E+03  0.18660556566E+03 -0.21591509920E+03  0.39096785291E+03  0.16500000000E+03 0.  0.
   -5000001    1    1    2    0    0  0.21021392630E+03 -0.18660556566E+03  0.13551024997E+03  0.35298662835E+03  0.16500000000E+03 0.  0.
<mgrwt>
<rscale>  0 0.73959673E+03</rscale>
<asrwt>0</asrwt>
<pdfrwt beam="1">  1        2 0.51042279E-01 0.73959673E+03</pdfrwt>
<pdfrwt beam="2">  1       -2 0.63412256E-01 0.73959673E+03</pdfrwt>
<totfact> 0.22795395E+02</totfact>
</mgrwt>
</event>
<event>
 4    1  0.9012200E-005  0.3907631E+03  0.7818608E-02  0.1047026E+00
          2   -1    0    0  501    0  0.00000000000E+00  0.00000000000E+00  0.62446962578E+03  0.62446962578E+03  0.25500000000E-02 0.  1.
         -2   -1    0    0    0  501 -0.00000000000E+00 -0.00000000000E+00 -0.61130180834E+02  0.61130180887E+02  0.25500000000E-02 0. -1.
    5000001    1    1    2    0    0 -0.10347363373E+03 -0.12601088580E+02  0.29768882872E+03  0.35596238433E+03  0.16500000000E+03 0.  0.
   -5000001    1    1    2    0    0  0.10347363373E+03  0.12601088580E+02  0.26565061622E+03  0.32963742234E+03  0.16500000000E+03 0.  0.
<mgrwt>
<rscale>  0 0.39076305E+03</rscale>
<asrwt>0</asrwt>
<pdfrwt beam="1">  1        2 0.96072249E-01 0.39076305E+03</pdfrwt>
<pdfrwt beam="2">  1       -2 0.94046433E-02 0.39076305E+03</pdfrwt>
<totfact> 0.35424254E+03</totfact>
</mgrwt>
</event>
<event>
 4    1  0.9012200E-005  0.5209666E+03  0.7818608E-02  0.1008447E+00
         -2   -1    0    0    0  501 -0.00000000000E+00  0.00000000000E+00  0.12905379816E+03  0.12905379819E+03  0.25500000000E-02 0. -1.
          2   -1    0    0  501    0  0.00000000000E+00 -0.00000000000E+00 -0.52576165385E+03  0.52576165386E+03  0.25500000000E-02 0.  1.
    5000001    1    1    2    0    0  0.11906703432E+03  0.61958691878E+02 -0.38735578866E+03  0.44191101499E+03  0.16500000000E+03 0.  0.
   -5000001    1    1    2    0    0 -0.11906703432E+03 -0.61958691878E+02 -0.93520670356E+01  0.21290443706E+03  0.16500000000E+03 0.  0.
<mgrwt>
<rscale>  0 0.52096656E+03</rscale>
<asrwt>0</asrwt>
<pdfrwt beam="1">  1        2 0.80886407E-01 0.52096656E+03</pdfrwt>
<pdfrwt beam="2">  1       -2 0.19854431E-01 0.52096656E+03</pdfrwt>
<totfact> 0.12561905E+03</totfact>
</mgrwt>
</event>
<event>
 4    1  0.9012200E-005  0.6600890E+03  0.7818608E-02  0.9788030E-01
          2   -1    0    0  501    0  0.00000000000E+00  0.00000000000E+00  0.43243549155E+03  0.43243549156E+03  0.25500000000E-02 0.  1.
         -2   -1    0    0    0  501 -0.00000000000E+00 -0.00000000000E+00 -0.25189742235E+03  0.25189742237E+03  0.25500000000E-02 0. -1.
    5000001    1    1    2    0    0 -0.14165340795E+03 -0.17328677036E+03 -0.94054102202E+02  0.29353903813E+03  0.16500000000E+03 0.  0.
   -5000001    1    1    2    0    0  0.14165340795E+03  0.17328677036E+03  0.27459217140E+03  0.39079387579E+03  0.16500000000E+03 0.  0.
<mgrwt>
<rscale>  0 0.66008904E+03</rscale>
<asrwt>0</asrwt>
<pdfrwt beam="1">  1        2 0.66528536E-01 0.66008904E+03</pdfrwt>
<pdfrwt beam="2">  1       -2 0.38753450E-01 0.66008904E+03</pdfrwt>
<totfact> 0.46158932E+02</totfact>
</mgrwt>
</event>
<event>
 4    1  0.9012200E-005  0.5230601E+03  0.7818608E-02  0.1007929E+00
          2   -1    0    0  501    0  0.00000000000E+00  0.00000000000E+00  0.23213839549E+04  0.23213839549E+04  0.25500000000E-02 0.  1.
         -2   -1    0    0    0  501 -0.00000000000E+00 -0.00000000000E+00 -0.29464310303E+02  0.29464310413E+02  0.25500000000E-02 0. -1.
    5000001    1    1    2    0    0  0.17302515337E+03  0.10203629605E+03  0.10169562416E+04  0.10496542797E+04  0.16500000000E+03 0.  0.
   -5000001    1    1    2    0    0 -0.17302515337E+03 -0.10203629605E+03  0.12749634029E+04  0.13011939856E+04  0.16500000000E+03 0.  0.
<mgrwt>
<rscale>  0 0.52306014E+03</rscale>
<asrwt>0</asrwt>
<pdfrwt beam="1">  1        2 0.35713609E+00 0.52306014E+03</pdfrwt>
<pdfrwt beam="2">  1       -2 0.45329696E-02 0.52306014E+03</pdfrwt>
<totfact> 0.11115990E+03</totfact>
</mgrwt>
</event>
<event>
 4    1  0.9012200E-005  0.4737990E+03  0.7818608E-02  0.1020853E+00
          2   -1    0    0  501    0  0.00000000000E+00  0.00000000000E+00  0.79468907189E+03  0.79468907190E+03  0.25500000000E-02 0.  1.
         -2   -1    0    0    0  501 -0.00000000000E+00 -0.00000000000E+00 -0.70620543038E+02  0.70620543084E+02  0.25500000000E-02 0. -1.
    5000001    1    1    2    0    0 -0.11917540034E+03  0.11872641287E+03  0.31738688183E+03  0.39529504160E+03  0.16500000000E+03 0.  0.
   -5000001    1    1    2    0    0  0.11917540034E+03 -0.11872641287E+03  0.40668164703E+03  0.47001457338E+03  0.16500000000E+03 0.  0.
<mgrwt>
<rscale>  0 0.47379900E+03</rscale>
<asrwt>0</asrwt>
<pdfrwt beam="1">  1        2 0.12225985E+00 0.47379900E+03</pdfrwt>
<pdfrwt beam="2">  1       -2 0.10864700E-01 0.47379900E+03</pdfrwt>
<totfact> 0.20847587E+03</totfact>
</mgrwt>
</event>
<event>
 4    1  0.9012200E-005  0.4460506E+03  0.7818608E-02  0.1028906E+00
          2   -1    0    0  501    0  0.00000000000E+00  0.00000000000E+00  0.35303195898E+04  0.35303195898E+04  0.25500000000E-02 0.  1.
         -2   -1    0    0    0  501 -0.00000000000E+00 -0.00000000000E+00 -0.14089457032E+02  0.14089457263E+02  0.25500000000E-02 0. -1.
    5000001    1    1    2    0    0 -0.11750054286E+03  0.34433226477E+02  0.24473428724E+04  0.24559528008E+04  0.16500000000E+03 0.  0.
   -5000001    1    1    2    0    0  0.11750054286E+03 -0.34433226477E+02  0.10688872603E+04  0.10884562462E+04  0.16500000000E+03 0.  0.
<mgrwt>
<rscale>  0 0.44605061E+03</rscale>
<asrwt>0</asrwt>
<pdfrwt beam="1">  1        2 0.54312599E+00 0.44605061E+03</pdfrwt>
<pdfrwt beam="2">  1       -2 0.21676092E-02 0.44605061E+03</pdfrwt>
<totfact> 0.64249157E+02</totfact>
</mgrwt>
</event>
<event>
 4    1  0.9012200E-005  0.5841828E+03  0.7818608E-02  0.9938776E-01
          2   -1    0    0  501    0  0.00000000000E+00  0.00000000000E+00  0.60511904338E+03  0.60511904339E+03  0.25500000000E-02 0.  1.
         -2   -1    0    0    0  501 -0.00000000000E+00 -0.00000000000E+00 -0.14099271312E+03  0.14099271315E+03  0.25500000000E-02 0. -1.
    5000001    1    1    2    0    0  0.18646520708E+03 -0.11127075276E+03  0.36566177747E+03  0.45616224019E+03  0.16500000000E+03 0.  0.
   -5000001    1    1    2    0    0 -0.18646520708E+03  0.11127075276E+03  0.98464552789E+02  0.28994951635E+03  0.16500000000E+03 0.  0.
<mgrwt>
<rscale>  0 0.58418276E+03</rscale>
<asrwt>0</asrwt>
<pdfrwt beam="1">  1        2 0.93095235E-01 0.58418276E+03</pdfrwt>
<pdfrwt beam="2">  1       -2 0.21691187E-01 0.58418276E+03</pdfrwt>
<totfact> 0.91140024E+02</totfact>
</mgrwt>
</event>
<event>
 4    1  0.9012200E-005  0.4802990E+03  0.7818608E-02  0.1019053E+00
         -2   -1    0    0    0  501 -0.00000000000E+00  0.00000000000E+00  0.10975559746E+03  0.10975559749E+03  0.25500000000E-02 0. -1.
          2   -1    0    0  501    0  0.00000000000E+00 -0.00000000000E+00 -0.52545641116E+03  0.52545641117E+03  0.25500000000E-02 0.  1.
    5000001    1    1    2    0    0 -0.12150926053E+03  0.56515004817E+02 -0.35564525926E+03  0.41432716131E+03  0.16500000000E+03 0.  0.
   -5000001    1    1    2    0    0  0.12150926053E+03 -0.56515004817E+02 -0.60055554438E+02  0.22088484734E+03  0.16500000000E+03 0.  0.
<mgrwt>
<rscale>  0 0.48029900E+03</rscale>
<asrwt>0</asrwt>
<pdfrwt beam="1">  1        2 0.80839446E-01 0.48029900E+03</pdfrwt>
<pdfrwt beam="2">  1       -2 0.16885477E-01 0.48029900E+03</pdfrwt>
<totfact> 0.16598481E+03</totfact>
</mgrwt>
</event>
<event>
 4    1  0.9012200E-005  0.6626326E+03  0.7818608E-02  0.9783359E-01
         -2   -1    0    0    0  501 -0.00000000000E+00  0.00000000000E+00  0.80000538384E+02  0.80000538425E+02  0.25500000000E-02 0. -1.
          2   -1    0    0  501    0  0.00000000000E+00 -0.00000000000E+00 -0.13721220096E+04  0.13721220096E+04  0.25500000000E-02 0.  1.
    5000001    1    1    2    0    0 -0.13368214420E+03 -0.23673180016E+03 -0.44244926808E+03  0.54488458935E+03  0.16500000000E+03 0.  0.
   -5000001    1    1    2    0    0  0.13368214420E+03  0.23673180016E+03 -0.84967220311E+03  0.90723795865E+03  0.16500000000E+03 0.  0.
<mgrwt>
<rscale>  0 0.66263263E+03</rscale>
<asrwt>0</asrwt>
<pdfrwt beam="1">  1        2 0.21109568E+00 0.66263263E+03</pdfrwt>
<pdfrwt beam="2">  1       -2 0.12307776E-01 0.66263263E+03</pdfrwt>
<totfact> 0.74285096E+02</totfact>
</mgrwt>
</event>
<event>
 4    1  0.9012200E-005  0.3584477E+03  0.7818608E-02  0.1059200E+00
          2   -1    0    0  501    0  0.00000000000E+00  0.00000000000E+00  0.51287220398E+03  0.51287220398E+03  0.25500000000E-02 0.  1.
         -2   -1    0    0    0  501 -0.00000000000E+00 -0.00000000000E+00 -0.62630013143E+02  0.62630013195E+02  0.25500000000E-02 0. -1.
    5000001    1    1    2    0    0 -0.28584484271E+02 -0.58430666465E+02  0.18371878234E+03  0.25536015059E+03  0.16500000000E+03 0.  0.
   -5000001    1    1    2    0    0  0.28584484271E+02  0.58430666465E+02  0.26652340850E+03  0.32014206659E+03  0.16500000000E+03 0.  0.
<mgrwt>
<rscale>  0 0.35844773E+03</rscale>
<asrwt>0</asrwt>
<pdfrwt beam="1">  1        2 0.78903418E-01 0.35844773E+03</pdfrwt>
<pdfrwt beam="2">  1       -2 0.96353864E-02 0.35844773E+03</pdfrwt>
<totfact> 0.42772196E+03</totfact>
</mgrwt>
</event>
<event>
 4    1  0.9012200E-005  0.3813388E+03  0.7818608E-02  0.1050440E+00
          2   -1    0    0  501    0  0.00000000000E+00  0.00000000000E+00  0.64506462250E+02  0.64506462301E+02  0.25500000000E-02 0.  1.
         -2   -1    0    0    0  501 -0.00000000000E+00 -0.00000000000E+00 -0.56358402860E+03  0.56358402860E+03  0.25500000000E-02 0. -1.
    5000001    1    1    2    0    0  0.87044135324E+02 -0.22899876438E+01 -0.18473791768E+03  0.26255480145E+03  0.16500000000E+03 0.  0.
   -5000001    1    1    2    0    0 -0.87044135324E+02  0.22899876438E+01 -0.31433964867E+03  0.36553568945E+03  0.16500000000E+03 0.  0.
<mgrwt>
<rscale>  0 0.38133876E+03</rscale>
<asrwt>0</asrwt>
<pdfrwt beam="1">  1        2 0.99240715E-02 0.38133876E+03</pdfrwt>
<pdfrwt beam="2">  1       -2 0.86705232E-01 0.38133876E+03</pdfrwt>
<totfact> 0.77444266E+02</totfact>
</mgrwt>
</event>
<event>
 4    1  0.9012200E-005  0.5218807E+03  0.7818608E-02  0.1008220E+00
          2   -1    0    0  501    0  0.00000000000E+00  0.00000000000E+00  0.30723893071E+03  0.30723893072E+03  0.25500000000E-02 0.  1.
         -2   -1    0    0    0  501 -0.00000000000E+00 -0.00000000000E+00 -0.22161857714E+03  0.22161857715E+03  0.25500000000E-02 0. -1.
    5000001    1    1    2    0    0  0.58477480644E+01 -0.19688034263E+03  0.88902181207E+02  0.27189090330E+03  0.16500000000E+03 0.  0.
   -5000001    1    1    2    0    0 -0.58477480644E+01  0.19688034263E+03 -0.32818276389E+01  0.25696660457E+03  0.16500000000E+03 0.  0.
<mgrwt>
<rscale>  0 0.52188066E+03</rscale>
<asrwt>0</asrwt>
<pdfrwt beam="1">  1        2 0.47267528E-01 0.52188066E+03</pdfrwt>
<pdfrwt beam="2">  1       -2 0.34095166E-01 0.52188066E+03</pdfrwt>
<totfact> 0.86391175E+02</totfact>
</mgrwt>
</event>
<event>
 4    1  0.9012200E-005  0.5520206E+03  0.7818608E-02  0.1001027E+00
         -2   -1    0    0    0  501 -0.00000000000E+00  0.00000000000E+00  0.89368734346E+02  0.89368734382E+02  0.25500000000E-02 0. -1.
          2   -1    0    0  501    0  0.00000000000E+00 -0.00000000000E+00 -0.85244233569E+03  0.85244233569E+03  0.25500000000E-02 0.  1.
    5000001    1    1    2    0    0  0.11968565202E+03 -0.17067609583E+03 -0.50808537059E+03  0.57343764159E+03  0.16500000000E+03 0.  0.
   -5000001    1    1    2    0    0 -0.11968565202E+03  0.17067609583E+03 -0.25498823075E+03  0.36837342848E+03  0.16500000000E+03 0.  0.
<mgrwt>
<rscale>  0 0.55202063E+03</rscale>
<asrwt>0</asrwt>
<pdfrwt beam="1">  1        2 0.13114497E+00 0.55202063E+03</pdfrwt>
<pdfrwt beam="2">  1       -2 0.13749037E-01 0.55202063E+03</pdfrwt>
<totfact> 0.12892991E+03</totfact>
</mgrwt>
</event>
<event>
 4    1  0.9012200E-005  0.4681446E+03  0.7818608E-02  0.1022445E+00
         -2   -1    0    0    0  501 -0.00000000000E+00  0.00000000000E+00  0.24062527817E+02  0.24062527952E+02  0.25500000000E-02 0. -1.
          2   -1    0    0  501    0  0.00000000000E+00 -0.00000000000E+00 -0.22769781146E+04  0.22769781146E+04  0.25500000000E-02 0.  1.
    5000001    1    1    2    0    0 -0.12262441916E+03  0.68444307641E+02 -0.15617677300E+04  0.15767259794E+04  0.16500000000E+03 0.  0.
   -5000001    1    1    2    0    0  0.12262441916E+03 -0.68444307641E+02 -0.69114785676E+03  0.72431466320E+03  0.16500000000E+03 0.  0.
<mgrwt>
<rscale>  0 0.46814463E+03</rscale>
<asrwt>0</asrwt>
<pdfrwt beam="1">  1        2 0.35030415E+00 0.46814463E+03</pdfrwt>
<pdfrwt beam="2">  1       -2 0.37019292E-02 0.46814463E+03</pdfrwt>
<totfact> 0.16095401E+03</totfact>
</mgrwt>
</event>
<event>
 4    1  0.9012200E-005  0.6703654E+03  0.7818608E-02  0.9769298E-01
          2   -1    0    0  501    0  0.00000000000E+00  0.00000000000E+00  0.15298390009E+03  0.15298390011E+03  0.25500000000E-02 0.  1.
         -2   -1    0    0    0  501 -0.00000000000E+00 -0.00000000000E+00 -0.73437427881E+03  0.73437427882E+03  0.25500000000E-02 0. -1.
    5000001    1    1    2    0    0 -0.29135089308E+03 -0.14716230113E+02 -0.29669299281E+03  0.44760880499E+03  0.16500000000E+03 0.  0.
   -5000001    1    1    2    0    0  0.29135089308E+03  0.14716230113E+02 -0.28469738592E+03  0.43974937393E+03  0.16500000000E+03 0.  0.
<mgrwt>
<rscale>  0 0.67036540E+03</rscale>
<asrwt>0</asrwt>
<pdfrwt beam="1">  1        2 0.23535985E-01 0.67036540E+03</pdfrwt>
<pdfrwt beam="2">  1       -2 0.11298066E+00 0.67036540E+03</pdfrwt>
<totfact> 0.14633957E+02</totfact>
</mgrwt>
</event>
<event>
 4    1  0.9012200E-005  0.5032282E+03  0.7818608E-02  0.1012940E+00
          2   -1    0    0  501    0  0.00000000000E+00  0.00000000000E+00  0.28831769949E+03  0.28831769950E+03  0.25500000000E-02 0.  1.
         -2   -1    0    0    0  501 -0.00000000000E+00 -0.00000000000E+00 -0.21958295320E+03  0.21958295322E+03  0.25500000000E-02 0. -1.
    5000001    1    1    2    0    0 -0.17176708367E+03 -0.26492974495E+02 -0.43018154930E+02  0.24347765890E+03  0.16500000000E+03 0.  0.
   -5000001    1    1    2    0    0  0.17176708367E+03  0.26492974495E+02  0.11175290122E+03  0.26442299382E+03  0.16500000000E+03 0.  0.
<mgrwt>
<rscale>  0 0.50322819E+03</rscale>
<asrwt>0</asrwt>
<pdfrwt beam="1">  1        2 0.44356569E-01 0.50322819E+03</pdfrwt>
<pdfrwt beam="2">  1       -2 0.33781993E-01 0.50322819E+03</pdfrwt>
<totfact> 0.94272624E+02</totfact>
</mgrwt>
</event>
<event>
 4    1  0.9012200E-005  0.3529764E+03  0.7818608E-02  0.1061400E+00
         -2   -1    0    0    0  501 -0.00000000000E+00  0.00000000000E+00  0.11245320643E+02  0.11245320932E+02  0.25500000000E-02 0.  1.
          2   -1    0    0  501    0  0.00000000000E+00 -0.00000000000E+00 -0.27698703648E+04  0.27698703648E+04  0.25500000000E-02 0. -1.
    5000001    1    1    2    0    0 -0.48568367904E+02 -0.17903486692E+02 -0.11014537095E+04  0.11149460504E+04  0.16500000000E+03 0.  0.
   -5000001    1    1    2    0    0  0.48568367904E+02  0.17903486692E+02 -0.16571713347E+04  0.16661696354E+04  0.16500000000E+03 0.  0.
<mgrwt>
<rscale>  0 0.35297638E+03</rscale>
<asrwt>0</asrwt>
<pdfrwt beam="1">  1        2 0.42613336E+00 0.35297638E+03</pdfrwt>
<pdfrwt beam="2">  1       -2 0.17300516E-02 0.35297638E+03</pdfrwt>
<totfact> 0.26941620E+03</totfact>
</mgrwt>
</event>
<event>
 4    1  0.9012200E-005  0.5760057E+03  0.7818608E-02  0.9956476E-01
          2   -1    0    0  501    0  0.00000000000E+00  0.00000000000E+00  0.71540176243E+03  0.71540176243E+03  0.25500000000E-02 0.  1.
         -2   -1    0    0    0  501 -0.00000000000E+00 -0.00000000000E+00 -0.11594273400E+03  0.11594273403E+03  0.25500000000E-02 0. -1.
    5000001    1    1    2    0    0 -0.74782192749E+02  0.54419757723E+02 -0.13723344235E+02  0.18965024798E+03  0.16500000000E+03 0.  0.
   -5000001    1    1    2    0    0  0.74782192749E+02 -0.54419757723E+02  0.61318237266E+03  0.64169424848E+03  0.16500000000E+03 0.  0.
<mgrwt>
<rscale>  0 0.57600568E+03</rscale>
<asrwt>0</asrwt>
<pdfrwt beam="1">  1        2 0.11006181E+00 0.57600568E+03</pdfrwt>
<pdfrwt beam="2">  1       -2 0.17837344E-01 0.57600568E+03</pdfrwt>
<totfact> 0.10425159E+03</totfact>
</mgrwt>
</event>
<event>
 4    1  0.9012200E-005  0.3895069E+03  0.7818608E-02  0.1047475E+00
          2   -1    0    0  501    0  0.00000000000E+00  0.00000000000E+00  0.57848102381E+03  0.57848102382E+03  0.25500000000E-02 0.  1.
         -2   -1    0    0    0  501 -0.00000000000E+00 -0.00000000000E+00 -0.65566365251E+02  0.65566365301E+02  0.25500000000E-02 0. -1.
    5000001    1    1    2    0    0 -0.77710316447E+02 -0.68178390357E+02  0.26321685024E+03  0.32740692791E+03  0.16500000000E+03 0.  0.
   -5000001    1    1    2    0    0  0.77710316447E+02  0.68178390357E+02  0.24969780832E+03  0.31664046121E+03  0.16500000000E+03 0.  0.
<mgrwt>
<rscale>  0 0.38950686E+03</rscale>
<asrwt>0</asrwt>
<pdfrwt beam="1">  1        2 0.88997079E-01 0.38950686E+03</pdfrwt>
<pdfrwt beam="2">  1       -2 0.10087133E-01 0.38950686E+03</pdfrwt>
<totfact> 0.34653393E+03</totfact>
</mgrwt>
</event>
<event>
 4    1  0.9012200E-005  0.6023496E+03  0.7818608E-02  0.9900543E-01
          2   -1    0    0  501    0  0.00000000000E+00  0.00000000000E+00  0.46884637425E+03  0.46884637426E+03  0.25500000000E-02 0.  1.
         -2   -1    0    0    0  501 -0.00000000000E+00 -0.00000000000E+00 -0.19346689510E+03  0.19346689512E+03  0.25500000000E-02 0. -1.
    5000001    1    1    2    0    0  0.73828648077E+02 -0.16953199941E+03  0.32586854644E+03  0.40939843388E+03  0.16500000000E+03 0.  0.
   -5000001    1    1    2    0    0 -0.73828648077E+02  0.16953199941E+03 -0.50489067295E+02  0.25291483550E+03  0.16500000000E+03 0.  0.
<mgrwt>
<rscale>  0 0.60234957E+03</rscale>
<asrwt>0</asrwt>
<pdfrwt beam="1">  1        2 0.72130211E-01 0.60234957E+03</pdfrwt>
<pdfrwt beam="2">  1       -2 0.29764138E-01 0.60234957E+03</pdfrwt>
<totfact> 0.69409661E+02</totfact>
</mgrwt>
</event>
<event>
 4    1  0.9012200E-005  0.3842677E+03  0.7818608E-02  0.1049368E+00
         -2   -1    0    0    0  501 -0.00000000000E+00  0.00000000000E+00  0.18776664554E+02  0.18776664727E+02  0.25500000000E-02 0. -1.
          2   -1    0    0  501    0  0.00000000000E+00 -0.00000000000E+00 -0.19660266309E+04  0.19660266309E+04  0.25500000000E-02 0.  1.
    5000001    1    1    2    0    0  0.94200866768E+02  0.22258911765E+02 -0.88106048239E+03  0.90158850707E+03  0.16500000000E+03 0.  0.
   -5000001    1    1    2    0    0 -0.94200866768E+02 -0.22258911765E+02 -0.10661894840E+04  0.10832147886E+04  0.16500000000E+03 0.  0.
<mgrwt>
<rscale>  0 0.38426773E+03</rscale>
<asrwt>0</asrwt>
<pdfrwt beam="1">  1        2 0.30246547E+00 0.38426773E+03</pdfrwt>
<pdfrwt beam="2">  1       -2 0.28887192E-02 0.38426773E+03</pdfrwt>
<totfact> 0.34585887E+03</totfact>
</mgrwt>
</event>
<event>
 4    1  0.9012200E-005  0.6602264E+03  0.7818608E-02  0.9787777E-01
          2   -1    0    0  501    0  0.00000000000E+00  0.00000000000E+00  0.17188517978E+03  0.17188517980E+03  0.25500000000E-02 0.  1.
         -2   -1    0    0    0  501 -0.00000000000E+00 -0.00000000000E+00 -0.63399727653E+03  0.63399727653E+03  0.25500000000E-02 0. -1.
    5000001    1    1    2    0    0 -0.14377562040E+03  0.53367115303E+02 -0.52560206235E+03  0.57184089218E+03  0.16500000000E+03 0.  0.
   -5000001    1    1    2    0    0  0.14377562040E+03 -0.53367115303E+02  0.63489965607E+02  0.23404156415E+03  0.16500000000E+03 0.  0.
<mgrwt>
<rscale>  0 0.66022643E+03</rscale>
<asrwt>0</asrwt>
<pdfrwt beam="1">  1        2 0.26443874E-01 0.66022643E+03</pdfrwt>
<pdfrwt beam="2">  1       -2 0.97538041E-01 0.66022643E+03</pdfrwt>
<totfact> 0.18201280E+02</totfact>
</mgrwt>
</event>
<event>
 4    1  0.9012200E-005  0.3936245E+03  0.7818608E-02  0.1046010E+00
         -2   -1    0    0    0  501 -0.00000000000E+00  0.00000000000E+00  0.46863075486E+02  0.46863075556E+02  0.25500000000E-02 0. -1.
          2   -1    0    0  501    0  0.00000000000E+00 -0.00000000000E+00 -0.82655805353E+03  0.82655805353E+03  0.25500000000E-02 0.  1.
    5000001    1    1    2    0    0  0.38485684601E+02 -0.85285671961E+02 -0.50631983339E+03  0.54068435103E+03  0.16500000000E+03 0.  0.
   -5000001    1    1    2    0    0 -0.38485684601E+02  0.85285671961E+02 -0.27337514465E+03  0.33273677806E+03  0.16500000000E+03 0.  0.
<mgrwt>
<rscale>  0 0.39362445E+03</rscale>
<asrwt>0</asrwt>
<pdfrwt beam="1">  1        2 0.12716277E+00 0.39362445E+03</pdfrwt>
<pdfrwt beam="2">  1       -2 0.72097045E-02 0.39362445E+03</pdfrwt>
<totfact> 0.38037827E+03</totfact>
</mgrwt>
</event>
<event>
 4    1  0.9012200E-005  0.3550079E+03  0.7818608E-02  0.1060578E+00
          2   -1    0    0  501    0  0.00000000000E+00  0.00000000000E+00  0.16490451813E+04  0.16490451813E+04  0.25500000000E-02 0.  1.
         -2   -1    0    0    0  501 -0.00000000000E+00 -0.00000000000E+00 -0.19106601181E+02  0.19106601352E+02  0.25500000000E-02 0. -1.
    5000001    1    1    2    0    0  0.17493091299E+02  0.38753327803E+02  0.58120972670E+03  0.60567117735E+03  0.16500000000E+03 0.  0.
   -5000001    1    1    2    0    0 -0.17493091299E+02 -0.38753327803E+02  0.10487288534E+04  0.10624806053E+04  0.16500000000E+03 0.  0.
<mgrwt>
<rscale>  0 0.35500788E+03</rscale>
<asrwt>0</asrwt>
<pdfrwt beam="1">  1        2 0.25369921E+00 0.35500788E+03</pdfrwt>
<pdfrwt beam="2">  1       -2 0.29394777E-02 0.35500788E+03</pdfrwt>
<totfact> 0.49699709E+03</totfact>
</mgrwt>
</event>
<event>
 4    1  0.9012200E-005  0.3747754E+03  0.7818608E-02  0.1052882E+00
         -2   -1    0    0    0  501 -0.00000000000E+00  0.00000000000E+00  0.31993516445E+02  0.31993516546E+02  0.25500000000E-02 0. -1.
          2   -1    0    0  501    0  0.00000000000E+00 -0.00000000000E+00 -0.10975395666E+04  0.10975395666E+04  0.25500000000E-02 0.  1.
    5000001    1    1    2    0    0  0.58713396683E+02 -0.24513593408E+02 -0.71956077639E+03  0.74097293481E+03  0.16500000000E+03 0.  0.
   -5000001    1    1    2    0    0 -0.58713396683E+02  0.24513593408E+02 -0.34598527379E+03  0.38856014836E+03  0.16500000000E+03 0.  0.
<mgrwt>
<rscale>  0 0.37477540E+03</rscale>
<asrwt>0</asrwt>
<pdfrwt beam="1">  1        2 0.16885221E+00 0.37477540E+03</pdfrwt>
<pdfrwt beam="2">  1       -2 0.49220803E-02 0.37477540E+03</pdfrwt>
<totfact> 0.46163895E+03</totfact>
</mgrwt>
</event>
<event>
 4    1  0.9012200E-005  0.5879950E+03  0.7818608E-02  0.9930630E-01
         -2   -1    0    0    0  501 -0.00000000000E+00  0.00000000000E+00  0.84777076013E+03  0.84777076013E+03  0.25500000000E-02 0. -1.
          2   -1    0    0  501    0  0.00000000000E+00 -0.00000000000E+00 -0.10195507102E+03  0.10195507105E+03  0.25500000000E-02 0.  1.
    5000001    1    1    2    0    0 -0.14761950802E+03  0.10199329662E+03  0.63838682023E+03  0.68334243535E+03  0.16500000000E+03 0.  0.
   -5000001    1    1    2    0    0  0.14761950802E+03 -0.10199329662E+03  0.10742886888E+03  0.26638339583E+03  0.16500000000E+03 0.  0.
<mgrwt>
<rscale>  0 0.58799499E+03</rscale>
<asrwt>0</asrwt>
<pdfrwt beam="1">  1        2 0.15685395E-01 0.58799499E+03</pdfrwt>
<pdfrwt beam="2">  1       -2 0.13042628E+00 0.58799499E+03</pdfrwt>
<totfact> 0.16599665E+02</totfact>
</mgrwt>
</event>
<event>
 4    1  0.9012200E-005  0.5161790E+03  0.7818608E-02  0.1009640E+00
          2   -1    0    0  501    0  0.00000000000E+00  0.00000000000E+00  0.10111190366E+04  0.10111190366E+04  0.25500000000E-02 0.  1.
         -2   -1    0    0    0  501 -0.00000000000E+00 -0.00000000000E+00 -0.65877702220E+02  0.65877702269E+02  0.25500000000E-02 0. -1.
    5000001    1    1    2    0    0 -0.97402014300E+02  0.16605489878E+03  0.37203988870E+03  0.45022223466E+03  0.16500000000E+03 0.  0.
   -5000001    1    1    2    0    0  0.97402014300E+02 -0.16605489878E+03  0.57320144566E+03  0.62677450419E+03  0.16500000000E+03 0.  0.
<mgrwt>
<rscale>  0 0.51617903E+03</rscale>
<asrwt>0</asrwt>
<pdfrwt beam="1">  1        2 0.15555678E+00 0.51617903E+03</pdfrwt>
<pdfrwt beam="2">  1       -2 0.10135031E-01 0.51617903E+03</pdfrwt>
<totfact> 0.16757778E+03</totfact>
</mgrwt>
</event>
<event>
 4    1  0.9012200E-005  0.3526664E+03  0.7818608E-02  0.1061526E+00
         -2   -1    0    0    0  501 -0.00000000000E+00  0.00000000000E+00  0.60976457467E+02  0.60976457520E+02  0.25500000000E-02 0. -1.
          2   -1    0    0  501    0  0.00000000000E+00 -0.00000000000E+00 -0.50992472610E+03  0.50992472611E+03  0.25500000000E-02 0.  1.
    5000001    1    1    2    0    0 -0.12418193033E+02 -0.48151608351E+02 -0.16399862269E+03  0.23789354163E+03  0.16500000000E+03 0.  0.
   -5000001    1    1    2    0    0  0.12418193033E+02  0.48151608351E+02 -0.28494964595E+03  0.33300764200E+03  0.16500000000E+03 0.  0.
<mgrwt>
<rscale>  0 0.35266643E+03</rscale>
<asrwt>0</asrwt>
<pdfrwt beam="1">  1        2 0.78449955E-01 0.35266643E+03</pdfrwt>
<pdfrwt beam="2">  1       -2 0.93809938E-02 0.35266643E+03</pdfrwt>
<totfact> 0.44914232E+03</totfact>
</mgrwt>
</event>
<event>
 4    1  0.9012200E-005  0.4636591E+03  0.7818608E-02  0.1023725E+00
         -2   -1    0    0    0  501 -0.00000000000E+00  0.00000000000E+00  0.41651556101E+02  0.41651556179E+02  0.25500000000E-02 0. -1.
          2   -1    0    0  501    0  0.00000000000E+00 -0.00000000000E+00 -0.12903465812E+04  0.12903465812E+04  0.25500000000E-02 0.  1.
    5000001    1    1    2    0    0 -0.72088542933E+02 -0.14573391338E+03 -0.59789101868E+03  0.64119716293E+03  0.16500000000E+03 0.  0.
   -5000001    1    1    2    0    0  0.72088542933E+02  0.14573391338E+03 -0.65080400641E+03  0.69080097444E+03  0.16500000000E+03 0.  0.
<mgrwt>
<rscale>  0 0.46365911E+03</rscale>
<asrwt>0</asrwt>
<pdfrwt beam="1">  1        2 0.19851483E+00 0.46365911E+03</pdfrwt>
<pdfrwt beam="2">  1       -2 0.64079327E-02 0.46365911E+03</pdfrwt>
<totfact> 0.23726563E+03</totfact>
</mgrwt>
</event>
<event>
 4    1  0.9012200E-005  0.4566041E+03  0.7818608E-02  0.1025771E+00
         -2   -1    0    0    0  501 -0.00000000000E+00  0.00000000000E+00  0.39876459894E+02  0.39876459975E+02  0.25500000000E-02 0. -1.
          2   -1    0    0  501    0  0.00000000000E+00 -0.00000000000E+00 -0.13070824972E+04  0.13070824972E+04  0.25500000000E-02 0.  1.
    5000001    1    1    2    0    0 -0.10537596922E+03  0.11133370615E+03 -0.52332327898E+03  0.56972935973E+03  0.16500000000E+03 0.  0.
   -5000001    1    1    2    0    0  0.10537596922E+03 -0.11133370615E+03 -0.74388275829E+03  0.77722959741E+03  0.16500000000E+03 0.  0.
<mgrwt>
<rscale>  0 0.45660409E+03</rscale>
<asrwt>0</asrwt>
<pdfrwt beam="1">  1        2 0.20108958E+00 0.45660409E+03</pdfrwt>
<pdfrwt beam="2">  1       -2 0.61348410E-02 0.45660409E+03</pdfrwt>
<totfact> 0.24849781E+03</totfact>
</mgrwt>
</event>
<event>
 4    1  0.9012200E-005  0.4271915E+03  0.7818608E-02  0.1034751E+00
         -2   -1    0    0    0  501 -0.00000000000E+00  0.00000000000E+00  0.89657179829E+03  0.89657179829E+03  0.25500000000E-02 0. -1.
          2   -1    0    0  501    0  0.00000000000E+00 -0.00000000000E+00 -0.50886204899E+02  0.50886204963E+02  0.25500000000E-02 0.  1.
    5000001    1    1    2    0    0  0.10237106617E+03  0.12779498519E+02  0.22753125883E+03  0.29939710172E+03  0.16500000000E+03 0.  0.
   -5000001    1    1    2    0    0 -0.10237106617E+03 -0.12779498519E+02  0.61815433455E+03  0.64806090154E+03  0.16500000000E+03 0.  0.
<mgrwt>
<rscale>  0 0.42719146E+03</rscale>
<asrwt>0</asrwt>
<pdfrwt beam="1">  1        2 0.78286464E-02 0.42719146E+03</pdfrwt>
<pdfrwt beam="2">  1       -2 0.13793413E+00 0.42719146E+03</pdfrwt>
<totfact> 0.34480100E+02</totfact>
</mgrwt>
</event>
<event>
 4    1  0.9012200E-005  0.5370869E+03  0.7818608E-02  0.1004528E+00
         -2   -1    0    0    0  501 -0.00000000000E+00  0.00000000000E+00  0.45769841852E+02  0.45769841923E+02  0.25500000000E-02 0. -1.
          2   -1    0    0  501    0  0.00000000000E+00 -0.00000000000E+00 -0.15756136173E+04  0.15756136173E+04  0.25500000000E-02 0.  1.
    5000001    1    1    2    0    0  0.62410301210E+02  0.19914544575E+03 -0.87529088114E+03  0.91482953650E+03  0.16500000000E+03 0.  0.
   -5000001    1    1    2    0    0 -0.62410301210E+02 -0.19914544575E+03 -0.65455289431E+03  0.70655392272E+03  0.16500000000E+03 0.  0.
<mgrwt>
<rscale>  0 0.53708691E+03</rscale>
<asrwt>0</asrwt>
<pdfrwt beam="1">  1        2 0.24240205E+00 0.53708691E+03</pdfrwt>
<pdfrwt beam="2">  1       -2 0.70415154E-02 0.53708691E+03</pdfrwt>
<totfact> 0.14180839E+03</totfact>
</mgrwt>
</event>
<event>
 4    1  0.9012200E-005  0.4747520E+03  0.7818608E-02  0.1020588E+00
         -2   -1    0    0    0  501 -0.00000000000E+00  0.00000000000E+00  0.74776686540E+02  0.74776686583E+02  0.25500000000E-02 0. -1.
          2   -1    0    0  501    0  0.00000000000E+00 -0.00000000000E+00 -0.75354178543E+03  0.75354178544E+03  0.25500000000E-02 0.  1.
    5000001    1    1    2    0    0  0.58235717880E+02  0.12950106667E+03 -0.50453881942E+03  0.54949644713E+03  0.16500000000E+03 0.  0.
   -5000001    1    1    2    0    0 -0.58235717880E+02 -0.12950106667E+03 -0.17422627947E+03  0.27882202489E+03  0.16500000000E+03 0.  0.
<mgrwt>
<rscale>  0 0.47475197E+03</rscale>
<asrwt>0</asrwt>
<pdfrwt beam="1">  1        2 0.11592950E+00 0.47475197E+03</pdfrwt>
<pdfrwt beam="2">  1       -2 0.11504106E-01 0.47475197E+03</pdfrwt>
<totfact> 0.20339202E+03</totfact>
</mgrwt>
</event>
<event>
 4    1  0.9012200E-005  0.4039396E+03  0.7818608E-02  0.1042424E+00
          2   -1    0    0  501    0  0.00000000000E+00  0.00000000000E+00  0.26521406779E+03  0.26521406780E+03  0.25500000000E-02 0.  1.
         -2   -1    0    0    0  501 -0.00000000000E+00 -0.00000000000E+00 -0.15380704617E+03  0.15380704619E+03  0.25500000000E-02 0. -1.
    5000001    1    1    2    0    0  0.11285368620E+03  0.97973988334E+01  0.27583302663E+02  0.20203411122E+03  0.16500000000E+03 0.  0.
   -5000001    1    1    2    0    0 -0.11285368620E+03 -0.97973988334E+01  0.83823718951E+02  0.21698700277E+03  0.16500000000E+03 0.  0.
<mgrwt>
<rscale>  0 0.40393956E+03</rscale>
<asrwt>0</asrwt>
<pdfrwt beam="1">  1        2 0.40802164E-01 0.40393956E+03</pdfrwt>
<pdfrwt beam="2">  1       -2 0.23662623E-01 0.40393956E+03</pdfrwt>
<totfact> 0.19727495E+03</totfact>
</mgrwt>
</event>
<event>
 4    1  0.9012200E-005  0.4368631E+03  0.7818608E-02  0.1031714E+00
          2   -1    0    0  501    0  0.00000000000E+00  0.00000000000E+00  0.24973159372E+04  0.24973159372E+04  0.25500000000E-02 0.  1.
         -2   -1    0    0    0  501 -0.00000000000E+00 -0.00000000000E+00 -0.19105450061E+02  0.19105450231E+02  0.25500000000E-02 0. -1.
    5000001    1    1    2    0    0 -0.73688864547E+02 -0.12110092491E+03  0.11250790124E+04  0.11459159075E+04  0.16500000000E+03 0.  0.
   -5000001    1    1    2    0    0  0.73688864547E+02  0.12110092491E+03  0.13531314747E+04  0.13705054799E+04  0.16500000000E+03 0.  0.
<mgrwt>
<rscale>  0 0.43686311E+03</rscale>
<asrwt>0</asrwt>
<pdfrwt beam="1">  1        2 0.38420229E+00 0.43686311E+03</pdfrwt>
<pdfrwt beam="2">  1       -2 0.29393013E-02 0.43686311E+03</pdfrwt>
<totfact> 0.17301248E+03</totfact>
</mgrwt>
</event>
<event>
 4    1  0.9012200E-005  0.6822378E+03  0.7818608E-02  0.9748099E-01
         -2   -1    0    0    0  501 -0.00000000000E+00  0.00000000000E+00  0.10218295364E+03  0.10218295368E+03  0.25500000000E-02 0. -1.
          2   -1    0    0  501    0  0.00000000000E+00 -0.00000000000E+00 -0.11387624379E+04  0.11387624379E+04  0.25500000000E-02 0.  1.
    5000001    1    1    2    0    0 -0.16382560591E+03  0.20723502477E+03 -0.77132379154E+03  0.83183566648E+03  0.16500000000E+03 0.  0.
   -5000001    1    1    2    0    0  0.16382560591E+03 -0.20723502477E+03 -0.26525569268E+03  0.40910972506E+03  0.16500000000E+03 0.  0.
<mgrwt>
<rscale>  0 0.68223782E+03</rscale>
<asrwt>0</asrwt>
<pdfrwt beam="1">  1        2 0.17519421E+00 0.68223782E+03</pdfrwt>
<pdfrwt beam="2">  1       -2 0.15720455E-01 0.68223782E+03</pdfrwt>
<totfact> 0.67329559E+02</totfact>
</mgrwt>
</event>
<event>
 4    1  0.9012200E-005  0.5447621E+03  0.7818608E-02  0.1002714E+00
         -2   -1    0    0    0  501 -0.00000000000E+00  0.00000000000E+00  0.15092927679E+03  0.15092927681E+03  0.25500000000E-02 0. -1.
          2   -1    0    0  501    0  0.00000000000E+00 -0.00000000000E+00 -0.49156420801E+03  0.49156420802E+03  0.25500000000E-02 0.  1.
    5000001    1    1    2    0    0  0.16413337579E+03 -0.15146965552E+02 -0.43724825008E+01  0.23326661617E+03  0.16500000000E+03 0.  0.
   -5000001    1    1    2    0    0 -0.16413337579E+03  0.15146965552E+02 -0.33626244872E+03  0.40922686866E+03  0.16500000000E+03 0.  0.
<mgrwt>
<rscale>  0 0.54476208E+03</rscale>
<asrwt>0</asrwt>
<pdfrwt beam="1">  1        2 0.75625262E-01 0.54476208E+03</pdfrwt>
<pdfrwt beam="2">  1       -2 0.23219889E-01 0.54476208E+03</pdfrwt>
<totfact> 0.10311217E+03</totfact>
</mgrwt>
</event>
<event>
 4    1  0.9012200E-005  0.8645857E+03  0.7818608E-02  0.9470967E-01
         -2   -1    0    0    0  501 -0.00000000000E+00  0.00000000000E+00  0.25445585399E+03  0.25445585400E+03  0.25500000000E-02 0. -1.
          2   -1    0    0  501    0  0.00000000000E+00 -0.00000000000E+00 -0.73441852787E+03  0.73441852788E+03  0.25500000000E-02 0.  1.
    5000001    1    1    2    0    0 -0.34636127121E+03  0.19386485435E+03 -0.29242450083E+03  0.51989114306E+03  0.16500000000E+03 0.  0.
   -5000001    1    1    2    0    0  0.34636127121E+03 -0.19386485435E+03 -0.18753817306E+03  0.46898323882E+03  0.16500000000E+03 0.  0.
<mgrwt>
<rscale>  0 0.86458567E+03</rscale>
<asrwt>0</asrwt>
<pdfrwt beam="1">  1        2 0.11298747E+00 0.86458567E+03</pdfrwt>
<pdfrwt beam="2">  1       -2 0.39147055E-01 0.86458567E+03</pdfrwt>
<totfact> 0.23856992E+02</totfact>
</mgrwt>
</event>
<event>
 4    1  0.9012200E-005  0.7441775E+03  0.7818608E-02  0.9644530E-01
         -2   -1    0    0    0  501 -0.00000000000E+00  0.00000000000E+00  0.64747262386E+02  0.64747262436E+02  0.25500000000E-02 0. -1.
          2   -1    0    0  501    0  0.00000000000E+00 -0.00000000000E+00 -0.21383147606E+04  0.21383147606E+04  0.25500000000E-02 0.  1.
    5000001    1    1    2    0    0 -0.19862747925E+03 -0.16122764838E+03 -0.40338434612E+03  0.50536240542E+03  0.16500000000E+03 0.  0.
   -5000001    1    1    2    0    0  0.19862747925E+03  0.16122764838E+03 -0.16701831521E+04  0.16976996176E+04  0.16500000000E+03 0.  0.
<mgrwt>
<rscale>  0 0.74417747E+03</rscale>
<asrwt>0</asrwt>
<pdfrwt beam="1">  1        2 0.32897145E+00 0.74417747E+03</pdfrwt>
<pdfrwt beam="2">  1       -2 0.99611189E-02 0.74417747E+03</pdfrwt>
<totfact> 0.39702516E+02</totfact>
</mgrwt>
</event>
<event>
 4    1  0.9012200E-005  0.5307104E+03  0.7818608E-02  0.1006060E+00
          2   -1    0    0  501    0  0.00000000000E+00  0.00000000000E+00  0.11450917917E+04  0.11450917917E+04  0.25500000000E-02 0.  1.
         -2   -1    0    0    0  501 -0.00000000000E+00 -0.00000000000E+00 -0.61491467461E+02  0.61491467513E+02  0.25500000000E-02 0. -1.
    5000001    1    1    2    0    0  0.19946511644E+02 -0.68863761705E+02  0.98527329378E+03  0.10015630507E+04  0.16500000000E+03 0.  0.
   -5000001    1    1    2    0    0 -0.19946511644E+02  0.68863761705E+02  0.98327030477E+02  0.20502020858E+03  0.16500000000E+03 0.  0.
<mgrwt>
<rscale>  0 0.53071037E+03</rscale>
<asrwt>0</asrwt>
<pdfrwt beam="1">  1        2 0.17616796E+00 0.53071037E+03</pdfrwt>
<pdfrwt beam="2">  1       -2 0.94602264E-02 0.53071037E+03</pdfrwt>
<totfact> 0.15514892E+03</totfact>
</mgrwt>
</event>
<event>
 4    1  0.9012200E-005  0.4837057E+03  0.7818608E-02  0.1018122E+00
          2   -1    0    0  501    0  0.00000000000E+00  0.00000000000E+00  0.98131301226E+03  0.98131301226E+03  0.25500000000E-02 0.  1.
         -2   -1    0    0    0  501 -0.00000000000E+00 -0.00000000000E+00 -0.59606681319E+02  0.59606681374E+02  0.25500000000E-02 0. -1.
    5000001    1    1    2    0    0 -0.12199446896E+03 -0.79750184742E+02  0.24538670492E+03  0.32967010385E+03  0.16500000000E+03 0.  0.
   -5000001    1    1    2    0    0  0.12199446896E+03  0.79750184742E+02  0.67631962602E+03  0.71124958979E+03  0.16500000000E+03 0.  0.
<mgrwt>
<rscale>  0 0.48370575E+03</rscale>
<asrwt>0</asrwt>
<pdfrwt beam="1">  1        2 0.15097123E+00 0.48370575E+03</pdfrwt>
<pdfrwt beam="2">  1       -2 0.91702590E-02 0.48370575E+03</pdfrwt>
<totfact> 0.20563836E+03</totfact>
</mgrwt>
</event>
<event>
 4    1  0.9012200E-005  0.5910733E+03  0.7818608E-02  0.9924101E-01
          2   -1    0    0  501    0  0.00000000000E+00  0.00000000000E+00  0.21913202550E+04  0.21913202550E+04  0.25500000000E-02 0.  1.
         -2   -1    0    0    0  501 -0.00000000000E+00 -0.00000000000E+00 -0.39858128954E+02  0.39858129036E+02  0.25500000000E-02 0. -1.
    5000001    1    1    2    0    0 -0.50102091052E+01 -0.19566643394E+03  0.51830714460E+03  0.57808109440E+03  0.16500000000E+03 0.  0.
   -5000001    1    1    2    0    0  0.50102091052E+01  0.19566643394E+03  0.16331549814E+04  0.16530972896E+04  0.16500000000E+03 0.  0.
<mgrwt>
<rscale>  0 0.59107335E+03</rscale>
<asrwt>0</asrwt>
<pdfrwt beam="1">  1        2 0.33712621E+00 0.59107335E+03</pdfrwt>
<pdfrwt beam="2">  1       -2 0.61320196E-02 0.59107335E+03</pdfrwt>
<totfact> 0.81502637E+02</totfact>
</mgrwt>
</event>
<event>
 4    1  0.9012200E-005  0.5737491E+03  0.7818608E-02  0.9961417E-01
         -2   -1    0    0    0  501 -0.00000000000E+00  0.00000000000E+00  0.28577910452E+02  0.28577910566E+02  0.25500000000E-02 0. -1.
          2   -1    0    0  501    0  0.00000000000E+00 -0.00000000000E+00 -0.28797418826E+04  0.28797418826E+04  0.25500000000E-02 0.  1.
    5000001    1    1    2    0    0  0.20019161547E+03  0.11231406133E+03 -0.16729185945E+04  0.16966357167E+04  0.16500000000E+03 0.  0.
   -5000001    1    1    2    0    0 -0.20019161547E+03 -0.11231406133E+03 -0.11782453776E+04  0.12116840765E+04  0.16500000000E+03 0.  0.
<mgrwt>
<rscale>  0 0.57374909E+03</rscale>
<asrwt>0</asrwt>
<pdfrwt beam="1">  1        2 0.44303698E+00 0.57374909E+03</pdfrwt>
<pdfrwt beam="2">  1       -2 0.43966039E-02 0.57374909E+03</pdfrwt>
<totfact> 0.55742153E+02</totfact>
</mgrwt>
</event>
<event>
 4    1  0.9012200E-005  0.7856777E+03  0.7818608E-02  0.9580983E-01
          2   -1    0    0  501    0  0.00000000000E+00  0.00000000000E+00  0.15997315438E+04  0.15997315438E+04  0.25500000000E-02 0.  1.
         -2   -1    0    0    0  501 -0.00000000000E+00 -0.00000000000E+00 -0.96467667770E+02  0.96467667803E+02  0.25500000000E-02 0. -1.
    5000001    1    1    2    0    0 -0.23737772810E+03  0.25743880242E+03  0.60722030925E+03  0.72011417619E+03  0.16500000000E+03 0.  0.
   -5000001    1    1    2    0    0  0.23737772810E+03 -0.25743880242E+03  0.89604356678E+03  0.97608503542E+03  0.16500000000E+03 0.  0.
<mgrwt>
<rscale>  0 0.78567772E+03</rscale>
<asrwt>0</asrwt>
<pdfrwt beam="1">  1        2 0.24611255E+00 0.78567772E+03</pdfrwt>
<pdfrwt beam="2">  1       -2 0.14841180E-01 0.78567772E+03</pdfrwt>
<totfact> 0.40283374E+02</totfact>
</mgrwt>
</event>
<event>
 4    1  0.9012200E-005  0.4928467E+03  0.7818608E-02  0.1015663E+00
         -2   -1    0    0    0  501 -0.00000000000E+00  0.00000000000E+00  0.54480984444E+03  0.54480984444E+03  0.25500000000E-02 0. -1.
          2   -1    0    0  501    0  0.00000000000E+00 -0.00000000000E+00 -0.11145992673E+03  0.11145992676E+03  0.25500000000E-02 0.  1.
    5000001    1    1    2    0    0 -0.95981438347E+02 -0.10361360542E+03  0.37168514133E+03  0.43049164919E+03  0.16500000000E+03 0.  0.
   -5000001    1    1    2    0    0  0.95981438347E+02  0.10361360542E+03  0.61664776381E+02  0.22577812202E+03  0.16500000000E+03 0.  0.
<mgrwt>
<rscale>  0 0.49284669E+03</rscale>
<asrwt>0</asrwt>
<pdfrwt beam="1">  1        2 0.17147681E-01 0.49284669E+03</pdfrwt>
<pdfrwt beam="2">  1       -2 0.83816899E-01 0.49284669E+03</pdfrwt>
<totfact> 0.42851547E+02</totfact>
</mgrwt>
</event>
<event>
 4    1  0.9012200E-005  0.4272951E+03  0.7818608E-02  0.1034718E+00
         -2   -1    0    0    0  501 -0.00000000000E+00  0.00000000000E+00  0.20252974580E+02  0.20252974740E+02  0.25500000000E-02 0. -1.
          2   -1    0    0  501    0  0.00000000000E+00 -0.00000000000E+00 -0.22537561683E+04  0.22537561683E+04  0.25500000000E-02 0.  1.
    5000001    1    1    2    0    0 -0.38881257627E+02 -0.12825275060E+03 -0.12308615370E+04  0.12490819203E+04  0.16500000000E+03 0.  0.
   -5000001    1    1    2    0    0  0.38881257627E+02  0.12825275060E+03 -0.10026416568E+04  0.10249272228E+04  0.16500000000E+03 0.  0.
<mgrwt>
<rscale>  0 0.42729506E+03</rscale>
<asrwt>0</asrwt>
<pdfrwt beam="1">  1        2 0.34673152E+00 0.42729506E+03</pdfrwt>
<pdfrwt beam="2">  1       -2 0.31158440E-02 0.42729506E+03</pdfrwt>
<totfact> 0.21577138E+03</totfact>
</mgrwt>
</event>
<event>
 4    1  0.9012200E-005  0.5392063E+03  0.7818608E-02  0.1004024E+00
          2   -1    0    0  501    0  0.00000000000E+00  0.00000000000E+00  0.11155265137E+03  0.11155265140E+03  0.25500000000E-02 0.  1.
         -2   -1    0    0    0  501 -0.00000000000E+00 -0.00000000000E+00 -0.65158337116E+03  0.65158337116E+03  0.25500000000E-02 0. -1.
    5000001    1    1    2    0    0 -0.21317448502E+03 -0.31676317614E+01 -0.27388036007E+03  0.38430306607E+03  0.16500000000E+03 0.  0.
   -5000001    1    1    2    0    0  0.21317448502E+03  0.31676317614E+01 -0.26615035971E+03  0.37883295650E+03  0.16500000000E+03 0.  0.
<mgrwt>
<rscale>  0 0.53920628E+03</rscale>
<asrwt>0</asrwt>
<pdfrwt beam="1">  1        2 0.17161947E-01 0.53920628E+03</pdfrwt>
<pdfrwt beam="2">  1       -2 0.10024359E+00 0.53920628E+03</pdfrwt>
<totfact> 0.28329785E+02</totfact>
</mgrwt>
</event>
<event>
 4    1  0.9012200E-005  0.5988398E+03  0.7818608E-02  0.9907816E-01
          2   -1    0    0  501    0  0.00000000000E+00  0.00000000000E+00  0.50223237239E+03  0.50223237239E+03  0.25500000000E-02 0.  1.
         -2   -1    0    0    0  501 -0.00000000000E+00 -0.00000000000E+00 -0.17850753490E+03  0.17850753492E+03  0.25500000000E-02 0. -1.
    5000001    1    1    2    0    0 -0.85133309478E+02  0.85558122795E+02 -0.86825201979E+02  0.22210693023E+03  0.16500000000E+03 0.  0.
   -5000001    1    1    2    0    0  0.85133309478E+02 -0.85558122795E+02  0.41055003947E+03  0.45863297708E+03  0.16500000000E+03 0.  0.
<mgrwt>
<rscale>  0 0.59883975E+03</rscale>
<asrwt>0</asrwt>
<pdfrwt beam="1">  1        2 0.77266519E-01 0.59883975E+03</pdfrwt>
<pdfrwt beam="2">  1       -2 0.27462698E-01 0.59883975E+03</pdfrwt>
<totfact> 0.74351375E+02</totfact>
</mgrwt>
</event>
<event>
 4    1  0.9012200E-005  0.5846331E+03  0.7818608E-02  0.9937811E-01
         -2   -1    0    0    0  501 -0.00000000000E+00  0.00000000000E+00  0.11834253289E+03  0.11834253292E+03  0.25500000000E-02 0. -1.
          2   -1    0    0  501    0  0.00000000000E+00 -0.00000000000E+00 -0.72204777837E+03  0.72204777837E+03  0.25500000000E-02 0.  1.
    5000001    1    1    2    0    0 -0.17172198358E+03  0.10016841748E+03 -0.49843269043E+03  0.56141098885E+03  0.16500000000E+03 0.  0.
   -5000001    1    1    2    0    0  0.17172198358E+03 -0.10016841748E+03 -0.10527255504E+03  0.27897932244E+03  0.16500000000E+03 0.  0.
<mgrwt>
<rscale>  0 0.58463309E+03</rscale>
<asrwt>0</asrwt>
<pdfrwt beam="1">  1        2 0.11108427E+00 0.58463309E+03</pdfrwt>
<pdfrwt beam="2">  1       -2 0.18206544E-01 0.58463309E+03</pdfrwt>
<totfact> 0.99463216E+02</totfact>
</mgrwt>
</event>
<event>
 4    1  0.9012200E-005  0.1333361E+04  0.7818608E-02  0.9003520E-01
         -2   -1    0    0    0  501 -0.00000000000E+00  0.00000000000E+00  0.14594000375E+03  0.14594000378E+03  0.25500000000E-02 0. -1.
          2   -1    0    0  501    0  0.00000000000E+00 -0.00000000000E+00 -0.30455169243E+04  0.30455169243E+04  0.25500000000E-02 0.  1.
    5000001    1    1    2    0    0  0.19612651523E+03  0.59595498584E+03 -0.18175678829E+04  0.19298720072E+04  0.16500000000E+03 0.  0.
   -5000001    1    1    2    0    0 -0.19612651523E+03 -0.59595498584E+03 -0.10820090377E+04  0.12615849210E+04  0.16500000000E+03 0.  0.
<mgrwt>
<rscale>  0 0.13333608E+04</rscale>
<asrwt>0</asrwt>
<pdfrwt beam="1">  1        2 0.46854102E+00 0.13333608E+04</pdfrwt>
<pdfrwt beam="2">  1       -2 0.22452311E-01 0.13333608E+04</pdfrwt>
<totfact> 0.28067317E+01</totfact>
</mgrwt>
</event>
<event>
 4    1  0.9012200E-005  0.3750404E+03  0.7818608E-02  0.1052782E+00
         -2   -1    0    0    0  501 -0.00000000000E+00  0.00000000000E+00  0.72097166544E+02  0.72097166589E+02  0.25500000000E-02 0. -1.
          2   -1    0    0  501    0  0.00000000000E+00 -0.00000000000E+00 -0.48772816747E+03  0.48772816748E+03  0.25500000000E-02 0.  1.
    5000001    1    1    2    0    0 -0.74212722874E+02 -0.87542094095E+01 -0.28024877714E+03  0.33368928887E+03  0.16500000000E+03 0.  0.
   -5000001    1    1    2    0    0  0.74212722874E+02  0.87542094095E+01 -0.13538222378E+03  0.22613604519E+03  0.16500000000E+03 0.  0.
<mgrwt>
<rscale>  0 0.37504037E+03</rscale>
<asrwt>0</asrwt>
<pdfrwt beam="1">  1        2 0.75035101E-01 0.37504037E+03</pdfrwt>
<pdfrwt beam="2">  1       -2 0.11091872E-01 0.37504037E+03</pdfrwt>
<totfact> 0.36144595E+03</totfact>
</mgrwt>
</event>
<event>
 4    1  0.9012200E-005  0.4725065E+03  0.7818608E-02  0.1021215E+00
          2   -1    0    0  501    0  0.00000000000E+00  0.00000000000E+00  0.13001846651E+03  0.13001846653E+03  0.25500000000E-02 0.  1.
         -2   -1    0    0    0  501 -0.00000000000E+00 -0.00000000000E+00 -0.42928977598E+03  0.42928977599E+03  0.25500000000E-02 0. -1.
    5000001    1    1    2    0    0  0.67052082932E+02  0.15501658245E+03 -0.14013088717E+03  0.27456836708E+03  0.16500000000E+03 0.  0.
   -5000001    1    1    2    0    0 -0.67052082932E+02 -0.15501658245E+03 -0.15914042230E+03  0.28473987545E+03  0.16500000000E+03 0.  0.
<mgrwt>
<rscale>  0 0.47250650E+03</rscale>
<asrwt>0</asrwt>
<pdfrwt beam="1">  1        2 0.20002841E-01 0.47250650E+03</pdfrwt>
<pdfrwt beam="2">  1       -2 0.66044580E-01 0.47250650E+03</pdfrwt>
<totfact> 0.60337117E+02</totfact>
</mgrwt>
</event>
<event>
 4    1  0.9012200E-005  0.4775369E+03  0.7818608E-02  0.1019814E+00
         -2   -1    0    0    0  501 -0.00000000000E+00  0.00000000000E+00  0.32134179083E+02  0.32134179184E+02  0.25500000000E-02 0. -1.
          2   -1    0    0  501    0  0.00000000000E+00 -0.00000000000E+00 -0.17741351005E+04  0.17741351005E+04  0.25500000000E-02 0.  1.
    5000001    1    1    2    0    0 -0.41644918662E+02 -0.11596769312E+03 -0.41392258582E+03  0.46231992402E+03  0.16500000000E+03 0.  0.
   -5000001    1    1    2    0    0  0.41644918662E+02  0.11596769312E+03 -0.13280783356E+04  0.13439493557E+04  0.16500000000E+03 0.  0.
<mgrwt>
<rscale>  0 0.47753691E+03</rscale>
<asrwt>0</asrwt>
<pdfrwt beam="1">  1        2 0.27294379E+00 0.47753691E+03</pdfrwt>
<pdfrwt beam="2">  1       -2 0.49437212E-02 0.47753691E+03</pdfrwt>
<totfact> 0.19273850E+03</totfact>
</mgrwt>
</event>
<event>
 4    1  0.9012200E-005  0.4538503E+03  0.7818608E-02  0.1026580E+00
         -2   -1    0    0    0  501 -0.00000000000E+00  0.00000000000E+00  0.24882507010E+02  0.24882507141E+02  0.25500000000E-02 0. -1.
          2   -1    0    0  501    0  0.00000000000E+00 -0.00000000000E+00 -0.20695267164E+04  0.20695267164E+04  0.25500000000E-02 0.  1.
    5000001    1    1    2    0    0 -0.12509901905E+03  0.92121821294E+02 -0.10757056318E+04  0.10993196991E+04  0.16500000000E+03 0.  0.
   -5000001    1    1    2    0    0  0.12509901905E+03 -0.92121821294E+02 -0.96893857756E+03  0.99508952442E+03  0.16500000000E+03 0.  0.
<mgrwt>
<rscale>  0 0.45385025E+03</rscale>
<asrwt>0</asrwt>
<pdfrwt beam="1">  1        2 0.31838859E+00 0.45385025E+03</pdfrwt>
<pdfrwt beam="2">  1       -2 0.38280796E-02 0.45385025E+03</pdfrwt>
<totfact> 0.19826902E+03</totfact>
</mgrwt>
</event>
<event>
 4    1  0.9012200E-005  0.4674164E+03  0.7818608E-02  0.1022652E+00
         -2   -1    0    0    0  501 -0.00000000000E+00  0.00000000000E+00  0.96172658381E+02  0.96172658415E+02  0.25500000000E-02 0. -1.
          2   -1    0    0  501    0  0.00000000000E+00 -0.00000000000E+00 -0.56793182599E+03  0.56793182599E+03  0.25500000000E-02 0.  1.
    5000001    1    1    2    0    0  0.72844880654E+02 -0.14386105997E+03 -0.28889140883E+03  0.36971019368E+03  0.16500000000E+03 0.  0.
   -5000001    1    1    2    0    0 -0.72844880654E+02  0.14386105997E+03 -0.18286775877E+03  0.29439429073E+03  0.16500000000E+03 0.  0.
<mgrwt>
<rscale>  0 0.46741636E+03</rscale>
<asrwt>0</asrwt>
<pdfrwt beam="1">  1        2 0.87374125E-01 0.46741636E+03</pdfrwt>
<pdfrwt beam="2">  1       -2 0.14795794E-01 0.46741636E+03</pdfrwt>
<totfact> 0.18942539E+03</totfact>
</mgrwt>
</event>
<event>
 4    1  0.9012200E-005  0.5196704E+03  0.7818608E-02  0.1008768E+00
         -2   -1    0    0    0  501 -0.00000000000E+00  0.00000000000E+00  0.28246765031E+02  0.28246765146E+02  0.25500000000E-02 0. -1.
          2   -1    0    0  501    0  0.00000000000E+00 -0.00000000000E+00 -0.23901617716E+04  0.23901617716E+04  0.25500000000E-02 0.  1.
    5000001    1    1    2    0    0 -0.18496869245E+03  0.35900408070E+02 -0.15029435707E+04  0.15236688069E+04  0.16500000000E+03 0.  0.
   -5000001    1    1    2    0    0  0.18496869245E+03 -0.35900408070E+02 -0.85897143589E+03  0.89473972984E+03  0.16500000000E+03 0.  0.
<mgrwt>
<rscale>  0 0.51967043E+03</rscale>
<asrwt>0</asrwt>
<pdfrwt beam="1">  1        2 0.36771704E+00 0.51967043E+03</pdfrwt>
<pdfrwt beam="2">  1       -2 0.43456581E-02 0.51967043E+03</pdfrwt>
<totfact> 0.10871890E+03</totfact>
</mgrwt>
</event>
<event>
 4    1  0.9012200E-005  0.6041742E+03  0.7818608E-02  0.9896784E-01
         -2   -1    0    0    0  501 -0.00000000000E+00  0.00000000000E+00  0.84238046606E+02  0.84238046644E+02  0.25500000000E-02 0. -1.
          2   -1    0    0  501    0  0.00000000000E+00 -0.00000000000E+00 -0.10833181149E+04  0.10833181149E+04  0.25500000000E-02 0.  1.
    5000001    1    1    2    0    0 -0.23877142821E+03  0.40657756520E+02 -0.64111011279E+03  0.70491987120E+03  0.16500000000E+03 0.  0.
   -5000001    1    1    2    0    0  0.23877142821E+03 -0.40657756520E+02 -0.35796995550E+03  0.46263629033E+03  0.16500000000E+03 0.  0.
<mgrwt>
<rscale>  0 0.60417415E+03</rscale>
<asrwt>0</asrwt>
<pdfrwt beam="1">  1        2 0.16666432E+00 0.60417415E+03</pdfrwt>
<pdfrwt beam="2">  1       -2 0.12959700E-01 0.60417415E+03</pdfrwt>
<totfact> 0.10087497E+03</totfact>
</mgrwt>
</event>
<event>
 4    1  0.9012200E-005  0.4324204E+03  0.7818608E-02  0.1033098E+00
          2   -1    0    0  501    0  0.00000000000E+00  0.00000000000E+00  0.90977739013E+03  0.90977739013E+03  0.25500000000E-02 0.  1.
         -2   -1    0    0    0  501 -0.00000000000E+00 -0.00000000000E+00 -0.51382743503E+02  0.51382743567E+02  0.25500000000E-02 0. -1.
    5000001    1    1    2    0    0  0.34301074978E+02  0.12920413243E+03  0.33886561324E+03  0.39990645833E+03  0.16500000000E+03 0.  0.
   -5000001    1    1    2    0    0 -0.34301074978E+02 -0.12920413243E+03  0.51952903339E+03  0.56125367537E+03  0.16500000000E+03 0.  0.
<mgrwt>
<rscale>  0 0.43242044E+03</rscale>
<asrwt>0</asrwt>
<pdfrwt beam="1">  1        2 0.13996575E+00 0.43242044E+03</pdfrwt>
<pdfrwt beam="2">  1       -2 0.79050376E-02 0.43242044E+03</pdfrwt>
<totfact> 0.28956705E+03</totfact>
</mgrwt>
</event>
<event>
 4    1  0.9012200E-005  0.3867632E+03  0.7818608E-02  0.1048462E+00
          2   -1    0    0  501    0  0.00000000000E+00  0.00000000000E+00  0.23343762171E+04  0.23343762171E+04  0.25500000000E-02 0.  1.
         -2   -1    0    0    0  501 -0.00000000000E+00 -0.00000000000E+00 -0.16019882870E+02  0.16019883073E+02  0.25500000000E-02 0. -1.
    5000001    1    1    2    0    0 -0.73096704947E+02  0.69389600598E+02  0.11369415929E+04  0.11532645970E+04  0.16500000000E+03 0.  0.
   -5000001    1    1    2    0    0  0.73096704947E+02 -0.69389600598E+02  0.11814147413E+04  0.11971315032E+04  0.16500000000E+03 0.  0.
<mgrwt>
<rscale>  0 0.38676315E+03</rscale>
<asrwt>0</asrwt>
<pdfrwt beam="1">  1        2 0.35913494E+00 0.38676315E+03</pdfrwt>
<pdfrwt beam="2">  1       -2 0.24645964E-02 0.38676315E+03</pdfrwt>
<totfact> 0.27806413E+03</totfact>
</mgrwt>
</event>
<event>
 4    1  0.9012200E-005  0.6920638E+03  0.7818608E-02  0.9730901E-01
         -2   -1    0    0    0  501 -0.00000000000E+00  0.00000000000E+00  0.78835649768E+02  0.78835649809E+02  0.25500000000E-02 0. -1.
          2   -1    0    0  501    0  0.00000000000E+00 -0.00000000000E+00 -0.15188316357E+04  0.15188316357E+04  0.25500000000E-02 0.  1.
    5000001    1    1    2    0    0 -0.76325914258E+02 -0.13612878709E+03 -0.11730868889E+03  0.25562280875E+03  0.16500000000E+03 0.  0.
   -5000001    1    1    2    0    0  0.76325914258E+02  0.13612878709E+03 -0.13226872971E+04  0.13420444768E+04  0.16500000000E+03 0.  0.
<mgrwt>
<rscale>  0 0.69206381E+03</rscale>
<asrwt>0</asrwt>
<pdfrwt beam="1">  1        2 0.23366639E+00 0.69206381E+03</pdfrwt>
<pdfrwt beam="2">  1       -2 0.12128563E-01 0.69206381E+03</pdfrwt>
<totfact> 0.62911006E+02</totfact>
</mgrwt>
</event>
<event>
 4    1  0.9012200E-005  0.3852887E+03  0.7818608E-02  0.1048996E+00
          2   -1    0    0  501    0  0.00000000000E+00  0.00000000000E+00  0.46692710926E+03  0.46692710927E+03  0.25500000000E-02 0.  1.
         -2   -1    0    0    0  501 -0.00000000000E+00 -0.00000000000E+00 -0.79481027370E+02  0.79481027411E+02  0.25500000000E-02 0. -1.
    5000001    1    1    2    0    0  0.89119343619E+02 -0.27764108905E+02  0.14513633808E+03  0.23875229796E+03  0.16500000000E+03 0.  0.
   -5000001    1    1    2    0    0 -0.89119343619E+02  0.27764108905E+02  0.24230974381E+03  0.30765583872E+03  0.16500000000E+03 0.  0.
<mgrwt>
<rscale>  0 0.38528870E+03</rscale>
<asrwt>0</asrwt>
<pdfrwt beam="1">  1        2 0.71834940E-01 0.38528870E+03</pdfrwt>
<pdfrwt beam="2">  1       -2 0.12227850E-01 0.38528870E+03</pdfrwt>
<totfact> 0.32415578E+03</totfact>
</mgrwt>
</event>
<event>
 4    1  0.9012200E-005  0.5895302E+03  0.7818608E-02  0.9927369E-01
         -2   -1    0    0    0  501 -0.00000000000E+00  0.00000000000E+00  0.10968009810E+03  0.10968009813E+03  0.25500000000E-02 0. -1.
          2   -1    0    0  501    0  0.00000000000E+00 -0.00000000000E+00 -0.79218063440E+03  0.79218063441E+03  0.25500000000E-02 0.  1.
    5000001    1    1    2    0    0 -0.19862476399E+03  0.12660831363E+03 -0.44015588628E+03  0.52577910397E+03  0.16500000000E+03 0.  0.
   -5000001    1    1    2    0    0  0.19862476399E+03 -0.12660831363E+03 -0.24234465002E+03  0.37608162857E+03  0.16500000000E+03 0.  0.
<mgrwt>
<rscale>  0 0.58953015E+03</rscale>
<asrwt>0</asrwt>
<pdfrwt beam="1">  1        2 0.12187394E+00 0.58953015E+03</pdfrwt>
<pdfrwt beam="2">  1       -2 0.16873862E-01 0.58953015E+03</pdfrwt>
<totfact> 0.10055384E+03</totfact>
</mgrwt>
</event>
<event>
 4    1  0.9012200E-005  0.8193721E+03  0.7818608E-02  0.9532392E-01
         -2   -1    0    0    0  501 -0.00000000000E+00  0.00000000000E+00  0.95640505803E+03  0.95640505803E+03  0.25500000000E-02 0. -1.
          2   -1    0    0  501    0  0.00000000000E+00 -0.00000000000E+00 -0.17549328127E+03  0.17549328129E+03  0.25500000000E-02 0.  1.
    5000001    1    1    2    0    0 -0.17795453515E+03 -0.30784059229E+03  0.55497859253E+03  0.67945557987E+03  0.16500000000E+03 0.  0.
   -5000001    1    1    2    0    0  0.17795453515E+03  0.30784059229E+03  0.22593318423E+03  0.45244275945E+03  0.16500000000E+03 0.  0.
<mgrwt>
<rscale>  0 0.81937211E+03</rscale>
<asrwt>0</asrwt>
<pdfrwt beam="1">  1        2 0.26998966E-01 0.81937211E+03</pdfrwt>
<pdfrwt beam="2">  1       -2 0.14713924E+00 0.81937211E+03</pdfrwt>
<totfact> 0.63718151E+01</totfact>
</mgrwt>
</event>
<event>
 4    1  0.9012200E-005  0.6747902E+03  0.7818608E-02  0.9761343E-01
          2   -1    0    0  501    0  0.00000000000E+00  0.00000000000E+00  0.14522741166E+04  0.14522741166E+04  0.25500000000E-02 0.  1.
         -2   -1    0    0    0  501 -0.00000000000E+00 -0.00000000000E+00 -0.78384275507E+02  0.78384275549E+02  0.25500000000E-02 0. -1.
    5000001    1    1    2    0    0 -0.82210839306E+01 -0.29139535205E+03  0.77857090009E+03  0.84757093148E+03  0.16500000000E+03 0.  0.
   -5000001    1    1    2    0    0  0.82210839306E+01  0.29139535205E+03  0.59531894100E+03  0.68308746067E+03  0.16500000000E+03 0.  0.
<mgrwt>
<rscale>  0 0.67479020E+03</rscale>
<asrwt>0</asrwt>
<pdfrwt beam="1">  1        2 0.22342678E+00 0.67479020E+03</pdfrwt>
<pdfrwt beam="2">  1       -2 0.12059120E-01 0.67479020E+03</pdfrwt>
<totfact> 0.69224191E+02</totfact>
</mgrwt>
</event>
<event>
 4    1  0.9012200E-005  0.1330108E+04  0.7818608E-02  0.9006024E-01
          2   -1    0    0  501    0  0.00000000000E+00  0.00000000000E+00  0.75117044029E+03  0.75117044030E+03  0.25500000000E-02 0.  1.
         -2   -1    0    0    0  501 -0.00000000000E+00 -0.00000000000E+00 -0.58880999049E+03  0.58880999049E+03  0.25500000000E-02 0. -1.
    5000001    1    1    2    0    0  0.22453037308E+03  0.60096479304E+03  0.14077238377E+03  0.67721077586E+03  0.16500000000E+03 0.  0.
   -5000001    1    1    2    0    0 -0.22453037308E+03 -0.60096479304E+03  0.21588066031E+02  0.66276965493E+03  0.16500000000E+03 0.  0.
<mgrwt>
<rscale>  0 0.13301078E+04</rscale>
<asrwt>0</asrwt>
<pdfrwt beam="1">  1        2 0.11556468E+00 0.13301078E+04</pdfrwt>
<pdfrwt beam="2">  1       -2 0.90586152E-01 0.13301078E+04</pdfrwt>
<totfact> 0.38122938E+01</totfact>
</mgrwt>
</event>
<event>
 4    1  0.9012200E-005  0.4534722E+03  0.7818608E-02  0.1026692E+00
          2   -1    0    0  501    0  0.00000000000E+00  0.00000000000E+00  0.17839390222E+03  0.17839390224E+03  0.25500000000E-02 0.  1.
         -2   -1    0    0    0  501 -0.00000000000E+00 -0.00000000000E+00 -0.28817833859E+03  0.28817833860E+03  0.25500000000E-02 0. -1.
    5000001    1    1    2    0    0 -0.14884441820E+03  0.32609192245E+01 -0.86613006929E+01  0.22240798671E+03  0.16500000000E+03 0.  0.
   -5000001    1    1    2    0    0  0.14884441820E+03 -0.32609192245E+01 -0.10112313567E+03  0.24416425413E+03  0.16500000000E+03 0.  0.
<mgrwt>
<rscale>  0 0.45347220E+03</rscale>
<asrwt>0</asrwt>
<pdfrwt beam="1">  1        2 0.27445216E-01 0.45347220E+03</pdfrwt>
<pdfrwt beam="2">  1       -2 0.44335129E-01 0.45347220E+03</pdfrwt>
<totfact> 0.95140698E+02</totfact>
</mgrwt>
</event>
<event>
 4    1  0.9012200E-005  0.4495554E+03  0.7818608E-02  0.1027855E+00
         -2   -1    0    0    0  501 -0.00000000000E+00  0.00000000000E+00  0.42926140395E+02  0.42926140471E+02  0.25500000000E-02 0. -1.
          2   -1    0    0  501    0  0.00000000000E+00 -0.00000000000E+00 -0.11770221473E+04  0.11770221473E+04  0.25500000000E-02 0.  1.
    5000001    1    1    2    0    0  0.60763907501E+02  0.45794077475E+02 -0.20795284912E+03  0.27614984599E+03  0.16500000000E+03 0.  0.
   -5000001    1    1    2    0    0 -0.60763907501E+02 -0.45794077475E+02 -0.92614315774E+03  0.94379844173E+03  0.16500000000E+03 0.  0.
<mgrwt>
<rscale>  0 0.44955542E+03</rscale>
<asrwt>0</asrwt>
<pdfrwt beam="1">  1        2 0.18108031E+00 0.44955542E+03</pdfrwt>
<pdfrwt beam="2">  1       -2 0.66040225E-02 0.44955542E+03</pdfrwt>
<totfact> 0.26306761E+03</totfact>
</mgrwt>
</event>
<event>
 4    1  0.9012200E-005  0.7195586E+03  0.7818608E-02  0.9684357E-01
         -2   -1    0    0    0  501 -0.00000000000E+00  0.00000000000E+00  0.97344811255E+02  0.97344811288E+02  0.25500000000E-02 0. -1.
          2   -1    0    0  501    0  0.00000000000E+00 -0.00000000000E+00 -0.13297178835E+04  0.13297178835E+04  0.25500000000E-02 0.  1.
    5000001    1    1    2    0    0 -0.18932787467E+03 -0.24082488119E+03 -0.43469535129E+03  0.55680042741E+03  0.16500000000E+03 0.  0.
   -5000001    1    1    2    0    0  0.18932787467E+03  0.24082488119E+03 -0.79767772099E+03  0.87026226742E+03  0.16500000000E+03 0.  0.
<mgrwt>
<rscale>  0 0.71955858E+03</rscale>
<asrwt>0</asrwt>
<pdfrwt beam="1">  1        2 0.20457197E+00 0.71955858E+03</pdfrwt>
<pdfrwt beam="2">  1       -2 0.14976126E-01 0.71955858E+03</pdfrwt>
<totfact> 0.56411354E+02</totfact>
</mgrwt>
</event>
<event>
 4    1  0.9012200E-005  0.4728468E+03  0.7818608E-02  0.1021120E+00
         -2   -1    0    0    0  501 -0.00000000000E+00  0.00000000000E+00  0.60835980652E+02  0.60835980705E+02  0.25500000000E-02 0. -1.
          2   -1    0    0  501    0  0.00000000000E+00 -0.00000000000E+00 -0.91879871759E+03  0.91879871759E+03  0.25500000000E-02 0.  1.
    5000001    1    1    2    0    0 -0.11573050461E+03 -0.91043918053E+02 -0.60217621519E+03  0.64150116045E+03  0.16500000000E+03 0.  0.
   -5000001    1    1    2    0    0  0.11573050461E+03  0.91043918053E+02 -0.25578652175E+03  0.33813353785E+03  0.16500000000E+03 0.  0.
<mgrwt>
<rscale>  0 0.47284679E+03</rscale>
<asrwt>0</asrwt>
<pdfrwt beam="1">  1        2 0.14135364E+00 0.47284679E+03</pdfrwt>
<pdfrwt beam="2">  1       -2 0.93593823E-02 0.47284679E+03</pdfrwt>
<totfact> 0.21834095E+03</totfact>
</mgrwt>
</event>
<event>
 4    1  0.9012200E-005  0.5583620E+03  0.7818608E-02  0.9995768E-01
          2   -1    0    0  501    0  0.00000000000E+00  0.00000000000E+00  0.22025021060E+04  0.22025021060E+04  0.25500000000E-02 0.  1.
         -2   -1    0    0    0  501 -0.00000000000E+00 -0.00000000000E+00 -0.35387947164E+02  0.35387947256E+02  0.25500000000E-02 0. -1.
    5000001    1    1    2    0    0  0.22192962465E+03  0.38214798712E+02  0.10914712682E+04  0.11266089199E+04  0.16500000000E+03 0.  0.
   -5000001    1    1    2    0    0 -0.22192962465E+03 -0.38214798712E+02  0.10756428907E+04  0.11112811334E+04  0.16500000000E+03 0.  0.
<mgrwt>
<rscale>  0 0.55836199E+03</rscale>
<asrwt>0</asrwt>
<pdfrwt beam="1">  1        2 0.33884651E+00 0.55836199E+03</pdfrwt>
<pdfrwt beam="2">  1       -2 0.54442990E-02 0.55836199E+03</pdfrwt>
<totfact> 0.97006911E+02</totfact>
</mgrwt>
</event>
<event>
 4    1  0.9012200E-005  0.4637391E+03  0.7818608E-02  0.1023702E+00
          2   -1    0    0  501    0  0.00000000000E+00  0.00000000000E+00  0.46946779028E+02  0.46946779097E+02  0.25500000000E-02 0. -1.
         -2   -1    0    0    0  501 -0.00000000000E+00 -0.00000000000E+00 -0.11452009747E+04  0.11452009747E+04  0.25500000000E-02 0.  1.
    5000001    1    1    2    0    0  0.13799397779E+03 -0.85906451743E+02 -0.57684342024E+03  0.62160726173E+03  0.16500000000E+03 0.  0.
   -5000001    1    1    2    0    0 -0.13799397779E+03  0.85906451743E+02 -0.52141077542E+03  0.57054049206E+03  0.16500000000E+03 0.  0.
<mgrwt>
<rscale>  0 0.46373914E+03</rscale>
<asrwt>0</asrwt>
<pdfrwt beam="1">  1        2 0.72225823E-02 0.46373914E+03</pdfrwt>
<pdfrwt beam="2">  1       -2 0.17618474E+00 0.46373914E+03</pdfrwt>
<totfact> 0.19967586E+02</totfact>
</mgrwt>
</event>
<event>
 4    1  0.9012200E-005  0.6857086E+03  0.7818608E-02  0.9741989E-01
          2   -1    0    0  501    0  0.00000000000E+00  0.00000000000E+00  0.39208143064E+04  0.39208143064E+04  0.25500000000E-02 0.  1.
         -2   -1    0    0    0  501 -0.00000000000E+00 -0.00000000000E+00 -0.29980777801E+02  0.29980777909E+02  0.25500000000E-02 0. -1.
    5000001    1    1    2    0    0  0.20396043352E+02  0.29891633011E+03  0.18094263535E+04  0.18414710695E+04  0.16500000000E+03 0.  0.
   -5000001    1    1    2    0    0 -0.20396043352E+02 -0.29891633011E+03  0.20814071750E+04  0.21093240148E+04  0.16500000000E+03 0.  0.
<mgrwt>
<rscale>  0 0.68570858E+03</rscale>
<asrwt>0</asrwt>
<pdfrwt beam="1">  1        2 0.60320183E+00 0.68570858E+03</pdfrwt>
<pdfrwt beam="2">  1       -2 0.46124302E-02 0.68570858E+03</pdfrwt>
<totfact> 0.10269289E+02</totfact>
</mgrwt>
</event>
<event>
 4    1  0.9012200E-005  0.5207885E+03  0.7818608E-02  0.1008491E+00
         -2   -1    0    0    0  501 -0.00000000000E+00  0.00000000000E+00  0.15944246131E+03  0.15944246133E+03  0.25500000000E-02 0. -1.
          2   -1    0    0  501    0  0.00000000000E+00 -0.00000000000E+00 -0.42526419835E+03  0.42526419835E+03  0.25500000000E-02 0.  1.
    5000001    1    1    2    0    0 -0.51375897023E+02  0.19457398724E+03 -0.14305600532E+03  0.29696555350E+03  0.16500000000E+03 0.  0.
   -5000001    1    1    2    0    0  0.51375897023E+02 -0.19457398724E+03 -0.12276573172E+03  0.28774110619E+03  0.16500000000E+03 0.  0.
<mgrwt>
<rscale>  0 0.52078852E+03</rscale>
<asrwt>0</asrwt>
<pdfrwt beam="1">  1        2 0.65425261E-01 0.52078852E+03</pdfrwt>
<pdfrwt beam="2">  1       -2 0.24529610E-01 0.52078852E+03</pdfrwt>
<totfact> 0.11020492E+03</totfact>
</mgrwt>
</event>
<event>
 4    1  0.9012200E-005  0.4831111E+03  0.7818608E-02  0.1018284E+00
         -2   -1    0    0    0  501 -0.00000000000E+00  0.00000000000E+00  0.16859317136E+02  0.16859317329E+02  0.25500000000E-02 0. -1.
          2   -1    0    0  501    0  0.00000000000E+00 -0.00000000000E+00 -0.34609395262E+04  0.34609395262E+04  0.25500000000E-02 0.  1.
    5000001    1    1    2    0    0 -0.15995733717E+03  0.62884073198E+02 -0.14355946369E+04  0.14552311562E+04  0.16500000000E+03 0.  0.
   -5000001    1    1    2    0    0  0.15995733717E+03 -0.62884073198E+02 -0.20084855721E+04  0.20225676873E+04  0.16500000000E+03 0.  0.
<mgrwt>
<rscale>  0 0.48311107E+03</rscale>
<asrwt>0</asrwt>
<pdfrwt beam="1">  1        2 0.53245167E+00 0.48311107E+03</pdfrwt>
<pdfrwt beam="2">  1       -2 0.25937439E-02 0.48311107E+03</pdfrwt>
<totfact> 0.54343791E+02</totfact>
</mgrwt>
</event>
<event>
 4    1  0.9012200E-005  0.7032037E+03  0.7818608E-02  0.9711769E-01
         -2   -1    0    0    0  501 -0.00000000000E+00  0.00000000000E+00  0.13742002088E+03  0.13742002090E+03  0.25500000000E-02 0. -1.
          2   -1    0    0  501    0  0.00000000000E+00 -0.00000000000E+00 -0.89960587314E+03  0.89960587314E+03  0.25500000000E-02 0.  1.
    5000001    1    1    2    0    0  0.23279848113E+03  0.29977960563E+02 -0.68080898892E+03  0.73879610877E+03  0.16500000000E+03 0.  0.
   -5000001    1    1    2    0    0 -0.23279848113E+03 -0.29977960563E+02 -0.81376863336E+02  0.29822978527E+03  0.16500000000E+03 0.  0.
<mgrwt>
<rscale>  0 0.70320369E+03</rscale>
<asrwt>0</asrwt>
<pdfrwt beam="1">  1        2 0.13840090E+00 0.70320369E+03</pdfrwt>
<pdfrwt beam="2">  1       -2 0.21141542E-01 0.70320369E+03</pdfrwt>
<totfact> 0.57128446E+02</totfact>
</mgrwt>
</event>
<event>
 4    1  0.9012200E-005  0.1399309E+04  0.7818608E-02  0.8954319E-01
          2   -1    0    0  501    0  0.00000000000E+00  0.00000000000E+00  0.68169783221E+03  0.68169783222E+03  0.25500000000E-02 0.  1.
         -2   -1    0    0    0  501 -0.00000000000E+00 -0.00000000000E+00 -0.71808375118E+03  0.71808375118E+03  0.25500000000E-02 0. -1.
    5000001    1    1    2    0    0  0.60239172234E+03  0.10875155235E+03  0.27786053522E+03  0.69219517790E+03  0.16500000000E+03 0.  0.
   -5000001    1    1    2    0    0 -0.60239172234E+03 -0.10875155235E+03 -0.31424645418E+03  0.70758640550E+03  0.16500000000E+03 0.  0.
<mgrwt>
<rscale>  0 0.13993086E+04</rscale>
<asrwt>0</asrwt>
<pdfrwt beam="1">  1        2 0.10487659E+00 0.13993086E+04</pdfrwt>
<pdfrwt beam="2">  1       -2 0.11047442E+00 0.13993086E+04</pdfrwt>
<totfact> 0.26814510E+01</totfact>
</mgrwt>
</event>
<event>
 4    1  0.9012200E-005  0.3788638E+03  0.7818608E-02  0.1051354E+00
         -2   -1    0    0    0  501 -0.00000000000E+00  0.00000000000E+00  0.14363806485E+03  0.14363806488E+03  0.25500000000E-02 0. -1.
          2   -1    0    0  501    0  0.00000000000E+00 -0.00000000000E+00 -0.24982547013E+03  0.24982547014E+03  0.25500000000E-02 0.  1.
    5000001    1    1    2    0    0 -0.48565001443E+02  0.61709774019E+02 -0.10494556302E+03  0.21072547728E+03  0.16500000000E+03 0.  0.
   -5000001    1    1    2    0    0  0.48565001443E+02 -0.61709774019E+02 -0.12418422501E+01  0.18273805774E+03  0.16500000000E+03 0.  0.
<mgrwt>
<rscale>  0 0.37886381E+03</rscale>
<asrwt>0</asrwt>
<pdfrwt beam="1">  1        2 0.38434688E-01 0.37886381E+03</pdfrwt>
<pdfrwt beam="2">  1       -2 0.22098164E-01 0.37886381E+03</pdfrwt>
<totfact> 0.23725809E+03</totfact>
</mgrwt>
</event>
<event>
 4    1  0.9012200E-005  0.4838021E+03  0.7818608E-02  0.1018095E+00
         -2   -1    0    0    0  501 -0.00000000000E+00  0.00000000000E+00  0.31044872469E+02  0.31044872573E+02  0.25500000000E-02 0. -1.
          2   -1    0    0  501    0  0.00000000000E+00 -0.00000000000E+00 -0.18848883357E+04  0.18848883357E+04  0.25500000000E-02 0.  1.
    5000001    1    1    2    0    0  0.72909147904E+01 -0.16185223203E+03 -0.12081157620E+04  0.12300479652E+04  0.16500000000E+03 0.  0.
   -5000001    1    1    2    0    0 -0.72909147904E+01  0.16185223203E+03 -0.64572770131E+03  0.68588524309E+03  0.16500000000E+03 0.  0.
<mgrwt>
<rscale>  0 0.48380210E+03</rscale>
<asrwt>0</asrwt>
<pdfrwt beam="1">  1        2 0.28998273E+00 0.48380210E+03</pdfrwt>
<pdfrwt beam="2">  1       -2 0.47761357E-02 0.48380210E+03</pdfrwt>
<totfact> 0.17721136E+03</totfact>
</mgrwt>
</event>
<event>
 4    1  0.9012200E-005  0.4293733E+03  0.7818608E-02  0.1034058E+00
         -2   -1    0    0    0  501 -0.00000000000E+00  0.00000000000E+00  0.80167530807E+02  0.80167530847E+02  0.25500000000E-02 0. -1.
          2   -1    0    0  501    0  0.00000000000E+00 -0.00000000000E+00 -0.57492557092E+03  0.57492557093E+03  0.25500000000E-02 0.  1.
    5000001    1    1    2    0    0  0.12910182100E+03  0.44744756332E+02 -0.26873821854E+03  0.34367805212E+03  0.16500000000E+03 0.  0.
   -5000001    1    1    2    0    0 -0.12910182100E+03 -0.44744756332E+02 -0.22601982157E+03  0.31141504965E+03  0.16500000000E+03 0.  0.
<mgrwt>
<rscale>  0 0.42937333E+03</rscale>
<asrwt>0</asrwt>
<pdfrwt beam="1">  1        2 0.88450085E-01 0.42937333E+03</pdfrwt>
<pdfrwt beam="2">  1       -2 0.12333467E-01 0.42937333E+03</pdfrwt>
<totfact> 0.25223355E+03</totfact>
</mgrwt>
</event>
<event>
 4    1  0.9012200E-005  0.4887413E+03  0.7818608E-02  0.1016760E+00
          2   -1    0    0  501    0  0.00000000000E+00  0.00000000000E+00  0.14249105379E+04  0.14249105379E+04  0.25500000000E-02 0.  1.
         -2   -1    0    0    0  501 -0.00000000000E+00 -0.00000000000E+00 -0.41909310663E+02  0.41909310741E+02  0.25500000000E-02 0. -1.
    5000001    1    1    2    0    0 -0.13421391551E+03  0.42862786520E+02  0.35406125390E+03  0.41525289294E+03  0.16500000000E+03 0.  0.
   -5000001    1    1    2    0    0  0.13421391551E+03 -0.42862786520E+02  0.10289399734E+04  0.10515669557E+04  0.16500000000E+03 0.  0.
<mgrwt>
<rscale>  0 0.48874132E+03</rscale>
<asrwt>0</asrwt>
<pdfrwt beam="1">  1        2 0.21921700E+00 0.48874132E+03</pdfrwt>
<pdfrwt beam="2">  1       -2 0.64475864E-02 0.48874132E+03</pdfrwt>
<totfact> 0.19742253E+03</totfact>
</mgrwt>
</event>
<event>
 4    1  0.9012200E-005  0.8498200E+03  0.7818608E-02  0.9490579E-01
          2   -1    0    0  501    0  0.00000000000E+00  0.00000000000E+00  0.23280473124E+04  0.23280473124E+04  0.25500000000E-02 0.  1.
         -2   -1    0    0    0  501 -0.00000000000E+00 -0.00000000000E+00 -0.77553631712E+02  0.77553631754E+02  0.25500000000E-02 0. -1.
    5000001    1    1    2    0    0 -0.37252928285E+03 -0.89550190034E+02  0.89656719984E+03  0.98886553532E+03  0.16500000000E+03 0.  0.
   -5000001    1    1    2    0    0  0.37252928285E+03  0.89550190034E+02  0.13539264809E+04  0.14167354089E+04  0.16500000000E+03 0.  0.
<mgrwt>
<rscale>  0 0.84982004E+03</rscale>
<asrwt>0</asrwt>
<pdfrwt beam="1">  1        2 0.35816110E+00 0.84982004E+03</pdfrwt>
<pdfrwt beam="2">  1       -2 0.11931329E-01 0.84982004E+03</pdfrwt>
<totfact> 0.22980869E+02</totfact>
</mgrwt>
</event>
<event>
 4    1  0.9012200E-005  0.4433580E+03  0.7818608E-02  0.1029721E+00
          2   -1    0    0  501    0  0.00000000000E+00  0.00000000000E+00  0.29514081792E+04  0.29514081792E+04  0.25500000000E-02 0.  1.
         -2   -1    0    0    0  501 -0.00000000000E+00 -0.00000000000E+00 -0.16650217225E+02  0.16650217420E+02  0.25500000000E-02 0. -1.
    5000001    1    1    2    0    0 -0.10253138043E+03  0.27418324847E+02  0.77644545160E+03  0.80084766830E+03  0.16500000000E+03 0.  0.
   -5000001    1    1    2    0    0  0.10253138043E+03 -0.27418324847E+02  0.21583125104E+04  0.21672107283E+04  0.16500000000E+03 0.  0.
<mgrwt>
<rscale>  0 0.44335804E+03</rscale>
<asrwt>0</asrwt>
<pdfrwt beam="1">  1        2 0.45406220E+00 0.44335804E+03</pdfrwt>
<pdfrwt beam="2">  1       -2 0.25615753E-02 0.44335804E+03</pdfrwt>
<totfact> 0.11652549E+03</totfact>
</mgrwt>
</event>
<event>
 4    1  0.9012200E-005  0.5565936E+03  0.7818608E-02  0.9999792E-01
         -2   -1    0    0    0  501 -0.00000000000E+00  0.00000000000E+00  0.58991725587E+02  0.58991725642E+02  0.25500000000E-02 0. -1.
          2   -1    0    0  501    0  0.00000000000E+00 -0.00000000000E+00 -0.13128808107E+04  0.13128808107E+04  0.25500000000E-02 0.  1.
    5000001    1    1    2    0    0  0.19740857253E+03 -0.99213976073E+02 -0.71951434684E+03  0.77054490646E+03  0.16500000000E+03 0.  0.
   -5000001    1    1    2    0    0 -0.19740857253E+03  0.99213976073E+02 -0.53437473823E+03  0.60132762984E+03  0.16500000000E+03 0.  0.
<mgrwt>
<rscale>  0 0.55659358E+03</rscale>
<asrwt>0</asrwt>
<pdfrwt beam="1">  1        2 0.20198164E+00 0.55659358E+03</pdfrwt>
<pdfrwt beam="2">  1       -2 0.90756511E-02 0.55659358E+03</pdfrwt>
<totfact> 0.13243091E+03</totfact>
</mgrwt>
</event>
<event>
 4    1  0.9012200E-005  0.6333803E+03  0.7818608E-02  0.9838475E-01
         -2   -1    0    0    0  501 -0.00000000000E+00  0.00000000000E+00  0.61684545162E+02  0.61684545215E+02  0.25500000000E-02 0. -1.
          2   -1    0    0  501    0  0.00000000000E+00 -0.00000000000E+00 -0.16258957711E+04  0.16258957711E+04  0.25500000000E-02 0.  1.
    5000001    1    1    2    0    0 -0.18017710144E+03  0.17391644602E+03 -0.51095206161E+03  0.59245905119E+03  0.16500000000E+03 0.  0.
   -5000001    1    1    2    0    0  0.18017710144E+03 -0.17391644602E+03 -0.10532591643E+04  0.10951212651E+04  0.16500000000E+03 0.  0.
<mgrwt>
<rscale>  0 0.63338027E+03</rscale>
<asrwt>0</asrwt>
<pdfrwt beam="1">  1        2 0.25013778E+00 0.63338027E+03</pdfrwt>
<pdfrwt beam="2">  1       -2 0.94899313E-02 0.63338027E+03</pdfrwt>
<totfact> 0.82287214E+02</totfact>
</mgrwt>
</event>
<event>
 4    1  0.9012200E-005  0.4836988E+03  0.7818608E-02  0.1018124E+00
         -2   -1    0    0    0  501 -0.00000000000E+00  0.00000000000E+00  0.26957011912E+02  0.26957012032E+02  0.25500000000E-02 0. -1.
          2   -1    0    0  501    0  0.00000000000E+00 -0.00000000000E+00 -0.21697928411E+04  0.21697928411E+04  0.25500000000E-02 0.  1.
    5000001    1    1    2    0    0  0.13055491706E+03 -0.75315913149E+02 -0.14913361569E+04  0.15079872698E+04  0.16500000000E+03 0.  0.
   -5000001    1    1    2    0    0 -0.13055491706E+03  0.75315913149E+02 -0.65149967224E+03  0.68876258324E+03  0.16500000000E+03 0.  0.
<mgrwt>
<rscale>  0 0.48369880E+03</rscale>
<asrwt>0</asrwt>
<pdfrwt beam="1">  1        2 0.33381415E+00 0.48369880E+03</pdfrwt>
<pdfrwt beam="2">  1       -2 0.41472343E-02 0.48369880E+03</pdfrwt>
<totfact> 0.15460555E+03</totfact>
</mgrwt>
</event>
<event>
 4    1  0.9012200E-005  0.3923095E+03  0.7818608E-02  0.1046476E+00
          2   -1    0    0  501    0  0.00000000000E+00  0.00000000000E+00  0.93870739307E+03  0.93870739307E+03  0.25500000000E-02 0.  1.
         -2   -1    0    0    0  501 -0.00000000000E+00 -0.00000000000E+00 -0.40989013488E+02  0.40989013567E+02  0.25500000000E-02 0. -1.
    5000001    1    1    2    0    0 -0.64311870705E+02  0.67643553689E+02  0.32300099773E+03  0.37452144345E+03  0.16500000000E+03 0.  0.
   -5000001    1    1    2    0    0  0.64311870705E+02 -0.67643553689E+02  0.57471738185E+03  0.60517496319E+03  0.16500000000E+03 0.  0.
<mgrwt>
<rscale>  0 0.39230952E+03</rscale>
<asrwt>0</asrwt>
<pdfrwt beam="1">  1        2 0.14441653E+00 0.39230952E+03</pdfrwt>
<pdfrwt beam="2">  1       -2 0.63060018E-02 0.39230952E+03</pdfrwt>
<totfact> 0.39493425E+03</totfact>
</mgrwt>
</event>
<event>
 4    1  0.9012200E-005  0.4241245E+03  0.7818608E-02  0.1035732E+00
          2   -1    0    0  501    0  0.00000000000E+00  0.00000000000E+00  0.61268004622E+03  0.61268004623E+03  0.25500000000E-02 0.  1.
         -2   -1    0    0    0  501 -0.00000000000E+00 -0.00000000000E+00 -0.73399482774E+02  0.73399482819E+02  0.25500000000E-02 0. -1.
    5000001    1    1    2    0    0  0.11612704046E+03 -0.52640559782E+02  0.33205844889E+03  0.39210245031E+03  0.16500000000E+03 0.  0.
   -5000001    1    1    2    0    0 -0.11612704046E+03  0.52640559782E+02  0.20722211456E+03  0.29397707873E+03  0.16500000000E+03 0.  0.
<mgrwt>
<rscale>  0 0.42412450E+03</rscale>
<asrwt>0</asrwt>
<pdfrwt beam="1">  1        2 0.94258466E-01 0.42412450E+03</pdfrwt>
<pdfrwt beam="2">  1       -2 0.11292228E-01 0.42412450E+03</pdfrwt>
<totfact> 0.27017676E+03</totfact>
</mgrwt>
</event>
<event>
 4    1  0.9012200E-005  0.4505617E+03  0.7818608E-02  0.1027555E+00
          2   -1    0    0  501    0  0.00000000000E+00  0.00000000000E+00  0.23030721493E+04  0.23030721493E+04  0.25500000000E-02 0.  1.
         -2   -1    0    0    0  501 -0.00000000000E+00 -0.00000000000E+00 -0.22036421665E+02  0.22036421812E+02  0.25500000000E-02 0. -1.
    5000001    1    1    2    0    0  0.73763054589E+02 -0.18757676676E+02  0.18277251569E+04  0.18367354431E+04  0.16500000000E+03 0.  0.
   -5000001    1    1    2    0    0 -0.73763054589E+02  0.18757676676E+02  0.45331057073E+03  0.48837312804E+03  0.16500000000E+03 0.  0.
<mgrwt>
<rscale>  0 0.45056173E+03</rscale>
<asrwt>0</asrwt>
<pdfrwt beam="1">  1        2 0.35431870E+00 0.45056173E+03</pdfrwt>
<pdfrwt beam="2">  1       -2 0.33902196E-02 0.45056173E+03</pdfrwt>
<totfact> 0.17824790E+03</totfact>
</mgrwt>
</event>
<event>
 4    1  0.9012200E-005  0.1263712E+04  0.7818608E-02  0.9058847E-01
         -2   -1    0    0    0  501 -0.00000000000E+00  0.00000000000E+00  0.15161348776E+04  0.15161348776E+04  0.25500000000E-02 0. -1.
          2   -1    0    0  501    0  0.00000000000E+00 -0.00000000000E+00 -0.26332881981E+03  0.26332881982E+03  0.25500000000E-02 0.  1.
    5000001    1    1    2    0    0  0.57229470754E+03 -0.14515879950E+03  0.41088776853E+03  0.73800140086E+03  0.16500000000E+03 0.  0.
   -5000001    1    1    2    0    0 -0.57229470754E+03  0.14515879950E+03  0.84191828921E+03  0.10414622965E+04  0.16500000000E+03 0.  0.
<mgrwt>
<rscale>  0 0.12637120E+04</rscale>
<asrwt>0</asrwt>
<pdfrwt beam="1">  1        2 0.40512127E-01 0.12637120E+04</pdfrwt>
<pdfrwt beam="2">  1       -2 0.23325151E+00 0.12637120E+04</pdfrwt>
<totfact> 0.10189844E+01</totfact>
</mgrwt>
</event>
<event>
 4    1  0.9012200E-005  0.5548740E+03  0.7818608E-02  0.1000372E+00
          2   -1    0    0  501    0  0.00000000000E+00  0.00000000000E+00  0.56150492302E+03  0.56150492303E+03  0.25500000000E-02 0.  1.
         -2   -1    0    0    0  501 -0.00000000000E+00 -0.00000000000E+00 -0.13708035218E+03  0.13708035220E+03  0.25500000000E-02 0. -1.
    5000001    1    1    2    0    0  0.21847448595E+03 -0.40870888163E+02  0.23558907141E+03  0.36349517339E+03  0.16500000000E+03 0.  0.
   -5000001    1    1    2    0    0 -0.21847448595E+03  0.40870888163E+02  0.18883549943E+03  0.33509010184E+03  0.16500000000E+03 0.  0.
<mgrwt>
<rscale>  0 0.55487401E+03</rscale>
<asrwt>0</asrwt>
<pdfrwt beam="1">  1        2 0.86385373E-01 0.55487401E+03</pdfrwt>
<pdfrwt beam="2">  1       -2 0.21089285E-01 0.55487401E+03</pdfrwt>
<totfact> 0.10469385E+03</totfact>
</mgrwt>
</event>
<event>
 4    1  0.9012200E-005  0.5740173E+03  0.7818608E-02  0.9960828E-01
          2   -1    0    0  501    0  0.00000000000E+00  0.00000000000E+00  0.29478332776E+04  0.29478332776E+04  0.25500000000E-02 0.  1.
         -2   -1    0    0    0  501 -0.00000000000E+00 -0.00000000000E+00 -0.27943900418E+02  0.27943900534E+02  0.25500000000E-02 0. -1.
    5000001    1    1    2    0    0  0.29543095238E+02  0.22817562314E+03  0.12161226621E+04  0.12486457619E+04  0.16500000000E+03 0.  0.
   -5000001    1    1    2    0    0 -0.29543095238E+02 -0.22817562314E+03  0.17037667151E+04  0.17271314162E+04  0.16500000000E+03 0.  0.
<mgrwt>
<rscale>  0 0.57401728E+03</rscale>
<asrwt>0</asrwt>
<pdfrwt beam="1">  1        2 0.45351269E+00 0.57401728E+03</pdfrwt>
<pdfrwt beam="2">  1       -2 0.42990628E-02 0.57401728E+03</pdfrwt>
<totfact> 0.52538712E+02</totfact>
</mgrwt>
</event>
<event>
 4    1  0.9012200E-005  0.4305435E+03  0.7818608E-02  0.1033688E+00
          2   -1    0    0  501    0  0.00000000000E+00  0.00000000000E+00  0.17987001899E+03  0.17987001901E+03  0.25500000000E-02 0.  1.
         -2   -1    0    0    0  501 -0.00000000000E+00 -0.00000000000E+00 -0.25764121878E+03  0.25764121879E+03  0.25500000000E-02 0. -1.
    5000001    1    1    2    0    0 -0.25307141655E+02 -0.13403205927E+03 -0.15894538051E+02  0.21466876967E+03  0.16500000000E+03 0.  0.
   -5000001    1    1    2    0    0  0.25307141655E+02  0.13403205927E+03 -0.61876661736E+02  0.22284246812E+03  0.16500000000E+03 0.  0.
<mgrwt>
<rscale>  0 0.43054352E+03</rscale>
<asrwt>0</asrwt>
<pdfrwt beam="1">  1        2 0.27672311E-01 0.43054352E+03</pdfrwt>
<pdfrwt beam="2">  1       -2 0.39637111E-01 0.43054352E+03</pdfrwt>
<totfact> 0.11721557E+03</totfact>
</mgrwt>
</event>
<event>
 4    1  0.9012200E-005  0.5502426E+03  0.7818608E-02  0.1001438E+00
          2   -1    0    0  501    0  0.00000000000E+00  0.00000000000E+00  0.18206052235E+03  0.18206052237E+03  0.25500000000E-02 0.  1.
         -2   -1    0    0    0  501 -0.00000000000E+00 -0.00000000000E+00 -0.41575041487E+03  0.41575041488E+03  0.25500000000E-02 0. -1.
    5000001    1    1    2    0    0  0.21852190743E+03  0.22493671748E+02 -0.13254962867E+03  0.30504457601E+03  0.16500000000E+03 0.  0.
   -5000001    1    1    2    0    0 -0.21852190743E+03 -0.22493671748E+02 -0.10114026386E+03  0.29276636123E+03  0.16500000000E+03 0.  0.
<mgrwt>
<rscale>  0 0.55024263E+03</rscale>
<asrwt>0</asrwt>
<pdfrwt beam="1">  1        2 0.28009311E-01 0.55024263E+03</pdfrwt>
<pdfrwt beam="2">  1       -2 0.63961602E-01 0.55024263E+03</pdfrwt>
<totfact> 0.43888242E+02</totfact>
</mgrwt>
</event>
<event>
 4    1  0.9012200E-005  0.7262681E+03  0.7818608E-02  0.9673336E-01
         -2   -1    0    0    0  501 -0.00000000000E+00  0.00000000000E+00  0.74033347645E+02  0.74033347689E+02  0.25500000000E-02 0. -1.
          2   -1    0    0  501    0  0.00000000000E+00 -0.00000000000E+00 -0.17811750271E+04  0.17811750271E+04  0.25500000000E-02 0.  1.
    5000001    1    1    2    0    0 -0.88315070863E+02 -0.13005801412E+03 -0.15757445583E+04  0.15921402425E+04  0.16500000000E+03 0.  0.
   -5000001    1    1    2    0    0  0.88315070863E+02  0.13005801412E+03 -0.13139712115E+03  0.26306813228E+03  0.16500000000E+03 0.  0.
<mgrwt>
<rscale>  0 0.72626813E+03</rscale>
<asrwt>0</asrwt>
<pdfrwt beam="1">  1        2 0.27402689E+00 0.72626813E+03</pdfrwt>
<pdfrwt beam="2">  1       -2 0.11389747E-01 0.72626813E+03</pdfrwt>
<totfact> 0.50000665E+02</totfact>
</mgrwt>
</event>
<event>
 4    1  0.9012200E-005  0.7529988E+03  0.7818608E-02  0.9630657E-01
         -2   -1    0    0    0  501 -0.00000000000E+00  0.00000000000E+00  0.47773480596E+02  0.47773480664E+02  0.25500000000E-02 0. -1.
          2   -1    0    0  501    0  0.00000000000E+00 -0.00000000000E+00 -0.29671649055E+04  0.29671649055E+04  0.25500000000E-02 0.  1.
    5000001    1    1    2    0    0 -0.11433619250E+03  0.31222394312E+03 -0.17119813448E+04  0.17517595955E+04  0.16500000000E+03 0.  0.
   -5000001    1    1    2    0    0  0.11433619250E+03 -0.31222394312E+03 -0.12074100800E+04  0.12631787906E+04  0.16500000000E+03 0.  0.
<mgrwt>
<rscale>  0 0.75299879E+03</rscale>
<asrwt>0</asrwt>
<pdfrwt beam="1">  1        2 0.45648677E+00 0.75299879E+03</pdfrwt>
<pdfrwt beam="2">  1       -2 0.73497685E-02 0.75299879E+03</pdfrwt>
<totfact> 0.21668817E+02</totfact>
</mgrwt>
</event>
<event>
 4    1  0.9012200E-005  0.5182467E+03  0.7818608E-02  0.1009123E+00
         -2   -1    0    0    0  501 -0.00000000000E+00  0.00000000000E+00  0.66777452285E+02  0.66777452333E+02  0.25500000000E-02 0. -1.
          2   -1    0    0  501    0  0.00000000000E+00 -0.00000000000E+00 -0.10055029045E+04  0.10055029045E+04  0.25500000000E-02 0.  1.
    5000001    1    1    2    0    0 -0.36489660206E+02  0.15492308911E+03 -0.21946708574E+03  0.31736959616E+03  0.16500000000E+03 0.  0.
   -5000001    1    1    2    0    0  0.36489660206E+02 -0.15492308911E+03 -0.71925836644E+03  0.75491076065E+03  0.16500000000E+03 0.  0.
<mgrwt>
<rscale>  0 0.51824675E+03</rscale>
<asrwt>0</asrwt>
<pdfrwt beam="1">  1        2 0.15469274E+00 0.51824675E+03</pdfrwt>
<pdfrwt beam="2">  1       -2 0.10273455E-01 0.51824675E+03</pdfrwt>
<totfact> 0.16526708E+03</totfact>
</mgrwt>
</event>
<event>
 4    1  0.9012200E-005  0.7448555E+03  0.7818608E-02  0.9643456E-01
         -2   -1    0    0    0  501 -0.00000000000E+00  0.00000000000E+00  0.71406381993E+02  0.71406382039E+02  0.25500000000E-02 0. -1.
          2   -1    0    0  501    0  0.00000000000E+00 -0.00000000000E+00 -0.19424374490E+04  0.19424374490E+04  0.25500000000E-02 0.  1.
    5000001    1    1    2    0    0 -0.18942389638E+03 -0.27384755265E+03 -0.86909454761E+03  0.94521120777E+03  0.16500000000E+03 0.  0.
   -5000001    1    1    2    0    0  0.18942389638E+03  0.27384755265E+03 -0.10019365194E+04  0.10686326233E+04  0.16500000000E+03 0.  0.
<mgrwt>
<rscale>  0 0.74485550E+03</rscale>
<asrwt>0</asrwt>
<pdfrwt beam="1">  1        2 0.29883649E+00 0.74485550E+03</pdfrwt>
<pdfrwt beam="2">  1       -2 0.10985599E-01 0.74485550E+03</pdfrwt>
<totfact> 0.43289027E+02</totfact>
</mgrwt>
</event>
<event>
 4    1  0.9012200E-005  0.4368354E+03  0.7818608E-02  0.1031722E+00
         -2   -1    0    0    0  501 -0.00000000000E+00  0.00000000000E+00  0.18010567381E+02  0.18010567562E+02  0.25500000000E-02 0. -1.
          2   -1    0    0  501    0  0.00000000000E+00 -0.00000000000E+00 -0.26487943453E+04  0.26487943453E+04  0.25500000000E-02 0.  1.
    5000001    1    1    2    0    0 -0.17338766239E+02 -0.11771028347E+03 -0.18009059705E+04  0.18123585899E+04  0.16500000000E+03 0.  0.
   -5000001    1    1    2    0    0  0.17338766239E+02  0.11771028347E+03 -0.82987780740E+03  0.85444632298E+03  0.16500000000E+03 0.  0.
<mgrwt>
<rscale>  0 0.43683539E+03</rscale>
<asrwt>0</asrwt>
<pdfrwt beam="1">  1        2 0.40750651E+00 0.43683539E+03</pdfrwt>
<pdfrwt beam="2">  1       -2 0.27708586E-02 0.43683539E+03</pdfrwt>
<totfact> 0.15541408E+03</totfact>
</mgrwt>
</event>
<event>
 4    1  0.9012200E-005  0.7353126E+03  0.7818608E-02  0.9658679E-01
         -2   -1    0    0    0  501 -0.00000000000E+00  0.00000000000E+00  0.42127215360E+03  0.42127215361E+03  0.25500000000E-02 0. -1.
          2   -1    0    0  501    0  0.00000000000E+00 -0.00000000000E+00 -0.32086421552E+03  0.32086421553E+03  0.25500000000E-02 0.  1.
    5000001    1    1    2    0    0 -0.29415730805E+03  0.14201133765E+03  0.85893362586E+02  0.37589680983E+03  0.16500000000E+03 0.  0.
   -5000001    1    1    2    0    0  0.29415730805E+03 -0.14201133765E+03  0.14514575495E+02  0.36623955931E+03  0.16500000000E+03 0.  0.
<mgrwt>
<rscale>  0 0.73531261E+03</rscale>
<asrwt>0</asrwt>
<pdfrwt beam="1">  1        2 0.49363725E-01 0.73531261E+03</pdfrwt>
<pdfrwt beam="2">  1       -2 0.64811101E-01 0.73531261E+03</pdfrwt>
<totfact> 0.22583245E+02</totfact>
</mgrwt>
</event>
<event>
 4    1  0.9012200E-005  0.6111512E+03  0.7818608E-02  0.9882537E-01
         -2   -1    0    0    0  501 -0.00000000000E+00  0.00000000000E+00  0.17736366077E+03  0.17736366079E+03  0.25500000000E-02 0. -1.
          2   -1    0    0  501    0  0.00000000000E+00 -0.00000000000E+00 -0.52646894005E+03  0.52646894006E+03  0.25500000000E-02 0.  1.
    5000001    1    1    2    0    0  0.11264141478E+03 -0.17854250770E+03 -0.34375491477E+03  0.43584166484E+03  0.16500000000E+03 0.  0.
   -5000001    1    1    2    0    0 -0.11264141478E+03  0.17854250770E+03 -0.53503645111E+01  0.26799093601E+03  0.16500000000E+03 0.  0.
<mgrwt>
<rscale>  0 0.61115124E+03</rscale>
<asrwt>0</asrwt>
<pdfrwt beam="1">  1        2 0.80995221E-01 0.61115124E+03</pdfrwt>
<pdfrwt beam="2">  1       -2 0.27286717E-01 0.61115124E+03</pdfrwt>
<totfact> 0.71211672E+02</totfact>
</mgrwt>
</event>
<event>
 4    1  0.9012200E-005  0.4764935E+03  0.7818608E-02  0.1020103E+00
         -2   -1    0    0    0  501 -0.00000000000E+00  0.00000000000E+00  0.42785581730E+02  0.42785581806E+02  0.25500000000E-02 0. -1.
          2   -1    0    0  501    0  0.00000000000E+00 -0.00000000000E+00 -0.13266506525E+04  0.13266506525E+04  0.25500000000E-02 0.  1.
    5000001    1    1    2    0    0 -0.17160433624E+03  0.79385382313E+01 -0.62743345857E+03  0.67112503569E+03  0.16500000000E+03 0.  0.
   -5000001    1    1    2    0    0  0.17160433624E+03 -0.79385382313E+01 -0.65643161216E+03  0.69831119857E+03  0.16500000000E+03 0.  0.
<mgrwt>
<rscale>  0 0.47649353E+03</rscale>
<asrwt>0</asrwt>
<pdfrwt beam="1">  1        2 0.20410007E+00 0.47649353E+03</pdfrwt>
<pdfrwt beam="2">  1       -2 0.65823982E-02 0.47649353E+03</pdfrwt>
<totfact> 0.21694298E+03</totfact>
</mgrwt>
</event>
<event>
 4    1  0.9012200E-005  0.7347839E+03  0.7818608E-02  0.9659529E-01
         -2   -1    0    0    0  501 -0.00000000000E+00  0.00000000000E+00  0.83162617215E+02  0.83162617254E+02  0.25500000000E-02 0. -1.
          2   -1    0    0  501    0  0.00000000000E+00 -0.00000000000E+00 -0.16230470499E+04  0.16230470499E+04  0.25500000000E-02 0.  1.
    5000001    1    1    2    0    0  0.23600572005E+03 -0.96048535273E+02 -0.28939534340E+03  0.41940277276E+03  0.16500000000E+03 0.  0.
   -5000001    1    1    2    0    0 -0.23600572005E+03  0.96048535273E+02 -0.12504890892E+04  0.12868068943E+04  0.16500000000E+03 0.  0.
<mgrwt>
<rscale>  0 0.73478389E+03</rscale>
<asrwt>0</asrwt>
<pdfrwt beam="1">  1        2 0.24969952E+00 0.73478389E+03</pdfrwt>
<pdfrwt beam="2">  1       -2 0.12794250E-01 0.73478389E+03</pdfrwt>
<totfact> 0.50315571E+02</totfact>
</mgrwt>
</event>
<event>
 4    1  0.9012200E-005  0.5091420E+03  0.7818608E-02  0.1011420E+00
         -2   -1    0    0    0  501 -0.00000000000E+00  0.00000000000E+00  0.49279755379E+03  0.49279755380E+03  0.25500000000E-02 0. -1.
          2   -1    0    0  501    0  0.00000000000E+00 -0.00000000000E+00 -0.13150715235E+03  0.13150715238E+03  0.25500000000E-02 0.  1.
    5000001    1    1    2    0    0  0.95609281132E+02 -0.16816747556E+03  0.16513651782E+03  0.30317734743E+03  0.16500000000E+03 0.  0.
   -5000001    1    1    2    0    0 -0.95609281132E+02  0.16816747556E+03  0.19615388362E+03  0.32112735875E+03  0.16500000000E+03 0.  0.
<mgrwt>
<rscale>  0 0.50914204E+03</rscale>
<asrwt>0</asrwt>
<pdfrwt beam="1">  1        2 0.20231870E-01 0.50914204E+03</pdfrwt>
<pdfrwt beam="2">  1       -2 0.75815008E-01 0.50914204E+03</pdfrwt>
<totfact> 0.44113113E+02</totfact>
</mgrwt>
</event>
<event>
 4    1  0.9012200E-005  0.6590211E+03  0.7818608E-02  0.9789997E-01
         -2   -1    0    0    0  501 -0.00000000000E+00  0.00000000000E+00  0.85981920892E+02  0.85981920929E+02  0.25500000000E-02 0. -1.
          2   -1    0    0  501    0  0.00000000000E+00 -0.00000000000E+00 -0.12627910813E+04  0.12627910813E+04  0.25500000000E-02 0.  1.
    5000001    1    1    2    0    0 -0.17824702082E+03  0.14259969965E+03 -0.93840557439E+03  0.97976359232E+03  0.16500000000E+03 0.  0.
   -5000001    1    1    2    0    0  0.17824702082E+03 -0.14259969965E+03 -0.23840358597E+03  0.36900940987E+03  0.16500000000E+03 0.  0.
<mgrwt>
<rscale>  0 0.65902110E+03</rscale>
<asrwt>0</asrwt>
<pdfrwt beam="1">  1        2 0.19427554E+00 0.65902110E+03</pdfrwt>
<pdfrwt beam="2">  1       -2 0.13227989E-01 0.65902110E+03</pdfrwt>
<totfact> 0.76126592E+02</totfact>
</mgrwt>
</event>
<event>
 4    1  0.9012200E-005  0.4191901E+03  0.7818608E-02  0.1037330E+00
          2   -1    0    0  501    0  0.00000000000E+00  0.00000000000E+00  0.31455151730E+03  0.31455151731E+03  0.25500000000E-02 0.  1.
         -2   -1    0    0    0  501 -0.00000000000E+00 -0.00000000000E+00 -0.13965943488E+03  0.13965943490E+03  0.25500000000E-02 0. -1.
    5000001    1    1    2    0    0  0.37582514160E+02 -0.12280100037E+03  0.71648723561E+02  0.22102278311E+03  0.16500000000E+03 0.  0.
   -5000001    1    1    2    0    0 -0.37582514160E+02  0.12280100037E+03  0.10324335886E+03  0.23318816911E+03  0.16500000000E+03 0.  0.
<mgrwt>
<rscale>  0 0.41919011E+03</rscale>
<asrwt>0</asrwt>
<pdfrwt beam="1">  1        2 0.48392541E-01 0.41919011E+03</pdfrwt>
<pdfrwt beam="2">  1       -2 0.21486067E-01 0.41919011E+03</pdfrwt>
<totfact> 0.19406484E+03</totfact>
</mgrwt>
</event>
<event>
 4    1  0.9012200E-005  0.4316185E+03  0.7818608E-02  0.1033350E+00
         -2   -1    0    0    0  501 -0.00000000000E+00  0.00000000000E+00  0.47819334969E+02  0.47819335037E+02  0.25500000000E-02 0. -1.
          2   -1    0    0  501    0  0.00000000000E+00 -0.00000000000E+00 -0.97394986512E+03  0.97394986512E+03  0.25500000000E-02 0.  1.
    5000001    1    1    2    0    0 -0.13415571792E+03 -0.19491339228E+02 -0.53683101114E+03  0.57774579486E+03  0.16500000000E+03 0.  0.
   -5000001    1    1    2    0    0  0.13415571792E+03  0.19491339228E+02 -0.38929951901E+03  0.44402340530E+03  0.16500000000E+03 0.  0.
<mgrwt>
<rscale>  0 0.43161851E+03</rscale>
<asrwt>0</asrwt>
<pdfrwt beam="1">  1        2 0.14983843E+00 0.43161851E+03</pdfrwt>
<pdfrwt beam="2">  1       -2 0.73568215E-02 0.43161851E+03</pdfrwt>
<totfact> 0.29489241E+03</totfact>
</mgrwt>
</event>
<event>
 4    1  0.9012200E-005  0.6151829E+03  0.7818608E-02  0.9874398E-01
         -2   -1    0    0    0  501 -0.00000000000E+00  0.00000000000E+00  0.13000866774E+03  0.13000866776E+03  0.25500000000E-02 0. -1.
          2   -1    0    0  501    0  0.00000000000E+00 -0.00000000000E+00 -0.72773984711E+03  0.72773984711E+03  0.25500000000E-02 0.  1.
    5000001    1    1    2    0    0 -0.20391888600E+03  0.16063791976E+03 -0.29912517350E+03  0.42905515118E+03  0.16500000000E+03 0.  0.
   -5000001    1    1    2    0    0  0.20391888600E+03 -0.16063791976E+03 -0.29860600587E+03  0.42869336369E+03  0.16500000000E+03 0.  0.
<mgrwt>
<rscale>  0 0.61518286E+03</rscale>
<asrwt>0</asrwt>
<pdfrwt beam="1">  1        2 0.11195997E+00 0.61518286E+03</pdfrwt>
<pdfrwt beam="2">  1       -2 0.20001334E-01 0.61518286E+03</pdfrwt>
<totfact> 0.83625631E+02</totfact>
</mgrwt>
</event>
<event>
 4    1  0.9012200E-005  0.4154947E+03  0.7818608E-02  0.1038543E+00
          2   -1    0    0  501    0  0.00000000000E+00  0.00000000000E+00  0.10818985927E+04  0.10818985927E+04  0.25500000000E-02 0.  1.
         -2   -1    0    0    0  501 -0.00000000000E+00 -0.00000000000E+00 -0.39891867719E+02  0.39891867801E+02  0.25500000000E-02 0. -1.
    5000001    1    1    2    0    0 -0.51639057314E+02  0.11458480226E+03  0.48932287363E+03  0.53146791419E+03  0.16500000000E+03 0.  0.
   -5000001    1    1    2    0    0  0.51639057314E+02 -0.11458480226E+03  0.55268385132E+03  0.59032254629E+03  0.16500000000E+03 0.  0.
<mgrwt>
<rscale>  0 0.41549467E+03</rscale>
<asrwt>0</asrwt>
<pdfrwt beam="1">  1        2 0.16644593E+00 0.41549467E+03</pdfrwt>
<pdfrwt beam="2">  1       -2 0.61372106E-02 0.41549467E+03</pdfrwt>
<totfact> 0.33583405E+03</totfact>
</mgrwt>
</event>
<event>
 4    1  0.9012200E-005  0.7339109E+03  0.7818608E-02  0.9660935E-01
         -2   -1    0    0    0  501 -0.00000000000E+00  0.00000000000E+00  0.10846682713E+03  0.10846682716E+03  0.25500000000E-02 0. -1.
          2   -1    0    0  501    0  0.00000000000E+00 -0.00000000000E+00 -0.12414515238E+04  0.12414515238E+04  0.25500000000E-02 0.  1.
    5000001    1    1    2    0    0 -0.15397503295E+03  0.28869300434E+03 -0.60231700914E+03  0.70502676618E+03  0.16500000000E+03 0.  0.
   -5000001    1    1    2    0    0  0.15397503295E+03 -0.28869300434E+03 -0.53066768749E+03  0.64489158475E+03  0.16500000000E+03 0.  0.
<mgrwt>
<rscale>  0 0.73391092E+03</rscale>
<asrwt>0</asrwt>
<pdfrwt beam="1">  1        2 0.19099253E+00 0.73391092E+03</pdfrwt>
<pdfrwt beam="2">  1       -2 0.16687205E-01 0.73391092E+03</pdfrwt>
<totfact> 0.52748376E+02</totfact>
</mgrwt>
</event>
<event>
 4    1  0.9012200E-005  0.5423504E+03  0.7818608E-02  0.1003280E+00
         -2   -1    0    0    0  501 -0.00000000000E+00  0.00000000000E+00  0.13488584637E+03  0.13488584639E+03  0.25500000000E-02 0. -1.
          2   -1    0    0  501    0  0.00000000000E+00 -0.00000000000E+00 -0.54517194743E+03  0.54517194743E+03  0.25500000000E-02 0.  1.
    5000001    1    1    2    0    0  0.19415407851E+03  0.57682156970E+01 -0.32130332694E+03  0.41010962731E+03  0.16500000000E+03 0.  0.
   -5000001    1    1    2    0    0 -0.19415407851E+03 -0.57682156970E+01 -0.88982774125E+02  0.26994816651E+03  0.16500000000E+03 0.  0.
<mgrwt>
<rscale>  0 0.54235036E+03</rscale>
<asrwt>0</asrwt>
<pdfrwt beam="1">  1        2 0.83872606E-01 0.54235036E+03</pdfrwt>
<pdfrwt beam="2">  1       -2 0.20751669E-01 0.54235036E+03</pdfrwt>
<totfact> 0.11149585E+03</totfact>
</mgrwt>
</event>
<event>
 4    1  0.9012200E-005  0.1042770E+04  0.7818608E-02  0.9262840E-01
         -2   -1    0    0    0  501 -0.00000000000E+00  0.00000000000E+00  0.17653940030E+03  0.17653940032E+03  0.25500000000E-02 0. -1.
          2   -1    0    0  501    0  0.00000000000E+00 -0.00000000000E+00 -0.15398403086E+04  0.15398403086E+04  0.25500000000E-02 0.  1.
    5000001    1    1    2    0    0 -0.23705767168E+03 -0.75587755901E+02  0.21912655617E+02  0.29935766738E+03  0.16500000000E+03 0.  0.
   -5000001    1    1    2    0    0  0.23705767168E+03  0.75587755901E+02 -0.13852135639E+04  0.14170220415E+04  0.16500000000E+03 0.  0.
<mgrwt>
<rscale>  0 0.10427703E+04</rscale>
<asrwt>0</asrwt>
<pdfrwt beam="1">  1        2 0.23689850E+00 0.10427703E+04</pdfrwt>
<pdfrwt beam="2">  1       -2 0.27159909E-01 0.10427703E+04</pdfrwt>
<totfact> 0.14794632E+02</totfact>
</mgrwt>
</event>
<event>
 4    1  0.9012200E-005  0.7707378E+03  0.7818608E-02  0.9603366E-01
          2   -1    0    0  501    0  0.00000000000E+00  0.00000000000E+00  0.22779850452E+04  0.22779850452E+04  0.25500000000E-02 0.  1.
         -2   -1    0    0    0  501 -0.00000000000E+00 -0.00000000000E+00 -0.65193232022E+02  0.65193232072E+02  0.25500000000E-02 0. -1.
    5000001    1    1    2    0    0  0.32056021541E+03 -0.14879929590E+02  0.69508428430E+03  0.78316500579E+03  0.16500000000E+03 0.  0.
   -5000001    1    1    2    0    0 -0.32056021541E+03  0.14879929590E+02  0.15177075289E+04  0.15600132715E+04  0.16500000000E+03 0.  0.
<mgrwt>
<rscale>  0 0.77073785E+03</rscale>
<asrwt>0</asrwt>
<pdfrwt beam="1">  1        2 0.35045918E+00 0.77073785E+03</pdfrwt>
<pdfrwt beam="2">  1       -2 0.10029730E-01 0.77073785E+03</pdfrwt>
<totfact> 0.32808222E+02</totfact>
</mgrwt>
</event>
<event>
 4    1  0.9012200E-005  0.4319846E+03  0.7818608E-02  0.1033235E+00
         -2   -1    0    0    0  501 -0.00000000000E+00  0.00000000000E+00  0.65622150809E+02  0.65622150858E+02  0.25500000000E-02 0. -1.
          2   -1    0    0  501    0  0.00000000000E+00 -0.00000000000E+00 -0.71092882727E+03  0.71092882728E+03  0.25500000000E-02 0.  1.
    5000001    1    1    2    0    0  0.96039806606E+02 -0.39867368941E+02 -0.15580575276E+03  0.24962668958E+03  0.16500000000E+03 0.  0.
   -5000001    1    1    2    0    0 -0.96039806606E+02  0.39867368941E+02 -0.48950092370E+03  0.52692428855E+03  0.16500000000E+03 0.  0.
<mgrwt>
<rscale>  0 0.43198462E+03</rscale>
<asrwt>0</asrwt>
<pdfrwt beam="1">  1        2 0.10937366E+00 0.43198462E+03</pdfrwt>
<pdfrwt beam="2">  1       -2 0.10095716E-01 0.43198462E+03</pdfrwt>
<totfact> 0.27033023E+03</totfact>
</mgrwt>
</event>
<event>
 4    1  0.9012200E-005  0.3947205E+03  0.7818608E-02  0.1045623E+00
         -2   -1    0    0    0  501 -0.00000000000E+00  0.00000000000E+00  0.10161308511E+02  0.10161308831E+02  0.25500000000E-02 0. -1.
          2   -1    0    0  501    0  0.00000000000E+00 -0.00000000000E+00 -0.38332726317E+04  0.38332726317E+04  0.25500000000E-02 0.  1.
    5000001    1    1    2    0    0  0.10222731745E+03 -0.34111877012E+02 -0.18084978033E+04  0.18192040427E+04  0.16500000000E+03 0.  0.
   -5000001    1    1    2    0    0 -0.10222731745E+03  0.34111877012E+02 -0.20146135199E+04  0.20242298978E+04  0.16500000000E+03 0.  0.
<mgrwt>
<rscale>  0 0.39472049E+03</rscale>
<asrwt>0</asrwt>
<pdfrwt beam="1">  1        2 0.58973310E+00 0.39472049E+03</pdfrwt>
<pdfrwt beam="2">  1       -2 0.15632813E-02 0.39472049E+03</pdfrwt>
<totfact> 0.64419045E+02</totfact>
</mgrwt>
</event>
<event>
 4    1  0.9012200E-005  0.7689343E+03  0.7818608E-02  0.9606105E-01
          2   -1    0    0  501    0  0.00000000000E+00  0.00000000000E+00  0.92193561049E+03  0.92193561049E+03  0.25500000000E-02 0.  1.
         -2   -1    0    0    0  501 -0.00000000000E+00 -0.00000000000E+00 -0.16033113795E+03  0.16033113797E+03  0.25500000000E-02 0. -1.
    5000001    1    1    2    0    0 -0.42473837544E+01  0.33080265760E+03  0.52936769073E+03  0.64568071872E+03  0.16500000000E+03 0.  0.
   -5000001    1    1    2    0    0  0.42473837544E+01 -0.33080265760E+03  0.23223678181E+03  0.43658602974E+03  0.16500000000E+03 0.  0.
<mgrwt>
<rscale>  0 0.76893429E+03</rscale>
<asrwt>0</asrwt>
<pdfrwt beam="1">  1        2 0.14183625E+00 0.76893429E+03</pdfrwt>
<pdfrwt beam="2">  1       -2 0.24666329E-01 0.76893429E+03</pdfrwt>
<totfact> 0.41840868E+02</totfact>
</mgrwt>
</event>
<event>
 4    1  0.9012200E-005  0.5454438E+03  0.7818608E-02  0.1002554E+00
         -2   -1    0    0    0  501 -0.00000000000E+00  0.00000000000E+00  0.97263165221E+02  0.97263165255E+02  0.25500000000E-02 0. -1.
          2   -1    0    0  501    0  0.00000000000E+00 -0.00000000000E+00 -0.76470100842E+03  0.76470100842E+03  0.25500000000E-02 0.  1.
    5000001    1    1    2    0    0  0.18118176451E+03 -0.84943132427E+02 -0.20046615982E+03  0.32780153870E+03  0.16500000000E+03 0.  0.
   -5000001    1    1    2    0    0 -0.18118176451E+03  0.84943132427E+02 -0.46697168337E+03  0.53416263498E+03  0.16500000000E+03 0.  0.
<mgrwt>
<rscale>  0 0.54544382E+03</rscale>
<asrwt>0</asrwt>
<pdfrwt beam="1">  1        2 0.11764631E+00 0.54544382E+03</pdfrwt>
<pdfrwt beam="2">  1       -2 0.14963564E-01 0.54544382E+03</pdfrwt>
<totfact> 0.12910783E+03</totfact>
</mgrwt>
</event>
<event>
 4    1  0.9012200E-005  0.5606188E+03  0.7818608E-02  0.9990656E-01
         -2   -1    0    0    0  501 -0.00000000000E+00  0.00000000000E+00  0.10667620806E+03  0.10667620809E+03  0.25500000000E-02 0.  1.
          2   -1    0    0  501    0  0.00000000000E+00 -0.00000000000E+00 -0.73655923282E+03  0.73655923282E+03  0.25500000000E-02 0. -1.
    5000001    1    1    2    0    0 -0.18235484446E+03 -0.13367919287E+03 -0.29238328336E+03  0.40476709388E+03  0.16500000000E+03 0.  0.
   -5000001    1    1    2    0    0  0.18235484446E+03  0.13367919287E+03 -0.33749974140E+03  0.43846834703E+03  0.16500000000E+03 0.  0.
<mgrwt>
<rscale>  0 0.56061875E+03</rscale>
<asrwt>0</asrwt>
<pdfrwt beam="1">  1        2 0.11331680E+00 0.56061875E+03</pdfrwt>
<pdfrwt beam="2">  1       -2 0.16411725E-01 0.56061875E+03</pdfrwt>
<totfact> 0.11585627E+03</totfact>
</mgrwt>
</event>
<event>
 4    1  0.9012200E-005  0.4218537E+03  0.7818608E-02  0.1036465E+00
          2   -1    0    0  501    0  0.00000000000E+00  0.00000000000E+00  0.52935955822E+03  0.52935955823E+03  0.25500000000E-02 0.  1.
         -2   -1    0    0    0  501 -0.00000000000E+00 -0.00000000000E+00 -0.84045223584E+02  0.84045223623E+02  0.25500000000E-02 0. -1.
    5000001    1    1    2    0    0 -0.59542459573E+02  0.48814132284E+02  0.37747988621E+03  0.41909925852E+03  0.16500000000E+03 0.  0.
   -5000001    1    1    2    0    0  0.59542459573E+02 -0.48814132284E+02  0.67834448433E+02  0.19430552333E+03  0.16500000000E+03 0.  0.
<mgrwt>
<rscale>  0 0.42185373E+03</rscale>
<asrwt>0</asrwt>
<pdfrwt beam="1">  1        2 0.81439935E-01 0.42185373E+03</pdfrwt>
<pdfrwt beam="2">  1       -2 0.12930034E-01 0.42185373E+03</pdfrwt>
<totfact> 0.25684378E+03</totfact>
</mgrwt>
</event>
<event>
 4    1  0.9012200E-005  0.3577985E+03  0.7818608E-02  0.1059459E+00
         -2   -1    0    0    0  501 -0.00000000000E+00  0.00000000000E+00  0.27562572388E+03  0.27562572389E+03  0.25500000000E-02 0. -1.
          2   -1    0    0  501    0  0.00000000000E+00 -0.00000000000E+00 -0.11611739637E+03  0.11611739640E+03  0.25500000000E-02 0.  1.
    5000001    1    1    2    0    0  0.36342446627E+02 -0.58500404860E+02  0.73105976994E+02  0.19316457923E+03  0.16500000000E+03 0.  0.
   -5000001    1    1    2    0    0 -0.36342446627E+02  0.58500404860E+02  0.86402350515E+02  0.19857854106E+03  0.16500000000E+03 0.  0.
<mgrwt>
<rscale>  0 0.35779850E+03</rscale>
<asrwt>0</asrwt>
<pdfrwt beam="1">  1        2 0.17864215E-01 0.35779850E+03</pdfrwt>
<pdfrwt beam="2">  1       -2 0.42403957E-01 0.35779850E+03</pdfrwt>
<totfact> 0.16948034E+03</totfact>
</mgrwt>
</event>
<event>
 4    1  0.9012200E-005  0.8116171E+03  0.7818608E-02  0.9543352E-01
         -2   -1    0    0    0  501 -0.00000000000E+00  0.00000000000E+00  0.98818939320E+02  0.98818939353E+02  0.25500000000E-02 0. -1.
          2   -1    0    0  501    0  0.00000000000E+00 -0.00000000000E+00 -0.16664881432E+04  0.16664881433E+04  0.25500000000E-02 0.  1.
    5000001    1    1    2    0    0  0.23303628065E+02  0.23537048065E+03 -0.16284659369E+03  0.33118927416E+03  0.16500000000E+03 0.  0.
   -5000001    1    1    2    0    0 -0.23303628065E+02 -0.23537048065E+03 -0.14048226102E+04  0.14341178084E+04  0.16500000000E+03 0.  0.
<mgrwt>
<rscale>  0 0.81161713E+03</rscale>
<asrwt>0</asrwt>
<pdfrwt beam="1">  1        2 0.25638277E+00 0.81161713E+03</pdfrwt>
<pdfrwt beam="2">  1       -2 0.15202915E-01 0.81161713E+03</pdfrwt>
<totfact> 0.35477527E+02</totfact>
</mgrwt>
</event>
<event>
 4    1  0.9012200E-005  0.7318955E+03  0.7818608E-02  0.9664190E-01
          2   -1    0    0  501    0  0.00000000000E+00  0.00000000000E+00  0.33131622849E+03  0.33131622850E+03  0.25500000000E-02 0.  1.
         -2   -1    0    0    0  501 -0.00000000000E+00 -0.00000000000E+00 -0.40419915782E+03  0.40419915783E+03  0.25500000000E-02 0. -1.
    5000001    1    1    2    0    0 -0.19575066643E+03 -0.20285921010E+03  0.12936718248E+03  0.35132755433E+03  0.16500000000E+03 0.  0.
   -5000001    1    1    2    0    0  0.19575066643E+03  0.20285921010E+03 -0.20225011181E+03  0.38418783200E+03  0.16500000000E+03 0.  0.
<mgrwt>
<rscale>  0 0.73189546E+03</rscale>
<asrwt>0</asrwt>
<pdfrwt beam="1">  1        2 0.50971727E-01 0.73189546E+03</pdfrwt>
<pdfrwt beam="2">  1       -2 0.62184486E-01 0.73189546E+03</pdfrwt>
<totfact> 0.23807756E+02</totfact>
</mgrwt>
</event>
<event>
 4    1  0.9012200E-005  0.5375963E+03  0.7818608E-02  0.1004406E+00
          2   -1    0    0  501    0  0.00000000000E+00  0.00000000000E+00  0.21090563151E+04  0.21090563151E+04  0.25500000000E-02 0.  1.
         -2   -1    0    0    0  501 -0.00000000000E+00 -0.00000000000E+00 -0.34258190192E+02  0.34258190287E+02  0.25500000000E-02 0. -1.
    5000001    1    1    2    0    0 -0.45300975699E+01  0.20645458011E+03  0.84275935057E+03  0.88323968344E+03  0.16500000000E+03 0.  0.
   -5000001    1    1    2    0    0  0.45300975699E+01 -0.20645458011E+03  0.12320387743E+04  0.12600748219E+04  0.16500000000E+03 0.  0.
<mgrwt>
<rscale>  0 0.53759633E+03</rscale>
<asrwt>0</asrwt>
<pdfrwt beam="1">  1        2 0.32447013E+00 0.53759633E+03</pdfrwt>
<pdfrwt beam="2">  1       -2 0.52704921E-02 0.53759633E+03</pdfrwt>
<totfact> 0.11486084E+03</totfact>
</mgrwt>
</event>
<event>
 4    1  0.9012200E-005  0.4193608E+03  0.7818608E-02  0.1037275E+00
          2   -1    0    0  501    0  0.00000000000E+00  0.00000000000E+00  0.37385173909E+04  0.37385173909E+04  0.25500000000E-02 0.  1.
         -2   -1    0    0    0  501 -0.00000000000E+00 -0.00000000000E+00 -0.11760242379E+02  0.11760242655E+02  0.25500000000E-02 0. -1.
    5000001    1    1    2    0    0 -0.41780465877E+01 -0.12931691923E+03  0.18700077619E+04  0.18817264284E+04  0.16500000000E+03 0.  0.
   -5000001    1    1    2    0    0  0.41780465877E+01  0.12931691923E+03  0.18567493866E+04  0.18685512052E+04  0.16500000000E+03 0.  0.
<mgrwt>
<rscale>  0 0.41936080E+03</rscale>
<asrwt>0</asrwt>
<pdfrwt beam="1">  1        2 0.57515674E+00 0.41936080E+03</pdfrwt>
<pdfrwt beam="2">  1       -2 0.18092674E-02 0.41936080E+03</pdfrwt>
<totfact> 0.60496591E+02</totfact>
</mgrwt>
</event>
<event>
 4    1  0.9012200E-005  0.3456324E+03  0.7818608E-02  0.1064422E+00
         -2   -1    0    0    0  501 -0.00000000000E+00  0.00000000000E+00  0.14535567540E+02  0.14535567764E+02  0.25500000000E-02 0. -1.
          2   -1    0    0  501    0  0.00000000000E+00 -0.00000000000E+00 -0.20546456112E+04  0.20546456112E+04  0.25500000000E-02 0.  1.
    5000001    1    1    2    0    0  0.19710993943E+02 -0.45217832507E+02 -0.11062429928E+04  0.11195676553E+04  0.16500000000E+03 0.  0.
   -5000001    1    1    2    0    0 -0.19710993943E+02  0.45217832507E+02 -0.93386705086E+03  0.94961352367E+03  0.16500000000E+03 0.  0.
<mgrwt>
<rscale>  0 0.34563241E+03</rscale>
<asrwt>0</asrwt>
<pdfrwt beam="1">  1        2 0.31609909E+00 0.34563241E+03</pdfrwt>
<pdfrwt beam="2">  1       -2 0.22362428E-02 0.34563241E+03</pdfrwt>
<totfact> 0.45525036E+03</totfact>
</mgrwt>
</event>
<event>
 4    1  0.9012200E-005  0.4900233E+03  0.7818608E-02  0.1016416E+00
         -2   -1    0    0    0  501 -0.00000000000E+00  0.00000000000E+00  0.33958673238E+02  0.33958673334E+02  0.25500000000E-02 0. -1.
          2   -1    0    0  501    0  0.00000000000E+00 -0.00000000000E+00 -0.17677575541E+04  0.17677575541E+04  0.25500000000E-02 0.  1.
    5000001    1    1    2    0    0 -0.17622718603E+03  0.13069454034E+02 -0.10129969474E+04  0.10414483411E+04  0.16500000000E+03 0.  0.
   -5000001    1    1    2    0    0  0.17622718603E+03 -0.13069454034E+02 -0.72080193350E+03  0.76026788638E+03  0.16500000000E+03 0.  0.
<mgrwt>
<rscale>  0 0.49002327E+03</rscale>
<asrwt>0</asrwt>
<pdfrwt beam="1">  1        2 0.27196263E+00 0.49002327E+03</pdfrwt>
<pdfrwt beam="2">  1       -2 0.52244127E-02 0.49002327E+03</pdfrwt>
<totfact> 0.17827764E+03</totfact>
</mgrwt>
</event>
<event>
 4    1  0.9012200E-005  0.1291385E+04  0.7818608E-02  0.9036425E-01
         -2   -1    0    0    0  501 -0.00000000000E+00  0.00000000000E+00  0.27154167882E+03  0.27154167883E+03  0.25500000000E-02 0. -1.
          2   -1    0    0  501    0  0.00000000000E+00 -0.00000000000E+00 -0.15353779569E+04  0.15353779569E+04  0.25500000000E-02 0.  1.
    5000001    1    1    2    0    0 -0.33561737257E+03  0.52260787522E+03 -0.71970222386E+03  0.96485973231E+03  0.16500000000E+03 0.  0.
   -5000001    1    1    2    0    0  0.33561737257E+03 -0.52260787522E+03 -0.54413405425E+03  0.84205990345E+03  0.16500000000E+03 0.  0.
<mgrwt>
<rscale>  0 0.12913855E+04</rscale>
<asrwt>0</asrwt>
<pdfrwt beam="1">  1        2 0.23621199E+00 0.12913855E+04</pdfrwt>
<pdfrwt beam="2">  1       -2 0.41775644E-01 0.12913855E+04</pdfrwt>
<totfact> 0.64536223E+01</totfact>
</mgrwt>
</event>
<event>
 4    1  0.9012200E-005  0.4063669E+03  0.7818608E-02  0.1041597E+00
         -2   -1    0    0    0  501 -0.00000000000E+00  0.00000000000E+00  0.90458222983E+02  0.90458223019E+02  0.25500000000E-02 0. -1.
          2   -1    0    0  501    0  0.00000000000E+00 -0.00000000000E+00 -0.45638215635E+03  0.45638215636E+03  0.25500000000E-02 0.  1.
    5000001    1    1    2    0    0 -0.35662927052E+02 -0.10301627207E+03 -0.12021334710E+03  0.23143129758E+03  0.16500000000E+03 0.  0.
   -5000001    1    1    2    0    0  0.35662927052E+02  0.10301627207E+03 -0.24571058628E+03  0.31540908181E+03  0.16500000000E+03 0.  0.
<mgrwt>
<rscale>  0 0.40636692E+03</rscale>
<asrwt>0</asrwt>
<pdfrwt beam="1">  1        2 0.70212638E-01 0.40636692E+03</pdfrwt>
<pdfrwt beam="2">  1       -2 0.13916650E-01 0.40636692E+03</pdfrwt>
<totfact> 0.26906988E+03</totfact>
</mgrwt>
</event>
<event>
 4    1  0.9012200E-005  0.6857989E+03  0.7818608E-02  0.9741831E-01
         -2   -1    0    0    0  501 -0.00000000000E+00  0.00000000000E+00  0.47654347108E+03  0.47654347108E+03  0.25500000000E-02 0. -1.
          2   -1    0    0  501    0  0.00000000000E+00 -0.00000000000E+00 -0.24673514669E+03  0.24673514670E+03  0.25500000000E-02 0.  1.
    5000001    1    1    2    0    0  0.62566096962E+02  0.15352665362E+03 -0.14953808763E+03  0.27761770389E+03  0.16500000000E+03 0.  0.
   -5000001    1    1    2    0    0 -0.62566096962E+02 -0.15352665362E+03  0.37934641202E+03  0.44566091390E+03  0.16500000000E+03 0.  0.
<mgrwt>
<rscale>  0 0.68579887E+03</rscale>
<asrwt>0</asrwt>
<pdfrwt beam="1">  1        2 0.37959253E-01 0.68579887E+03</pdfrwt>
<pdfrwt beam="2">  1       -2 0.73314380E-01 0.68579887E+03</pdfrwt>
<totfact> 0.23164476E+02</totfact>
</mgrwt>
</event>
<event>
 4    1  0.9012200E-005  0.6954888E+03  0.7818608E-02  0.9724978E-01
          2   -1    0    0  501    0  0.00000000000E+00  0.00000000000E+00  0.93471370955E+03  0.93471370956E+03  0.25500000000E-02 0.  1.
         -2   -1    0    0    0  501 -0.00000000000E+00 -0.00000000000E+00 -0.12937241817E+03  0.12937241820E+03  0.25500000000E-02 0. -1.
    5000001    1    1    2    0    0 -0.25386577496E+03  0.53467175696E+02  0.65123805920E+03  0.72016843885E+03  0.16500000000E+03 0.  0.
   -5000001    1    1    2    0    0  0.25386577496E+03 -0.53467175696E+02  0.15410323218E+03  0.34391768890E+03  0.16500000000E+03 0.  0.
<mgrwt>
<rscale>  0 0.69548881E+03</rscale>
<asrwt>0</asrwt>
<pdfrwt beam="1">  1        2 0.14380211E+00 0.69548881E+03</pdfrwt>
<pdfrwt beam="2">  1       -2 0.19903449E-01 0.69548881E+03</pdfrwt>
<totfact> 0.60200435E+02</totfact>
</mgrwt>
</event>
<event>
 4    1  0.9012200E-005  0.3997038E+03  0.7818608E-02  0.1043882E+00
         -2   -1    0    0    0  501 -0.00000000000E+00  0.00000000000E+00  0.17699749676E+02  0.17699749860E+02  0.25500000000E-02 0. -1.
          2   -1    0    0  501    0  0.00000000000E+00 -0.00000000000E+00 -0.22565737844E+04  0.22565737844E+04  0.25500000000E-02 0.  1.
    5000001    1    1    2    0    0 -0.25590228830E+02 -0.97025451099E+02 -0.14121761585E+04  0.14253193679E+04  0.16500000000E+03 0.  0.
   -5000001    1    1    2    0    0  0.25590228830E+02  0.97025451099E+02 -0.82669787627E+03  0.84895416637E+03  0.16500000000E+03 0.  0.
<mgrwt>
<rscale>  0 0.39970385E+03</rscale>
<asrwt>0</asrwt>
<pdfrwt beam="1">  1        2 0.34716497E+00 0.39970385E+03</pdfrwt>
<pdfrwt beam="2">  1       -2 0.27230402E-02 0.39970385E+03</pdfrwt>
<totfact> 0.26377926E+03</totfact>
</mgrwt>
</event>
<event>
 4    1  0.9012200E-005  0.5091031E+03  0.7818608E-02  0.1011430E+00
         -2   -1    0    0    0  501 -0.00000000000E+00  0.00000000000E+00  0.19576307835E+02  0.19576308001E+02  0.25500000000E-02 0. -1.
          2   -1    0    0  501    0  0.00000000000E+00 -0.00000000000E+00 -0.33099446062E+04  0.33099446063E+04  0.25500000000E-02 0.  1.
    5000001    1    1    2    0    0 -0.11065476486E+03 -0.15908137350E+03 -0.16745299266E+04  0.16937611506E+04  0.16500000000E+03 0.  0.
   -5000001    1    1    2    0    0  0.11065476486E+03  0.15908137350E+03 -0.16158383719E+04  0.16357597636E+04  0.16500000000E+03 0.  0.
<mgrwt>
<rscale>  0 0.50910311E+03</rscale>
<asrwt>0</asrwt>
<pdfrwt beam="1">  1        2 0.50922180E+00 0.50910311E+03</pdfrwt>
<pdfrwt beam="2">  1       -2 0.30117423E-02 0.50910311E+03</pdfrwt>
<totfact> 0.54279657E+02</totfact>
</mgrwt>
</event>
<event>
 4    1  0.9012200E-005  0.3390286E+03  0.7818608E-02  0.1067210E+00
          2   -1    0    0  501    0  0.00000000000E+00  0.00000000000E+00  0.48740329585E+02  0.48740329652E+02  0.25500000000E-02 0.  1.
         -2   -1    0    0    0  501 -0.00000000000E+00 -0.00000000000E+00 -0.58955470033E+03  0.58955470033E+03  0.25500000000E-02 0. -1.
    5000001    1    1    2    0    0 -0.19234160415E+02  0.32517278125E+02 -0.25327920175E+03  0.30463532353E+03  0.16500000000E+03 0.  0.
   -5000001    1    1    2    0    0  0.19234160415E+02 -0.32517278125E+02 -0.28753516899E+03  0.33365970645E+03  0.16500000000E+03 0.  0.
<mgrwt>
<rscale>  0 0.33902856E+03</rscale>
<asrwt>0</asrwt>
<pdfrwt beam="1">  1        2 0.74985127E-02 0.33902856E+03</pdfrwt>
<pdfrwt beam="2">  1       -2 0.90700718E-01 0.33902856E+03</pdfrwt>
<totfact> 0.99759809E+02</totfact>
</mgrwt>
</event>
<event>
 4    1  0.9012200E-005  0.4631586E+03  0.7818608E-02  0.1023869E+00
         -2   -1    0    0    0  501 -0.00000000000E+00  0.00000000000E+00  0.30737287700E+02  0.30737287806E+02  0.25500000000E-02 0. -1.
          2   -1    0    0  501    0  0.00000000000E+00 -0.00000000000E+00 -0.17447530146E+04  0.17447530146E+04  0.25500000000E-02 0.  1.
    5000001    1    1    2    0    0 -0.10376715478E+03 -0.37648432853E+02 -0.39989620246E+03  0.44646052417E+03  0.16500000000E+03 0.  0.
   -5000001    1    1    2    0    0  0.10376715478E+03  0.37648432853E+02 -0.13141195245E+04  0.13290297783E+04  0.16500000000E+03 0.  0.
<mgrwt>
<rscale>  0 0.46315861E+03</rscale>
<asrwt>0</asrwt>
<pdfrwt beam="1">  1        2 0.26842346E+00 0.46315861E+03</pdfrwt>
<pdfrwt beam="2">  1       -2 0.47288149E-02 0.46315861E+03</pdfrwt>
<totfact> 0.21415809E+03</totfact>
</mgrwt>
</event>
<event>
 4    1  0.9012200E-005  0.4670597E+03  0.7818608E-02  0.1022753E+00
          2   -1    0    0  501    0  0.00000000000E+00  0.00000000000E+00  0.28618216474E+03  0.28618216475E+03  0.25500000000E-02 0.  1.
         -2   -1    0    0    0  501 -0.00000000000E+00 -0.00000000000E+00 -0.19056463050E+03  0.19056463052E+03  0.25500000000E-02 0. -1.
    5000001    1    1    2    0    0  0.83252306003E+02  0.14061799081E+03  0.22663871290E+02  0.23333027419E+03  0.16500000000E+03 0.  0.
   -5000001    1    1    2    0    0 -0.83252306003E+02 -0.14061799081E+03  0.72953662946E+02  0.24341652107E+03  0.16500000000E+03 0.  0.
<mgrwt>
<rscale>  0 0.46705973E+03</rscale>
<asrwt>0</asrwt>
<pdfrwt beam="1">  1        2 0.44028025E-01 0.46705973E+03</pdfrwt>
<pdfrwt beam="2">  1       -2 0.29317635E-01 0.46705973E+03</pdfrwt>
<totfact> 0.12360613E+03</totfact>
</mgrwt>
</event>
<event>
 4    1  0.9012200E-005  0.4068651E+03  0.7818608E-02  0.1041428E+00
          2   -1    0    0  501    0  0.00000000000E+00  0.00000000000E+00  0.65177514832E+03  0.65177514832E+03  0.25500000000E-02 0.  1.
         -2   -1    0    0    0  501 -0.00000000000E+00 -0.00000000000E+00 -0.63495525462E+02  0.63495525514E+02  0.25500000000E-02 0. -1.
    5000001    1    1    2    0    0 -0.84283547044E+02  0.39920461766E+02  0.16420858387E+03  0.25077244384E+03  0.16500000000E+03 0.  0.
   -5000001    1    1    2    0    0  0.84283547044E+02 -0.39920461766E+02  0.42407103898E+03  0.46449823000E+03  0.16500000000E+03 0.  0.
<mgrwt>
<rscale>  0 0.40686512E+03</rscale>
<asrwt>0</asrwt>
<pdfrwt beam="1">  1        2 0.10027310E+00 0.40686512E+03</pdfrwt>
<pdfrwt beam="2">  1       -2 0.97685425E-02 0.40686512E+03</pdfrwt>
<totfact> 0.31685982E+03</totfact>
</mgrwt>
</event>
<event>
 4    1  0.9012200E-005  0.5475720E+03  0.7818608E-02  0.1002057E+00
          2   -1    0    0  501    0  0.00000000000E+00  0.00000000000E+00  0.18096194114E+04  0.18096194114E+04  0.25500000000E-02 0.  1.
         -2   -1    0    0    0  501 -0.00000000000E+00 -0.00000000000E+00 -0.41422403924E+02  0.41422404002E+02  0.25500000000E-02 0. -1.
    5000001    1    1    2    0    0  0.12445441646E+03 -0.14987139807E+03  0.12184636059E+04  0.12449212412E+04  0.16500000000E+03 0.  0.
   -5000001    1    1    2    0    0 -0.12445441646E+03  0.14987139807E+03  0.54973340155E+03  0.60612057424E+03  0.16500000000E+03 0.  0.
<mgrwt>
<rscale>  0 0.54757205E+03</rscale>
<asrwt>0</asrwt>
<pdfrwt beam="1">  1        2 0.27840298E+00 0.54757205E+03</pdfrwt>
<pdfrwt beam="2">  1       -2 0.63726777E-02 0.54757205E+03</pdfrwt>
<totfact> 0.12384941E+03</totfact>
</mgrwt>
</event>
<event>
 4    1  0.9012200E-005  0.3955292E+03  0.7818608E-02  0.1045339E+00
         -2   -1    0    0    0  501 -0.00000000000E+00  0.00000000000E+00  0.18076445659E+02  0.18076445839E+02  0.25500000000E-02 0. -1.
          2   -1    0    0  501    0  0.00000000000E+00 -0.00000000000E+00 -0.21636354240E+04  0.21636354240E+04  0.25500000000E-02 0.  1.
    5000001    1    1    2    0    0  0.53023047122E+02  0.59782376863E+02 -0.66368989701E+03  0.68854531841E+03  0.16500000000E+03 0.  0.
   -5000001    1    1    2    0    0 -0.53023047122E+02 -0.59782376863E+02 -0.14818690813E+04  0.14931665514E+04  0.16500000000E+03 0.  0.
<mgrwt>
<rscale>  0 0.39552921E+03</rscale>
<asrwt>0</asrwt>
<pdfrwt beam="1">  1        2 0.33286678E+00 0.39552921E+03</pdfrwt>
<pdfrwt beam="2">  1       -2 0.27809934E-02 0.39552921E+03</pdfrwt>
<totfact> 0.28693449E+03</totfact>
</mgrwt>
</event>
<event>
 4    1  0.9012200E-005  0.4102137E+03  0.7818608E-02  0.1040299E+00
          2   -1    0    0  501    0  0.00000000000E+00  0.00000000000E+00  0.20508337827E+03  0.20508337829E+03  0.25500000000E-02 0.  1.
         -2   -1    0    0    0  501 -0.00000000000E+00 -0.00000000000E+00 -0.20513031516E+03  0.20513031517E+03  0.25500000000E-02 0. -1.
    5000001    1    1    2    0    0  0.11299569270E+03  0.42370003816E+02 -0.16773818818E+02  0.20510876332E+03  0.16500000000E+03 0.  0.
   -5000001    1    1    2    0    0 -0.11299569270E+03 -0.42370003816E+02  0.16726881937E+02  0.20510493015E+03  0.16500000000E+03 0.  0.
<mgrwt>
<rscale>  0 0.41021369E+03</rscale>
<asrwt>0</asrwt>
<pdfrwt beam="1">  1        2 0.31551289E-01 0.41021369E+03</pdfrwt>
<pdfrwt beam="2">  1       -2 0.31558510E-01 0.41021369E+03</pdfrwt>
<totfact> 0.15561274E+03</totfact>
</mgrwt>
</event>
<event>
 4    1  0.9012200E-005  0.4151888E+03  0.7818608E-02  0.1038644E+00
         -2   -1    0    0    0  501 -0.00000000000E+00  0.00000000000E+00  0.49629498252E+02  0.49629498318E+02  0.25500000000E-02 0. -1.
          2   -1    0    0  501    0  0.00000000000E+00 -0.00000000000E+00 -0.86834325147E+03  0.86834325148E+03  0.25500000000E-02 0.  1.
    5000001    1    1    2    0    0 -0.64542608458E+02 -0.10799838916E+03 -0.39519289320E+03  0.44635392146E+03  0.16500000000E+03 0.  0.
   -5000001    1    1    2    0    0  0.64542608458E+02  0.10799838916E+03 -0.42352086002E+03  0.47161882833E+03  0.16500000000E+03 0.  0.
<mgrwt>
<rscale>  0 0.41518882E+03</rscale>
<asrwt>0</asrwt>
<pdfrwt beam="1">  1        2 0.13359126E+00 0.41518882E+03</pdfrwt>
<pdfrwt beam="2">  1       -2 0.76353080E-02 0.41518882E+03</pdfrwt>
<totfact> 0.32576810E+03</totfact>
</mgrwt>
</event>
<event>
 4    1  0.9012200E-005  0.7912293E+03  0.7818608E-02  0.9572800E-01
          2   -1    0    0  501    0  0.00000000000E+00  0.00000000000E+00  0.62810664937E+03  0.62810664938E+03  0.25500000000E-02 0. -1.
         -2   -1    0    0    0  501 -0.00000000000E+00 -0.00000000000E+00 -0.24917896176E+03  0.24917896177E+03  0.25500000000E-02 0.  1.
    5000001    1    1    2    0    0 -0.16824903399E+03  0.13595877054E+03  0.50791903376E+03  0.57619377781E+03  0.16500000000E+03 0.  0.
   -5000001    1    1    2    0    0  0.16824903399E+03 -0.13595877054E+03 -0.12899134615E+03  0.30109183334E+03  0.16500000000E+03 0.  0.
<mgrwt>
<rscale>  0 0.79122933E+03</rscale>
<asrwt>0</asrwt>
<pdfrwt beam="1">  1        2 0.96631790E-01 0.79122933E+03</pdfrwt>
<pdfrwt beam="2">  1       -2 0.38335226E-01 0.79122933E+03</pdfrwt>
<totfact> 0.30319620E+02</totfact>
</mgrwt>
</event>
<event>
 4    1  0.9012200E-005  0.5622048E+03  0.7818608E-02  0.9987078E-01
          2   -1    0    0  501    0  0.00000000000E+00  0.00000000000E+00  0.48751045789E+03  0.48751045790E+03  0.25500000000E-02 0.  1.
         -2   -1    0    0    0  501 -0.00000000000E+00 -0.00000000000E+00 -0.16208590120E+03  0.16208590122E+03  0.25500000000E-02 0. -1.
    5000001    1    1    2    0    0 -0.18377242252E+03  0.10923379559E+03  0.72548775177E+02  0.27962948728E+03  0.16500000000E+03 0.  0.
   -5000001    1    1    2    0    0  0.18377242252E+03 -0.10923379559E+03  0.25287578151E+03  0.36996687183E+03  0.16500000000E+03 0.  0.
<mgrwt>
<rscale>  0 0.56220484E+03</rscale>
<asrwt>0</asrwt>
<pdfrwt beam="1">  1        2 0.75001609E-01 0.56220484E+03</pdfrwt>
<pdfrwt beam="2">  1       -2 0.24936293E-01 0.56220484E+03</pdfrwt>
<totfact> 0.91645993E+02</totfact>
</mgrwt>
</event>
<event>
 4    1  0.9012200E-005  0.5602679E+03  0.7818608E-02  0.9991449E-01
          2   -1    0    0  501    0  0.00000000000E+00  0.00000000000E+00  0.20738328181E+04  0.20738328181E+04  0.25500000000E-02 0.  1.
         -2   -1    0    0    0  501 -0.00000000000E+00 -0.00000000000E+00 -0.37840570213E+02  0.37840570299E+02  0.25500000000E-02 0. -1.
    5000001    1    1    2    0    0 -0.30378364332E+02 -0.21751362305E+03  0.12249503780E+04  0.12553738287E+04  0.16500000000E+03 0.  0.
   -5000001    1    1    2    0    0  0.30378364332E+02  0.21751362305E+03  0.81104186994E+03  0.85629955975E+03  0.16500000000E+03 0.  0.
<mgrwt>
<rscale>  0 0.56026785E+03</rscale>
<asrwt>0</asrwt>
<pdfrwt beam="1">  1        2 0.31905135E+00 0.56026785E+03</pdfrwt>
<pdfrwt beam="2">  1       -2 0.58216235E-02 0.56026785E+03</pdfrwt>
<totfact> 0.10265206E+03</totfact>
</mgrwt>
</event>
<event>
 4    1  0.9012200E-005  0.5314591E+03  0.7818608E-02  0.1005879E+00
         -2   -1    0    0    0  501 -0.00000000000E+00  0.00000000000E+00  0.25481106631E+03  0.25481106633E+03  0.25500000000E-02 0. -1.
          2   -1    0    0  501    0  0.00000000000E+00 -0.00000000000E+00 -0.27711592896E+03  0.27711592898E+03  0.25500000000E-02 0.  1.
    5000001    1    1    2    0    0 -0.49991178087E+02  0.14618697189E+03 -0.15098030722E+03  0.27182678640E+03  0.16500000000E+03 0.  0.
   -5000001    1    1    2    0    0  0.49991178087E+02 -0.14618697189E+03  0.12867544457E+03  0.26010020890E+03  0.16500000000E+03 0.  0.
<mgrwt>
<rscale>  0 0.53145914E+03</rscale>
<asrwt>0</asrwt>
<pdfrwt beam="1">  1        2 0.42633220E-01 0.53145914E+03</pdfrwt>
<pdfrwt beam="2">  1       -2 0.39201702E-01 0.53145914E+03</pdfrwt>
<totfact> 0.74167759E+02</totfact>
</mgrwt>
</event>
<event>
 4    1  0.9012200E-005  0.4038771E+03  0.7818608E-02  0.1042445E+00
         -2   -1    0    0    0  501 -0.00000000000E+00  0.00000000000E+00  0.22458437178E+02  0.22458437322E+02  0.25500000000E-02 0. -1.
          2   -1    0    0  501    0  0.00000000000E+00 -0.00000000000E+00 -0.18157620803E+04  0.18157620803E+04  0.25500000000E-02 0.  1.
    5000001    1    1    2    0    0  0.97871219769E+02 -0.49417540128E+02 -0.71842899241E+03  0.74524230024E+03  0.16500000000E+03 0.  0.
   -5000001    1    1    2    0    0 -0.97871219769E+02  0.49417540128E+02 -0.10748746507E+04  0.10929782174E+04  0.16500000000E+03 0.  0.
<mgrwt>
<rscale>  0 0.40387710E+03</rscale>
<asrwt>0</asrwt>
<pdfrwt beam="1">  1        2 0.27934790E+00 0.40387710E+03</pdfrwt>
<pdfrwt beam="2">  1       -2 0.34551456E-02 0.40387710E+03</pdfrwt>
<totfact> 0.31729785E+03</totfact>
</mgrwt>
</event>
<event>
 4    1  0.9012200E-005  0.5229061E+03  0.7818608E-02  0.1007967E+00
          2   -1    0    0  501    0  0.00000000000E+00  0.00000000000E+00  0.43703058561E+03  0.43703058561E+03  0.25500000000E-02 0.  1.
         -2   -1    0    0    0  501 -0.00000000000E+00 -0.00000000000E+00 -0.15641397764E+03  0.15641397767E+03  0.25500000000E-02 0. -1.
    5000001    1    1    2    0    0 -0.19980025183E+03  0.23731744838E+02  0.16922827560E+03  0.31039739948E+03  0.16500000000E+03 0.  0.
   -5000001    1    1    2    0    0  0.19980025183E+03 -0.23731744838E+02  0.11138833236E+03  0.28304716379E+03  0.16500000000E+03 0.  0.
<mgrwt>
<rscale>  0 0.52290608E+03</rscale>
<asrwt>0</asrwt>
<pdfrwt beam="1">  1        2 0.67235474E-01 0.52290608E+03</pdfrwt>
<pdfrwt beam="2">  1       -2 0.24063689E-01 0.52290608E+03</pdfrwt>
<totfact> 0.11059839E+03</totfact>
</mgrwt>
</event>
<event>
 4    1  0.9012200E-005  0.8570680E+03  0.7818608E-02  0.9480899E-01
          2   -1    0    0  501    0  0.00000000000E+00  0.00000000000E+00  0.19902245093E+03  0.19902245095E+03  0.25500000000E-02 0.  1.
         -2   -1    0    0    0  501 -0.00000000000E+00 -0.00000000000E+00 -0.92271704030E+03  0.92271704031E+03  0.25500000000E-02 0. -1.
    5000001    1    1    2    0    0  0.60225204303E+01 -0.38103521934E+03 -0.50031112334E+03  0.65020022244E+03  0.16500000000E+03 0.  0.
   -5000001    1    1    2    0    0 -0.60225204303E+01  0.38103521934E+03 -0.22338346604E+03  0.47153926881E+03  0.16500000000E+03 0.  0.
<mgrwt>
<rscale>  0 0.85706804E+03</rscale>
<asrwt>0</asrwt>
<pdfrwt beam="1">  1        2 0.30618839E-01 0.85706804E+03</pdfrwt>
<pdfrwt beam="2">  1       -2 0.14195647E+00 0.85706804E+03</pdfrwt>
<totfact> 0.60549840E+01</totfact>
</mgrwt>
</event>
<event>
 4    1  0.9012200E-005  0.4500695E+03  0.7818608E-02  0.1027701E+00
         -2   -1    0    0    0  501 -0.00000000000E+00  0.00000000000E+00  0.37032877141E+03  0.37032877141E+03  0.25500000000E-02 0. -1.
          2   -1    0    0  501    0  0.00000000000E+00 -0.00000000000E+00 -0.13674508019E+03  0.13674508021E+03  0.25500000000E-02 0.  1.
    5000001    1    1    2    0    0  0.40626047133E+02  0.12909620754E+03  0.36337734440E+02  0.21647572023E+03  0.16500000000E+03 0.  0.
   -5000001    1    1    2    0    0 -0.40626047133E+02 -0.12909620754E+03  0.19724595678E+03  0.29059813140E+03  0.16500000000E+03 0.  0.
<mgrwt>
<rscale>  0 0.45006949E+03</rscale>
<asrwt>0</asrwt>
<pdfrwt beam="1">  1        2 0.21037705E-01 0.45006949E+03</pdfrwt>
<pdfrwt beam="2">  1       -2 0.56973656E-01 0.45006949E+03</pdfrwt>
<totfact> 0.77644559E+02</totfact>
</mgrwt>
</event>
<event>
 4    1  0.9012200E-005  0.4369431E+03  0.7818608E-02  0.1031689E+00
          2   -1    0    0  501    0  0.00000000000E+00  0.00000000000E+00  0.41447610682E+03  0.41447610683E+03  0.25500000000E-02 0.  1.
         -2   -1    0    0    0  501 -0.00000000000E+00 -0.00000000000E+00 -0.11515700819E+03  0.11515700822E+03  0.25500000000E-02 0. -1.
    5000001    1    1    2    0    0 -0.64876454817E+02  0.14878186314E+02 -0.40210761944E+01  0.17796483886E+03  0.16500000000E+03 0.  0.
   -5000001    1    1    2    0    0  0.64876454817E+02 -0.14878186314E+02  0.30334017482E+03  0.35166827619E+03  0.16500000000E+03 0.  0.
<mgrwt>
<rscale>  0 0.43694315E+03</rscale>
<asrwt>0</asrwt>
<pdfrwt beam="1">  1        2 0.63765555E-01 0.43694315E+03</pdfrwt>
<pdfrwt beam="2">  1       -2 0.17716463E-01 0.43694315E+03</pdfrwt>
<totfact> 0.19989503E+03</totfact>
</mgrwt>
</event>
<event>
 4    1  0.9012200E-005  0.7873709E+03  0.7818608E-02  0.9578479E-01
         -2   -1    0    0    0  501 -0.00000000000E+00  0.00000000000E+00  0.10137543876E+03  0.10137543879E+03  0.25500000000E-02 0. -1.
          2   -1    0    0  501    0  0.00000000000E+00 -0.00000000000E+00 -0.15288539759E+04  0.15288539759E+04  0.25500000000E-02 0.  1.
    5000001    1    1    2    0    0  0.16918728189E+03  0.21781606732E+03 -0.11844931440E+04  0.12273211413E+04  0.16500000000E+03 0.  0.
   -5000001    1    1    2    0    0 -0.16918728189E+03 -0.21781606732E+03 -0.24298539312E+03  0.40290827344E+03  0.16500000000E+03 0.  0.
<mgrwt>
<rscale>  0 0.78737092E+03</rscale>
<asrwt>0</asrwt>
<pdfrwt beam="1">  1        2 0.23520829E+00 0.78737092E+03</pdfrwt>
<pdfrwt beam="2">  1       -2 0.15596223E-01 0.78737092E+03</pdfrwt>
<totfact> 0.40532006E+02</totfact>
</mgrwt>
</event>
<event>
 4    1  0.9012200E-005  0.6402853E+03  0.7818608E-02  0.9825181E-01
          2   -1    0    0  501    0  0.00000000000E+00  0.00000000000E+00  0.66950691829E+03  0.66950691830E+03  0.25500000000E-02 0.  1.
         -2   -1    0    0    0  501 -0.00000000000E+00 -0.00000000000E+00 -0.15308477873E+03  0.15308477875E+03  0.25500000000E-02 0. -1.
    5000001    1    1    2    0    0  0.24309041288E+03 -0.78286249635E+02  0.38697013561E+03  0.49213064482E+03  0.16500000000E+03 0.  0.
   -5000001    1    1    2    0    0 -0.24309041288E+03  0.78286249635E+02  0.12945200395E+03  0.33046105223E+03  0.16500000000E+03 0.  0.
<mgrwt>
<rscale>  0 0.64028531E+03</rscale>
<asrwt>0</asrwt>
<pdfrwt beam="1">  1        2 0.10300107E+00 0.64028531E+03</pdfrwt>
<pdfrwt beam="2">  1       -2 0.23551504E-01 0.64028531E+03</pdfrwt>
<totfact> 0.69563019E+02</totfact>
</mgrwt>
</event>
<event>
 4    1  0.9012200E-005  0.5129379E+03  0.7818608E-02  0.1010456E+00
         -2   -1    0    0    0  501 -0.00000000000E+00  0.00000000000E+00  0.80533254946E+02  0.80533254987E+02  0.25500000000E-02 0. -1.
          2   -1    0    0  501    0  0.00000000000E+00 -0.00000000000E+00 -0.81675964235E+03  0.81675964235E+03  0.25500000000E-02 0.  1.
    5000001    1    1    2    0    0 -0.16608968523E+03  0.93350980458E+02 -0.45111148039E+03  0.51674631768E+03  0.16500000000E+03 0.  0.
   -5000001    1    1    2    0    0  0.16608968523E+03 -0.93350980458E+02 -0.28511490701E+03  0.38054657966E+03  0.16500000000E+03 0.  0.
<mgrwt>
<rscale>  0 0.51293786E+03</rscale>
<asrwt>0</asrwt>
<pdfrwt beam="1">  1        2 0.12565532E+00 0.51293786E+03</pdfrwt>
<pdfrwt beam="2">  1       -2 0.12389732E-01 0.51293786E+03</pdfrwt>
<totfact> 0.16224650E+03</totfact>
</mgrwt>
</event>
<event>
 4    1  0.9012200E-005  0.3718718E+03  0.7818608E-02  0.1053980E+00
          2   -1    0    0  501    0  0.00000000000E+00  0.00000000000E+00  0.32980172507E+03  0.32980172508E+03  0.25500000000E-02 0.  1.
         -2   -1    0    0    0  501 -0.00000000000E+00 -0.00000000000E+00 -0.10482708486E+03  0.10482708489E+03  0.25500000000E-02 0. -1.
    5000001    1    1    2    0    0 -0.64546169666E+02  0.56326320329E+02  0.10912197127E+03  0.21557241705E+03  0.16500000000E+03 0.  0.
   -5000001    1    1    2    0    0  0.64546169666E+02 -0.56326320329E+02  0.11585266894E+03  0.21905639293E+03  0.16500000000E+03 0.  0.
<mgrwt>
<rscale>  0 0.37187177E+03</rscale>
<asrwt>0</asrwt>
<pdfrwt beam="1">  1        2 0.50738727E-01 0.37187177E+03</pdfrwt>
<pdfrwt beam="2">  1       -2 0.16127244E-01 0.37187177E+03</pdfrwt>
<totfact> 0.30053244E+03</totfact>
</mgrwt>
</event>
<event>
 4    1  0.9012200E-005  0.6505076E+03  0.7818608E-02  0.9805827E-01
         -2   -1    0    0    0  501 -0.00000000000E+00  0.00000000000E+00  0.16189461739E+04  0.16189461739E+04  0.25500000000E-02 0. -1.
          2   -1    0    0  501    0  0.00000000000E+00 -0.00000000000E+00 -0.65344996055E+02  0.65344996105E+02  0.25500000000E-02 0.  1.
    5000001    1    1    2    0    0 -0.13862430880E+01 -0.27691884877E+03  0.88903737797E+03  0.94567353241E+03  0.16500000000E+03 0.  0.
   -5000001    1    1    2    0    0  0.13862430880E+01  0.27691884877E+03  0.66456379991E+03  0.73861763764E+03  0.16500000000E+03 0.  0.
<mgrwt>
<rscale>  0 0.65050759E+03</rscale>
<asrwt>0</asrwt>
<pdfrwt beam="1">  1        2 0.10053077E-01 0.65050759E+03</pdfrwt>
<pdfrwt beam="2">  1       -2 0.24906862E+00 0.65050759E+03</pdfrwt>
<totfact> 0.44511590E+01</totfact>
</mgrwt>
</event>
<event>
 4    1  0.9012200E-005  0.6668429E+03  0.7818608E-02  0.9775678E-01
          2   -1    0    0  501    0  0.00000000000E+00  0.00000000000E+00  0.40777525556E+03  0.40777525557E+03  0.25500000000E-02 0.  1.
         -2   -1    0    0    0  501 -0.00000000000E+00 -0.00000000000E+00 -0.27262531934E+03  0.27262531936E+03  0.25500000000E-02 0. -1.
    5000001    1    1    2    0    0 -0.23967030902E+03  0.15859072350E+03  0.30058060664E+02  0.33274819551E+03  0.16500000000E+03 0.  0.
   -5000001    1    1    2    0    0  0.23967030902E+03 -0.15859072350E+03  0.10509187555E+03  0.34765237941E+03  0.16500000000E+03 0.  0.
<mgrwt>
<rscale>  0 0.66684289E+03</rscale>
<asrwt>0</asrwt>
<pdfrwt beam="1">  1        2 0.62734654E-01 0.66684289E+03</pdfrwt>
<pdfrwt beam="2">  1       -2 0.41942357E-01 0.66684289E+03</pdfrwt>
<totfact> 0.42269082E+02</totfact>
</mgrwt>
</event>
<event>
 4    1  0.9012200E-005  0.4088922E+03  0.7818608E-02  0.1040743E+00
         -2   -1    0    0    0  501 -0.00000000000E+00  0.00000000000E+00  0.13983564426E+02  0.13983564659E+02  0.25500000000E-02 0. -1.
          2   -1    0    0  501    0  0.00000000000E+00 -0.00000000000E+00 -0.29890951438E+04  0.29890951438E+04  0.25500000000E-02 0.  1.
    5000001    1    1    2    0    0 -0.14614382063E+02 -0.88537507421E+02 -0.89448550787E+03  0.91399222873E+03  0.16500000000E+03 0.  0.
   -5000001    1    1    2    0    0  0.14614382063E+02  0.88537507421E+02 -0.20806260715E+04  0.20890864797E+04  0.16500000000E+03 0.  0.
<mgrwt>
<rscale>  0 0.40889219E+03</rscale>
<asrwt>0</asrwt>
<pdfrwt beam="1">  1        2 0.45986028E+00 0.40889219E+03</pdfrwt>
<pdfrwt beam="2">  1       -2 0.21513200E-02 0.40889219E+03</pdfrwt>
<totfact> 0.14418969E+03</totfact>
</mgrwt>
</event>
<event>
 4    1  0.9012200E-005  0.3720052E+03  0.7818608E-02  0.1053929E+00
         -2   -1    0    0    0  501 -0.00000000000E+00  0.00000000000E+00  0.27612302895E+02  0.27612303013E+02  0.25500000000E-02 0. -1.
          2   -1    0    0  501    0  0.00000000000E+00 -0.00000000000E+00 -0.12529550018E+04  0.12529550018E+04  0.25500000000E-02 0.  1.
    5000001    1    1    2    0    0  0.15984665812E+02 -0.38827488380E+02 -0.35486606707E+03  0.39359625119E+03  0.16500000000E+03 0.  0.
   -5000001    1    1    2    0    0 -0.15984665812E+02  0.38827488380E+02 -0.87047663186E+03  0.88697105365E+03  0.16500000000E+03 0.  0.
<mgrwt>
<rscale>  0 0.37200523E+03</rscale>
<asrwt>0</asrwt>
<pdfrwt beam="1">  1        2 0.19276226E+00 0.37200523E+03</pdfrwt>
<pdfrwt beam="2">  1       -2 0.42480476E-02 0.37200523E+03</pdfrwt>
<totfact> 0.46953939E+03</totfact>
</mgrwt>
</event>
<event>
 4    1  0.9012200E-005  0.4551870E+03  0.7818608E-02  0.1026186E+00
         -2   -1    0    0    0  501 -0.00000000000E+00  0.00000000000E+00  0.54769773796E+03  0.54769773796E+03  0.25500000000E-02 0. -1.
          2   -1    0    0  501    0  0.00000000000E+00 -0.00000000000E+00 -0.94575510868E+02  0.94575510902E+02  0.25500000000E-02 0.  1.
    5000001    1    1    2    0    0  0.77700684313E+02  0.50280511376E+02  0.48034823933E+02  0.19518675795E+03  0.16500000000E+03 0.  0.
   -5000001    1    1    2    0    0 -0.77700684313E+02 -0.50280511376E+02  0.40508740315E+03  0.44708649092E+03  0.16500000000E+03 0.  0.
<mgrwt>
<rscale>  0 0.45518697E+03</rscale>
<asrwt>0</asrwt>
<pdfrwt beam="1">  1        2 0.14550079E-01 0.45518697E+03</pdfrwt>
<pdfrwt beam="2">  1       -2 0.84261189E-01 0.45518697E+03</pdfrwt>
<totfact> 0.51566877E+02</totfact>
</mgrwt>
</event>
<event>
 4    1  0.9012200E-005  0.8120002E+03  0.7818608E-02  0.9542808E-01
         -2   -1    0    0    0  501 -0.00000000000E+00  0.00000000000E+00  0.61685686069E+02  0.61685686122E+02  0.25500000000E-02 0. -1.
          2   -1    0    0  501    0  0.00000000000E+00 -0.00000000000E+00 -0.26721930867E+04  0.26721930867E+04  0.25500000000E-02 0.  1.
    5000001    1    1    2    0    0  0.15190749745E+02  0.34778598100E+03 -0.87375579631E+03  0.95491362910E+03  0.16500000000E+03 0.  0.
   -5000001    1    1    2    0    0 -0.15190749745E+02 -0.34778598100E+03 -0.17367516043E+04  0.17789651437E+04  0.16500000000E+03 0.  0.
<mgrwt>
<rscale>  0 0.81200016E+03</rscale>
<asrwt>0</asrwt>
<pdfrwt beam="1">  1        2 0.41110654E+00 0.81200016E+03</pdfrwt>
<pdfrwt beam="2">  1       -2 0.94901076E-02 0.81200016E+03</pdfrwt>
<totfact> 0.21379923E+02</totfact>
</mgrwt>
</event>
<event>
 4    1  0.9012200E-005  0.5397442E+03  0.7818608E-02  0.1003896E+00
         -2   -1    0    0    0  501 -0.00000000000E+00  0.00000000000E+00  0.38431719261E+02  0.38431719345E+02  0.25500000000E-02 0. -1.
          2   -1    0    0  501    0  0.00000000000E+00 -0.00000000000E+00 -0.18950741679E+04  0.18950741679E+04  0.25500000000E-02 0.  1.
    5000001    1    1    2    0    0 -0.92194926853E+02  0.17407124819E+03 -0.12238363236E+04  0.12505203121E+04  0.16500000000E+03 0.  0.
   -5000001    1    1    2    0    0  0.92194926853E+02 -0.17407124819E+03 -0.63280612499E+03  0.68298557511E+03  0.16500000000E+03 0.  0.
<mgrwt>
<rscale>  0 0.53974423E+03</rscale>
<asrwt>0</asrwt>
<pdfrwt beam="1">  1        2 0.29154980E+00 0.53974423E+03</pdfrwt>
<pdfrwt beam="2">  1       -2 0.59125737E-02 0.53974423E+03</pdfrwt>
<totfact> 0.12530235E+03</totfact>
</mgrwt>
</event>
<event>
 4    1  0.9012200E-005  0.9310116E+03  0.7818608E-02  0.9387625E-01
          2   -1    0    0  501    0  0.00000000000E+00  0.00000000000E+00  0.90213792212E+03  0.90213792213E+03  0.25500000000E-02 0.  1.
         -2   -1    0    0    0  501 -0.00000000000E+00 -0.00000000000E+00 -0.24020236044E+03  0.24020236045E+03  0.25500000000E-02 0. -1.
    5000001    1    1    2    0    0 -0.21844678872E+03 -0.36897337563E+03  0.42287163004E+03  0.62442434843E+03  0.16500000000E+03 0.  0.
   -5000001    1    1    2    0    0  0.21844678872E+03  0.36897337563E+03  0.23906393165E+03  0.51791593414E+03  0.16500000000E+03 0.  0.
<mgrwt>
<rscale>  0 0.93101162E+03</rscale>
<asrwt>0</asrwt>
<pdfrwt beam="1">  1        2 0.13879045E+00 0.93101162E+03</pdfrwt>
<pdfrwt beam="2">  1       -2 0.36954209E-01 0.93101162E+03</pdfrwt>
<totfact> 0.20176022E+02</totfact>
</mgrwt>
</event>
<event>
 4    1  0.9012200E-005  0.5862884E+03  0.7818608E-02  0.9934269E-01
         -2   -1    0    0    0  501 -0.00000000000E+00  0.00000000000E+00  0.41034379095E+02  0.41034379174E+02  0.25500000000E-02 0. -1.
          2   -1    0    0  501    0  0.00000000000E+00 -0.00000000000E+00 -0.20941838202E+04  0.20941838202E+04  0.25500000000E-02 0.  1.
    5000001    1    1    2    0    0  0.17937100333E+03 -0.11890917496E+03 -0.62110593636E+03  0.67772482093E+03  0.16500000000E+03 0.  0.
   -5000001    1    1    2    0    0 -0.17937100333E+03  0.11890917496E+03 -0.14320435048E+04  0.14574933785E+04  0.16500000000E+03 0.  0.
<mgrwt>
<rscale>  0 0.58628844E+03</rscale>
<asrwt>0</asrwt>
<pdfrwt beam="1">  1        2 0.32218204E+00 0.58628844E+03</pdfrwt>
<pdfrwt beam="2">  1       -2 0.63129830E-02 0.58628844E+03</pdfrwt>
<totfact> 0.87991152E+02</totfact>
</mgrwt>
</event>
<event>
 4    1  0.9012200E-005  0.4944866E+03  0.7818608E-02  0.1015228E+00
         -2   -1    0    0    0  501 -0.00000000000E+00  0.00000000000E+00  0.54022565848E+02  0.54022565908E+02  0.25500000000E-02 0. -1.
          2   -1    0    0  501    0  0.00000000000E+00 -0.00000000000E+00 -0.11315500560E+04  0.11315500560E+04  0.25500000000E-02 0.  1.
    5000001    1    1    2    0    0 -0.89059174673E+02 -0.12674608913E+03 -0.77741818553E+03  0.80969138744E+03  0.16500000000E+03 0.  0.
   -5000001    1    1    2    0    0  0.89059174673E+02  0.12674608913E+03 -0.30010930462E+03  0.37588123446E+03  0.16500000000E+03 0.  0.
<mgrwt>
<rscale>  0 0.49448655E+03</rscale>
<asrwt>0</asrwt>
<pdfrwt beam="1">  1        2 0.17408461E+00 0.49448655E+03</pdfrwt>
<pdfrwt beam="2">  1       -2 0.83111649E-02 0.49448655E+03</pdfrwt>
<totfact> 0.19460022E+03</totfact>
</mgrwt>
</event>
<event>
 4    1  0.9012200E-005  0.6492351E+03  0.7818608E-02  0.9808216E-01
         -2   -1    0    0    0  501 -0.00000000000E+00  0.00000000000E+00  0.14982642871E+03  0.14982642873E+03  0.25500000000E-02 0. -1.
          2   -1    0    0  501    0  0.00000000000E+00 -0.00000000000E+00 -0.70332417574E+03  0.70332417575E+03  0.25500000000E-02 0.  1.
    5000001    1    1    2    0    0  0.16715538958E+03  0.15815056771E+03 -0.48534948306E+03  0.56190893127E+03  0.16500000000E+03 0.  0.
   -5000001    1    1    2    0    0 -0.16715538958E+03 -0.15815056771E+03 -0.68148263975E+02  0.29124167321E+03  0.16500000000E+03 0.  0.
<mgrwt>
<rscale>  0 0.64923509E+03</rscale>
<asrwt>0</asrwt>
<pdfrwt beam="1">  1        2 0.10820372E+00 0.64923509E+03</pdfrwt>
<pdfrwt beam="2">  1       -2 0.23050220E-01 0.64923509E+03</pdfrwt>
<totfact> 0.67953449E+02</totfact>
</mgrwt>
</event>
<event>
 4    1  0.9012200E-005  0.4658888E+03  0.7818608E-02  0.1023087E+00
          2   -1    0    0  501    0  0.00000000000E+00  0.00000000000E+00  0.11574696271E+04  0.11574696271E+04  0.25500000000E-02 0.  1.
         -2   -1    0    0    0  501 -0.00000000000E+00 -0.00000000000E+00 -0.46880798045E+02  0.46880798114E+02  0.25500000000E-02 0. -1.
    5000001    1    1    2    0    0  0.15756503510E+03  0.46593303520E+02  0.53885870867E+03  0.58701906624E+03  0.16500000000E+03 0.  0.
   -5000001    1    1    2    0    0 -0.15756503510E+03 -0.46593303520E+02  0.57173012034E+03  0.61733135893E+03  0.16500000000E+03 0.  0.
<mgrwt>
<rscale>  0 0.46588883E+03</rscale>
<asrwt>0</asrwt>
<pdfrwt beam="1">  1        2 0.17807226E+00 0.46588883E+03</pdfrwt>
<pdfrwt beam="2">  1       -2 0.72124300E-02 0.46588883E+03</pdfrwt>
<totfact> 0.23518880E+03</totfact>
</mgrwt>
</event>
<event>
 4    1  0.9012200E-005  0.4203491E+03  0.7818608E-02  0.1036953E+00
          2   -1    0    0  501    0  0.00000000000E+00  0.00000000000E+00  0.50053533949E+03  0.50053533949E+03  0.25500000000E-02 0. -1.
         -2   -1    0    0    0  501 -0.00000000000E+00 -0.00000000000E+00 -0.88252182760E+02  0.88252182797E+02  0.25500000000E-02 0.  1.
    5000001    1    1    2    0    0  0.11979585257E+03  0.72154877203E+01  0.13547537842E+03  0.24491159163E+03  0.16500000000E+03 0.  0.
   -5000001    1    1    2    0    0 -0.11979585257E+03 -0.72154877203E+01  0.27680777831E+03  0.34387593066E+03  0.16500000000E+03 0.  0.
<mgrwt>
<rscale>  0 0.42034908E+03</rscale>
<asrwt>0</asrwt>
<pdfrwt beam="1">  1        2 0.77005436E-01 0.42034908E+03</pdfrwt>
<pdfrwt beam="2">  1       -2 0.13577259E-01 0.42034908E+03</pdfrwt>
<totfact> 0.25263329E+03</totfact>
</mgrwt>
</event>
<event>
 4    1  0.9012200E-005  0.4454100E+03  0.7818608E-02  0.1029100E+00
         -2   -1    0    0    0  501 -0.00000000000E+00  0.00000000000E+00  0.37250446179E+03  0.37250446180E+03  0.25500000000E-02 0. -1.
          2   -1    0    0  501    0  0.00000000000E+00 -0.00000000000E+00 -0.13314610698E+03  0.13314610700E+03  0.25500000000E-02 0.  1.
    5000001    1    1    2    0    0 -0.13214107191E+03 -0.30694358478E+02  0.19120077839E+03  0.28668125886E+03  0.16500000000E+03 0.  0.
   -5000001    1    1    2    0    0  0.13214107191E+03  0.30694358478E+02  0.48157576430E+02  0.21896930994E+03  0.16500000000E+03 0.  0.
<mgrwt>
<rscale>  0 0.44541001E+03</rscale>
<asrwt>0</asrwt>
<pdfrwt beam="1">  1        2 0.20484017E-01 0.44541001E+03</pdfrwt>
<pdfrwt beam="2">  1       -2 0.57308378E-01 0.44541001E+03</pdfrwt>
<totfact> 0.79112226E+02</totfact>
</mgrwt>
</event>
<event>
 4    1  0.9012200E-005  0.4999554E+03  0.7818608E-02  0.1013791E+00
         -2   -1    0    0    0  501 -0.00000000000E+00  0.00000000000E+00  0.12317695486E+03  0.12317695489E+03  0.25500000000E-02 0. -1.
          2   -1    0    0  501    0  0.00000000000E+00 -0.00000000000E+00 -0.50730966122E+03  0.50730966123E+03  0.25500000000E-02 0.  1.
    5000001    1    1    2    0    0  0.13373562388E+03 -0.10937154821E+03 -0.28487837132E+03  0.37179031604E+03  0.16500000000E+03 0.  0.
   -5000001    1    1    2    0    0 -0.13373562388E+03  0.10937154821E+03 -0.99254335038E+02  0.25869630008E+03  0.16500000000E+03 0.  0.
<mgrwt>
<rscale>  0 0.49995544E+03</rscale>
<asrwt>0</asrwt>
<pdfrwt beam="1">  1        2 0.78047639E-01 0.49995544E+03</pdfrwt>
<pdfrwt beam="2">  1       -2 0.18950301E-01 0.49995544E+03</pdfrwt>
<totfact> 0.14190052E+03</totfact>
</mgrwt>
</event>
<event>
 4    1  0.9012200E-005  0.4268968E+03  0.7818608E-02  0.1034845E+00
          2   -1    0    0  501    0  0.00000000000E+00  0.00000000000E+00  0.20828908720E+04  0.20828908720E+04  0.25500000000E-02 0.  1.
         -2   -1    0    0    0  501 -0.00000000000E+00 -0.00000000000E+00 -0.21873555859E+02  0.21873556008E+02  0.25500000000E-02 0. -1.
    5000001    1    1    2    0    0 -0.11029316699E+03 -0.26539258931E+01  0.64343117409E+03  0.67335005889E+03  0.16500000000E+03 0.  0.
   -5000001    1    1    2    0    0  0.11029316699E+03  0.26539258931E+01  0.14175861420E+04  0.14314143691E+04  0.16500000000E+03 0.  0.
<mgrwt>
<rscale>  0 0.42689685E+03</rscale>
<asrwt>0</asrwt>
<pdfrwt beam="1">  1        2 0.32044470E+00 0.42689685E+03</pdfrwt>
<pdfrwt beam="2">  1       -2 0.33651630E-02 0.42689685E+03</pdfrwt>
<totfact> 0.23751298E+03</totfact>
</mgrwt>
</event>
<event>
 4    1  0.9012200E-005  0.1342381E+04  0.7818608E-02  0.8996616E-01
         -2   -1    0    0    0  501 -0.00000000000E+00  0.00000000000E+00  0.37887073693E+03  0.37887073694E+03  0.25500000000E-02 0. -1.
          2   -1    0    0  501    0  0.00000000000E+00 -0.00000000000E+00 -0.11890504883E+04  0.11890504883E+04  0.25500000000E-02 0.  1.
    5000001    1    1    2    0    0  0.44571252693E+03  0.46001608882E+03 -0.53824863036E+03  0.85276670122E+03  0.16500000000E+03 0.  0.
   -5000001    1    1    2    0    0 -0.44571252693E+03 -0.46001608882E+03 -0.27193112099E+03  0.71515452400E+03  0.16500000000E+03 0.  0.
<mgrwt>
<rscale>  0 0.13423806E+04</rscale>
<asrwt>0</asrwt>
<pdfrwt beam="1">  1        2 0.18293084E+00 0.13423806E+04</pdfrwt>
<pdfrwt beam="2">  1       -2 0.58287806E-01 0.13423806E+04</pdfrwt>
<totfact> 0.51737671E+01</totfact>
</mgrwt>
</event>
<event>
 4    1  0.9012200E-005  0.5984823E+03  0.7818608E-02  0.9908560E-01
         -2   -1    0    0    0  501 -0.00000000000E+00  0.00000000000E+00  0.45710856353E+02  0.45710856425E+02  0.25500000000E-02 0. -1.
          2   -1    0    0  501    0  0.00000000000E+00 -0.00000000000E+00 -0.19589494972E+04  0.19589494972E+04  0.25500000000E-02 0.  1.
    5000001    1    1    2    0    0  0.23998181605E+03 -0.57919978660E+02 -0.10807915453E+04  0.11208395784E+04  0.16500000000E+03 0.  0.
   -5000001    1    1    2    0    0 -0.23998181605E+03  0.57919978660E+02 -0.83244709552E+03  0.88382077527E+03  0.16500000000E+03 0.  0.
<mgrwt>
<rscale>  0 0.59848228E+03</rscale>
<asrwt>0</asrwt>
<pdfrwt beam="1">  1        2 0.30137678E+00 0.59848228E+03</pdfrwt>
<pdfrwt beam="2">  1       -2 0.70324410E-02 0.59848228E+03</pdfrwt>
<totfact> 0.87808399E+02</totfact>
</mgrwt>
</event>
<event>
 4    1  0.9012200E-005  0.4105292E+03  0.7818608E-02  0.1040194E+00
         -2   -1    0    0    0  501 -0.00000000000E+00  0.00000000000E+00  0.89275084824E+02  0.89275084860E+02  0.25500000000E-02 0. -1.
          2   -1    0    0  501    0  0.00000000000E+00 -0.00000000000E+00 -0.47195195571E+03  0.47195195572E+03  0.25500000000E-02 0.  1.
    5000001    1    1    2    0    0 -0.23880627450E+02  0.11969100660E+03 -0.19613871602E+03  0.28388662764E+03  0.16500000000E+03 0.  0.
   -5000001    1    1    2    0    0  0.23880627450E+02 -0.11969100660E+03 -0.18653815486E+03  0.27734041294E+03  0.16500000000E+03 0.  0.
<mgrwt>
<rscale>  0 0.41052918E+03</rscale>
<asrwt>0</asrwt>
<pdfrwt beam="1">  1        2 0.72607992E-01 0.41052918E+03</pdfrwt>
<pdfrwt beam="2">  1       -2 0.13734629E-01 0.41052918E+03</pdfrwt>
<totfact> 0.26486132E+03</totfact>
</mgrwt>
</event>
<event>
 4    1  0.9012200E-005  0.9737120E+03  0.7818608E-02  0.9337856E-01
          2   -1    0    0  501    0  0.00000000000E+00  0.00000000000E+00  0.39996094451E+03  0.39996094452E+03  0.25500000000E-02 0.  1.
         -2   -1    0    0    0  501 -0.00000000000E+00 -0.00000000000E+00 -0.59262978889E+03  0.59262978890E+03  0.25500000000E-02 0. -1.
    5000001    1    1    2    0    0  0.27455087704E+02 -0.44212070561E+03  0.22455035633E+02  0.47323749724E+03  0.16500000000E+03 0.  0.
   -5000001    1    1    2    0    0 -0.27455087704E+02  0.44212070561E+03 -0.21512388001E+03  0.51935323617E+03  0.16500000000E+03 0.  0.
<mgrwt>
<rscale>  0 0.97371201E+03</rscale>
<asrwt>0</asrwt>
<pdfrwt beam="1">  1        2 0.61532453E-01 0.97371201E+03</pdfrwt>
<pdfrwt beam="2">  1       -2 0.91173813E-01 0.97371201E+03</pdfrwt>
<totfact> 0.81583850E+01</totfact>
</mgrwt>
</event>
<event>
 4    1  0.9012200E-005  0.4897129E+03  0.7818608E-02  0.1016499E+00
          2   -1    0    0  501    0  0.00000000000E+00  0.00000000000E+00  0.26066950202E+04  0.26066950202E+04  0.25500000000E-02 0.  1.
         -2   -1    0    0    0  501 -0.00000000000E+00 -0.00000000000E+00 -0.23000270501E+02  0.23000270642E+02  0.25500000000E-02 0. -1.
    5000001    1    1    2    0    0 -0.54219395095E+02 -0.14570970862E+03  0.17886294807E+04  0.18029396776E+04  0.16500000000E+03 0.  0.
   -5000001    1    1    2    0    0  0.54219395095E+02  0.14570970862E+03  0.79506526901E+03  0.82675561321E+03  0.16500000000E+03 0.  0.
<mgrwt>
<rscale>  0 0.48971294E+03</rscale>
<asrwt>0</asrwt>
<pdfrwt beam="1">  1        2 0.40102988E+00 0.48971294E+03</pdfrwt>
<pdfrwt beam="2">  1       -2 0.35385042E-02 0.48971294E+03</pdfrwt>
<totfact> 0.11287361E+03</totfact>
</mgrwt>
</event>
<event>
 4    1  0.9012200E-005  0.1300571E+04  0.7818608E-02  0.9029113E-01
          2   -1    0    0  501    0  0.00000000000E+00  0.00000000000E+00  0.36531328395E+04  0.36531328395E+04  0.25500000000E-02 0.  1.
         -2   -1    0    0    0  501 -0.00000000000E+00 -0.00000000000E+00 -0.11575574847E+03  0.11575574850E+03  0.25500000000E-02 0. -1.
    5000001    1    1    2    0    0  0.18144464202E+03  0.59484396504E+03  0.14955400294E+04  0.16280744701E+04  0.16500000000E+03 0.  0.
   -5000001    1    1    2    0    0 -0.18144464202E+03 -0.59484396504E+03  0.20418370617E+04  0.21408141179E+04  0.16500000000E+03 0.  0.
<mgrwt>
<rscale>  0 0.13005708E+04</rscale>
<asrwt>0</asrwt>
<pdfrwt beam="1">  1        2 0.56202055E+00 0.13005708E+04</pdfrwt>
<pdfrwt beam="2">  1       -2 0.17808573E-01 0.13005708E+04</pdfrwt>
<totfact> 0.16609196E+01</totfact>
</mgrwt>
</event>
<event>
 4    1  0.9012200E-005  0.4318860E+03  0.7818608E-02  0.1033266E+00
          2   -1    0    0  501    0  0.00000000000E+00  0.00000000000E+00  0.31972010794E+03  0.31972010795E+03  0.25500000000E-02 0.  1.
         -2   -1    0    0    0  501 -0.00000000000E+00 -0.00000000000E+00 -0.14585059909E+03  0.14585059911E+03  0.25500000000E-02 0. -1.
    5000001    1    1    2    0    0  0.44484150694E+02  0.13184240035E+03  0.94175082841E+02  0.23548928728E+03  0.16500000000E+03 0.  0.
   -5000001    1    1    2    0    0 -0.44484150694E+02 -0.13184240035E+03  0.79694426004E+02  0.23008141978E+03  0.16500000000E+03 0.  0.
<mgrwt>
<rscale>  0 0.43188595E+03</rscale>
<asrwt>0</asrwt>
<pdfrwt beam="1">  1        2 0.49187708E-01 0.43188595E+03</pdfrwt>
<pdfrwt beam="2">  1       -2 0.22438554E-01 0.43188595E+03</pdfrwt>
<totfact> 0.17674430E+03</totfact>
</mgrwt>
</event>
<event>
 4    1  0.9012200E-005  0.5716079E+03  0.7818608E-02  0.9966127E-01
          2   -1    0    0  501    0  0.00000000000E+00  0.00000000000E+00  0.95989534793E+03  0.95989534793E+03  0.25500000000E-02 0.  1.
         -2   -1    0    0    0  501 -0.00000000000E+00 -0.00000000000E+00 -0.85096676797E+02  0.85096676835E+02  0.25500000000E-02 0. -1.
    5000001    1    1    2    0    0  0.20880955826E+03  0.78030916169E+02  0.56364381669E+03  0.62817959820E+03  0.16500000000E+03 0.  0.
   -5000001    1    1    2    0    0 -0.20880955826E+03 -0.78030916169E+02  0.31115485444E+03  0.41681242657E+03  0.16500000000E+03 0.  0.
<mgrwt>
<rscale>  0 0.57160792E+03</rscale>
<asrwt>0</asrwt>
<pdfrwt beam="1">  1        2 0.14767621E+00 0.57160792E+03</pdfrwt>
<pdfrwt beam="2">  1       -2 0.13091796E-01 0.57160792E+03</pdfrwt>
<totfact> 0.11863535E+03</totfact>
</mgrwt>
</event>
<event>
 4    1  0.9012200E-005  0.5668828E+03  0.7818608E-02  0.9976600E-01
          2   -1    0    0  501    0  0.00000000000E+00  0.00000000000E+00  0.77102348239E+03  0.77102348240E+03  0.25500000000E-02 0.  1.
         -2   -1    0    0    0  501 -0.00000000000E+00 -0.00000000000E+00 -0.10419791381E+03  0.10419791384E+03  0.25500000000E-02 0. -1.
    5000001    1    1    2    0    0 -0.13426106512E+03 -0.88047276978E+02  0.58867678470E+03  0.63209470290E+03  0.16500000000E+03 0.  0.
   -5000001    1    1    2    0    0  0.13426106512E+03  0.88047276978E+02  0.78148783878E+02  0.24312669334E+03  0.16500000000E+03 0.  0.
<mgrwt>
<rscale>  0 0.56688284E+03</rscale>
<asrwt>0</asrwt>
<pdfrwt beam="1">  1        2 0.11861900E+00 0.56688284E+03</pdfrwt>
<pdfrwt beam="2">  1       -2 0.16030448E-01 0.56688284E+03</pdfrwt>
<totfact> 0.11369253E+03</totfact>
</mgrwt>
</event>
<event>
 4    1  0.9012200E-005  0.4471225E+03  0.7818608E-02  0.1028584E+00
          2   -1    0    0  501    0  0.00000000000E+00  0.00000000000E+00  0.97832587809E+03  0.97832587810E+03  0.25500000000E-02 0.  1.
         -2   -1    0    0    0  501 -0.00000000000E+00 -0.00000000000E+00 -0.51086906552E+02  0.51086906616E+02  0.25500000000E-02 0. -1.
    5000001    1    1    2    0    0 -0.11155499464E+03 -0.90043472313E+01  0.69647181633E+03  0.72444708989E+03  0.16500000000E+03 0.  0.
   -5000001    1    1    2    0    0  0.11155499464E+03  0.90043472313E+01  0.23076715521E+03  0.30496569483E+03  0.16500000000E+03 0.  0.
<mgrwt>
<rscale>  0 0.44712255E+03</rscale>
<asrwt>0</asrwt>
<pdfrwt beam="1">  1        2 0.15051168E+00 0.44712255E+03</pdfrwt>
<pdfrwt beam="2">  1       -2 0.78595240E-02 0.44712255E+03</pdfrwt>
<totfact> 0.26402801E+03</totfact>
</mgrwt>
</event>
<event>
 4    1  0.9012200E-005  0.5305053E+03  0.7818608E-02  0.1006110E+00
         -2   -1    0    0    0  501 -0.00000000000E+00  0.00000000000E+00  0.21471662758E+02  0.21471662910E+02  0.25500000000E-02 0. -1.
          2   -1    0    0  501    0  0.00000000000E+00 -0.00000000000E+00 -0.32768292959E+04  0.32768292959E+04  0.25500000000E-02 0.  1.
    5000001    1    1    2    0    0  0.17951765983E+03  0.10297296198E+03 -0.15192852380E+04  0.15421681671E+04  0.16500000000E+03 0.  0.
   -5000001    1    1    2    0    0 -0.17951765983E+03 -0.10297296198E+03 -0.17360723951E+04  0.17561327918E+04  0.16500000000E+03 0.  0.
<mgrwt>
<rscale>  0 0.53050532E+03</rscale>
<asrwt>0</asrwt>
<pdfrwt beam="1">  1        2 0.50412719E+00 0.53050532E+03</pdfrwt>
<pdfrwt beam="2">  1       -2 0.33033353E-02 0.53050532E+03</pdfrwt>
<totfact> 0.49407497E+02</totfact>
</mgrwt>
</event>
<event>
 4    1  0.9012200E-005  0.5895298E+03  0.7818608E-02  0.9927370E-01
          2   -1    0    0  501    0  0.00000000000E+00  0.00000000000E+00  0.20256498183E+04  0.20256498183E+04  0.25500000000E-02 0.  1.
         -2   -1    0    0    0  501 -0.00000000000E+00 -0.00000000000E+00 -0.42893074288E+02  0.42893074364E+02  0.25500000000E-02 0. -1.
    5000001    1    1    2    0    0 -0.30983279786E+02  0.24206047148E+03  0.10278619315E+04  0.10692419678E+04  0.16500000000E+03 0.  0.
   -5000001    1    1    2    0    0  0.30983279786E+02 -0.24206047148E+03  0.95489481253E+03  0.99930092489E+03  0.16500000000E+03 0.  0.
<mgrwt>
<rscale>  0 0.58952981E+03</rscale>
<asrwt>0</asrwt>
<pdfrwt beam="1">  1        2 0.31163838E+00 0.58952981E+03</pdfrwt>
<pdfrwt beam="2">  1       -2 0.65989357E-02 0.58952981E+03</pdfrwt>
<totfact> 0.89387292E+02</totfact>
</mgrwt>
</event>
<event>
 4    1  0.9012200E-005  0.5161856E+03  0.7818608E-02  0.1009639E+00
          2   -1    0    0  501    0  0.00000000000E+00  0.00000000000E+00  0.73383231649E+03  0.73383231650E+03  0.25500000000E-02 0. -1.
         -2   -1    0    0    0  501 -0.00000000000E+00 -0.00000000000E+00 -0.90772621445E+02  0.90772621481E+02  0.25500000000E-02 0.  1.
    5000001    1    1    2    0    0  0.80233789957E+02  0.16095005406E+03  0.45561022761E+03  0.51686367686E+03  0.16500000000E+03 0.  0.
   -5000001    1    1    2    0    0 -0.80233789957E+02 -0.16095005406E+03  0.18744946744E+03  0.30774126112E+03  0.16500000000E+03 0.  0.
<mgrwt>
<rscale>  0 0.51618556E+03</rscale>
<asrwt>0</asrwt>
<pdfrwt beam="1">  1        2 0.11289728E+00 0.51618556E+03</pdfrwt>
<pdfrwt beam="2">  1       -2 0.13965019E-01 0.51618556E+03</pdfrwt>
<totfact> 0.15279619E+03</totfact>
</mgrwt>
</event>
<event>
 4    1  0.9012200E-005  0.7820848E+03  0.7818608E-02  0.9586317E-01
         -2   -1    0    0    0  501 -0.00000000000E+00  0.00000000000E+00  0.86629691054E+03  0.86629691054E+03  0.25500000000E-02 0. -1.
          2   -1    0    0  501    0  0.00000000000E+00 -0.00000000000E+00 -0.17651472280E+03  0.17651472282E+03  0.25500000000E-02 0.  1.
    5000001    1    1    2    0    0 -0.10397656980E+03  0.30558914731E+03  0.54037167542E+03  0.65070915286E+03  0.16500000000E+03 0.  0.
   -5000001    1    1    2    0    0  0.10397656980E+03 -0.30558914731E+03  0.14941051231E+03  0.39210248050E+03  0.16500000000E+03 0.  0.
<mgrwt>
<rscale>  0 0.78208480E+03</rscale>
<asrwt>0</asrwt>
<pdfrwt beam="1">  1        2 0.27156111E-01 0.78208480E+03</pdfrwt>
<pdfrwt beam="2">  1       -2 0.13327645E+00 0.78208480E+03</pdfrwt>
<totfact> 0.81936611E+01</totfact>
</mgrwt>
</event>
<event>
 4    1  0.9012200E-005  0.4177176E+03  0.7818608E-02  0.1037812E+00
          2   -1    0    0  501    0  0.00000000000E+00  0.00000000000E+00  0.71250026525E+03  0.71250026526E+03  0.25500000000E-02 0.  1.
         -2   -1    0    0    0  501 -0.00000000000E+00 -0.00000000000E+00 -0.61223835718E+02  0.61223835772E+02  0.25500000000E-02 0. -1.
    5000001    1    1    2    0    0  0.32065170768E+02  0.12207381019E+03  0.28561859935E+03  0.35317584091E+03  0.16500000000E+03 0.  0.
   -5000001    1    1    2    0    0 -0.32065170768E+02 -0.12207381019E+03  0.36565783019E+03  0.42054826012E+03  0.16500000000E+03 0.  0.
<mgrwt>
<rscale>  0 0.41771760E+03</rscale>
<asrwt>0</asrwt>
<pdfrwt beam="1">  1        2 0.10961542E+00 0.41771760E+03</pdfrwt>
<pdfrwt beam="2">  1       -2 0.94190519E-02 0.41771760E+03</pdfrwt>
<totfact> 0.30126365E+03</totfact>
</mgrwt>
</event>
<event>
 4    1  0.9012200E-005  0.4022759E+03  0.7818608E-02  0.1042994E+00
          2   -1    0    0  501    0  0.00000000000E+00  0.00000000000E+00  0.87519205917E+03  0.87519205917E+03  0.25500000000E-02 0.  1.
         -2   -1    0    0    0  501 -0.00000000000E+00 -0.00000000000E+00 -0.46225833855E+02  0.46225833925E+02  0.25500000000E-02 0. -1.
    5000001    1    1    2    0    0  0.43488365850E+01  0.11247553961E+03  0.46877469281E+03  0.50955311010E+03  0.16500000000E+03 0.  0.
   -5000001    1    1    2    0    0 -0.43488365850E+01 -0.11247553961E+03  0.36019153250E+03  0.41186478300E+03  0.16500000000E+03 0.  0.
<mgrwt>
<rscale>  0 0.40227594E+03</rscale>
<asrwt>0</asrwt>
<pdfrwt beam="1">  1        2 0.13464493E+00 0.40227594E+03</pdfrwt>
<pdfrwt beam="2">  1       -2 0.71116667E-02 0.40227594E+03</pdfrwt>
<totfact> 0.36031897E+03</totfact>
</mgrwt>
</event>
<event>
 4    1  0.9012200E-005  0.4503241E+03  0.7818608E-02  0.1027625E+00
         -2   -1    0    0    0  501 -0.00000000000E+00  0.00000000000E+00  0.91386771694E+02  0.91386771730E+02  0.25500000000E-02 0. -1.
          2   -1    0    0  501    0  0.00000000000E+00 -0.00000000000E+00 -0.55476243094E+03  0.55476243094E+03  0.25500000000E-02 0.  1.
    5000001    1    1    2    0    0  0.15246279013E+03  0.22162797845E+01 -0.25312117108E+03  0.33844518244E+03  0.16500000000E+03 0.  0.
   -5000001    1    1    2    0    0 -0.15246279013E+03 -0.22162797845E+01 -0.21025448817E+03  0.30770402023E+03  0.16500000000E+03 0.  0.
<mgrwt>
<rscale>  0 0.45032409E+03</rscale>
<asrwt>0</asrwt>
<pdfrwt beam="1">  1        2 0.85348064E-01 0.45032409E+03</pdfrwt>
<pdfrwt beam="2">  1       -2 0.14059504E-01 0.45032409E+03</pdfrwt>
<totfact> 0.21193640E+03</totfact>
</mgrwt>
</event>
<event>
 4    1  0.9012200E-005  0.4998236E+03  0.7818608E-02  0.1013825E+00
          2   -1    0    0  501    0  0.00000000000E+00  0.00000000000E+00  0.16569918626E+04  0.16569918626E+04  0.25500000000E-02 0.  1.
         -2   -1    0    0    0  501 -0.00000000000E+00 -0.00000000000E+00 -0.37692349167E+02  0.37692349253E+02  0.25500000000E-02 0. -1.
    5000001    1    1    2    0    0  0.67781584727E+02  0.15650262827E+03  0.54389568350E+03  0.59340958066E+03  0.16500000000E+03 0.  0.
   -5000001    1    1    2    0    0 -0.67781584727E+02 -0.15650262827E+03  0.10754038299E+04  0.11012746312E+04  0.16500000000E+03 0.  0.
<mgrwt>
<rscale>  0 0.49982363E+03</rscale>
<asrwt>0</asrwt>
<pdfrwt beam="1">  1        2 0.25492176E+00 0.49982363E+03</pdfrwt>
<pdfrwt beam="2">  1       -2 0.57988245E-02 0.49982363E+03</pdfrwt>
<totfact> 0.17390320E+03</totfact>
</mgrwt>
</event>
<event>
 4    1  0.9012200E-005  0.4265494E+03  0.7818608E-02  0.1034956E+00
          2   -1    0    0  501    0  0.00000000000E+00  0.00000000000E+00  0.12669490909E+04  0.12669490909E+04  0.25500000000E-02 0.  1.
         -2   -1    0    0    0  501 -0.00000000000E+00 -0.00000000000E+00 -0.35902071651E+02  0.35902071742E+02  0.25500000000E-02 0. -1.
    5000001    1    1    2    0    0 -0.52051532714E+02  0.12298677977E+03  0.55248242633E+03  0.59185888644E+03  0.16500000000E+03 0.  0.
   -5000001    1    1    2    0    0  0.52051532714E+02 -0.12298677977E+03  0.67856459293E+03  0.71099227622E+03  0.16500000000E+03 0.  0.
<mgrwt>
<rscale>  0 0.42654940E+03</rscale>
<asrwt>0</asrwt>
<pdfrwt beam="1">  1        2 0.19491525E+00 0.42654940E+03</pdfrwt>
<pdfrwt beam="2">  1       -2 0.55233954E-02 0.42654940E+03</pdfrwt>
<totfact> 0.30830485E+03</totfact>
</mgrwt>
</event>
<event>
 4    1  0.9012200E-005  0.6622164E+03  0.7818608E-02  0.9784122E-01
          2   -1    0    0  501    0  0.00000000000E+00  0.00000000000E+00  0.40840887127E+03  0.40840887128E+03  0.25500000000E-02 0.  1.
         -2   -1    0    0    0  501 -0.00000000000E+00 -0.00000000000E+00 -0.26843841406E+03  0.26843841407E+03  0.25500000000E-02 0. -1.
    5000001    1    1    2    0    0  0.51483753453E+02 -0.24009449142E+03 -0.82000121815E+02  0.30699342282E+03  0.16500000000E+03 0.  0.
   -5000001    1    1    2    0    0 -0.51483753453E+02  0.24009449142E+03  0.22197057903E+03  0.36985386253E+03  0.16500000000E+03 0.  0.
<mgrwt>
<rscale>  0 0.66221637E+03</rscale>
<asrwt>0</asrwt>
<pdfrwt beam="1">  1        2 0.62832133E-01 0.66221637E+03</pdfrwt>
<pdfrwt beam="2">  1       -2 0.41298218E-01 0.66221637E+03</pdfrwt>
<totfact> 0.43500055E+02</totfact>
</mgrwt>
</event>
<event>
 4    1  0.9012200E-005  0.8034005E+03  0.7818608E-02  0.9555108E-01
         -2   -1    0    0    0  501 -0.00000000000E+00  0.00000000000E+00  0.62999547143E+02  0.62999547195E+02  0.25500000000E-02 0. -1.
          2   -1    0    0  501    0  0.00000000000E+00 -0.00000000000E+00 -0.25613376112E+04  0.25613376112E+04  0.25500000000E-02 0.  1.
    5000001    1    1    2    0    0  0.27141447942E+03  0.45264867048E+02 -0.20387212410E+04  0.20638129824E+04  0.16500000000E+03 0.  0.
   -5000001    1    1    2    0    0 -0.27141447942E+03 -0.45264867048E+02 -0.45961682302E+03  0.56052417596E+03  0.16500000000E+03 0.  0.
<mgrwt>
<rscale>  0 0.80340055E+03</rscale>
<asrwt>0</asrwt>
<pdfrwt beam="1">  1        2 0.39405186E+00 0.80340055E+03</pdfrwt>
<pdfrwt beam="2">  1       -2 0.96922400E-02 0.80340055E+03</pdfrwt>
<totfact> 0.23955726E+02</totfact>
</mgrwt>
</event>
<event>
 4    1  0.9012200E-005  0.6598851E+03  0.7818608E-02  0.9788405E-01
          2   -1    0    0  501    0  0.00000000000E+00  0.00000000000E+00  0.10853356791E+04  0.10853356791E+04  0.25500000000E-02 0.  1.
         -2   -1    0    0    0  501 -0.00000000000E+00 -0.00000000000E+00 -0.10030268097E+03  0.10030268100E+03  0.25500000000E-02 0. -1.
    5000001    1    1    2    0    0 -0.20991537855E+03  0.68916208685E+02  0.81803388266E+03  0.86326029861E+03  0.16500000000E+03 0.  0.
   -5000001    1    1    2    0    0  0.20991537855E+03 -0.68916208685E+02  0.16699911549E+03  0.32237806152E+03  0.16500000000E+03 0.  0.
<mgrwt>
<rscale>  0 0.65988508E+03</rscale>
<asrwt>0</asrwt>
<pdfrwt beam="1">  1        2 0.16697472E+00 0.65988508E+03</pdfrwt>
<pdfrwt beam="2">  1       -2 0.15431181E-01 0.65988508E+03</pdfrwt>
<totfact> 0.74932808E+02</totfact>
</mgrwt>
</event>
<event>
 4    1  0.9012200E-005  0.3658225E+03  0.7818608E-02  0.1056302E+00
          2   -1    0    0  501    0  0.00000000000E+00  0.00000000000E+00  0.37369556411E+02  0.37369556498E+02  0.25500000000E-02 0.  1.
         -2   -1    0    0    0  501 -0.00000000000E+00 -0.00000000000E+00 -0.89528830014E+03  0.89528830014E+03  0.25500000000E-02 0. -1.
    5000001    1    1    2    0    0 -0.56176838694E+02  0.49384074305E+02 -0.49330046996E+03  0.52551401281E+03  0.16500000000E+03 0.  0.
   -5000001    1    1    2    0    0  0.56176838694E+02 -0.49384074305E+02 -0.36461827377E+03  0.40714384383E+03  0.16500000000E+03 0.  0.
<mgrwt>
<rscale>  0 0.36582251E+03</rscale>
<asrwt>0</asrwt>
<pdfrwt beam="1">  1        2 0.57491632E-02 0.36582251E+03</pdfrwt>
<pdfrwt beam="2">  1       -2 0.13773665E+00 0.36582251E+03</pdfrwt>
<totfact> 0.51796427E+02</totfact>
</mgrwt>
</event>
<event>
 4    1  0.9012200E-005  0.5039986E+03  0.7818608E-02  0.1012740E+00
          2   -1    0    0  501    0  0.00000000000E+00  0.00000000000E+00  0.90323810475E+03  0.90323810475E+03  0.25500000000E-02 0.  1.
         -2   -1    0    0    0  501 -0.00000000000E+00 -0.00000000000E+00 -0.70306645327E+02  0.70306645373E+02  0.25500000000E-02 0. -1.
    5000001    1    1    2    0    0  0.10900934610E+02  0.15008846549E+03  0.19092420068E+03  0.29380678729E+03  0.16500000000E+03 0.  0.
   -5000001    1    1    2    0    0 -0.10900934610E+02 -0.15008846549E+03  0.64200725874E+03  0.67973796284E+03  0.16500000000E+03 0.  0.
<mgrwt>
<rscale>  0 0.50399858E+03</rscale>
<asrwt>0</asrwt>
<pdfrwt beam="1">  1        2 0.13895970E+00 0.50399858E+03</pdfrwt>
<pdfrwt beam="2">  1       -2 0.10816407E-01 0.50399858E+03</pdfrwt>
<totfact> 0.17694265E+03</totfact>
</mgrwt>
</event>
<event>
 4    1  0.9012200E-005  0.4009492E+03  0.7818608E-02  0.1043451E+00
          2   -1    0    0  501    0  0.00000000000E+00  0.00000000000E+00  0.14245850013E+04  0.14245850013E+04  0.25500000000E-02 0.  1.
         -2   -1    0    0    0  501 -0.00000000000E+00 -0.00000000000E+00 -0.28211773134E+02  0.28211773249E+02  0.25500000000E-02 0. -1.
    5000001    1    1    2    0    0 -0.13944194122E+02  0.38376822671E+02  0.10833219416E+04  0.10965758753E+04  0.16500000000E+03 0.  0.
   -5000001    1    1    2    0    0  0.13944194122E+02 -0.38376822671E+02  0.31305128660E+03  0.35622089932E+03  0.16500000000E+03 0.  0.
<mgrwt>
<rscale>  0 0.40094922E+03</rscale>
<asrwt>0</asrwt>
<pdfrwt beam="1">  1        2 0.21916699E+00 0.40094922E+03</pdfrwt>
<pdfrwt beam="2">  1       -2 0.43402715E-02 0.40094922E+03</pdfrwt>
<totfact> 0.36458333E+03</totfact>
</mgrwt>
</event>
<event>
 4    1  0.9012200E-005  0.6280509E+03  0.7818608E-02  0.9848860E-01
         -2   -1    0    0    0  501 -0.00000000000E+00  0.00000000000E+00  0.12874395142E+04  0.12874395142E+04  0.25500000000E-02 0. -1.
          2   -1    0    0  501    0  0.00000000000E+00 -0.00000000000E+00 -0.76595439686E+02  0.76595439729E+02  0.25500000000E-02 0.  1.
    5000001    1    1    2    0    0  0.41416195884E+01 -0.16563266109E+03  0.15018328101E+03  0.27790528841E+03  0.16500000000E+03 0.  0.
   -5000001    1    1    2    0    0 -0.41416195884E+01  0.16563266109E+03  0.10606607935E+04  0.10861296655E+04  0.16500000000E+03 0.  0.
<mgrwt>
<rscale>  0 0.62805094E+03</rscale>
<asrwt>0</asrwt>
<pdfrwt beam="1">  1        2 0.11783914E-01 0.62805094E+03</pdfrwt>
<pdfrwt beam="2">  1       -2 0.19806761E+00 0.62805094E+03</pdfrwt>
<totfact> 0.75750945E+01</totfact>
</mgrwt>
</event>
<event>
 4    1  0.9012200E-005  0.3849811E+03  0.7818608E-02  0.1049108E+00
         -2   -1    0    0    0  501 -0.00000000000E+00  0.00000000000E+00  0.51444441025E+02  0.51444441088E+02  0.25500000000E-02 0. -1.
          2   -1    0    0  501    0  0.00000000000E+00 -0.00000000000E+00 -0.72024530400E+03  0.72024530401E+03  0.25500000000E-02 0.  1.
    5000001    1    1    2    0    0 -0.35764709208E+02  0.63029044667E+02 -0.19880695103E+03  0.26832998095E+03  0.16500000000E+03 0.  0.
   -5000001    1    1    2    0    0  0.35764709208E+02 -0.63029044667E+02 -0.46999391195E+03  0.50335976415E+03  0.16500000000E+03 0.  0.
<mgrwt>
<rscale>  0 0.38498113E+03</rscale>
<asrwt>0</asrwt>
<pdfrwt beam="1">  1        2 0.11080696E+00 0.38498113E+03</pdfrwt>
<pdfrwt beam="2">  1       -2 0.79145299E-02 0.38498113E+03</pdfrwt>
<totfact> 0.39145139E+03</totfact>
</mgrwt>
</event>
<event>
 4    1  0.9012200E-005  0.5467446E+03  0.7818608E-02  0.1002250E+00
          2   -1    0    0  501    0  0.00000000000E+00  0.00000000000E+00  0.79351760122E+03  0.79351760122E+03  0.25500000000E-02 0.  1.
         -2   -1    0    0    0  501 -0.00000000000E+00 -0.00000000000E+00 -0.94178637667E+02  0.94178637702E+02  0.25500000000E-02 0. -1.
    5000001    1    1    2    0    0 -0.20176363432E+03  0.79544350728E+02  0.31441302895E+03  0.41607261462E+03  0.16500000000E+03 0.  0.
   -5000001    1    1    2    0    0  0.20176363432E+03 -0.79544350728E+02  0.38492593460E+03  0.47162362430E+03  0.16500000000E+03 0.  0.
<mgrwt>
<rscale>  0 0.54674457E+03</rscale>
<asrwt>0</asrwt>
<pdfrwt beam="1">  1        2 0.12207963E+00 0.54674457E+03</pdfrwt>
<pdfrwt beam="2">  1       -2 0.14489021E-01 0.54674457E+03</pdfrwt>
<totfact> 0.12989484E+03</totfact>
</mgrwt>
</event>
<event>
 4    1  0.9012200E-005  0.1006346E+04  0.7818608E-02  0.9301612E-01
          2   -1    0    0  501    0  0.00000000000E+00  0.00000000000E+00  0.46670698359E+03  0.46670698360E+03  0.25500000000E-02 0.  1.
         -2   -1    0    0    0  501 -0.00000000000E+00 -0.00000000000E+00 -0.54248818071E+03  0.54248818071E+03  0.25500000000E-02 0. -1.
    5000001    1    1    2    0    0 -0.34917900043E+03 -0.30836608982E+03 -0.13272261570E+03  0.51171858713E+03  0.16500000000E+03 0.  0.
   -5000001    1    1    2    0    0  0.34917900043E+03  0.30836608982E+03  0.56941418584E+02  0.49747657718E+03  0.16500000000E+03 0.  0.
<mgrwt>
<rscale>  0 0.10063459E+04</rscale>
<asrwt>0</asrwt>
<pdfrwt beam="1">  1        2 0.71801074E-01 0.10063459E+04</pdfrwt>
<pdfrwt beam="2">  1       -2 0.83459720E-01 0.10063459E+04</pdfrwt>
<totfact> 0.83670352E+01</totfact>
</mgrwt>
</event>
<event>
 4    1  0.9012200E-005  0.4186300E+03  0.7818608E-02  0.1037513E+00
         -2   -1    0    0    0  501 -0.00000000000E+00  0.00000000000E+00  0.45635551037E+03  0.45635551038E+03  0.25500000000E-02 0. -1.
          2   -1    0    0  501    0  0.00000000000E+00 -0.00000000000E+00 -0.96005776528E+02  0.96005776562E+02  0.25500000000E-02 0.  1.
    5000001    1    1    2    0    0  0.33198614841E+02  0.79705806950E+02  0.30626762908E+03  0.35844110299E+03  0.16500000000E+03 0.  0.
   -5000001    1    1    2    0    0 -0.33198614841E+02 -0.79705806950E+02  0.54082104765E+02  0.19392018395E+03  0.16500000000E+03 0.  0.
<mgrwt>
<rscale>  0 0.41862998E+03</rscale>
<asrwt>0</asrwt>
<pdfrwt beam="1">  1        2 0.14770119E-01 0.41862998E+03</pdfrwt>
<pdfrwt beam="2">  1       -2 0.70208542E-01 0.41862998E+03</pdfrwt>
<totfact> 0.75750890E+02</totfact>
</mgrwt>
</event>
<event>
 4    1  0.9012200E-005  0.3925357E+03  0.7818608E-02  0.1046395E+00
         -2   -1    0    0    0  501 -0.00000000000E+00  0.00000000000E+00  0.31521369128E+03  0.31521369129E+03  0.25500000000E-02 0.  1.
          2   -1    0    0  501    0  0.00000000000E+00 -0.00000000000E+00 -0.12220623324E+03  0.12220623326E+03  0.25500000000E-02 0. -1.
    5000001    1    1    2    0    0  0.80714186816E+02 -0.47699754839E+02  0.40719350723E+02  0.19409562614E+03  0.16500000000E+03 0.  0.
   -5000001    1    1    2    0    0 -0.80714186816E+02  0.47699754839E+02  0.15228810732E+03  0.24332429841E+03  0.16500000000E+03 0.  0.
<mgrwt>
<rscale>  0 0.39253575E+03</rscale>
<asrwt>0</asrwt>
<pdfrwt beam="1">  1        2 0.18800959E-01 0.39253575E+03</pdfrwt>
<pdfrwt beam="2">  1       -2 0.48494413E-01 0.39253575E+03</pdfrwt>
<totfact> 0.12269614E+03</totfact>
</mgrwt>
</event>
<event>
 4    1  0.9012200E-005  0.6563539E+03  0.7818608E-02  0.9794929E-01
         -2   -1    0    0    0  501 -0.00000000000E+00  0.00000000000E+00  0.11073021401E+03  0.11073021404E+03  0.25500000000E-02 0.  1.
          2   -1    0    0  501    0  0.00000000000E+00 -0.00000000000E+00 -0.97263532100E+03  0.97263532100E+03  0.25500000000E-02 0. -1.
    5000001    1    1    2    0    0  0.26206708046E+03  0.25017401051E+02 -0.60540027903E+03  0.68047007492E+03  0.16500000000E+03 0.  0.
   -5000001    1    1    2    0    0 -0.26206708046E+03 -0.25017401051E+02 -0.25650482797E+03  0.40289546012E+03  0.16500000000E+03 0.  0.
<mgrwt>
<rscale>  0 0.65635392E+03</rscale>
<asrwt>0</asrwt>
<pdfrwt beam="1">  1        2 0.14963620E+00 0.65635392E+03</pdfrwt>
<pdfrwt beam="2">  1       -2 0.17035418E-01 0.65635392E+03</pdfrwt>
<totfact> 0.74527188E+02</totfact>
</mgrwt>
</event>
<event>
 4    1  0.9012200E-005  0.6701451E+03  0.7818608E-02  0.9769696E-01
          2   -1    0    0  501    0  0.00000000000E+00  0.00000000000E+00  0.78238200496E+03  0.78238200496E+03  0.25500000000E-02 0.  1.
         -2   -1    0    0    0  501 -0.00000000000E+00 -0.00000000000E+00 -0.14350230767E+03  0.14350230770E+03  0.25500000000E-02 0. -1.
    5000001    1    1    2    0    0 -0.26319649383E+03 -0.20396442919E+02  0.49067246548E+03  0.58109627225E+03  0.16500000000E+03 0.  0.
   -5000001    1    1    2    0    0  0.26319649383E+03  0.20396442919E+02  0.14820723180E+03  0.34478804040E+03  0.16500000000E+03 0.  0.
<mgrwt>
<rscale>  0 0.67014513E+03</rscale>
<asrwt>0</asrwt>
<pdfrwt beam="1">  1        2 0.12036646E+00 0.67014513E+03</pdfrwt>
<pdfrwt beam="2">  1       -2 0.22077278E-01 0.67014513E+03</pdfrwt>
<totfact> 0.63952040E+02</totfact>
</mgrwt>
</event>
<event>
 4    1  0.9012200E-005  0.4232169E+03  0.7818608E-02  0.1036024E+00
          2   -1    0    0  501    0  0.00000000000E+00  0.00000000000E+00  0.33180089562E+03  0.33180089563E+03  0.25500000000E-02 0.  1.
         -2   -1    0    0    0  501 -0.00000000000E+00 -0.00000000000E+00 -0.13495480885E+03  0.13495480888E+03  0.25500000000E-02 0. -1.
    5000001    1    1    2    0    0  0.97230610087E+02 -0.88803427802E+02  0.11452979579E+03  0.24017059447E+03  0.16500000000E+03 0.  0.
   -5000001    1    1    2    0    0 -0.97230610087E+02  0.88803427802E+02  0.82316290982E+02  0.22658511003E+03  0.16500000000E+03 0.  0.
<mgrwt>
<rscale>  0 0.42321685E+03</rscale>
<asrwt>0</asrwt>
<pdfrwt beam="1">  1        2 0.51046291E-01 0.42321685E+03</pdfrwt>
<pdfrwt beam="2">  1       -2 0.20762279E-01 0.42321685E+03</pdfrwt>
<totfact> 0.19433189E+03</totfact>
</mgrwt>
</event>
<event>
 4    1  0.9012200E-005  0.8125644E+03  0.7818608E-02  0.9542007E-01
         -2   -1    0    0    0  501 -0.00000000000E+00  0.00000000000E+00  0.47014422751E+03  0.47014422751E+03  0.25500000000E-02 0. -1.
          2   -1    0    0  501    0  0.00000000000E+00 -0.00000000000E+00 -0.35109485023E+03  0.35109485024E+03  0.25500000000E-02 0.  1.
    5000001    1    1    2    0    0  0.58372190939E+02  0.36074894909E+03  0.12574593341E+03  0.42021917699E+03  0.16500000000E+03 0.  0.
   -5000001    1    1    2    0    0 -0.58372190939E+02 -0.36074894909E+03 -0.66965561282E+01  0.40101990076E+03  0.16500000000E+03 0.  0.
<mgrwt>
<rscale>  0 0.81256438E+03</rscale>
<asrwt>0</asrwt>
<pdfrwt beam="1">  1        2 0.54014592E-01 0.81256438E+03</pdfrwt>
<pdfrwt beam="2">  1       -2 0.72329882E-01 0.81256438E+03</pdfrwt>
<totfact> 0.16048351E+02</totfact>
</mgrwt>
</event>
<event>
 4    1  0.9012200E-005  0.9670150E+03  0.7818608E-02  0.9345481E-01
         -2   -1    0    0    0  501 -0.00000000000E+00  0.00000000000E+00  0.30529286772E+03  0.30529286773E+03  0.25500000000E-02 0. -1.
          2   -1    0    0  501    0  0.00000000000E+00 -0.00000000000E+00 -0.76575492697E+03  0.76575492698E+03  0.25500000000E-02 0.  1.
    5000001    1    1    2    0    0  0.45287405678E+03 -0.83749692929E+01 -0.27151672678E+03  0.55327333601E+03  0.16500000000E+03 0.  0.
   -5000001    1    1    2    0    0 -0.45287405678E+03  0.83749692929E+01 -0.18894533247E+03  0.51777445870E+03  0.16500000000E+03 0.  0.
<mgrwt>
<rscale>  0 0.96701503E+03</rscale>
<asrwt>0</asrwt>
<pdfrwt beam="1">  1        2 0.11780845E+00 0.96701503E+03</pdfrwt>
<pdfrwt beam="2">  1       -2 0.46968134E-01 0.96701503E+03</pdfrwt>
<totfact> 0.15680299E+02</totfact>
</mgrwt>
</event>
<event>
 4    1  0.9012200E-005  0.8078642E+03  0.7818608E-02  0.9548703E-01
         -2   -1    0    0    0  501 -0.00000000000E+00  0.00000000000E+00  0.11158457012E+03  0.11158457015E+03  0.25500000000E-02 0. -1.
          2   -1    0    0  501    0  0.00000000000E+00 -0.00000000000E+00 -0.14622194660E+04  0.14622194660E+04  0.25500000000E-02 0.  1.
    5000001    1    1    2    0    0  0.56364700091E+02  0.34047518355E+03 -0.92808958014E+03  0.10038304632E+04  0.16500000000E+03 0.  0.
   -5000001    1    1    2    0    0 -0.56364700091E+02 -0.34047518355E+03 -0.42254531571E+03  0.56997357295E+03  0.16500000000E+03 0.  0.
<mgrwt>
<rscale>  0 0.80786417E+03</rscale>
<asrwt>0</asrwt>
<pdfrwt beam="1">  1        2 0.22495683E+00 0.80786417E+03</pdfrwt>
<pdfrwt beam="2">  1       -2 0.17166858E-01 0.80786417E+03</pdfrwt>
<totfact> 0.37433906E+02</totfact>
</mgrwt>
</event>
<event>
 4    1  0.9012200E-005  0.7356635E+03  0.7818608E-02  0.9658114E-01
          2   -1    0    0  501    0  0.00000000000E+00  0.00000000000E+00  0.44851101210E+03  0.44851101211E+03  0.25500000000E-02 0.  1.
         -2   -1    0    0    0  501 -0.00000000000E+00 -0.00000000000E+00 -0.30166528185E+03  0.30166528186E+03  0.25500000000E-02 0. -1.
    5000001    1    1    2    0    0 -0.19731293473E+03 -0.26040943380E+03  0.11060774806E+03  0.38236702441E+03  0.16500000000E+03 0.  0.
   -5000001    1    1    2    0    0  0.19731293473E+03  0.26040943380E+03  0.36237982192E+02  0.36780926956E+03  0.16500000000E+03 0.  0.
<mgrwt>
<rscale>  0 0.73566351E+03</rscale>
<asrwt>0</asrwt>
<pdfrwt beam="1">  1        2 0.69001694E-01 0.73566351E+03</pdfrwt>
<pdfrwt beam="2">  1       -2 0.46410044E-01 0.73566351E+03</pdfrwt>
<totfact> 0.30985972E+02</totfact>
</mgrwt>
</event>
<event>
 4    1  0.9012200E-005  0.4559711E+03  0.7818608E-02  0.1025956E+00
          2   -1    0    0  501    0  0.00000000000E+00  0.00000000000E+00  0.49125976027E+03  0.49125976028E+03  0.25500000000E-02 0. -1.
         -2   -1    0    0    0  501 -0.00000000000E+00 -0.00000000000E+00 -0.10580433887E+03  0.10580433891E+03  0.25500000000E-02 0.  1.
    5000001    1    1    2    0    0 -0.24670013525E+02 -0.13767695897E+03  0.98404280502E+02  0.23763829031E+03  0.16500000000E+03 0.  0.
   -5000001    1    1    2    0    0  0.24670013525E+02  0.13767695897E+03  0.28705114090E+03  0.35942580888E+03  0.16500000000E+03 0.  0.
<mgrwt>
<rscale>  0 0.45597111E+03</rscale>
<asrwt>0</asrwt>
<pdfrwt beam="1">  1        2 0.75578424E-01 0.45597111E+03</pdfrwt>
<pdfrwt beam="2">  1       -2 0.16277591E-01 0.45597111E+03</pdfrwt>
<totfact> 0.19072945E+03</totfact>
</mgrwt>
</event>
<event>
 4    1  0.9012200E-005  0.5728412E+03  0.7818608E-02  0.9963411E-01
          2   -1    0    0  501    0  0.00000000000E+00  0.00000000000E+00  0.12560891767E+03  0.12560891769E+03  0.25500000000E-02 0.  1.
         -2   -1    0    0    0  501 -0.00000000000E+00 -0.00000000000E+00 -0.65311244276E+03  0.65311244276E+03  0.25500000000E-02 0. -1.
    5000001    1    1    2    0    0  0.20245133903E+03  0.85670482950E+02 -0.37323022081E+03  0.46352106106E+03  0.16500000000E+03 0.  0.
   -5000001    1    1    2    0    0 -0.20245133903E+03 -0.85670482950E+02 -0.15427330428E+03  0.31520029939E+03  0.16500000000E+03 0.  0.
<mgrwt>
<rscale>  0 0.57284115E+03</rscale>
<asrwt>0</asrwt>
<pdfrwt beam="1">  1        2 0.19324449E-01 0.57284115E+03</pdfrwt>
<pdfrwt beam="2">  1       -2 0.10047884E+00 0.57284115E+03</pdfrwt>
<totfact> 0.24463684E+02</totfact>
</mgrwt>
</event>
<event>
 4    1  0.9012200E-005  0.4587356E+03  0.7818608E-02  0.1025149E+00
          2   -1    0    0  501    0  0.00000000000E+00  0.00000000000E+00  0.12964154888E+04  0.12964154888E+04  0.25500000000E-02 0.  1.
         -2   -1    0    0    0  501 -0.00000000000E+00 -0.00000000000E+00 -0.40580813572E+02  0.40580813653E+02  0.25500000000E-02 0. -1.
    5000001    1    1    2    0    0  0.64778801690E+02  0.14049011450E+03  0.73893088446E+03  0.77277268160E+03  0.16500000000E+03 0.  0.
   -5000001    1    1    2    0    0 -0.64778801690E+02 -0.14049011450E+03  0.51690379080E+03  0.56422362088E+03  0.16500000000E+03 0.  0.
<mgrwt>
<rscale>  0 0.45873563E+03</rscale>
<asrwt>0</asrwt>
<pdfrwt beam="1">  1        2 0.19944852E+00 0.45873563E+03</pdfrwt>
<pdfrwt beam="2">  1       -2 0.62432026E-02 0.45873563E+03</pdfrwt>
<totfact> 0.24518145E+03</totfact>
</mgrwt>
</event>
<event>
 4    1  0.9012200E-005  0.5973018E+03  0.7818608E-02  0.9911020E-01
          2   -1    0    0  501    0  0.00000000000E+00  0.00000000000E+00  0.69506372838E+03  0.69506372838E+03  0.25500000000E-02 0.  1.
         -2   -1    0    0    0  501 -0.00000000000E+00 -0.00000000000E+00 -0.12832257295E+03  0.12832257297E+03  0.25500000000E-02 0. -1.
    5000001    1    1    2    0    0  0.12206826030E+02  0.24685457711E+03  0.24245003217E+03  0.38352732229E+03  0.16500000000E+03 0.  0.
   -5000001    1    1    2    0    0 -0.12206826030E+02 -0.24685457711E+03  0.32429112326E+03  0.43985897907E+03  0.16500000000E+03 0.  0.
<mgrwt>
<rscale>  0 0.59730182E+03</rscale>
<asrwt>0</asrwt>
<pdfrwt beam="1">  1        2 0.10693288E+00 0.59730182E+03</pdfrwt>
<pdfrwt beam="2">  1       -2 0.19741934E-01 0.59730182E+03</pdfrwt>
<totfact> 0.90681864E+02</totfact>
</mgrwt>
</event>
<event>
 4    1  0.9012200E-005  0.4949424E+03  0.7818608E-02  0.1015108E+00
          2   -1    0    0  501    0  0.00000000000E+00  0.00000000000E+00  0.39859218898E+03  0.39859218899E+03  0.25500000000E-02 0.  1.
         -2   -1    0    0    0  501 -0.00000000000E+00 -0.00000000000E+00 -0.15364576398E+03  0.15364576401E+03  0.25500000000E-02 0. -1.
    5000001    1    1    2    0    0  0.50541879064E+02 -0.17635599125E+03  0.10127126189E+03  0.26671480212E+03  0.16500000000E+03 0.  0.
   -5000001    1    1    2    0    0 -0.50541879064E+02  0.17635599125E+03  0.14367516311E+03  0.28552315087E+03  0.16500000000E+03 0.  0.
<mgrwt>
<rscale>  0 0.49494243E+03</rscale>
<asrwt>0</asrwt>
<pdfrwt beam="1">  1        2 0.61321875E-01 0.49494243E+03</pdfrwt>
<pdfrwt beam="2">  1       -2 0.23637810E-01 0.49494243E+03</pdfrwt>
<totfact> 0.12654416E+03</totfact>
</mgrwt>
</event>
<event>
 4    1  0.9012200E-005  0.5932698E+03  0.7818608E-02  0.9919468E-01
          2   -1    0    0  501    0  0.00000000000E+00  0.00000000000E+00  0.94684396311E+03  0.94684396311E+03  0.25500000000E-02 0. -1.
         -2   -1    0    0    0  501 -0.00000000000E+00 -0.00000000000E+00 -0.92932182712E+02  0.92932182747E+02  0.25500000000E-02 0.  1.
    5000001    1    1    2    0    0  0.23813977088E+03 -0.49064731475E+02  0.35577758266E+03  0.46143318765E+03  0.16500000000E+03 0.  0.
   -5000001    1    1    2    0    0 -0.23813977088E+03  0.49064731475E+02  0.49813419774E+03  0.57834295820E+03  0.16500000000E+03 0.  0.
<mgrwt>
<rscale>  0 0.59326984E+03</rscale>
<asrwt>0</asrwt>
<pdfrwt beam="1">  1        2 0.14566830E+00 0.59326984E+03</pdfrwt>
<pdfrwt beam="2">  1       -2 0.14297259E-01 0.59326984E+03</pdfrwt>
<totfact> 0.10438832E+03</totfact>
</mgrwt>
</event>
<event>
 4    1  0.9012200E-005  0.4729808E+03  0.7818608E-02  0.1021082E+00
         -2   -1    0    0    0  501 -0.00000000000E+00  0.00000000000E+00  0.35922447510E+03  0.35922447511E+03  0.25500000000E-02 0. -1.
          2   -1    0    0  501    0  0.00000000000E+00 -0.00000000000E+00 -0.15569011040E+03  0.15569011042E+03  0.25500000000E-02 0.  1.
    5000001    1    1    2    0    0  0.16275420241E+03 -0.28131211910E+02  0.14282567589E+03  0.27368680856E+03  0.16500000000E+03 0.  0.
   -5000001    1    1    2    0    0 -0.16275420241E+03  0.28131211910E+02  0.60708688807E+02  0.24122777697E+03  0.16500000000E+03 0.  0.
<mgrwt>
<rscale>  0 0.47298075E+03</rscale>
<asrwt>0</asrwt>
<pdfrwt beam="1">  1        2 0.23952325E-01 0.47298075E+03</pdfrwt>
<pdfrwt beam="2">  1       -2 0.55265303E-01 0.47298075E+03</pdfrwt>
<totfact> 0.71234594E+02</totfact>
</mgrwt>
</event>
<event>
 4    1  0.9012200E-005  0.3700639E+03  0.7818608E-02  0.1054669E+00
         -2   -1    0    0    0  501 -0.00000000000E+00  0.00000000000E+00  0.23644924215E+02  0.23644924352E+02  0.25500000000E-02 0. -1.
          2   -1    0    0  501    0  0.00000000000E+00 -0.00000000000E+00 -0.14479564508E+04  0.14479564509E+04  0.25500000000E-02 0.  1.
    5000001    1    1    2    0    0  0.77300234430E+02 -0.28142169562E+02 -0.77433769158E+03  0.79598440220E+03  0.16500000000E+03 0.  0.
   -5000001    1    1    2    0    0 -0.77300234430E+02  0.28142169562E+02 -0.64997383506E+03  0.67561697300E+03  0.16500000000E+03 0.  0.
<mgrwt>
<rscale>  0 0.37006389E+03</rscale>
<asrwt>0</asrwt>
<pdfrwt beam="1">  1        2 0.22276246E+00 0.37006389E+03</pdfrwt>
<pdfrwt beam="2">  1       -2 0.36376818E-02 0.37006389E+03</pdfrwt>
<totfact> 0.46287414E+03</totfact>
</mgrwt>
</event>
<event>
 4    1  0.9012200E-005  0.6540747E+03  0.7818608E-02  0.9799163E-01
         -2   -1    0    0    0  501 -0.00000000000E+00  0.00000000000E+00  0.75510163402E+02  0.75510163445E+02  0.25500000000E-02 0. -1.
          2   -1    0    0  501    0  0.00000000000E+00 -0.00000000000E+00 -0.14164111268E+04  0.14164111268E+04  0.25500000000E-02 0.  1.
    5000001    1    1    2    0    0  0.23836300406E+03 -0.12082622638E+03 -0.87841313087E+03  0.93287219230E+03  0.16500000000E+03 0.  0.
   -5000001    1    1    2    0    0 -0.23836300406E+03  0.12082622638E+03 -0.46248783256E+03  0.55904909798E+03  0.16500000000E+03 0.  0.
<mgrwt>
<rscale>  0 0.65407472E+03</rscale>
<asrwt>0</asrwt>
<pdfrwt beam="1">  1        2 0.21790938E+00 0.65407472E+03</pdfrwt>
<pdfrwt beam="2">  1       -2 0.11616949E-01 0.65407472E+03</pdfrwt>
<totfact> 0.77181417E+02</totfact>
</mgrwt>
</event>
<event>
 4    1  0.9012200E-005  0.1593700E+04  0.7818608E-02  0.8824428E-01
         -2   -1    0    0    0  501 -0.00000000000E+00  0.00000000000E+00  0.11321695375E+04  0.11321695375E+04  0.25500000000E-02 0. -1.
          2   -1    0    0  501    0  0.00000000000E+00 -0.00000000000E+00 -0.56084325511E+03  0.56084325512E+03  0.25500000000E-02 0.  1.
    5000001    1    1    2    0    0  0.69788970038E+03 -0.30619808372E+03  0.11130943547E+03  0.78766876972E+03  0.16500000000E+03 0.  0.
   -5000001    1    1    2    0    0 -0.69788970038E+03  0.30619808372E+03  0.46001684693E+03  0.90534402291E+03  0.16500000000E+03 0.  0.
<mgrwt>
<rscale>  0 0.15936997E+04</rscale>
<asrwt>0</asrwt>
<pdfrwt beam="1">  1        2 0.86283579E-01 0.15936997E+04</pdfrwt>
<pdfrwt beam="2">  1       -2 0.17417993E+00 0.15936997E+04</pdfrwt>
<totfact> 0.10264495E+01</totfact>
</mgrwt>
</event>
<event>
 4    1  0.9012200E-005  0.5594477E+03  0.7818608E-02  0.9993305E-01
          2   -1    0    0  501    0  0.00000000000E+00  0.00000000000E+00  0.11236577783E+03  0.11236577786E+03  0.25500000000E-02 0.  1.
         -2   -1    0    0    0  501 -0.00000000000E+00 -0.00000000000E+00 -0.69634576892E+03  0.69634576892E+03  0.25500000000E-02 0. -1.
    5000001    1    1    2    0    0 -0.10611247822E+03 -0.19806402489E+03 -0.32530735174E+03  0.42841462286E+03  0.16500000000E+03 0.  0.
   -5000001    1    1    2    0    0  0.10611247822E+03  0.19806402489E+03 -0.25867263935E+03  0.38029692391E+03  0.16500000000E+03 0.  0.
<mgrwt>
<rscale>  0 0.55944771E+03</rscale>
<asrwt>0</asrwt>
<pdfrwt beam="1">  1        2 0.17287043E-01 0.55944771E+03</pdfrwt>
<pdfrwt beam="2">  1       -2 0.10713012E+00 0.55944771E+03</pdfrwt>
<totfact> 0.23967284E+02</totfact>
</mgrwt>
</event>
<event>
 4    1  0.9012200E-005  0.4649281E+03  0.7818608E-02  0.1023362E+00
          2   -1    0    0  501    0  0.00000000000E+00  0.00000000000E+00  0.10000964098E+04  0.10000964098E+04  0.25500000000E-02 0.  1.
         -2   -1    0    0    0  501 -0.00000000000E+00 -0.00000000000E+00 -0.54034328556E+02  0.54034328616E+02  0.25500000000E-02 0. -1.
    5000001    1    1    2    0    0 -0.13081096335E+03  0.12732190537E+02  0.69449538907E+03  0.72582536622E+03  0.16500000000E+03 0.  0.
   -5000001    1    1    2    0    0  0.13081096335E+03 -0.12732190537E+02  0.25156669220E+03  0.32830537223E+03  0.16500000000E+03 0.  0.
<mgrwt>
<rscale>  0 0.46492812E+03</rscale>
<asrwt>0</asrwt>
<pdfrwt beam="1">  1        2 0.15386098E+00 0.46492812E+03</pdfrwt>
<pdfrwt beam="2">  1       -2 0.83129737E-02 0.46492812E+03</pdfrwt>
<totfact> 0.23405949E+03</totfact>
</mgrwt>
</event>
<event>
 4    1  0.9012200E-005  0.4550377E+03  0.7818608E-02  0.1026230E+00
         -2   -1    0    0    0  501 -0.00000000000E+00  0.00000000000E+00  0.11445111695E+03  0.11445111698E+03  0.25500000000E-02 0. -1.
          2   -1    0    0  501    0  0.00000000000E+00 -0.00000000000E+00 -0.45228761393E+03  0.45228761394E+03  0.25500000000E-02 0.  1.
    5000001    1    1    2    0    0  0.78238448394E+02  0.13087190273E+03 -0.21367078329E+03  0.31004663095E+03  0.16500000000E+03 0.  0.
   -5000001    1    1    2    0    0 -0.78238448394E+02 -0.13087190273E+03 -0.12416571369E+03  0.25669209997E+03  0.16500000000E+03 0.  0.
<mgrwt>
<rscale>  0 0.45503768E+03</rscale>
<asrwt>0</asrwt>
<pdfrwt beam="1">  1        2 0.69582709E-01 0.45503768E+03</pdfrwt>
<pdfrwt beam="2">  1       -2 0.17607864E-01 0.45503768E+03</pdfrwt>
<totfact> 0.18328778E+03</totfact>
</mgrwt>
</event>
<event>
 4    1  0.9012200E-005  0.5435786E+03  0.7818608E-02  0.1002991E+00
          2   -1    0    0  501    0  0.00000000000E+00  0.00000000000E+00  0.22319428806E+03  0.22319428808E+03  0.25500000000E-02 0.  1.
         -2   -1    0    0    0  501 -0.00000000000E+00 -0.00000000000E+00 -0.33096461039E+03  0.33096461040E+03  0.25500000000E-02 0. -1.
    5000001    1    1    2    0    0 -0.31213834505E+02  0.19987569303E+03 -0.13098668645E+03  0.29207380601E+03  0.16500000000E+03 0.  0.
   -5000001    1    1    2    0    0  0.31213834505E+02 -0.19987569303E+03  0.23216364131E+02  0.26208509247E+03  0.16500000000E+03 0.  0.
<mgrwt>
<rscale>  0 0.54357855E+03</rscale>
<asrwt>0</asrwt>
<pdfrwt beam="1">  1        2 0.34337583E-01 0.54357855E+03</pdfrwt>
<pdfrwt beam="2">  1       -2 0.50917632E-01 0.54357855E+03</pdfrwt>
<totfact> 0.56139796E+02</totfact>
</mgrwt>
</event>
<event>
 4    1  0.9012200E-005  0.6105506E+03  0.7818608E-02  0.9883756E-01
         -2   -1    0    0    0  501 -0.00000000000E+00  0.00000000000E+00  0.10455002477E+03  0.10455002480E+03  0.25500000000E-02 0. -1.
          2   -1    0    0  501    0  0.00000000000E+00 -0.00000000000E+00 -0.89137239224E+03  0.89137239225E+03  0.25500000000E-02 0.  1.
    5000001    1    1    2    0    0 -0.10919084969E+03  0.22599578185E+03 -0.48232616847E+03  0.56820794421E+03  0.16500000000E+03 0.  0.
   -5000001    1    1    2    0    0  0.10919084969E+03 -0.22599578185E+03 -0.30449619900E+03  0.42771447284E+03  0.16500000000E+03 0.  0.
<mgrwt>
<rscale>  0 0.61055059E+03</rscale>
<asrwt>0</asrwt>
<pdfrwt beam="1">  1        2 0.13713421E+00 0.61055059E+03</pdfrwt>
<pdfrwt beam="2">  1       -2 0.16084620E-01 0.61055059E+03</pdfrwt>
<totfact> 0.93070164E+02</totfact>
</mgrwt>
</event>
<event>
 4    1  0.9012200E-005  0.1405560E+04  0.7818608E-02  0.8949803E-01
          2   -1    0    0  501    0  0.00000000000E+00  0.00000000000E+00  0.26071433291E+04  0.26071433291E+04  0.25500000000E-02 0.  1.
         -2   -1    0    0    0  501 -0.00000000000E+00 -0.00000000000E+00 -0.18944105085E+03  0.18944105086E+03  0.25500000000E-02 0. -1.
    5000001    1    1    2    0    0 -0.20591809581E+03  0.64982156055E+03  0.12979347127E+04  0.14753066940E+04  0.16500000000E+03 0.  0.
   -5000001    1    1    2    0    0  0.20591809581E+03 -0.64982156055E+03  0.11197675656E+04  0.13212776860E+04  0.16500000000E+03 0.  0.
<mgrwt>
<rscale>  0 0.14055603E+04</rscale>
<asrwt>0</asrwt>
<pdfrwt beam="1">  1        2 0.40109897E+00 0.14055603E+04</pdfrwt>
<pdfrwt beam="2">  1       -2 0.29144778E-01 0.14055603E+04</pdfrwt>
<totfact> 0.31880565E+01</totfact>
</mgrwt>
</event>
<event>
 4    1  0.9012200E-005  0.4912290E+03  0.7818608E-02  0.1016094E+00
          2   -1    0    0  501    0  0.00000000000E+00  0.00000000000E+00  0.15524968524E+04  0.15524968524E+04  0.25500000000E-02 0.  1.
         -2   -1    0    0    0  501 -0.00000000000E+00 -0.00000000000E+00 -0.38857712135E+02  0.38857712219E+02  0.25500000000E-02 0. -1.
    5000001    1    1    2    0    0 -0.89032766427E+02  0.14893427205E+03  0.93405586385E+03  0.96425806073E+03  0.16500000000E+03 0.  0.
   -5000001    1    1    2    0    0  0.89032766427E+02 -0.14893427205E+03  0.57958327637E+03  0.62709650385E+03  0.16500000000E+03 0.  0.
<mgrwt>
<rscale>  0 0.49122897E+03</rscale>
<asrwt>0</asrwt>
<pdfrwt beam="1">  1        2 0.23884561E+00 0.49122897E+03</pdfrwt>
<pdfrwt beam="2">  1       -2 0.59781110E-02 0.49122897E+03</pdfrwt>
<totfact> 0.18904666E+03</totfact>
</mgrwt>
</event>
<event>
 4    1  0.9012200E-005  0.4577090E+03  0.7818608E-02  0.1025448E+00
         -2   -1    0    0    0  501 -0.00000000000E+00  0.00000000000E+00  0.81100323163E+02  0.81100323203E+02  0.25500000000E-02 0. -1.
          2   -1    0    0  501    0  0.00000000000E+00 -0.00000000000E+00 -0.64579746355E+03  0.64579746355E+03  0.25500000000E-02 0.  1.
    5000001    1    1    2    0    0  0.50123439961E+02 -0.14126902177E+03 -0.20013218876E+03  0.29957835155E+03  0.16500000000E+03 0.  0.
   -5000001    1    1    2    0    0 -0.50123439961E+02  0.14126902177E+03 -0.36456495163E+03  0.42731943520E+03  0.16500000000E+03 0.  0.
<mgrwt>
<rscale>  0 0.45770900E+03</rscale>
<asrwt>0</asrwt>
<pdfrwt beam="1">  1        2 0.99353452E-01 0.45770900E+03</pdfrwt>
<pdfrwt beam="2">  1       -2 0.12476973E-01 0.45770900E+03</pdfrwt>
<totfact> 0.21561459E+03</totfact>
</mgrwt>
</event>
<event>
 4    1  0.9012200E-005  0.8652462E+03  0.7818608E-02  0.9470099E-01
         -2   -1    0    0    0  501 -0.00000000000E+00  0.00000000000E+00  0.95822163622E+02  0.95822163655E+02  0.25500000000E-02 0. -1.
          2   -1    0    0  501    0  0.00000000000E+00 -0.00000000000E+00 -0.19532301544E+04  0.19532301544E+04  0.25500000000E-02 0.  1.
    5000001    1    1    2    0    0  0.27565184708E+03 -0.28961604776E+03 -0.94939585696E+03  0.10432827465E+04  0.16500000000E+03 0.  0.
   -5000001    1    1    2    0    0 -0.27565184708E+03  0.28961604776E+03 -0.90801213381E+03  0.10057695716E+04  0.16500000000E+03 0.  0.
<mgrwt>
<rscale>  0 0.86524618E+03</rscale>
<asrwt>0</asrwt>
<pdfrwt beam="1">  1        2 0.30049692E+00 0.86524618E+03</pdfrwt>
<pdfrwt beam="2">  1       -2 0.14741873E-01 0.86524618E+03</pdfrwt>
<totfact> 0.25940483E+02</totfact>
</mgrwt>
</event>
<event>
 4    1  0.9012200E-005  0.4305767E+03  0.7818608E-02  0.1033678E+00
         -2   -1    0    0    0  501 -0.00000000000E+00  0.00000000000E+00  0.10979082685E+03  0.10979082688E+03  0.25500000000E-02 0. -1.
          2   -1    0    0  501    0  0.00000000000E+00 -0.00000000000E+00 -0.42215806894E+03  0.42215806895E+03  0.25500000000E-02 0.  1.
    5000001    1    1    2    0    0  0.97752897900E+02 -0.97758115176E+02 -0.16042843229E+03  0.26846705574E+03  0.16500000000E+03 0.  0.
   -5000001    1    1    2    0    0 -0.97752897900E+02  0.97758115176E+02 -0.15193880980E+03  0.26348184009E+03  0.16500000000E+03 0.  0.
<mgrwt>
<rscale>  0 0.43057675E+03</rscale>
<asrwt>0</asrwt>
<pdfrwt beam="1">  1        2 0.64947395E-01 0.43057675E+03</pdfrwt>
<pdfrwt beam="2">  1       -2 0.16890897E-01 0.43057675E+03</pdfrwt>
<totfact> 0.21236502E+03</totfact>
</mgrwt>
</event>
<event>
 4    1  0.9012200E-005  0.4588700E+03  0.7818608E-02  0.1025109E+00
         -2   -1    0    0    0  501 -0.00000000000E+00  0.00000000000E+00  0.35624880763E+02  0.35624880854E+02  0.25500000000E-02 0. -1.
          2   -1    0    0  501    0  0.00000000000E+00 -0.00000000000E+00 -0.14776308863E+04  0.14776308863E+04  0.25500000000E-02 0.  1.
    5000001    1    1    2    0    0 -0.23475201813E+00 -0.12789469378E+03 -0.10348705366E+04  0.10557173558E+04  0.16500000000E+03 0.  0.
   -5000001    1    1    2    0    0  0.23475201813E+00  0.12789469378E+03 -0.40713546896E+03  0.45753841138E+03  0.16500000000E+03 0.  0.
<mgrwt>
<rscale>  0 0.45887002E+03</rscale>
<asrwt>0</asrwt>
<pdfrwt beam="1">  1        2 0.22732778E+00 0.45887002E+03</pdfrwt>
<pdfrwt beam="2">  1       -2 0.54807520E-02 0.45887002E+03</pdfrwt>
<totfact> 0.23797013E+03</totfact>
</mgrwt>
</event>
<event>
 4    1  0.9012200E-005  0.4794296E+03  0.7818608E-02  0.1019292E+00
         -2   -1    0    0    0  501 -0.00000000000E+00  0.00000000000E+00  0.28427137555E+02  0.28427137670E+02  0.25500000000E-02 0. -1.
          2   -1    0    0  501    0  0.00000000000E+00 -0.00000000000E+00 -0.20214201546E+04  0.20214201546E+04  0.25500000000E-02 0.  1.
    5000001    1    1    2    0    0  0.74738589882E+02  0.10767119286E+03 -0.50789398242E+03  0.54987293075E+03  0.16500000000E+03 0.  0.
   -5000001    1    1    2    0    0 -0.74738589882E+02 -0.10767119286E+03 -0.14850990346E+04  0.14999743615E+04  0.16500000000E+03 0.  0.
<mgrwt>
<rscale>  0 0.47942961E+03</rscale>
<asrwt>0</asrwt>
<pdfrwt beam="1">  1        2 0.31098760E+00 0.47942961E+03</pdfrwt>
<pdfrwt beam="2">  1       -2 0.43734074E-02 0.47942961E+03</pdfrwt>
<totfact> 0.17142998E+03</totfact>
</mgrwt>
</event>
<event>
 4    1  0.9012200E-005  0.1117087E+04  0.7818608E-02  0.9188696E-01
         -2   -1    0    0    0  501 -0.00000000000E+00  0.00000000000E+00  0.95338913153E+03  0.95338913153E+03  0.25500000000E-02 0. -1.
          2   -1    0    0  501    0  0.00000000000E+00 -0.00000000000E+00 -0.32722322760E+03  0.32722322761E+03  0.25500000000E-02 0.  1.
    5000001    1    1    2    0    0 -0.33493529978E+03 -0.38040162634E+03  0.50442632369E+03  0.73386508868E+03  0.16500000000E+03 0.  0.
   -5000001    1    1    2    0    0  0.33493529978E+03  0.38040162634E+03  0.12173958024E+03  0.54674727046E+03  0.16500000000E+03 0.  0.
<mgrwt>
<rscale>  0 0.11170874E+04</rscale>
<asrwt>0</asrwt>
<pdfrwt beam="1">  1        2 0.50342035E-01 0.11170874E+04</pdfrwt>
<pdfrwt beam="2">  1       -2 0.14667525E+00 0.11170874E+04</pdfrwt>
<totfact> 0.31386742E+01</totfact>
</mgrwt>
</event>
<event>
 4    1  0.9012200E-005  0.6034003E+03  0.7818608E-02  0.9898376E-01
         -2   -1    0    0    0  501 -0.00000000000E+00  0.00000000000E+00  0.11757692487E+03  0.11757692490E+03  0.25500000000E-02 0. -1.
          2   -1    0    0  501    0  0.00000000000E+00 -0.00000000000E+00 -0.77415691810E+03  0.77415691811E+03  0.25500000000E-02 0.  1.
    5000001    1    1    2    0    0 -0.19012514932E+01  0.24917545672E+03 -0.26724993045E+03  0.40092336963E+03  0.16500000000E+03 0.  0.
   -5000001    1    1    2    0    0  0.19012514932E+01 -0.24917545672E+03 -0.38933006279E+03  0.49081047338E+03  0.16500000000E+03 0.  0.
<mgrwt>
<rscale>  0 0.60340033E+03</rscale>
<asrwt>0</asrwt>
<pdfrwt beam="1">  1        2 0.11910106E+00 0.60340033E+03</pdfrwt>
<pdfrwt beam="2">  1       -2 0.18088758E-01 0.60340033E+03</pdfrwt>
<totfact> 0.91955934E+02</totfact>
</mgrwt>
</event>
<event>
 4    1  0.9012200E-005  0.3946750E+03  0.7818608E-02  0.1045639E+00
          2   -1    0    0  501    0  0.00000000000E+00  0.00000000000E+00  0.20587043436E+03  0.20587043438E+03  0.25500000000E-02 0.  1.
         -2   -1    0    0    0  501 -0.00000000000E+00 -0.00000000000E+00 -0.18915825855E+03  0.18915825857E+03  0.25500000000E-02 0. -1.
    5000001    1    1    2    0    0  0.14783000836E+02 -0.79126772350E+02  0.80791580828E+02  0.20057881929E+03  0.16500000000E+03 0.  0.
   -5000001    1    1    2    0    0 -0.14783000836E+02  0.79126772350E+02 -0.64079405017E+02  0.19444987365E+03  0.16500000000E+03 0.  0.
<mgrwt>
<rscale>  0 0.39467502E+03</rscale>
<asrwt>0</asrwt>
<pdfrwt beam="1">  1        2 0.31672374E-01 0.39467502E+03</pdfrwt>
<pdfrwt beam="2">  1       -2 0.29101271E-01 0.39467502E+03</pdfrwt>
<totfact> 0.17973238E+03</totfact>
</mgrwt>
</event>
<event>
 4    1  0.9012200E-005  0.5876267E+03  0.7818608E-02  0.9931414E-01
         -2   -1    0    0    0  501 -0.00000000000E+00  0.00000000000E+00  0.25956305516E+02  0.25956305641E+02  0.25500000000E-02 0. -1.
          2   -1    0    0  501    0  0.00000000000E+00 -0.00000000000E+00 -0.33258312689E+04  0.33258312689E+04  0.25500000000E-02 0.  1.
    5000001    1    1    2    0    0 -0.21380147467E+03 -0.11566222946E+03 -0.16700804074E+04  0.16957247386E+04  0.16500000000E+03 0.  0.
   -5000001    1    1    2    0    0  0.21380147467E+03  0.11566222946E+03 -0.16297945559E+04  0.16560628359E+04  0.16500000000E+03 0.  0.
<mgrwt>
<rscale>  0 0.58762673E+03</rscale>
<asrwt>0</asrwt>
<pdfrwt beam="1">  1        2 0.51166601E+00 0.58762673E+03</pdfrwt>
<pdfrwt beam="2">  1       -2 0.39932804E-02 0.58762673E+03</pdfrwt>
<totfact> 0.34118689E+02</totfact>
</mgrwt>
</event>
<event>
 4    1  0.9012200E-005  0.5409738E+03  0.7818608E-02  0.1003605E+00
          2   -1    0    0  501    0  0.00000000000E+00  0.00000000000E+00  0.10968541067E+03  0.10968541070E+03  0.25500000000E-02 0.  1.
         -2   -1    0    0    0  501 -0.00000000000E+00 -0.00000000000E+00 -0.66702726836E+03  0.66702726837E+03  0.25500000000E-02 0. -1.
    5000001    1    1    2    0    0  0.20426012233E+03  0.61865721664E+02 -0.25036791714E+03  0.36804708805E+03  0.16500000000E+03 0.  0.
   -5000001    1    1    2    0    0 -0.20426012233E+03 -0.61865721664E+02 -0.30697394056E+03  0.40866559101E+03  0.16500000000E+03 0.  0.
<mgrwt>
<rscale>  0 0.54097379E+03</rscale>
<asrwt>0</asrwt>
<pdfrwt beam="1">  1        2 0.16874679E-01 0.54097379E+03</pdfrwt>
<pdfrwt beam="2">  1       -2 0.10261958E+00 0.54097379E+03</pdfrwt>
<totfact> 0.27344515E+02</totfact>
</mgrwt>
</event>
<event>
 4    1  0.9012200E-005  0.5545562E+03  0.7818608E-02  0.1000445E+00
         -2   -1    0    0    0  501 -0.00000000000E+00  0.00000000000E+00  0.22986504222E+03  0.22986504223E+03  0.25500000000E-02 0. -1.
          2   -1    0    0  501    0  0.00000000000E+00 -0.00000000000E+00 -0.33447085676E+03  0.33447085677E+03  0.25500000000E-02 0.  1.
    5000001    1    1    2    0    0  0.20053985984E+03  0.88471867655E+02 -0.11411562687E+02  0.27458829275E+03  0.16500000000E+03 0.  0.
   -5000001    1    1    2    0    0 -0.20053985984E+03 -0.88471867655E+02 -0.93194251850E+02  0.28974760625E+03  0.16500000000E+03 0.  0.
<mgrwt>
<rscale>  0 0.55455625E+03</rscale>
<asrwt>0</asrwt>
<pdfrwt beam="1">  1        2 0.51457055E-01 0.55455625E+03</pdfrwt>
<pdfrwt beam="2">  1       -2 0.35363853E-01 0.55455625E+03</pdfrwt>
<totfact> 0.73403174E+02</totfact>
</mgrwt>
</event>
<event>
 4    1  0.9012200E-005  0.4055349E+03  0.7818608E-02  0.1041880E+00
         -2   -1    0    0    0  501 -0.00000000000E+00  0.00000000000E+00  0.15489519385E+03  0.15489519387E+03  0.25500000000E-02 0. -1.
          2   -1    0    0  501    0  0.00000000000E+00 -0.00000000000E+00 -0.26543515308E+03  0.26543515309E+03  0.25500000000E-02 0.  1.
    5000001    1    1    2    0    0 -0.25574572321E+02  0.11280568934E+03 -0.31852617430E+02  0.20400679286E+03  0.16500000000E+03 0.  0.
   -5000001    1    1    2    0    0  0.25574572321E+02 -0.11280568934E+03 -0.78687341803E+02  0.21632355410E+03  0.16500000000E+03 0.  0.
<mgrwt>
<rscale>  0 0.40553485E+03</rscale>
<asrwt>0</asrwt>
<pdfrwt beam="1">  1        2 0.40836177E-01 0.40553485E+03</pdfrwt>
<pdfrwt beam="2">  1       -2 0.23830030E-01 0.40553485E+03</pdfrwt>
<totfact> 0.19466445E+03</totfact>
</mgrwt>
</event>
<event>
 4    1  0.9012200E-005  0.4599074E+03  0.7818608E-02  0.1024808E+00
          2   -1    0    0  501    0  0.00000000000E+00  0.00000000000E+00  0.94545525171E+02  0.94545525205E+02  0.25500000000E-02 0.  1.
         -2   -1    0    0    0  501 -0.00000000000E+00 -0.00000000000E+00 -0.55929365394E+03  0.55929365395E+03  0.25500000000E-02 0. -1.
    5000001    1    1    2    0    0  0.10498835337E+03 -0.11932244934E+03 -0.26056883403E+03  0.34696039908E+03  0.16500000000E+03 0.  0.
   -5000001    1    1    2    0    0 -0.10498835337E+03  0.11932244934E+03 -0.20417929475E+03  0.30687878008E+03  0.16500000000E+03 0.  0.
<mgrwt>
<rscale>  0 0.45990744E+03</rscale>
<asrwt>0</asrwt>
<pdfrwt beam="1">  1        2 0.14545466E-01 0.45990744E+03</pdfrwt>
<pdfrwt beam="2">  1       -2 0.86045176E-01 0.45990744E+03</pdfrwt>
<totfact> 0.49202342E+02</totfact>
</mgrwt>
</event>
<event>
 4    1  0.9012200E-005  0.5046661E+03  0.7818608E-02  0.1012568E+00
          2   -1    0    0  501    0  0.00000000000E+00  0.00000000000E+00  0.43918558502E+03  0.43918558503E+03  0.25500000000E-02 0.  1.
         -2   -1    0    0    0  501 -0.00000000000E+00 -0.00000000000E+00 -0.14497733736E+03  0.14497733738E+03  0.25500000000E-02 0. -1.
    5000001    1    1    2    0    0  0.71309616068E+02 -0.97368524037E+02 -0.24120458821E+02  0.20584578536E+03  0.16500000000E+03 0.  0.
   -5000001    1    1    2    0    0 -0.71309616068E+02  0.97368524037E+02  0.31832870649E+03  0.37831713705E+03  0.16500000000E+03 0.  0.
<mgrwt>
<rscale>  0 0.50466605E+03</rscale>
<asrwt>0</asrwt>
<pdfrwt beam="1">  1        2 0.67567013E-01 0.50466605E+03</pdfrwt>
<pdfrwt beam="2">  1       -2 0.22304206E-01 0.50466605E+03</pdfrwt>
<totfact> 0.12582863E+03</totfact>
</mgrwt>
</event>
<event>
 4    1  0.9012200E-005  0.5607913E+03  0.7818608E-02  0.9990266E-01
         -2   -1    0    0    0  501 -0.00000000000E+00  0.00000000000E+00  0.81838701796E+02  0.81838701835E+02  0.25500000000E-02 0.  1.
          2   -1    0    0  501    0  0.00000000000E+00 -0.00000000000E+00 -0.96069126922E+03  0.96069126923E+03  0.25500000000E-02 0. -1.
    5000001    1    1    2    0    0  0.15214823383E+03 -0.16694864741E+03 -0.47546423567E+03  0.55164497218E+03  0.16500000000E+03 0.  0.
   -5000001    1    1    2    0    0 -0.15214823383E+03  0.16694864741E+03 -0.40338833175E+03  0.49088499888E+03  0.16500000000E+03 0.  0.
<mgrwt>
<rscale>  0 0.56079132E+03</rscale>
<asrwt>0</asrwt>
<pdfrwt beam="1">  1        2 0.14779865E+00 0.56079132E+03</pdfrwt>
<pdfrwt beam="2">  1       -2 0.12590570E-01 0.56079132E+03</pdfrwt>
<totfact> 0.12643632E+03</totfact>
</mgrwt>
</event>
<event>
 4    1  0.9012200E-005  0.6470743E+03  0.7818608E-02  0.9812285E-01
          2   -1    0    0  501    0  0.00000000000E+00  0.00000000000E+00  0.15857129755E+04  0.15857129755E+04  0.25500000000E-02 0.  1.
         -2   -1    0    0    0  501 -0.00000000000E+00 -0.00000000000E+00 -0.66012132650E+02  0.66012132699E+02  0.25500000000E-02 0. -1.
    5000001    1    1    2    0    0 -0.24311092767E+03  0.12447533854E+03  0.89622409545E+03  0.95133572535E+03  0.16500000000E+03 0.  0.
   -5000001    1    1    2    0    0  0.24311092767E+03 -0.12447533854E+03  0.62347674736E+03  0.70038938282E+03  0.16500000000E+03 0.  0.
<mgrwt>
<rscale>  0 0.64707432E+03</rscale>
<asrwt>0</asrwt>
<pdfrwt beam="1">  1        2 0.24395582E+00 0.64707432E+03</pdfrwt>
<pdfrwt beam="2">  1       -2 0.10155714E-01 0.64707432E+03</pdfrwt>
<totfact> 0.77496561E+02</totfact>
</mgrwt>
</event>
<event>
 4    1  0.9012200E-005  0.4857845E+03  0.7818608E-02  0.1017557E+00
         -2   -1    0    0    0  501 -0.00000000000E+00  0.00000000000E+00  0.35617330055E+02  0.35617330146E+02  0.25500000000E-02 0. -1.
          2   -1    0    0  501    0  0.00000000000E+00 -0.00000000000E+00 -0.16564029133E+04  0.16564029133E+04  0.25500000000E-02 0.  1.
    5000001    1    1    2    0    0 -0.82301826478E+02 -0.11364439097E+03 -0.42752443621E+03  0.47926066164E+03  0.16500000000E+03 0.  0.
   -5000001    1    1    2    0    0  0.82301826478E+02  0.11364439097E+03 -0.11932611470E+04  0.12127595818E+04  0.16500000000E+03 0.  0.
<mgrwt>
<rscale>  0 0.48578452E+03</rscale>
<asrwt>0</asrwt>
<pdfrwt beam="1">  1        2 0.25483116E+00 0.48578452E+03</pdfrwt>
<pdfrwt beam="2">  1       -2 0.54795905E-02 0.48578452E+03</pdfrwt>
<totfact> 0.19014331E+03</totfact>
</mgrwt>
</event>
<event>
 4    1  0.9012200E-005  0.3873645E+03  0.7818608E-02  0.1048245E+00
          2   -1    0    0  501    0  0.00000000000E+00  0.00000000000E+00  0.79400030805E+03  0.79400030805E+03  0.25500000000E-02 0.  1.
         -2   -1    0    0    0  501 -0.00000000000E+00 -0.00000000000E+00 -0.47245341580E+02  0.47245341649E+02  0.25500000000E-02 0. -1.
    5000001    1    1    2    0    0 -0.74190929163E+02 -0.69033011195E+02  0.36417258564E+03  0.41245184293E+03  0.16500000000E+03 0.  0.
   -5000001    1    1    2    0    0  0.74190929163E+02  0.69033011195E+02  0.38258238083E+03  0.42879380677E+03  0.16500000000E+03 0.  0.
<mgrwt>
<rscale>  0 0.38736451E+03</rscale>
<asrwt>0</asrwt>
<pdfrwt beam="1">  1        2 0.12215389E+00 0.38736451E+03</pdfrwt>
<pdfrwt beam="2">  1       -2 0.72685145E-02 0.38736451E+03</pdfrwt>
<totfact> 0.39561665E+03</totfact>
</mgrwt>
</event>
<event>
 4    1  0.9012200E-005  0.6231001E+03  0.7818608E-02  0.9858607E-01
          2   -1    0    0  501    0  0.00000000000E+00  0.00000000000E+00  0.16272895267E+04  0.16272895267E+04  0.25500000000E-02 0.  1.
         -2   -1    0    0    0  501 -0.00000000000E+00 -0.00000000000E+00 -0.59647309899E+02  0.59647309954E+02  0.25500000000E-02 0. -1.
    5000001    1    1    2    0    0 -0.27650160776E+02  0.25192776433E+03  0.98653319665E+03  0.10318453750E+04  0.16500000000E+03 0.  0.
   -5000001    1    1    2    0    0  0.27650160776E+02 -0.25192776433E+03  0.58110902018E+03  0.65509146168E+03  0.16500000000E+03 0.  0.
<mgrwt>
<rscale>  0 0.62310013E+03</rscale>
<asrwt>0</asrwt>
<pdfrwt beam="1">  1        2 0.25035224E+00 0.62310013E+03</pdfrwt>
<pdfrwt beam="2">  1       -2 0.91765091E-02 0.62310013E+03</pdfrwt>
<totfact> 0.86767104E+02</totfact>
</mgrwt>
</event>
<event>
 4    1  0.9012200E-005  0.5133565E+03  0.7818608E-02  0.1010350E+00
          2   -1    0    0  501    0  0.00000000000E+00  0.00000000000E+00  0.96661444703E+03  0.96661444703E+03  0.25500000000E-02 0.  1.
         -2   -1    0    0    0  501 -0.00000000000E+00 -0.00000000000E+00 -0.68159254321E+02  0.68159254369E+02  0.25500000000E-02 0. -1.
    5000001    1    1    2    0    0 -0.24685749930E+02  0.97798252996E+02  0.78942671799E+03  0.81276898785E+03  0.16500000000E+03 0.  0.
   -5000001    1    1    2    0    0  0.24685749930E+02 -0.97798252996E+02  0.10902847472E+03  0.22200471355E+03  0.16500000000E+03 0.  0.
<mgrwt>
<rscale>  0 0.51335648E+03</rscale>
<asrwt>0</asrwt>
<pdfrwt beam="1">  1        2 0.14870990E+00 0.51335648E+03</pdfrwt>
<pdfrwt beam="2">  1       -2 0.10486040E-01 0.51335648E+03</pdfrwt>
<totfact> 0.16921590E+03</totfact>
</mgrwt>
</event>
<event>
 4    1  0.9012200E-005  0.4452215E+03  0.7818608E-02  0.1029157E+00
          2   -1    0    0  501    0  0.00000000000E+00  0.00000000000E+00  0.70087789779E+03  0.70087789779E+03  0.25500000000E-02 0.  1.
         -2   -1    0    0    0  501 -0.00000000000E+00 -0.00000000000E+00 -0.70704955451E+02  0.70704955497E+02  0.25500000000E-02 0. -1.
    5000001    1    1    2    0    0  0.89973316711E+02  0.10195782923E+03  0.20769521982E+03  0.29808203736E+03  0.16500000000E+03 0.  0.
   -5000001    1    1    2    0    0 -0.89973316711E+02 -0.10195782923E+03  0.42247772252E+03  0.47350081593E+03  0.16500000000E+03 0.  0.
<mgrwt>
<rscale>  0 0.44522148E+03</rscale>
<asrwt>0</asrwt>
<pdfrwt beam="1">  1        2 0.10782737E+00 0.44522148E+03</pdfrwt>
<pdfrwt beam="2">  1       -2 0.10877685E-01 0.44522148E+03</pdfrwt>
<totfact> 0.24395246E+03</totfact>
</mgrwt>
</event>
<event>
 4    1  0.9012200E-005  0.4061845E+03  0.7818608E-02  0.1041659E+00
         -2   -1    0    0    0  501 -0.00000000000E+00  0.00000000000E+00  0.41053805379E+02  0.41053805458E+02  0.25500000000E-02 0. -1.
          2   -1    0    0  501    0  0.00000000000E+00 -0.00000000000E+00 -0.10046926119E+04  0.10046926119E+04  0.25500000000E-02 0.  1.
    5000001    1    1    2    0    0  0.11767177308E+03  0.54192377402E+01 -0.51286828918E+03  0.55148426665E+03  0.16500000000E+03 0.  0.
   -5000001    1    1    2    0    0 -0.11767177308E+03 -0.54192377402E+01 -0.45077051733E+03  0.49426215070E+03  0.16500000000E+03 0.  0.
<mgrwt>
<rscale>  0 0.40618447E+03</rscale>
<asrwt>0</asrwt>
<pdfrwt beam="1">  1        2 0.15456808E+00 0.40618447E+03</pdfrwt>
<pdfrwt beam="2">  1       -2 0.63159708E-02 0.40618447E+03</pdfrwt>
<totfact> 0.35802292E+03</totfact>
</mgrwt>
</event>
<event>
 4    1  0.9012200E-005  0.4306337E+03  0.7818608E-02  0.1033660E+00
          2   -1    0    0  501    0  0.00000000000E+00  0.00000000000E+00  0.97248932677E+03  0.97248932678E+03  0.25500000000E-02 0.  1.
         -2   -1    0    0    0  501 -0.00000000000E+00 -0.00000000000E+00 -0.47672858990E+02  0.47672859058E+02  0.25500000000E-02 0. -1.
    5000001    1    1    2    0    0 -0.10488966754E+03  0.79268865446E+02  0.36048840426E+03  0.41768682645E+03  0.16500000000E+03 0.  0.
   -5000001    1    1    2    0    0  0.10488966754E+03 -0.79268865446E+02  0.56432806352E+03  0.60247535938E+03  0.16500000000E+03 0.  0.
<mgrwt>
<rscale>  0 0.43063370E+03</rscale>
<asrwt>0</asrwt>
<pdfrwt beam="1">  1        2 0.14961373E+00 0.43063370E+03</pdfrwt>
<pdfrwt beam="2">  1       -2 0.73342865E-02 0.43063370E+03</pdfrwt>
<totfact> 0.29694821E+03</totfact>
</mgrwt>
</event>
<event>
 4    1  0.9012200E-005  0.5166355E+03  0.7818608E-02  0.1009526E+00
          2   -1    0    0  501    0  0.00000000000E+00  0.00000000000E+00  0.48754880188E+03  0.48754880188E+03  0.25500000000E-02 0.  1.
         -2   -1    0    0    0  501 -0.00000000000E+00 -0.00000000000E+00 -0.13686439688E+03  0.13686439690E+03  0.25500000000E-02 0. -1.
    5000001    1    1    2    0    0 -0.16645338942E+03  0.45266015798E+02  0.29466697526E+03  0.37922205810E+03  0.16500000000E+03 0.  0.
   -5000001    1    1    2    0    0  0.16645338942E+03 -0.45266015798E+02  0.56017429736E+02  0.24519114069E+03  0.16500000000E+03 0.  0.
<mgrwt>
<rscale>  0 0.51663555E+03</rscale>
<asrwt>0</asrwt>
<pdfrwt beam="1">  1        2 0.75007508E-01 0.51663555E+03</pdfrwt>
<pdfrwt beam="2">  1       -2 0.21056061E-01 0.51663555E+03</pdfrwt>
<totfact> 0.12367459E+03</totfact>
</mgrwt>
</event>
<event>
 4    1  0.9012200E-005  0.3563174E+03  0.7818608E-02  0.1060052E+00
          2   -1    0    0  501    0  0.00000000000E+00  0.00000000000E+00  0.79718291247E+03  0.79718291247E+03  0.25500000000E-02 0.  1.
         -2   -1    0    0    0  501 -0.00000000000E+00 -0.00000000000E+00 -0.39815848241E+02  0.39815848323E+02  0.25500000000E-02 0. -1.
    5000001    1    1    2    0    0 -0.50311178068E+02  0.41621081750E+02  0.34139502235E+03  0.38475848317E+03  0.16500000000E+03 0.  0.
   -5000001    1    1    2    0    0  0.50311178068E+02 -0.41621081750E+02  0.41597204188E+03  0.45224027763E+03  0.16500000000E+03 0.  0.
<mgrwt>
<rscale>  0 0.35631735E+03</rscale>
<asrwt>0</asrwt>
<pdfrwt beam="1">  1        2 0.12264352E+00 0.35631735E+03</pdfrwt>
<pdfrwt beam="2">  1       -2 0.61255155E-02 0.35631735E+03</pdfrwt>
<totfact> 0.51310569E+03</totfact>
</mgrwt>
</event>
<event>
 4    1  0.9012200E-005  0.3982135E+03  0.7818608E-02  0.1044400E+00
         -2   -1    0    0    0  501 -0.00000000000E+00  0.00000000000E+00  0.22900510916E+02  0.22900511058E+02  0.25500000000E-02 0. -1.
          2   -1    0    0  501    0  0.00000000000E+00 -0.00000000000E+00 -0.17311183985E+04  0.17311183985E+04  0.25500000000E-02 0.  1.
    5000001    1    1    2    0    0  0.10676919698E+03 -0.25985981795E+02 -0.93575244925E+03  0.95652108129E+03  0.16500000000E+03 0.  0.
   -5000001    1    1    2    0    0 -0.10676919698E+03  0.25985981795E+02 -0.77246543828E+03  0.79749782822E+03  0.16500000000E+03 0.  0.
<mgrwt>
<rscale>  0 0.39821349E+03</rscale>
<asrwt>0</asrwt>
<pdfrwt beam="1">  1        2 0.26632580E+00 0.39821349E+03</pdfrwt>
<pdfrwt beam="2">  1       -2 0.35231569E-02 0.39821349E+03</pdfrwt>
<totfact> 0.34188060E+03</totfact>
</mgrwt>
</event>
<event>
 4    1  0.9012200E-005  0.7225740E+03  0.7818608E-02  0.9679388E-01
          2   -1    0    0  501    0  0.00000000000E+00  0.00000000000E+00  0.12237684052E+04  0.12237684052E+04  0.25500000000E-02 0.  1.
         -2   -1    0    0    0  501 -0.00000000000E+00 -0.00000000000E+00 -0.10666095200E+03  0.10666095203E+03  0.25500000000E-02 0. -1.
    5000001    1    1    2    0    0 -0.20609547609E+03 -0.20005240997E+03  0.82414519424E+03  0.88822103848E+03  0.16500000000E+03 0.  0.
   -5000001    1    1    2    0    0  0.20609547609E+03  0.20005240997E+03  0.29296225896E+03  0.44220831876E+03  0.16500000000E+03 0.  0.
<mgrwt>
<rscale>  0 0.72257402E+03</rscale>
<asrwt>0</asrwt>
<pdfrwt beam="1">  1        2 0.18827205E+00 0.72257402E+03</pdfrwt>
<pdfrwt beam="2">  1       -2 0.16409378E-01 0.72257402E+03</pdfrwt>
<totfact> 0.55623351E+02</totfact>
</mgrwt>
</event>
<event>
 4    1  0.9012200E-005  0.5637666E+03  0.7818608E-02  0.9983568E-01
          2   -1    0    0  501    0  0.00000000000E+00  0.00000000000E+00  0.66729267943E+03  0.66729267943E+03  0.25500000000E-02 0.  1.
         -2   -1    0    0    0  501 -0.00000000000E+00 -0.00000000000E+00 -0.11907546808E+03  0.11907546811E+03  0.25500000000E-02 0. -1.
    5000001    1    1    2    0    0  0.16503508384E+03 -0.10233389674E+01  0.53583498182E+02  0.23944481076E+03  0.16500000000E+03 0.  0.
   -5000001    1    1    2    0    0 -0.16503508384E+03  0.10233389674E+01  0.49463371316E+03  0.54692333678E+03  0.16500000000E+03 0.  0.
<mgrwt>
<rscale>  0 0.56376658E+03</rscale>
<asrwt>0</asrwt>
<pdfrwt beam="1">  1        2 0.10266041E+00 0.56376658E+03</pdfrwt>
<pdfrwt beam="2">  1       -2 0.18319303E-01 0.56376658E+03</pdfrwt>
<totfact> 0.10862315E+03</totfact>
</mgrwt>
</event>
<event>
 4    1  0.9012200E-005  0.5700848E+03  0.7818608E-02  0.9969491E-01
          2   -1    0    0  501    0  0.00000000000E+00  0.00000000000E+00  0.16410777209E+03  0.16410777211E+03  0.25500000000E-02 0.  1.
         -2   -1    0    0    0  501 -0.00000000000E+00 -0.00000000000E+00 -0.49509649873E+03  0.49509649874E+03  0.25500000000E-02 0. -1.
    5000001    1    1    2    0    0 -0.13189435502E+03  0.76304542450E+02 -0.36844756615E+03  0.43150563506E+03  0.16500000000E+03 0.  0.
   -5000001    1    1    2    0    0  0.13189435502E+03 -0.76304542450E+02  0.37458839508E+02  0.22769863579E+03  0.16500000000E+03 0.  0.
<mgrwt>
<rscale>  0 0.57008485E+03</rscale>
<asrwt>0</asrwt>
<pdfrwt beam="1">  1        2 0.25247350E-01 0.57008485E+03</pdfrwt>
<pdfrwt beam="2">  1       -2 0.76168692E-01 0.57008485E+03</pdfrwt>
<totfact> 0.33785559E+02</totfact>
</mgrwt>
</event>
<event>
 4    1  0.9012200E-005  0.8955291E+03  0.7818608E-02  0.9431188E-01
         -2   -1    0    0    0  501 -0.00000000000E+00  0.00000000000E+00  0.41214440538E+03  0.41214440539E+03  0.25500000000E-02 0. -1.
          2   -1    0    0  501    0  0.00000000000E+00 -0.00000000000E+00 -0.48646319496E+03  0.48646319497E+03  0.25500000000E-02 0.  1.
    5000001    1    1    2    0    0 -0.28277440837E+03 -0.27707201669E+03  0.91882124698E+02  0.43863150058E+03  0.16500000000E+03 0.  0.
   -5000001    1    1    2    0    0  0.28277440837E+03  0.27707201669E+03 -0.16620091428E+03  0.45997609978E+03  0.16500000000E+03 0.  0.
<mgrwt>
<rscale>  0 0.89552908E+03</rscale>
<asrwt>0</asrwt>
<pdfrwt beam="1">  1        2 0.74840491E-01 0.89552908E+03</pdfrwt>
<pdfrwt beam="2">  1       -2 0.63406832E-01 0.89552908E+03</pdfrwt>
<totfact> 0.14700106E+02</totfact>
</mgrwt>
</event>
<event>
 4    1  0.9012200E-005  0.4922330E+03  0.7818608E-02  0.1015826E+00
         -2   -1    0    0    0  501 -0.00000000000E+00  0.00000000000E+00  0.25299762600E+02  0.25299762729E+02  0.25500000000E-02 0. -1.
          2   -1    0    0  501    0  0.00000000000E+00 -0.00000000000E+00 -0.23942253669E+04  0.23942253669E+04  0.25500000000E-02 0.  1.
    5000001    1    1    2    0    0  0.73891629561E+02  0.15868843351E+03 -0.92875103188E+03  0.95939849440E+03  0.16500000000E+03 0.  0.
   -5000001    1    1    2    0    0 -0.73891629561E+02 -0.15868843351E+03 -0.14401745724E+04  0.14601266352E+04  0.16500000000E+03 0.  0.
<mgrwt>
<rscale>  0 0.49223301E+03</rscale>
<asrwt>0</asrwt>
<pdfrwt beam="1">  1        2 0.36834218E+00 0.49223301E+03</pdfrwt>
<pdfrwt beam="2">  1       -2 0.38922731E-02 0.49223301E+03</pdfrwt>
<totfact> 0.12832256E+03</totfact>
</mgrwt>
</event>
<event>
 4    1  0.9012200E-005  0.9044908E+03  0.7818608E-02  0.9419985E-01
          2   -1    0    0  501    0  0.00000000000E+00  0.00000000000E+00  0.43104912261E+03  0.43104912262E+03  0.25500000000E-02 0.  1.
         -2   -1    0    0    0  501 -0.00000000000E+00 -0.00000000000E+00 -0.47448392781E+03  0.47448392782E+03  0.25500000000E-02 0. -1.
    5000001    1    1    2    0    0 -0.18624273135E+03 -0.37374383402E+03  0.32475117292E+02  0.45016712640E+03  0.16500000000E+03 0.  0.
   -5000001    1    1    2    0    0  0.18624273135E+03  0.37374383402E+03 -0.75909922493E+02  0.45536592404E+03  0.16500000000E+03 0.  0.
<mgrwt>
<rscale>  0 0.90449075E+03</rscale>
<asrwt>0</asrwt>
<pdfrwt beam="1">  1        2 0.66315250E-01 0.90449075E+03</pdfrwt>
<pdfrwt beam="2">  1       -2 0.72997527E-01 0.90449075E+03</pdfrwt>
<totfact> 0.12432551E+02</totfact>
</mgrwt>
</event>
<event>
 4    1  0.9012200E-005  0.4598596E+03  0.7818608E-02  0.1024822E+00
         -2   -1    0    0    0  501 -0.00000000000E+00  0.00000000000E+00  0.17029244750E+03  0.17029244752E+03  0.25500000000E-02 0. -1.
          2   -1    0    0  501    0  0.00000000000E+00 -0.00000000000E+00 -0.31045254747E+03  0.31045254748E+03  0.25500000000E-02 0.  1.
    5000001    1    1    2    0    0  0.11971534857E+03  0.95493265729E+02 -0.21134939440E+02  0.22610266285E+03  0.16500000000E+03 0.  0.
   -5000001    1    1    2    0    0 -0.11971534857E+03 -0.95493265729E+02 -0.11902516053E+03  0.25464233215E+03  0.16500000000E+03 0.  0.
<mgrwt>
<rscale>  0 0.45985965E+03</rscale>
<asrwt>0</asrwt>
<pdfrwt beam="1">  1        2 0.47761930E-01 0.45985965E+03</pdfrwt>
<pdfrwt beam="2">  1       -2 0.26198838E-01 0.45985965E+03</pdfrwt>
<totfact> 0.13865548E+03</totfact>
</mgrwt>
</event>
<event>
 4    1  0.9012200E-005  0.3842729E+03  0.7818608E-02  0.1049366E+00
          2   -1    0    0  501    0  0.00000000000E+00  0.00000000000E+00  0.10292635729E+04  0.10292635729E+04  0.25500000000E-02 0.  1.
         -2   -1    0    0    0  501 -0.00000000000E+00 -0.00000000000E+00 -0.35866817870E+02  0.35866817961E+02  0.25500000000E-02 0. -1.
    5000001    1    1    2    0    0  0.71599399542E+02 -0.60674583849E+02  0.57908822716E+03  0.60940631271E+03  0.16500000000E+03 0.  0.
   -5000001    1    1    2    0    0 -0.71599399542E+02  0.60674583849E+02  0.41430852787E+03  0.45572407815E+03  0.16500000000E+03 0.  0.
<mgrwt>
<rscale>  0 0.38427287E+03</rscale>
<asrwt>0</asrwt>
<pdfrwt beam="1">  1        2 0.15834827E+00 0.38427287E+03</pdfrwt>
<pdfrwt beam="2">  1       -2 0.55179711E-02 0.38427287E+03</pdfrwt>
<totfact> 0.42598440E+03</totfact>
</mgrwt>
</event>
<event>
 4    1  0.9012200E-005  0.4015843E+03  0.7818608E-02  0.1043232E+00
         -2   -1    0    0    0  501 -0.00000000000E+00  0.00000000000E+00  0.15366135599E+03  0.15366135601E+03  0.25500000000E-02 0. -1.
          2   -1    0    0  501    0  0.00000000000E+00 -0.00000000000E+00 -0.26237880327E+03  0.26237880328E+03  0.25500000000E-02 0.  1.
    5000001    1    1    2    0    0  0.41004478716E+02 -0.10060783943E+03 -0.17161116016E+02  0.19829979459E+03  0.16500000000E+03 0.  0.
   -5000001    1    1    2    0    0 -0.41004478716E+02  0.10060783943E+03 -0.91556331262E+02  0.21774036471E+03  0.16500000000E+03 0.  0.
<mgrwt>
<rscale>  0 0.40158428E+03</rscale>
<asrwt>0</asrwt>
<pdfrwt beam="1">  1        2 0.40365970E-01 0.40158428E+03</pdfrwt>
<pdfrwt beam="2">  1       -2 0.23640209E-01 0.40158428E+03</pdfrwt>
<totfact> 0.19992284E+03</totfact>
</mgrwt>
</event>
<event>
 4    1  0.9012200E-005  0.3703807E+03  0.7818608E-02  0.1054547E+00
          2   -1    0    0  501    0  0.00000000000E+00  0.00000000000E+00  0.26370713930E+03  0.26370713931E+03  0.25500000000E-02 0.  1.
         -2   -1    0    0    0  501 -0.00000000000E+00 -0.00000000000E+00 -0.13005132443E+03  0.13005132445E+03  0.25500000000E-02 0. -1.
    5000001    1    1    2    0    0  0.24985355356E+02  0.59303431298E+02  0.12436704322E+03  0.21641008846E+03  0.16500000000E+03 0.  0.
   -5000001    1    1    2    0    0 -0.24985355356E+02 -0.59303431298E+02  0.92887716473E+01  0.17734837531E+03  0.16500000000E+03 0.  0.
<mgrwt>
<rscale>  0 0.37038068E+03</rscale>
<asrwt>0</asrwt>
<pdfrwt beam="1">  1        2 0.40570329E-01 0.37038068E+03</pdfrwt>
<pdfrwt beam="2">  1       -2 0.20007896E-01 0.37038068E+03</pdfrwt>
<totfact> 0.26565752E+03</totfact>
</mgrwt>
</event>
<event>
 4    1  0.9012200E-005  0.3544499E+03  0.7818608E-02  0.1060803E+00
         -2   -1    0    0    0  501 -0.00000000000E+00  0.00000000000E+00  0.35176229359E+03  0.35176229360E+03  0.25500000000E-02 0. -1.
          2   -1    0    0  501    0  0.00000000000E+00 -0.00000000000E+00 -0.89289499123E+02  0.89289499159E+02  0.25500000000E-02 0.  1.
    5000001    1    1    2    0    0 -0.15584748019E+02  0.55517206283E+02  0.16769826530E+03  0.24222459154E+03  0.16500000000E+03 0.  0.
   -5000001    1    1    2    0    0  0.15584748019E+02 -0.55517206283E+02  0.94774529172E+02  0.19882720122E+03  0.16500000000E+03 0.  0.
<mgrwt>
<rscale>  0 0.35444988E+03</rscale>
<asrwt>0</asrwt>
<pdfrwt beam="1">  1        2 0.13736846E-01 0.35444988E+03</pdfrwt>
<pdfrwt beam="2">  1       -2 0.54117275E-01 0.35444988E+03</pdfrwt>
<totfact> 0.14254922E+03</totfact>
</mgrwt>
</event>
<event>
 4    1  0.9012200E-005  0.5752441E+03  0.7818608E-02  0.9958141E-01
         -2   -1    0    0    0  501 -0.00000000000E+00  0.00000000000E+00  0.22284833821E+03  0.22284833822E+03  0.25500000000E-02 0. -1.
          2   -1    0    0  501    0  0.00000000000E+00 -0.00000000000E+00 -0.37122312511E+03  0.37122312511E+03  0.25500000000E-02 0.  1.
    5000001    1    1    2    0    0  0.94834895446E+02 -0.20645371331E+03 -0.98204062506E+01  0.28095948732E+03  0.16500000000E+03 0.  0.
   -5000001    1    1    2    0    0 -0.94834895446E+02  0.20645371331E+03 -0.13855438064E+03  0.31311197602E+03  0.16500000000E+03 0.  0.
<mgrwt>
<rscale>  0 0.57524414E+03</rscale>
<asrwt>0</asrwt>
<pdfrwt beam="1">  1        2 0.57111250E-01 0.57524414E+03</pdfrwt>
<pdfrwt beam="2">  1       -2 0.34284360E-01 0.57524414E+03</pdfrwt>
<totfact> 0.69328809E+02</totfact>
</mgrwt>
</event>
<event>
 4    1  0.9012200E-005  0.5580741E+03  0.7818608E-02  0.9996422E-01
          2   -1    0    0  501    0  0.00000000000E+00  0.00000000000E+00  0.21654723751E+04  0.21654723751E+04  0.25500000000E-02 0.  1.
         -2   -1    0    0    0  501 -0.00000000000E+00 -0.00000000000E+00 -0.35955977811E+02  0.35955977901E+02  0.25500000000E-02 0. -1.
    5000001    1    1    2    0    0 -0.56198335284E+02 -0.21256924038E+03  0.87587633019E+03  0.91800233150E+03  0.16500000000E+03 0.  0.
   -5000001    1    1    2    0    0  0.56198335284E+02  0.21256924038E+03  0.12536400671E+04  0.12834260215E+04  0.16500000000E+03 0.  0.
<mgrwt>
<rscale>  0 0.55807411E+03</rscale>
<asrwt>0</asrwt>
<pdfrwt beam="1">  1        2 0.33314970E+00 0.55807411E+03</pdfrwt>
<pdfrwt beam="2">  1       -2 0.55316871E-02 0.55807411E+03</pdfrwt>
<totfact> 0.99138539E+02</totfact>
</mgrwt>
</event>
<event>
 4    1  0.9012200E-005  0.4374271E+03  0.7818608E-02  0.1031539E+00
         -2   -1    0    0    0  501 -0.00000000000E+00  0.00000000000E+00  0.19965666744E+03  0.19965666746E+03  0.25500000000E-02 0. -1.
          2   -1    0    0  501    0  0.00000000000E+00 -0.00000000000E+00 -0.23958933703E+03  0.23958933704E+03  0.25500000000E-02 0.  1.
    5000001    1    1    2    0    0 -0.89561795585E+02  0.10364764993E+03 -0.63115449747E+02  0.22354576838E+03  0.16500000000E+03 0.  0.
   -5000001    1    1    2    0    0  0.89561795585E+02 -0.10364764993E+03  0.23182780163E+02  0.21570023612E+03  0.16500000000E+03 0.  0.
<mgrwt>
<rscale>  0 0.43742706E+03</rscale>
<asrwt>0</asrwt>
<pdfrwt beam="1">  1        2 0.36859898E-01 0.43742706E+03</pdfrwt>
<pdfrwt beam="2">  1       -2 0.30716410E-01 0.43742706E+03</pdfrwt>
<totfact> 0.13784230E+03</totfact>
</mgrwt>
</event>
<event>
 4    1  0.9012200E-005  0.5833709E+03  0.7818608E-02  0.9940520E-01
          2   -1    0    0  501    0  0.00000000000E+00  0.00000000000E+00  0.60008861491E+02  0.60008861545E+02  0.25500000000E-02 0.  1.
         -2   -1    0    0    0  501 -0.00000000000E+00 -0.00000000000E+00 -0.14177974400E+04  0.14177974401E+04  0.25500000000E-02 0. -1.
    5000001    1    1    2    0    0 -0.20324820935E+03 -0.24859436532E+02 -0.99859800484E+03  0.10326426301E+04  0.16500000000E+03 0.  0.
   -5000001    1    1    2    0    0  0.20324820935E+03  0.24859436532E+02 -0.35919057372E+03  0.44516367151E+03  0.16500000000E+03 0.  0.
<mgrwt>
<rscale>  0 0.58337093E+03</rscale>
<asrwt>0</asrwt>
<pdfrwt beam="1">  1        2 0.92321336E-02 0.58337093E+03</pdfrwt>
<pdfrwt beam="2">  1       -2 0.21812266E+00 0.58337093E+03</pdfrwt>
<totfact> 0.77105373E+01</totfact>
</mgrwt>
</event>
<event>
 4    1  0.9012200E-005  0.4349932E+03  0.7818608E-02  0.1032294E+00
          2   -1    0    0  501    0  0.00000000000E+00  0.00000000000E+00  0.11685726185E+03  0.11685726188E+03  0.25500000000E-02 0.  1.
         -2   -1    0    0    0  501 -0.00000000000E+00 -0.00000000000E+00 -0.40480817314E+03  0.40480817315E+03  0.25500000000E-02 0. -1.
    5000001    1    1    2    0    0 -0.58113202389E+02  0.12847523906E+03 -0.16079675778E+03  0.27011780515E+03  0.16500000000E+03 0.  0.
   -5000001    1    1    2    0    0  0.58113202389E+02 -0.12847523906E+03 -0.12715415351E+03  0.25154762988E+03  0.16500000000E+03 0.  0.
<mgrwt>
<rscale>  0 0.43499322E+03</rscale>
<asrwt>0</asrwt>
<pdfrwt beam="1">  1        2 0.17978040E-01 0.43499322E+03</pdfrwt>
<pdfrwt beam="2">  1       -2 0.62278180E-01 0.43499322E+03</pdfrwt>
<totfact> 0.77436307E+02</totfact>
</mgrwt>
</event>
<event>
 4    1  0.9012200E-005  0.4232090E+03  0.7818608E-02  0.1036027E+00
          2   -1    0    0  501    0  0.00000000000E+00  0.00000000000E+00  0.60415903460E+03  0.60415903460E+03  0.25500000000E-02 0.  1.
         -2   -1    0    0    0  501 -0.00000000000E+00 -0.00000000000E+00 -0.74113693036E+02  0.74113693080E+02  0.25500000000E-02 0. -1.
    5000001    1    1    2    0    0 -0.91650295468E+02 -0.61038692299E+02  0.14696676049E+03  0.24687998563E+03  0.16500000000E+03 0.  0.
   -5000001    1    1    2    0    0  0.91650295468E+02  0.61038692299E+02  0.38307858107E+03  0.43139274205E+03  0.16500000000E+03 0.  0.
<mgrwt>
<rscale>  0 0.42320897E+03</rscale>
<asrwt>0</asrwt>
<pdfrwt beam="1">  1        2 0.92947542E-01 0.42320897E+03</pdfrwt>
<pdfrwt beam="2">  1       -2 0.11402107E-01 0.42320897E+03</pdfrwt>
<totfact> 0.27041095E+03</totfact>
</mgrwt>
</event>
<event>
 4    1  0.9012200E-005  0.4357603E+03  0.7818608E-02  0.1032056E+00
         -2   -1    0    0    0  501 -0.00000000000E+00  0.00000000000E+00  0.18237596828E+02  0.18237597006E+02  0.25500000000E-02 0. -1.
          2   -1    0    0  501    0  0.00000000000E+00 -0.00000000000E+00 -0.26029608171E+04  0.26029608171E+04  0.25500000000E-02 0.  1.
    5000001    1    1    2    0    0 -0.35176500176E+02  0.11453636563E+03 -0.17540392740E+04  0.17658524117E+04  0.16500000000E+03 0.  0.
   -5000001    1    1    2    0    0  0.35176500176E+02 -0.11453636563E+03 -0.83068394624E+03  0.85534600236E+03  0.16500000000E+03 0.  0.
<mgrwt>
<rscale>  0 0.43576026E+03</rscale>
<asrwt>0</asrwt>
<pdfrwt beam="1">  1        2 0.40045522E+00 0.43576026E+03</pdfrwt>
<pdfrwt beam="2">  1       -2 0.28057862E-02 0.43576026E+03</pdfrwt>
<totfact> 0.16191940E+03</totfact>
</mgrwt>
</event>
<event>
 4    1  0.9012200E-005  0.7792588E+03  0.7818608E-02  0.9590534E-01
          2   -1    0    0  501    0  0.00000000000E+00  0.00000000000E+00  0.53538472743E+03  0.53538472743E+03  0.25500000000E-02 0.  1.
         -2   -1    0    0    0  501 -0.00000000000E+00 -0.00000000000E+00 -0.28355507372E+03  0.28355507373E+03  0.25500000000E-02 0. -1.
    5000001    1    1    2    0    0 -0.11188644885E+03 -0.27269380582E+03  0.32998193909E+03  0.47222194919E+03  0.16500000000E+03 0.  0.
   -5000001    1    1    2    0    0  0.11188644885E+03  0.27269380582E+03 -0.78152285382E+02  0.34671785197E+03  0.16500000000E+03 0.  0.
<mgrwt>
<rscale>  0 0.77925877E+03</rscale>
<asrwt>0</asrwt>
<pdfrwt beam="1">  1        2 0.82366881E-01 0.77925877E+03</pdfrwt>
<pdfrwt beam="2">  1       -2 0.43623858E-01 0.77925877E+03</pdfrwt>
<totfact> 0.28518428E+02</totfact>
</mgrwt>
</event>
<event>
 4    1  0.9012200E-005  0.4555340E+03  0.7818608E-02  0.1026085E+00
          2   -1    0    0  501    0  0.00000000000E+00  0.00000000000E+00  0.66643422706E+03  0.66643422707E+03  0.25500000000E-02 0.  1.
         -2   -1    0    0    0  501 -0.00000000000E+00 -0.00000000000E+00 -0.77843834217E+02  0.77843834259E+02  0.25500000000E-02 0. -1.
    5000001    1    1    2    0    0 -0.11074063648E+03  0.58191691708E+02  0.13926763715E+03  0.24954004951E+03  0.16500000000E+03 0.  0.
   -5000001    1    1    2    0    0  0.11074063648E+03 -0.58191691708E+02  0.44932275569E+03  0.49473801182E+03  0.16500000000E+03 0.  0.
<mgrwt>
<rscale>  0 0.45553395E+03</rscale>
<asrwt>0</asrwt>
<pdfrwt beam="1">  1        2 0.10252834E+00 0.45553395E+03</pdfrwt>
<pdfrwt beam="2">  1       -2 0.11975975E-01 0.45553395E+03</pdfrwt>
<totfact> 0.22194197E+03</totfact>
</mgrwt>
</event>
<event>
 4    1  0.9012200E-005  0.1065101E+04  0.7818608E-02  0.9239891E-01
         -2   -1    0    0    0  501 -0.00000000000E+00  0.00000000000E+00  0.32643758467E+03  0.32643758468E+03  0.25500000000E-02 0. -1.
          2   -1    0    0  501    0  0.00000000000E+00 -0.00000000000E+00 -0.86880314953E+03  0.86880314954E+03  0.25500000000E-02 0.  1.
    5000001    1    1    2    0    0 -0.49306290359E+03  0.43892891092E+02 -0.39072259996E+03  0.65186406781E+03  0.16500000000E+03 0.  0.
   -5000001    1    1    2    0    0  0.49306290359E+03 -0.43892891092E+02 -0.15164296491E+03  0.54337666640E+03  0.16500000000E+03 0.  0.
<mgrwt>
<rscale>  0 0.10651009E+04</rscale>
<asrwt>0</asrwt>
<pdfrwt beam="1">  1        2 0.13366202E+00 0.10651009E+04</pdfrwt>
<pdfrwt beam="2">  1       -2 0.50221167E-01 0.10651009E+04</pdfrwt>
<totfact> 0.11490053E+02</totfact>
</mgrwt>
</event>
<event>
 4    1  0.9012200E-005  0.3776791E+03  0.7818608E-02  0.1051795E+00
          2   -1    0    0  501    0  0.00000000000E+00  0.00000000000E+00  0.55431122617E+03  0.55431122617E+03  0.25500000000E-02 0.  1.
         -2   -1    0    0    0  501 -0.00000000000E+00 -0.00000000000E+00 -0.64332753492E+02  0.64332753543E+02  0.25500000000E-02 0. -1.
    5000001    1    1    2    0    0  0.19290710784E+02  0.87867212163E+02  0.27530751850E+03  0.33333467902E+03  0.16500000000E+03 0.  0.
   -5000001    1    1    2    0    0 -0.19290710784E+02 -0.87867212163E+02  0.21467095417E+03  0.28530930069E+03  0.16500000000E+03 0.  0.
<mgrwt>
<rscale>  0 0.37767906E+03</rscale>
<asrwt>0</asrwt>
<pdfrwt beam="1">  1        2 0.85278652E-01 0.37767906E+03</pdfrwt>
<pdfrwt beam="2">  1       -2 0.98973465E-02 0.37767906E+03</pdfrwt>
<totfact> 0.37522671E+03</totfact>
</mgrwt>
</event>
<event>
 4    1  0.9012200E-005  0.4618780E+03  0.7818608E-02  0.1024238E+00
         -2   -1    0    0    0  501 -0.00000000000E+00  0.00000000000E+00  0.19598784546E+02  0.19598784712E+02  0.25500000000E-02 0. -1.
          2   -1    0    0  501    0  0.00000000000E+00 -0.00000000000E+00 -0.27212315534E+04  0.27212315534E+04  0.25500000000E-02 0.  1.
    5000001    1    1    2    0    0 -0.12235005834E+03 -0.82662699494E+02 -0.17401752929E+04  0.17542057201E+04  0.16500000000E+03 0.  0.
   -5000001    1    1    2    0    0  0.12235005834E+03  0.82662699494E+02 -0.96145747599E+03  0.98662461798E+03  0.16500000000E+03 0.  0.
<mgrwt>
<rscale>  0 0.46187804E+03</rscale>
<asrwt>0</asrwt>
<pdfrwt beam="1">  1        2 0.41865071E+00 0.46187804E+03</pdfrwt>
<pdfrwt beam="2">  1       -2 0.30151998E-02 0.46187804E+03</pdfrwt>
<totfact> 0.12408959E+03</totfact>
</mgrwt>
</event>
<event>
 4    1  0.9012200E-005  0.4151616E+03  0.7818608E-02  0.1038653E+00
          2   -1    0    0  501    0  0.00000000000E+00  0.00000000000E+00  0.11123958055E+04  0.11123958055E+04  0.25500000000E-02 0.  1.
         -2   -1    0    0    0  501 -0.00000000000E+00 -0.00000000000E+00 -0.38736021379E+02  0.38736021463E+02  0.25500000000E-02 0. -1.
    5000001    1    1    2    0    0  0.75541166413E+02 -0.76313231996E+02  0.71938035155E+03  0.74583058894E+03  0.16500000000E+03 0.  0.
   -5000001    1    1    2    0    0 -0.75541166413E+02  0.76313231996E+02  0.35427943254E+03  0.40530123800E+03  0.16500000000E+03 0.  0.
<mgrwt>
<rscale>  0 0.41516160E+03</rscale>
<asrwt>0</asrwt>
<pdfrwt beam="1">  1        2 0.17113779E+00 0.41516160E+03</pdfrwt>
<pdfrwt beam="2">  1       -2 0.59593889E-02 0.41516160E+03</pdfrwt>
<totfact> 0.33704743E+03</totfact>
</mgrwt>
</event>
<event>
 4    1  0.9012200E-005  0.4898241E+03  0.7818608E-02  0.1016470E+00
          2   -1    0    0  501    0  0.00000000000E+00  0.00000000000E+00  0.13274549295E+04  0.13274549295E+04  0.25500000000E-02 0.  1.
         -2   -1    0    0    0  501 -0.00000000000E+00 -0.00000000000E+00 -0.45185644161E+02  0.45185644233E+02  0.25500000000E-02 0. -1.
    5000001    1    1    2    0    0 -0.94146241143E+02 -0.14109290084E+03  0.81806217332E+03  0.85159934289E+03  0.16500000000E+03 0.  0.
   -5000001    1    1    2    0    0  0.94146241143E+02  0.14109290084E+03  0.46420711198E+03  0.52104123081E+03  0.16500000000E+03 0.  0.
<mgrwt>
<rscale>  0 0.48982408E+03</rscale>
<asrwt>0</asrwt>
<pdfrwt beam="1">  1        2 0.20422386E+00 0.48982408E+03</pdfrwt>
<pdfrwt beam="2">  1       -2 0.69516367E-02 0.48982408E+03</pdfrwt>
<totfact> 0.19886703E+03</totfact>
</mgrwt>
</event>
<event>
 4    1  0.9012200E-005  0.4786337E+03  0.7818608E-02  0.1019511E+00
         -2   -1    0    0    0  501 -0.00000000000E+00  0.00000000000E+00  0.27198774273E+02  0.27198774393E+02  0.25500000000E-02 0. -1.
          2   -1    0    0  501    0  0.00000000000E+00 -0.00000000000E+00 -0.21057038036E+04  0.21057038036E+04  0.25500000000E-02 0.  1.
    5000001    1    1    2    0    0 -0.37045530560E+02  0.12828885645E+03 -0.54669964202E+03  0.58646048512E+03  0.16500000000E+03 0.  0.
   -5000001    1    1    2    0    0  0.37045530560E+02 -0.12828885645E+03 -0.15318053873E+04  0.15464420929E+04  0.16500000000E+03 0.  0.
<mgrwt>
<rscale>  0 0.47863373E+03</rscale>
<asrwt>0</asrwt>
<pdfrwt beam="1">  1        2 0.32395430E+00 0.47863373E+03</pdfrwt>
<pdfrwt beam="2">  1       -2 0.41844285E-02 0.47863373E+03</pdfrwt>
<totfact> 0.16523361E+03</totfact>
</mgrwt>
</event>
<event>
 4    1  0.9012200E-005  0.7970672E+03  0.7818608E-02  0.9564272E-01
         -2   -1    0    0    0  501 -0.00000000000E+00  0.00000000000E+00  0.17198345474E+03  0.17198345476E+03  0.25500000000E-02 0. -1.
          2   -1    0    0  501    0  0.00000000000E+00 -0.00000000000E+00 -0.92351338429E+03  0.92351338430E+03  0.25500000000E-02 0.  1.
    5000001    1    1    2    0    0  0.14541951778E+02  0.36047868633E+03 -0.42805887201E+03  0.58362295154E+03  0.16500000000E+03 0.  0.
   -5000001    1    1    2    0    0 -0.14541951778E+02 -0.36047868633E+03 -0.32347105754E+03  0.51187388752E+03  0.16500000000E+03 0.  0.
<mgrwt>
<rscale>  0 0.79706718E+03</rscale>
<asrwt>0</asrwt>
<pdfrwt beam="1">  1        2 0.14207898E+00 0.79706718E+03</pdfrwt>
<pdfrwt beam="2">  1       -2 0.26458994E-01 0.79706718E+03</pdfrwt>
<totfact> 0.36717232E+02</totfact>
</mgrwt>
</event>
<event>
 4    1  0.9012200E-005  0.7755609E+03  0.7818608E-02  0.9596081E-01
          2   -1    0    0  501    0  0.00000000000E+00  0.00000000000E+00  0.44984757447E+03  0.44984757448E+03  0.25500000000E-02 0.  1.
         -2   -1    0    0    0  501 -0.00000000000E+00 -0.00000000000E+00 -0.33427696594E+03  0.33427696595E+03  0.25500000000E-02 0. -1.
    5000001    1    1    2    0    0 -0.45356026545E+02  0.32082530689E+03  0.19404222446E+03  0.41214491573E+03  0.16500000000E+03 0.  0.
   -5000001    1    1    2    0    0  0.45356026545E+02 -0.32082530689E+03 -0.78471615927E+02  0.37197962470E+03  0.16500000000E+03 0.  0.
<mgrwt>
<rscale>  0 0.77556091E+03</rscale>
<asrwt>0</asrwt>
<pdfrwt beam="1">  1        2 0.69207320E-01 0.77556091E+03</pdfrwt>
<pdfrwt beam="2">  1       -2 0.51427225E-01 0.77556091E+03</pdfrwt>
<totfact> 0.25049801E+02</totfact>
</mgrwt>
</event>
<event>
 4    1  0.9012200E-005  0.5939040E+03  0.7818608E-02  0.9918135E-01
         -2   -1    0    0    0  501 -0.00000000000E+00  0.00000000000E+00  0.49121884919E+02  0.49121884985E+02  0.25500000000E-02 0. -1.
          2   -1    0    0  501    0  0.00000000000E+00 -0.00000000000E+00 -0.17951363386E+04  0.17951363386E+04  0.25500000000E-02 0.  1.
    5000001    1    1    2    0    0 -0.24666090942E+03  0.95064546486E+01 -0.85795244778E+03  0.90787630191E+03  0.16500000000E+03 0.  0.
   -5000001    1    1    2    0    0  0.24666090942E+03 -0.95064546486E+01 -0.88806200587E+03  0.93638192165E+03  0.16500000000E+03 0.  0.
<mgrwt>
<rscale>  0 0.59390397E+03</rscale>
<asrwt>0</asrwt>
<pdfrwt beam="1">  1        2 0.27617477E+00 0.59390397E+03</pdfrwt>
<pdfrwt beam="2">  1       -2 0.75572145E-02 0.59390397E+03</pdfrwt>
<totfact> 0.96101148E+02</totfact>
</mgrwt>
</event>
<event>
 4    1  0.9012200E-005  0.4301127E+03  0.7818608E-02  0.1033824E+00
         -2   -1    0    0    0  501 -0.00000000000E+00  0.00000000000E+00  0.83895391550E+02  0.83895391588E+02  0.25500000000E-02 0. -1.
          2   -1    0    0  501    0  0.00000000000E+00 -0.00000000000E+00 -0.55127254304E+03  0.55127254305E+03  0.25500000000E-02 0.  1.
    5000001    1    1    2    0    0  0.23938612064E+01  0.12453761105E+03 -0.32116489783E+03  0.38195188013E+03  0.16500000000E+03 0.  0.
   -5000001    1    1    2    0    0 -0.23938612064E+01 -0.12453761105E+03 -0.14621225366E+03  0.25321605450E+03  0.16500000000E+03 0.  0.
<mgrwt>
<rscale>  0 0.43011266E+03</rscale>
<asrwt>0</asrwt>
<pdfrwt beam="1">  1        2 0.84811158E-01 0.43011266E+03</pdfrwt>
<pdfrwt beam="2">  1       -2 0.12906984E-01 0.43011266E+03</pdfrwt>
<totfact> 0.24585121E+03</totfact>
</mgrwt>
</event>
<event>
 4    1  0.9012200E-005  0.5783120E+03  0.7818608E-02  0.9951452E-01
         -2   -1    0    0    0  501 -0.00000000000E+00  0.00000000000E+00  0.89236773152E+02  0.89236773189E+02  0.25500000000E-02 0. -1.
          2   -1    0    0  501    0  0.00000000000E+00 -0.00000000000E+00 -0.93695880668E+03  0.93695880669E+03  0.25500000000E-02 0.  1.
    5000001    1    1    2    0    0 -0.17695915801E+03 -0.15241561694E+03 -0.50000027040E+03  0.57599508183E+03  0.16500000000E+03 0.  0.
   -5000001    1    1    2    0    0  0.17695915801E+03  0.15241561694E+03 -0.34772176313E+03  0.45020049805E+03  0.16500000000E+03 0.  0.
<mgrwt>
<rscale>  0 0.57831196E+03</rscale>
<asrwt>0</asrwt>
<pdfrwt beam="1">  1        2 0.14414750E+00 0.57831196E+03</pdfrwt>
<pdfrwt beam="2">  1       -2 0.13728735E-01 0.57831196E+03</pdfrwt>
<totfact> 0.11342329E+03</totfact>
</mgrwt>
</event>
<event>
 4    1  0.9012200E-005  0.4746802E+03  0.7818608E-02  0.1020608E+00
          2   -1    0    0  501    0  0.00000000000E+00  0.00000000000E+00  0.11520427536E+04  0.11520427536E+04  0.25500000000E-02 0.  1.
         -2   -1    0    0    0  501 -0.00000000000E+00 -0.00000000000E+00 -0.48896041492E+02  0.48896041559E+02  0.25500000000E-02 0. -1.
    5000001    1    1    2    0    0 -0.81879650885E+02  0.11411762371E+03  0.79658118526E+03  0.82552631332E+03  0.16500000000E+03 0.  0.
   -5000001    1    1    2    0    0  0.81879650885E+02 -0.11411762371E+03  0.30656552682E+03  0.37541248182E+03  0.16500000000E+03 0.  0.
<mgrwt>
<rscale>  0 0.47468023E+03</rscale>
<asrwt>0</asrwt>
<pdfrwt beam="1">  1        2 0.17723735E+00 0.47468023E+03</pdfrwt>
<pdfrwt beam="2">  1       -2 0.75224679E-02 0.47468023E+03</pdfrwt>
<totfact> 0.22169398E+03</totfact>
</mgrwt>
</event>
<event>
 4    1  0.9012200E-005  0.6998703E+03  0.7818608E-02  0.9717454E-01
          2   -1    0    0  501    0  0.00000000000E+00  0.00000000000E+00  0.75311828900E+03  0.75311828901E+03  0.25500000000E-02 0.  1.
         -2   -1    0    0    0  501 -0.00000000000E+00 -0.00000000000E+00 -0.16259675939E+03  0.16259675941E+03  0.25500000000E-02 0. -1.
    5000001    1    1    2    0    0 -0.15567810221E+03  0.20968313508E+03  0.51036104190E+03  0.59657026554E+03  0.16500000000E+03 0.  0.
   -5000001    1    1    2    0    0  0.15567810221E+03 -0.20968313508E+03  0.80160487716E+02  0.31914478287E+03  0.16500000000E+03 0.  0.
<mgrwt>
<rscale>  0 0.69987025E+03</rscale>
<asrwt>0</asrwt>
<pdfrwt beam="1">  1        2 0.11586435E+00 0.69987025E+03</pdfrwt>
<pdfrwt beam="2">  1       -2 0.25014887E-01 0.69987025E+03</pdfrwt>
<totfact> 0.53717740E+02</totfact>
</mgrwt>
</event>
<event>
 4    1  0.9012200E-005  0.3461202E+03  0.7818608E-02  0.1064219E+00
         -2   -1    0    0    0  501 -0.00000000000E+00  0.00000000000E+00  0.14966936004E+02  0.14966936221E+02  0.25500000000E-02 0. -1.
          2   -1    0    0  501    0  0.00000000000E+00 -0.00000000000E+00 -0.20010641107E+04  0.20010641107E+04  0.25500000000E-02 0.  1.
    5000001    1    1    2    0    0  0.51342212156E+02 -0.19555010579E+01 -0.10467340867E+04  0.10609039046E+04  0.16500000000E+03 0.  0.
   -5000001    1    1    2    0    0 -0.51342212156E+02  0.19555010579E+01 -0.93936308805E+03  0.95512714228E+03  0.16500000000E+03 0.  0.
<mgrwt>
<rscale>  0 0.34612020E+03</rscale>
<asrwt>0</asrwt>
<pdfrwt beam="1">  1        2 0.30785580E+00 0.34612020E+03</pdfrwt>
<pdfrwt beam="2">  1       -2 0.23026071E-02 0.34612020E+03</pdfrwt>
<totfact> 0.46541392E+03</totfact>
</mgrwt>
</event>
<event>
 4    1  0.9012200E-005  0.4299816E+03  0.7818608E-02  0.1033866E+00
          2   -1    0    0  501    0  0.00000000000E+00  0.00000000000E+00  0.73443094696E+02  0.73443094740E+02  0.25500000000E-02 0.  1.
         -2   -1    0    0    0  501 -0.00000000000E+00 -0.00000000000E+00 -0.62934506562E+03  0.62934506563E+03  0.25500000000E-02 0. -1.
    5000001    1    1    2    0    0 -0.65147838167E+02  0.10688142868E+03 -0.37224349701E+03  0.42597899207E+03  0.16500000000E+03 0.  0.
   -5000001    1    1    2    0    0  0.65147838167E+02 -0.10688142868E+03 -0.18365847391E+03  0.27680916830E+03  0.16500000000E+03 0.  0.
<mgrwt>
<rscale>  0 0.42998162E+03</rscale>
<asrwt>0</asrwt>
<pdfrwt beam="1">  1        2 0.11298938E-01 0.42998162E+03</pdfrwt>
<pdfrwt beam="2">  1       -2 0.96822314E-01 0.42998162E+03</pdfrwt>
<totfact> 0.51163506E+02</totfact>
</mgrwt>
</event>
<event>
 4    1  0.9012200E-005  0.4677762E+03  0.7818608E-02  0.1022550E+00
          2   -1    0    0  501    0  0.00000000000E+00  0.00000000000E+00  0.11597043830E+04  0.11597043830E+04  0.25500000000E-02 0.  1.
         -2   -1    0    0    0  501 -0.00000000000E+00 -0.00000000000E+00 -0.47170338045E+02  0.47170338114E+02  0.25500000000E-02 0. -1.
    5000001    1    1    2    0    0 -0.12708480536E+03 -0.46213571126E+02  0.30890179618E+03  0.37540852626E+03  0.16500000000E+03 0.  0.
   -5000001    1    1    2    0    0  0.12708480536E+03  0.46213571126E+02  0.80363224876E+03  0.83146619483E+03  0.16500000000E+03 0.  0.
<mgrwt>
<rscale>  0 0.46777622E+03</rscale>
<asrwt>0</asrwt>
<pdfrwt beam="1">  1        2 0.17841606E+00 0.46777622E+03</pdfrwt>
<pdfrwt beam="2">  1       -2 0.72569751E-02 0.46777622E+03</pdfrwt>
<totfact> 0.23221031E+03</totfact>
</mgrwt>
</event>
<event>
 4    1  0.9012200E-005  0.5320933E+03  0.7818608E-02  0.1005726E+00
         -2   -1    0    0    0  501 -0.00000000000E+00  0.00000000000E+00  0.62324700039E+03  0.62324700039E+03  0.25500000000E-02 0. -1.
          2   -1    0    0  501    0  0.00000000000E+00 -0.00000000000E+00 -0.11356783875E+03  0.11356783878E+03  0.25500000000E-02 0.  1.
    5000001    1    1    2    0    0 -0.55881131495E+02  0.19071600780E+03  0.34307873341E+03  0.42944535602E+03  0.16500000000E+03 0.  0.
   -5000001    1    1    2    0    0  0.55881131495E+02 -0.19071600780E+03  0.16660042822E+03  0.30736948315E+03  0.16500000000E+03 0.  0.
<mgrwt>
<rscale>  0 0.53209328E+03</rscale>
<asrwt>0</asrwt>
<pdfrwt beam="1">  1        2 0.17471975E-01 0.53209328E+03</pdfrwt>
<pdfrwt beam="2">  1       -2 0.95884154E-01 0.53209328E+03</pdfrwt>
<totfact> 0.30779754E+02</totfact>
</mgrwt>
</event>
<event>
 4    1  0.9012200E-005  0.5416746E+03  0.7818608E-02  0.1003439E+00
          2   -1    0    0  501    0  0.00000000000E+00  0.00000000000E+00  0.71687470465E+03  0.71687470465E+03  0.25500000000E-02 0.  1.
         -2   -1    0    0    0  501 -0.00000000000E+00 -0.00000000000E+00 -0.10232311397E+03  0.10232311400E+03  0.25500000000E-02 0. -1.
    5000001    1    1    2    0    0  0.93718989279E+02  0.18636761427E+03  0.22998758980E+03  0.35161829882E+03  0.16500000000E+03 0.  0.
   -5000001    1    1    2    0    0 -0.93718989279E+02 -0.18636761427E+03  0.38456400088E+03  0.46757951984E+03  0.16500000000E+03 0.  0.
<mgrwt>
<rscale>  0 0.54167463E+03</rscale>
<asrwt>0</asrwt>
<pdfrwt beam="1">  1        2 0.11028841E+00 0.54167463E+03</pdfrwt>
<pdfrwt beam="2">  1       -2 0.15742018E-01 0.54167463E+03</pdfrwt>
<totfact> 0.12869208E+03</totfact>
</mgrwt>
</event>
<event>
 4    1  0.9012200E-005  0.7595649E+03  0.7818608E-02  0.9620463E-01
         -2   -1    0    0    0  501 -0.00000000000E+00  0.00000000000E+00  0.52938376073E+02  0.52938376134E+02  0.25500000000E-02 0. -1.
          2   -1    0    0  501    0  0.00000000000E+00 -0.00000000000E+00 -0.27245776016E+04  0.27245776016E+04  0.25500000000E-02 0.  1.
    5000001    1    1    2    0    0  0.39065493227E+02 -0.16126879563E+03 -0.24296371831E+04  0.24408800828E+04  0.16500000000E+03 0.  0.
   -5000001    1    1    2    0    0 -0.39065493227E+02  0.16126879563E+03 -0.24200204241E+03  0.33663589490E+03  0.16500000000E+03 0.  0.
<mgrwt>
<rscale>  0 0.75956491E+03</rscale>
<asrwt>0</asrwt>
<pdfrwt beam="1">  1        2 0.41916568E+00 0.75956491E+03</pdfrwt>
<pdfrwt beam="2">  1       -2 0.81443677E-02 0.75956491E+03</pdfrwt>
<totfact> 0.25636027E+02</totfact>
</mgrwt>
</event>
