<event>
 4    1  0.1751735E-005  0.8727849E+03  0.7818608E-02  0.9460256E-01
          2   -1    0    0  501    0  0.00000000000E+00  0.00000000000E+00  0.18800756090E+04  0.18800756090E+04  0.25500000000E-02 0.  1.
         -2   -1    0    0    0  501 -0.00000000000E+00 -0.00000000000E+00 -0.10129292866E+03  0.10129292869E+03  0.25500000000E-02 0. -1.
   -5000001    1    1    2    0    0  0.28126823429E+03  0.22004438496E+03  0.84359165337E+03  0.94956739024E+03  0.25000000000E+03 0.  0.
    5000001    1    1    2    0    0 -0.28126823429E+03 -0.22004438496E+03  0.93519102699E+03  0.10318011475E+04  0.25000000000E+03 0.  0.
<mgrwt>
<rscale>  0 0.87278489E+03</rscale>
<asrwt>0</asrwt>
<pdfrwt beam="1">  1        2 0.28924240E+00 0.87278489E+03</pdfrwt>
<pdfrwt beam="2">  1       -2 0.15583528E-01 0.87278489E+03</pdfrwt>
<totfact> 0.25874454E+02</totfact>
</mgrwt>
</event>
<event>
 4    1  0.1751735E-005  0.5852967E+03  0.7818608E-02  0.9936389E-01
          2   -1    0    0  501    0  0.00000000000E+00  0.00000000000E+00  0.73538590176E+03  0.73538590176E+03  0.25500000000E-02 0.  1.
         -2   -1    0    0    0  501 -0.00000000000E+00 -0.00000000000E+00 -0.11646001685E+03  0.11646001688E+03  0.25500000000E-02 0. -1.
   -5000001    1    1    2    0    0  0.32139025205E+01  0.14915377535E+03  0.26614462244E+03  0.39444915759E+03  0.25000000000E+03 0.  0.
    5000001    1    1    2    0    0 -0.32139025205E+01 -0.14915377535E+03  0.35278126247E+03  0.45739676105E+03  0.25000000000E+03 0.  0.
<mgrwt>
<rscale>  0 0.58529669E+03</rscale>
<asrwt>0</asrwt>
<pdfrwt beam="1">  1        2 0.11313630E+00 0.58529669E+03</pdfrwt>
<pdfrwt beam="2">  1       -2 0.17916925E-01 0.58529669E+03</pdfrwt>
<totfact> 0.99894903E+02</totfact>
</mgrwt>
</event>
<event>
 4    1  0.1751735E-005  0.9139851E+03  0.7818608E-02  0.9408266E-01
         -2   -1    0    0    0  501 -0.00000000000E+00  0.00000000000E+00  0.14857324818E+03  0.14857324820E+03  0.25500000000E-02 0. -1.
          2   -1    0    0  501    0  0.00000000000E+00 -0.00000000000E+00 -0.14056514465E+04  0.14056514465E+04  0.25500000000E-02 0.  1.
   -5000001    1    1    2    0    0 -0.31191637588E+03 -0.12344235670E+03 -0.94122796856E+03  0.10300193832E+04  0.25000000000E+03 0.  0.
    5000001    1    1    2    0    0  0.31191637588E+03  0.12344235670E+03 -0.31585022976E+03  0.52420531150E+03  0.25000000000E+03 0.  0.
<mgrwt>
<rscale>  0 0.91398512E+03</rscale>
<asrwt>0</asrwt>
<pdfrwt beam="1">  1        2 0.21625406E+00 0.91398512E+03</pdfrwt>
<pdfrwt beam="2">  1       -2 0.22857424E-01 0.91398512E+03</pdfrwt>
<totfact> 0.24251329E+02</totfact>
</mgrwt>
</event>
<event>
 4    1  0.1751735E-005  0.5523811E+03  0.7818608E-02  0.1000944E+00
          2   -1    0    0  501    0  0.00000000000E+00  0.00000000000E+00  0.21016890998E+04  0.21016890998E+04  0.25500000000E-02 0.  1.
         -2   -1    0    0    0  501 -0.00000000000E+00 -0.00000000000E+00 -0.36295191540E+02  0.36295191629E+02  0.25500000000E-02 0. -1.
   -5000001    1    1    2    0    0  0.11383110847E+03 -0.10172491808E+02  0.11365680246E+04  0.11693365107E+04  0.25000000000E+03 0.  0.
    5000001    1    1    2    0    0 -0.11383110847E+03  0.10172491808E+02  0.92882588367E+03  0.96864778068E+03  0.25000000000E+03 0.  0.
<mgrwt>
<rscale>  0 0.55238106E+03</rscale>
<asrwt>0</asrwt>
<pdfrwt beam="1">  1        2 0.32333680E+00 0.55238106E+03</pdfrwt>
<pdfrwt beam="2">  1       -2 0.55838753E-02 0.55238106E+03</pdfrwt>
<totfact> 0.10586058E+03</totfact>
</mgrwt>
</event>
<event>
 4    1  0.1751735E-005  0.8196361E+03  0.7818608E-02  0.9532022E-01
          2   -1    0    0  501    0  0.00000000000E+00  0.00000000000E+00  0.27146442976E+03  0.27146442977E+03  0.25500000000E-02 0.  1.
         -2   -1    0    0    0  501 -0.00000000000E+00 -0.00000000000E+00 -0.61868453507E+03  0.61868453508E+03  0.25500000000E-02 0. -1.
   -5000001    1    1    2    0    0  0.45999078582E+02 -0.22453478521E+03 -0.42344181878E+03  0.54252627484E+03  0.25000000000E+03 0.  0.
    5000001    1    1    2    0    0 -0.45999078582E+02  0.22453478521E+03  0.76221713473E+02  0.34762269000E+03  0.25000000000E+03 0.  0.
<mgrwt>
<rscale>  0 0.81963613E+03</rscale>
<asrwt>0</asrwt>
<pdfrwt beam="1">  1        2 0.41763759E-01 0.81963613E+03</pdfrwt>
<pdfrwt beam="2">  1       -2 0.95182236E-01 0.81963613E+03</pdfrwt>
<totfact> 0.11464112E+02</totfact>
</mgrwt>
</event>
<event>
 4    1  0.1751735E-005  0.6366057E+03  0.7818608E-02  0.9832242E-01
         -2   -1    0    0    0  501 -0.00000000000E+00  0.00000000000E+00  0.70031304480E+02  0.70031304527E+02  0.25500000000E-02 0. -1.
          2   -1    0    0  501    0  0.00000000000E+00 -0.00000000000E+00 -0.14467347107E+04  0.14467347107E+04  0.25500000000E-02 0.  1.
   -5000001    1    1    2    0    0  0.48581466235E+02  0.18116427980E+03 -0.83202094171E+03  0.88878540862E+03  0.25000000000E+03 0.  0.
    5000001    1    1    2    0    0 -0.48581466235E+02 -0.18116427980E+03 -0.54468246456E+03  0.62798060665E+03  0.25000000000E+03 0.  0.
<mgrwt>
<rscale>  0 0.63660575E+03</rscale>
<asrwt>0</asrwt>
<pdfrwt beam="1">  1        2 0.22257455E+00 0.63660575E+03</pdfrwt>
<pdfrwt beam="2">  1       -2 0.10774048E-01 0.63660575E+03</pdfrwt>
<totfact> 0.84049210E+02</totfact>
</mgrwt>
</event>
<event>
 4    1  0.1751735E-005  0.1542556E+04  0.7818608E-02  0.8856636E-01
          2   -1    0    0  501    0  0.00000000000E+00  0.00000000000E+00  0.14049985297E+04  0.14049985297E+04  0.25500000000E-02 0.  1.
         -2   -1    0    0    0  501 -0.00000000000E+00 -0.00000000000E+00 -0.42339544908E+03  0.42339544908E+03  0.25500000000E-02 0. -1.
   -5000001    1    1    2    0    0  0.70880868703E+03  0.16096680795E+03  0.41537021579E+03  0.87370045452E+03  0.25000000000E+03 0.  0.
    5000001    1    1    2    0    0 -0.70880868703E+03 -0.16096680795E+03  0.56623286486E+03  0.95469352429E+03  0.25000000000E+03 0.  0.
<mgrwt>
<rscale>  0 0.15425563E+04</rscale>
<asrwt>0</asrwt>
<pdfrwt beam="1">  1        2 0.21615362E+00 0.15425563E+04</pdfrwt>
<pdfrwt beam="2">  1       -2 0.65137761E-01 0.15425563E+04</pdfrwt>
<totfact> 0.30086863E+01</totfact>
</mgrwt>
</event>
<event>
 4    1  0.1751735E-005  0.6963247E+03  0.7818608E-02  0.9723538E-01
         -2   -1    0    0    0  501 -0.00000000000E+00  0.00000000000E+00  0.10004236465E+03  0.10004236468E+03  0.25500000000E-02 0. -1.
          2   -1    0    0  501    0  0.00000000000E+00 -0.00000000000E+00 -0.12116569450E+04  0.12116569450E+04  0.25500000000E-02 0.  1.
   -5000001    1    1    2    0    0 -0.23169775353E+03 -0.40659303076E+02 -0.66532408013E+03  0.74866091091E+03  0.25000000000E+03 0.  0.
    5000001    1    1    2    0    0  0.23169775353E+03  0.40659303076E+02 -0.44629050026E+03  0.56303839881E+03  0.25000000000E+03 0.  0.
<mgrwt>
<rscale>  0 0.69632471E+03</rscale>
<asrwt>0</asrwt>
<pdfrwt beam="1">  1        2 0.18640875E+00 0.69632471E+03</pdfrwt>
<pdfrwt beam="2">  1       -2 0.15391134E-01 0.69632471E+03</pdfrwt>
<totfact> 0.63123737E+02</totfact>
</mgrwt>
</event>
<event>
 4    1  0.1751735E-005  0.6158634E+03  0.7818608E-02  0.9873030E-01
          2   -1    0    0  501    0  0.00000000000E+00  0.00000000000E+00  0.12911591810E+04  0.12911591810E+04  0.25500000000E-02 0.  1.
         -2   -1    0    0    0  501 -0.00000000000E+00 -0.00000000000E+00 -0.73439369981E+02  0.73439370025E+02  0.25500000000E-02 0. -1.
   -5000001    1    1    2    0    0 -0.16085849191E+03 -0.44791974493E+02  0.75650497439E+03  0.81405254848E+03  0.25000000000E+03 0.  0.
    5000001    1    1    2    0    0  0.16085849191E+03  0.44791974493E+02  0.46121483662E+03  0.55054600255E+03  0.25000000000E+03 0.  0.
<mgrwt>
<rscale>  0 0.61586335E+03</rscale>
<asrwt>0</asrwt>
<pdfrwt beam="1">  1        2 0.19863988E+00 0.61586335E+03</pdfrwt>
<pdfrwt beam="2">  1       -2 0.11298365E-01 0.61586335E+03</pdfrwt>
<totfact> 0.95298303E+02</totfact>
</mgrwt>
</event>
<event>
 4    1  0.1751735E-005  0.6747585E+03  0.7818608E-02  0.9761400E-01
         -2   -1    0    0    0  501 -0.00000000000E+00  0.00000000000E+00  0.37320675536E+03  0.37320675537E+03  0.25500000000E-02 0. -1.
          2   -1    0    0  501    0  0.00000000000E+00 -0.00000000000E+00 -0.30499111025E+03  0.30499111026E+03  0.25500000000E-02 0.  1.
   -5000001    1    1    2    0    0 -0.90065381147E+02 -0.20771651114E+03  0.42323888156E+02  0.33992533502E+03  0.25000000000E+03 0.  0.
    5000001    1    1    2    0    0  0.90065381147E+02  0.20771651114E+03  0.25891756951E+02  0.33827253060E+03  0.25000000000E+03 0.  0.
<mgrwt>
<rscale>  0 0.67475845E+03</rscale>
<asrwt>0</asrwt>
<pdfrwt beam="1">  1        2 0.46921710E-01 0.67475845E+03</pdfrwt>
<pdfrwt beam="2">  1       -2 0.57416424E-01 0.67475845E+03</pdfrwt>
<totfact> 0.30930464E+02</totfact>
</mgrwt>
</event>
<event>
 4    1  0.1751735E-005  0.5496664E+03  0.7818608E-02  0.1001571E+00
          2   -1    0    0  501    0  0.00000000000E+00  0.00000000000E+00  0.23155030727E+03  0.23155030729E+03  0.25500000000E-02 0.  1.
         -2   -1    0    0    0  501 -0.00000000000E+00 -0.00000000000E+00 -0.32620686660E+03  0.32620686661E+03  0.25500000000E-02 0. -1.
   -5000001    1    1    2    0    0  0.40498346339E+02  0.85669725470E+02  0.17279007549E+02  0.26791413180E+03  0.25000000000E+03 0.  0.
    5000001    1    1    2    0    0 -0.40498346339E+02 -0.85669725470E+02 -0.11193556688E+03  0.28984304209E+03  0.25000000000E+03 0.  0.
<mgrwt>
<rscale>  0 0.54966645E+03</rscale>
<asrwt>0</asrwt>
<pdfrwt beam="1">  1        2 0.35623124E-01 0.54966645E+03</pdfrwt>
<pdfrwt beam="2">  1       -2 0.50185672E-01 0.54966645E+03</pdfrwt>
<totfact> 0.55495811E+02</totfact>
</mgrwt>
</event>
<event>
 4    1  0.1751735E-005  0.6283085E+03  0.7818608E-02  0.9848355E-01
         -2   -1    0    0    0  501 -0.00000000000E+00  0.00000000000E+00  0.39781109714E+02  0.39781109796E+02  0.25500000000E-02 0. -1.
          2   -1    0    0  501    0  0.00000000000E+00 -0.00000000000E+00 -0.24808987200E+04  0.24808987200E+04  0.25500000000E-02 0.  1.
   -5000001    1    1    2    0    0  0.85812517522E+02 -0.83260416495E+02 -0.62690228546E+03  0.68542144745E+03  0.25000000000E+03 0.  0.
    5000001    1    1    2    0    0 -0.85812517522E+02  0.83260416495E+02 -0.18142153248E+04  0.18352583823E+04  0.25000000000E+03 0.  0.
<mgrwt>
<rscale>  0 0.62830854E+03</rscale>
<asrwt>0</asrwt>
<pdfrwt beam="1">  1        2 0.38167661E+00 0.62830854E+03</pdfrwt>
<pdfrwt beam="2">  1       -2 0.61201727E-02 0.62830854E+03</pdfrwt>
<totfact> 0.56330945E+02</totfact>
</mgrwt>
</event>
<event>
 4    1  0.1751735E-005  0.1055784E+04  0.7818608E-02  0.9249393E-01
         -2   -1    0    0    0  501 -0.00000000000E+00  0.00000000000E+00  0.22282730197E+03  0.22282730199E+03  0.25500000000E-02 0. -1.
          2   -1    0    0  501    0  0.00000000000E+00 -0.00000000000E+00 -0.12506091448E+04  0.12506091448E+04  0.25500000000E-02 0.  1.
   -5000001    1    1    2    0    0 -0.35767024202E+03  0.18946519933E+03 -0.83318669867E+03  0.95944001304E+03  0.25000000000E+03 0.  0.
    5000001    1    1    2    0    0  0.35767024202E+03 -0.18946519933E+03 -0.19459514417E+03  0.51399643376E+03  0.25000000000E+03 0.  0.
<mgrwt>
<rscale>  0 0.10557838E+04</rscale>
<asrwt>0</asrwt>
<pdfrwt beam="1">  1        2 0.19240140E+00 0.10557838E+04</pdfrwt>
<pdfrwt beam="2">  1       -2 0.34281124E-01 0.10557838E+04</pdfrwt>
<totfact> 0.14006234E+02</totfact>
</mgrwt>
</event>
<event>
 4    1  0.1751735E-005  0.1336590E+04  0.7818608E-02  0.9001042E-01
         -2   -1    0    0    0  501 -0.00000000000E+00  0.00000000000E+00  0.19331181439E+03  0.19331181440E+03  0.25500000000E-02 0. -1.
          2   -1    0    0  501    0  0.00000000000E+00 -0.00000000000E+00 -0.23103522971E+04  0.23103522971E+04  0.25500000000E-02 0.  1.
   -5000001    1    1    2    0    0  0.27465399791E+03  0.49143013957E+03 -0.15440297557E+04  0.16623676751E+04  0.25000000000E+03 0.  0.
    5000001    1    1    2    0    0 -0.27465399791E+03 -0.49143013957E+03 -0.57301072697E+03  0.84129643638E+03  0.25000000000E+03 0.  0.
<mgrwt>
<rscale>  0 0.13365903E+04</rscale>
<asrwt>0</asrwt>
<pdfrwt beam="1">  1        2 0.35543879E+00 0.13365903E+04</pdfrwt>
<pdfrwt beam="2">  1       -2 0.29740281E-01 0.13365903E+04</pdfrwt>
<totfact> 0.45697605E+01</totfact>
</mgrwt>
</event>
<event>
 4    1  0.1751735E-005  0.1189119E+04  0.7818608E-02  0.9122434E-01
          2   -1    0    0  501    0  0.00000000000E+00  0.00000000000E+00  0.20371541426E+04  0.20371541426E+04  0.25500000000E-02 0.  1.
         -2   -1    0    0    0  501 -0.00000000000E+00 -0.00000000000E+00 -0.17352693847E+03  0.17352693849E+03  0.25500000000E-02 0. -1.
   -5000001    1    1    2    0    0 -0.51976236919E+03  0.14078809769E+03  0.99138907008E+03  0.11555632813E+04  0.25000000000E+03 0.  0.
    5000001    1    1    2    0    0  0.51976236919E+03 -0.14078809769E+03  0.87223813405E+03  0.10551177998E+04  0.25000000000E+03 0.  0.
<mgrwt>
<rscale>  0 0.11891192E+04</rscale>
<asrwt>0</asrwt>
<pdfrwt beam="1">  1        2 0.31340832E+00 0.11891192E+04</pdfrwt>
<pdfrwt beam="2">  1       -2 0.26696453E-01 0.11891192E+04</pdfrwt>
<totfact> 0.80188834E+01</totfact>
</mgrwt>
</event>
<event>
 4    1  0.1751735E-005  0.6652507E+03  0.7818608E-02  0.9778576E-01
          2   -1    0    0  501    0  0.00000000000E+00  0.00000000000E+00  0.12985342085E+04  0.12985342085E+04  0.25500000000E-02 0.  1.
         -2   -1    0    0    0  501 -0.00000000000E+00 -0.00000000000E+00 -0.85203466104E+02  0.85203466142E+02  0.25500000000E-02 0. -1.
   -5000001    1    1    2    0    0 -0.21886641337E+03  0.14817644008E+02  0.59795258283E+03  0.68422902656E+03  0.25000000000E+03 0.  0.
    5000001    1    1    2    0    0  0.21886641337E+03 -0.14817644008E+02  0.61537815960E+03  0.69950864811E+03  0.25000000000E+03 0.  0.
<mgrwt>
<rscale>  0 0.66525068E+03</rscale>
<asrwt>0</asrwt>
<pdfrwt beam="1">  1        2 0.19977447E+00 0.66525068E+03</pdfrwt>
<pdfrwt beam="2">  1       -2 0.13108227E-01 0.66525068E+03</pdfrwt>
<totfact> 0.73685630E+02</totfact>
</mgrwt>
</event>
<event>
 4    1  0.1751735E-005  0.1041593E+04  0.7818608E-02  0.9264067E-01
          2   -1    0    0  501    0  0.00000000000E+00  0.00000000000E+00  0.14070442879E+04  0.14070442879E+04  0.25500000000E-02 0.  1.
         -2   -1    0    0    0  501 -0.00000000000E+00 -0.00000000000E+00 -0.19276515942E+03  0.19276515944E+03  0.25500000000E-02 0. -1.
   -5000001    1    1    2    0    0  0.53574154660E+02 -0.41844638652E+03  0.87652505485E+03  0.10043723116E+04  0.25000000000E+03 0.  0.
    5000001    1    1    2    0    0 -0.53574154660E+02  0.41844638652E+03  0.33775407365E+03  0.59543713581E+03  0.25000000000E+03 0.  0.
<mgrwt>
<rscale>  0 0.10415932E+04</rscale>
<asrwt>0</asrwt>
<pdfrwt beam="1">  1        2 0.21646835E+00 0.10415932E+04</pdfrwt>
<pdfrwt beam="2">  1       -2 0.29656179E-01 0.10415932E+04</pdfrwt>
<totfact> 0.14947498E+02</totfact>
</mgrwt>
</event>
<event>
 4    1  0.1751735E-005  0.6193756E+03  0.7818608E-02  0.9866004E-01
         -2   -1    0    0    0  501 -0.00000000000E+00  0.00000000000E+00  0.99687157331E+02  0.99687157364E+02  0.25500000000E-02 0. -1.
          2   -1    0    0  501    0  0.00000000000E+00 -0.00000000000E+00 -0.96207514256E+03  0.96207514256E+03  0.25500000000E-02 0.  1.
   -5000001    1    1    2    0    0  0.98237670934E+02 -0.72622883704E+02 -0.19814593541E+03  0.34159410848E+03  0.25000000000E+03 0.  0.
    5000001    1    1    2    0    0 -0.98237670934E+02  0.72622883704E+02 -0.66424204982E+03  0.72016819145E+03  0.25000000000E+03 0.  0.
<mgrwt>
<rscale>  0 0.61937561E+03</rscale>
<asrwt>0</asrwt>
<pdfrwt beam="1">  1        2 0.14801155E+00 0.61937561E+03</pdfrwt>
<pdfrwt beam="2">  1       -2 0.15336486E-01 0.61937561E+03</pdfrwt>
<totfact> 0.90615387E+02</totfact>
</mgrwt>
</event>
<event>
 4    1  0.1751735E-005  0.1023438E+04  0.7818608E-02  0.9283205E-01
         -2   -1    0    0    0  501 -0.00000000000E+00  0.00000000000E+00  0.13026234853E+04  0.13026234854E+04  0.25500000000E-02 0. -1.
          2   -1    0    0  501    0  0.00000000000E+00 -0.00000000000E+00 -0.20102229178E+03  0.20102229180E+03  0.25500000000E-02 0.  1.
   -5000001    1    1    2    0    0  0.16984093844E+03 -0.37521977666E+03  0.80408723492E+03  0.93738578319E+03  0.25000000000E+03 0.  0.
    5000001    1    1    2    0    0 -0.16984093844E+03  0.37521977666E+03  0.29751395865E+03  0.56625999396E+03  0.25000000000E+03 0.  0.
<mgrwt>
<rscale>  0 0.10234380E+04</rscale>
<asrwt>0</asrwt>
<pdfrwt beam="1">  1        2 0.30926507E-01 0.10234380E+04</pdfrwt>
<pdfrwt beam="2">  1       -2 0.20040361E+00 0.10234380E+04</pdfrwt>
<totfact> 0.22694683E+01</totfact>
</mgrwt>
</event>
<event>
 4    1  0.1751735E-005  0.6576938E+03  0.7818608E-02  0.9792448E-01
         -2   -1    0    0    0  501 -0.00000000000E+00  0.00000000000E+00  0.13624213604E+03  0.13624213607E+03  0.25500000000E-02 0. -1.
          2   -1    0    0  501    0  0.00000000000E+00 -0.00000000000E+00 -0.79373599625E+03  0.79373599625E+03  0.25500000000E-02 0.  1.
   -5000001    1    1    2    0    0 -0.15633535126E+03 -0.14419076180E+03 -0.35732823725E+03  0.48519602943E+03  0.25000000000E+03 0.  0.
    5000001    1    1    2    0    0  0.15633535126E+03  0.14419076180E+03 -0.30016562296E+03  0.44478210289E+03  0.25000000000E+03 0.  0.
<mgrwt>
<rscale>  0 0.65769381E+03</rscale>
<asrwt>0</asrwt>
<pdfrwt beam="1">  1        2 0.12211323E+00 0.65769381E+03</pdfrwt>
<pdfrwt beam="2">  1       -2 0.20960329E-01 0.65769381E+03</pdfrwt>
<totfact> 0.68794348E+02</totfact>
</mgrwt>
</event>
<event>
 4    1  0.1751735E-005  0.1248910E+04  0.7818608E-02  0.9071091E-01
         -2   -1    0    0    0  501 -0.00000000000E+00  0.00000000000E+00  0.15626090475E+03  0.15626090477E+03  0.25500000000E-02 0. -1.
          2   -1    0    0  501    0  0.00000000000E+00 -0.00000000000E+00 -0.24954683381E+04  0.24954683381E+04  0.25500000000E-02 0.  1.
   -5000001    1    1    2    0    0  0.53925932770E+03  0.16446397179E+03 -0.96162294570E+03  0.11423956015E+04  0.25000000000E+03 0.  0.
    5000001    1    1    2    0    0 -0.53925932770E+03 -0.16446397179E+03 -0.13775844877E+04  0.15093336414E+04  0.25000000000E+03 0.  0.
<mgrwt>
<rscale>  0 0.12489101E+04</rscale>
<asrwt>0</asrwt>
<pdfrwt beam="1">  1        2 0.38391818E+00 0.12489101E+04</pdfrwt>
<pdfrwt beam="2">  1       -2 0.24040141E-01 0.12489101E+04</pdfrwt>
<totfact> 0.53339019E+01</totfact>
</mgrwt>
</event>
<event>
 4    1  0.1751735E-005  0.6830730E+03  0.7818608E-02  0.9746626E-01
         -2   -1    0    0    0  501 -0.00000000000E+00  0.00000000000E+00  0.55400364054E+02  0.55400364113E+02  0.25500000000E-02 0. -1.
          2   -1    0    0  501    0  0.00000000000E+00 -0.00000000000E+00 -0.21055312174E+04  0.21055312174E+04  0.25500000000E-02 0.  1.
   -5000001    1    1    2    0    0 -0.31361767679E+02 -0.17766619363E+03 -0.56013898226E+03  0.63937822631E+03  0.25000000000E+03 0.  0.
    5000001    1    1    2    0    0  0.31361767679E+02  0.17766619363E+03 -0.14899918711E+04  0.15215533552E+04  0.25000000000E+03 0.  0.
<mgrwt>
<rscale>  0 0.68307304E+03</rscale>
<asrwt>0</asrwt>
<pdfrwt beam="1">  1        2 0.32392782E+00 0.68307304E+03</pdfrwt>
<pdfrwt beam="2">  1       -2 0.85231346E-02 0.68307304E+03</pdfrwt>
<totfact> 0.53488169E+02</totfact>
</mgrwt>
</event>
<event>
 4    1  0.1751735E-005  0.8157915E+03  0.7818608E-02  0.9537437E-01
         -2   -1    0    0    0  501 -0.00000000000E+00  0.00000000000E+00  0.35259954602E+02  0.35259954694E+02  0.25500000000E-02 0.  1.
          2   -1    0    0  501    0  0.00000000000E+00 -0.00000000000E+00 -0.47186372816E+04  0.47186372816E+04  0.25500000000E-02 0. -1.
   -5000001    1    1    2    0    0 -0.14246950714E+03 -0.24081648260E+03 -0.32738596103E+04  0.32952916239E+04  0.25000000000E+03 0.  0.
    5000001    1    1    2    0    0  0.14246950714E+03  0.24081648260E+03 -0.14095177167E+04  0.14586056124E+04  0.25000000000E+03 0.  0.
<mgrwt>
<rscale>  0 0.81579148E+03</rscale>
<asrwt>0</asrwt>
<pdfrwt beam="1">  1        2 0.72594370E+00 0.81579148E+03</pdfrwt>
<pdfrwt beam="2">  1       -2 0.54246121E-02 0.81579148E+03</pdfrwt>
<totfact> 0.15101022E+01</totfact>
</mgrwt>
</event>
<event>
 4    1  0.1751735E-005  0.1200925E+04  0.7818608E-02  0.9112047E-01
          2   -1    0    0  501    0  0.00000000000E+00  0.00000000000E+00  0.76601521237E+03  0.76601521237E+03  0.25500000000E-02 0.  1.
         -2   -1    0    0    0  501 -0.00000000000E+00 -0.00000000000E+00 -0.47068946626E+03  0.47068946627E+03  0.25500000000E-02 0. -1.
   -5000001    1    1    2    0    0  0.53654266159E+03 -0.16970691861E+02  0.45255328046E+02  0.59389736218E+03  0.25000000000E+03 0.  0.
    5000001    1    1    2    0    0 -0.53654266159E+03  0.16970691861E+02  0.25007041806E+03  0.64280731645E+03  0.25000000000E+03 0.  0.
<mgrwt>
<rscale>  0 0.12009251E+04</rscale>
<asrwt>0</asrwt>
<pdfrwt beam="1">  1        2 0.11784849E+00 0.12009251E+04</pdfrwt>
<pdfrwt beam="2">  1       -2 0.72413765E-01 0.12009251E+04</pdfrwt>
<totfact> 0.62143282E+01</totfact>
</mgrwt>
</event>
<event>
 4    1  0.1751735E-005  0.9968054E+03  0.7818608E-02  0.9312056E-01
          2   -1    0    0  501    0  0.00000000000E+00  0.00000000000E+00  0.14873364254E+04  0.14873364254E+04  0.25500000000E-02 0.  1.
         -2   -1    0    0    0  501 -0.00000000000E+00 -0.00000000000E+00 -0.16701347737E+03  0.16701347739E+03  0.25500000000E-02 0. -1.
   -5000001    1    1    2    0    0  0.41739382539E+03  0.19079843754E+02  0.48355405934E+03  0.68622603726E+03  0.25000000000E+03 0.  0.
    5000001    1    1    2    0    0 -0.41739382539E+03 -0.19079843754E+02  0.83676888864E+03  0.96812386548E+03  0.25000000000E+03 0.  0.
<mgrwt>
<rscale>  0 0.99680535E+03</rscale>
<asrwt>0</asrwt>
<pdfrwt beam="1">  1        2 0.22882099E+00 0.99680535E+03</pdfrwt>
<pdfrwt beam="2">  1       -2 0.25694381E-01 0.99680535E+03</pdfrwt>
<totfact> 0.17572055E+02</totfact>
</mgrwt>
</event>
<event>
 4    1  0.1751735E-005  0.9407426E+03  0.7818608E-02  0.9376037E-01
          2   -1    0    0  501    0  0.00000000000E+00  0.00000000000E+00  0.39366368607E+04  0.39366368607E+04  0.25500000000E-02 0.  1.
         -2   -1    0    0    0  501 -0.00000000000E+00 -0.00000000000E+00 -0.56202582291E+02  0.56202582349E+02  0.25500000000E-02 0. -1.
   -5000001    1    1    2    0    0  0.50873117903E+02  0.34624155587E+03  0.27486275868E+04  0.27820720515E+04  0.25000000000E+03 0.  0.
    5000001    1    1    2    0    0 -0.50873117903E+02 -0.34624155587E+03  0.11318066917E+04  0.12107673915E+04  0.25000000000E+03 0.  0.
<mgrwt>
<rscale>  0 0.94074259E+03</rscale>
<asrwt>0</asrwt>
<pdfrwt beam="1">  1        2 0.60563634E+00 0.94074259E+03</pdfrwt>
<pdfrwt beam="2">  1       -2 0.86465526E-02 0.94074259E+03</pdfrwt>
<totfact> 0.35627483E+01</totfact>
</mgrwt>
</event>
<event>
 4    1  0.1751735E-005  0.7030322E+03  0.7818608E-02  0.9712061E-01
         -2   -1    0    0    0  501 -0.00000000000E+00  0.00000000000E+00  0.19147623093E+03  0.19147623095E+03  0.25500000000E-02 0. -1.
          2   -1    0    0  501    0  0.00000000000E+00 -0.00000000000E+00 -0.64532058640E+03  0.64532058640E+03  0.25500000000E-02 0.  1.
   -5000001    1    1    2    0    0 -0.24420537479E+03 -0.36678054705E+02 -0.21614325855E+03  0.41255236394E+03  0.25000000000E+03 0.  0.
    5000001    1    1    2    0    0  0.24420537479E+03  0.36678054705E+02 -0.23770109692E+03  0.42424445341E+03  0.25000000000E+03 0.  0.
<mgrwt>
<rscale>  0 0.70303216E+03</rscale>
<asrwt>0</asrwt>
<pdfrwt beam="1">  1        2 0.99280089E-01 0.70303216E+03</pdfrwt>
<pdfrwt beam="2">  1       -2 0.29457882E-01 0.70303216E+03</pdfrwt>
<totfact> 0.48412321E+02</totfact>
</mgrwt>
</event>
<event>
 4    1  0.1751735E-005  0.8068149E+03  0.7818608E-02  0.9550205E-01
          2   -1    0    0  501    0  0.00000000000E+00  0.00000000000E+00  0.28691745470E+03  0.28691745471E+03  0.25500000000E-02 0.  1.
         -2   -1    0    0    0  501 -0.00000000000E+00 -0.00000000000E+00 -0.56719302849E+03  0.56719302850E+03  0.25500000000E-02 0. -1.
   -5000001    1    1    2    0    0  0.30542133001E+03  0.83250747378E+02 -0.14539949079E+03  0.42878186493E+03  0.25000000000E+03 0.  0.
    5000001    1    1    2    0    0 -0.30542133001E+03 -0.83250747378E+02 -0.13487608300E+03  0.42532861829E+03  0.25000000000E+03 0.  0.
<mgrwt>
<rscale>  0 0.80681492E+03</rscale>
<asrwt>0</asrwt>
<pdfrwt beam="1">  1        2 0.44141147E-01 0.80681492E+03</pdfrwt>
<pdfrwt beam="2">  1       -2 0.87260466E-01 0.80681492E+03</pdfrwt>
<totfact> 0.13188441E+02</totfact>
</mgrwt>
</event>
<event>
 4    1  0.1751735E-005  0.7471133E+03  0.7818608E-02  0.9639890E-01
         -2   -1    0    0    0  501 -0.00000000000E+00  0.00000000000E+00  0.21826149678E+03  0.21826149679E+03  0.25500000000E-02 0. -1.
          2   -1    0    0  501    0  0.00000000000E+00 -0.00000000000E+00 -0.63934585238E+03  0.63934585238E+03  0.25500000000E-02 0.  1.
   -5000001    1    1    2    0    0  0.17907079960E+03  0.19711235500E+03 -0.30037877948E+03  0.47291335668E+03  0.25000000000E+03 0.  0.
    5000001    1    1    2    0    0 -0.17907079960E+03 -0.19711235500E+03 -0.12070557612E+03  0.38469399250E+03  0.25000000000E+03 0.  0.
<mgrwt>
<rscale>  0 0.74711333E+03</rscale>
<asrwt>0</asrwt>
<pdfrwt beam="1">  1        2 0.98360899E-01 0.74711333E+03</pdfrwt>
<pdfrwt beam="2">  1       -2 0.33578692E-01 0.74711333E+03</pdfrwt>
<totfact> 0.38284290E+02</totfact>
</mgrwt>
</event>
<event>
 4    1  0.1751735E-005  0.7069577E+03  0.7818608E-02  0.9705407E-01
         -2   -1    0    0    0  501 -0.00000000000E+00  0.00000000000E+00  0.32019397903E+03  0.32019397904E+03  0.25500000000E-02 0. -1.
          2   -1    0    0  501    0  0.00000000000E+00 -0.00000000000E+00 -0.39022374698E+03  0.39022374699E+03  0.25500000000E-02 0.  1.
   -5000001    1    1    2    0    0  0.32658749616E+02  0.24702688828E+03 -0.15990327220E+02  0.35333350821E+03  0.25000000000E+03 0.  0.
    5000001    1    1    2    0    0 -0.32658749616E+02 -0.24702688828E+03 -0.54039440737E+02  0.35708421782E+03  0.25000000000E+03 0.  0.
<mgrwt>
<rscale>  0 0.70695769E+03</rscale>
<asrwt>0</asrwt>
<pdfrwt beam="1">  1        2 0.60034423E-01 0.70695769E+03</pdfrwt>
<pdfrwt beam="2">  1       -2 0.49260612E-01 0.70695769E+03</pdfrwt>
<totfact> 0.32188350E+02</totfact>
</mgrwt>
</event>
<event>
 4    1  0.1751735E-005  0.5993014E+03  0.7818608E-02  0.9906856E-01
          2   -1    0    0  501    0  0.00000000000E+00  0.00000000000E+00  0.92776859152E+03  0.92776859152E+03  0.25500000000E-02 0.  1.
         -2   -1    0    0    0  501 -0.00000000000E+00 -0.00000000000E+00 -0.96781182159E+02  0.96781182192E+02  0.25500000000E-02 0. -1.
   -5000001    1    1    2    0    0 -0.14327292139E+03  0.63068812756E+02  0.32526229452E+03  0.43909038407E+03  0.25000000000E+03 0.  0.
    5000001    1    1    2    0    0  0.14327292139E+03 -0.63068812756E+02  0.50572511484E+03  0.58545938965E+03  0.25000000000E+03 0.  0.
<mgrwt>
<rscale>  0 0.59930140E+03</rscale>
<asrwt>0</asrwt>
<pdfrwt beam="1">  1        2 0.14273362E+00 0.59930140E+03</pdfrwt>
<pdfrwt beam="2">  1       -2 0.14889414E-01 0.59930140E+03</pdfrwt>
<totfact> 0.10033483E+03</totfact>
</mgrwt>
</event>
<event>
 4    1  0.1751735E-005  0.8590514E+03  0.7818608E-02  0.9478268E-01
          2   -1    0    0  501    0  0.00000000000E+00  0.00000000000E+00  0.10041774479E+03  0.10041774483E+03  0.25500000000E-02 0.  1.
         -2   -1    0    0    0  501 -0.00000000000E+00 -0.00000000000E+00 -0.18372484247E+04  0.18372484247E+04  0.25500000000E-02 0. -1.
   -5000001    1    1    2    0    0 -0.22782314274E+03 -0.24482122664E+03 -0.10956766233E+04  0.11725391594E+04  0.25000000000E+03 0.  0.
    5000001    1    1    2    0    0  0.22782314274E+03  0.24482122664E+03 -0.64115405657E+03  0.76512701013E+03  0.25000000000E+03 0.  0.
<mgrwt>
<rscale>  0 0.85905144E+03</rscale>
<asrwt>0</asrwt>
<pdfrwt beam="1">  1        2 0.15448885E-01 0.85905144E+03</pdfrwt>
<pdfrwt beam="2">  1       -2 0.28265358E+00 0.85905144E+03</pdfrwt>
<totfact> 0.16096021E+01</totfact>
</mgrwt>
</event>
<event>
 4    1  0.1751735E-005  0.1699736E+04  0.7818608E-02  0.8761515E-01
          2   -1    0    0  501    0  0.00000000000E+00  0.00000000000E+00  0.10931531225E+04  0.10931531225E+04  0.25500000000E-02 0.  1.
         -2   -1    0    0    0  501 -0.00000000000E+00 -0.00000000000E+00 -0.66072711184E+03  0.66072711184E+03  0.25500000000E-02 0. -1.
   -5000001    1    1    2    0    0 -0.42804986306E+03 -0.68429128025E+03  0.31018918177E+03  0.90011030990E+03  0.25000000000E+03 0.  0.
    5000001    1    1    2    0    0  0.42804986306E+03  0.68429128025E+03  0.12223682884E+03  0.85376992441E+03  0.25000000000E+03 0.  0.
<mgrwt>
<rscale>  0 0.16997363E+04</rscale>
<asrwt>0</asrwt>
<pdfrwt beam="1">  1        2 0.16817740E+00 0.16997363E+04</pdfrwt>
<pdfrwt beam="2">  1       -2 0.10165032E+00 0.16997363E+04</pdfrwt>
<totfact> 0.16633799E+01</totfact>
</mgrwt>
</event>
<event>
 4    1  0.1751735E-005  0.6084774E+03  0.7818608E-02  0.9887973E-01
          2   -1    0    0  501    0  0.00000000000E+00  0.00000000000E+00  0.41630475834E+03  0.41630475835E+03  0.25500000000E-02 0.  1.
         -2   -1    0    0    0  501 -0.00000000000E+00 -0.00000000000E+00 -0.22233993527E+03  0.22233993529E+03  0.25500000000E-02 0. -1.
   -5000001    1    1    2    0    0 -0.16876221117E+03 -0.38236806822E+02  0.10840478172E+03  0.32279147141E+03  0.25000000000E+03 0.  0.
    5000001    1    1    2    0    0  0.16876221117E+03  0.38236806822E+02  0.85560041347E+02  0.31585322223E+03  0.25000000000E+03 0.  0.
<mgrwt>
<rscale>  0 0.60847736E+03</rscale>
<asrwt>0</asrwt>
<pdfrwt beam="1">  1        2 0.64046886E-01 0.60847736E+03</pdfrwt>
<pdfrwt beam="2">  1       -2 0.34206144E-01 0.60847736E+03</pdfrwt>
<totfact> 0.61231769E+02</totfact>
</mgrwt>
</event>
<event>
 4    1  0.1751735E-005  0.6843225E+03  0.7818608E-02  0.9744425E-01
         -2   -1    0    0    0  501 -0.00000000000E+00  0.00000000000E+00  0.29674831549E+03  0.29674831550E+03  0.25500000000E-02 0. -1.
          2   -1    0    0  501    0  0.00000000000E+00 -0.00000000000E+00 -0.39452394753E+03  0.39452394754E+03  0.25500000000E-02 0.  1.
   -5000001    1    1    2    0    0 -0.12543919021E+03 -0.49835093997E+02 -0.24149616635E+03  0.37287923702E+03  0.25000000000E+03 0.  0.
    5000001    1    1    2    0    0  0.12543919021E+03  0.49835093997E+02  0.14372053431E+03  0.31839302602E+03  0.25000000000E+03 0.  0.
<mgrwt>
<rscale>  0 0.68432249E+03</rscale>
<asrwt>0</asrwt>
<pdfrwt beam="1">  1        2 0.60695992E-01 0.68432249E+03</pdfrwt>
<pdfrwt beam="2">  1       -2 0.45653587E-01 0.68432249E+03</pdfrwt>
<totfact> 0.37072700E+02</totfact>
</mgrwt>
</event>
<event>
 4    1  0.1751735E-005  0.1690240E+04  0.7818608E-02  0.8766950E-01
         -2   -1    0    0    0  501 -0.00000000000E+00  0.00000000000E+00  0.29426510105E+03  0.29426510106E+03  0.25500000000E-02 0. -1.
          2   -1    0    0  501    0  0.00000000000E+00 -0.00000000000E+00 -0.24271578056E+04  0.24271578056E+04  0.25500000000E-02 0.  1.
   -5000001    1    1    2    0    0 -0.73589773408E+03 -0.23451110363E+03 -0.14446847978E+04  0.16571527081E+04  0.25000000000E+03 0.  0.
    5000001    1    1    2    0    0  0.73589773408E+03  0.23451110363E+03 -0.68820790671E+03  0.10642701986E+04  0.25000000000E+03 0.  0.
<mgrwt>
<rscale>  0 0.16902400E+04</rscale>
<asrwt>0</asrwt>
<pdfrwt beam="1">  1        2 0.37340888E+00 0.16902400E+04</pdfrwt>
<pdfrwt beam="2">  1       -2 0.45271555E-01 0.16902400E+04</pdfrwt>
<totfact> 0.16921788E+01</totfact>
</mgrwt>
</event>
<event>
 4    1  0.1751735E-005  0.8387549E+03  0.7818608E-02  0.9505555E-01
          2   -1    0    0  501    0  0.00000000000E+00  0.00000000000E+00  0.83654255513E+03  0.83654255514E+03  0.25500000000E-02 0.  1.
         -2   -1    0    0    0  501 -0.00000000000E+00 -0.00000000000E+00 -0.21024327518E+03  0.21024327520E+03  0.25500000000E-02 0. -1.
   -5000001    1    1    2    0    0  0.33069530708E+03  0.61822040840E+02  0.33062623728E+03  0.53384928551E+03  0.25000000000E+03 0.  0.
    5000001    1    1    2    0    0 -0.33069530708E+03 -0.61822040840E+02  0.29567304267E+03  0.51293654483E+03  0.25000000000E+03 0.  0.
<mgrwt>
<rscale>  0 0.83875490E+03</rscale>
<asrwt>0</asrwt>
<pdfrwt beam="1">  1        2 0.12869886E+00 0.83875490E+03</pdfrwt>
<pdfrwt beam="2">  1       -2 0.32345119E-01 0.83875490E+03</pdfrwt>
<totfact> 0.28976322E+02</totfact>
</mgrwt>
</event>
<event>
 4    1  0.1751735E-005  0.5708775E+03  0.7818608E-02  0.9967739E-01
         -2   -1    0    0    0  501 -0.00000000000E+00  0.00000000000E+00  0.19476090127E+03  0.19476090129E+03  0.25500000000E-02 0. -1.
          2   -1    0    0  501    0  0.00000000000E+00 -0.00000000000E+00 -0.41833494911E+03  0.41833494912E+03  0.25500000000E-02 0.  1.
   -5000001    1    1    2    0    0  0.35248581310E+02  0.13316319417E+03 -0.11246025188E+03  0.30679342727E+03  0.25000000000E+03 0.  0.
    5000001    1    1    2    0    0 -0.35248581310E+02 -0.13316319417E+03 -0.11111379595E+03  0.30630242313E+03  0.25000000000E+03 0.  0.
<mgrwt>
<rscale>  0 0.57087754E+03</rscale>
<asrwt>0</asrwt>
<pdfrwt beam="1">  1        2 0.64359223E-01 0.57087754E+03</pdfrwt>
<pdfrwt beam="2">  1       -2 0.29963216E-01 0.57087754E+03</pdfrwt>
<totfact> 0.78030189E+02</totfact>
</mgrwt>
</event>
<event>
 4    1  0.1751735E-005  0.6261919E+03  0.7818608E-02  0.9852508E-01
         -2   -1    0    0    0  501 -0.00000000000E+00  0.00000000000E+00  0.40758727226E+02  0.40758727306E+02  0.25500000000E-02 0. -1.
          2   -1    0    0  501    0  0.00000000000E+00 -0.00000000000E+00 -0.24051065066E+04  0.24051065066E+04  0.25500000000E-02 0.  1.
   -5000001    1    1    2    0    0  0.12166643736E+03  0.11667934660E+03 -0.85276922929E+03  0.90450657837E+03  0.25000000000E+03 0.  0.
    5000001    1    1    2    0    0 -0.12166643736E+03 -0.11667934660E+03 -0.15115785500E+04  0.15413586555E+04  0.25000000000E+03 0.  0.
<mgrwt>
<rscale>  0 0.62619192E+03</rscale>
<asrwt>0</asrwt>
<pdfrwt beam="1">  1        2 0.37001628E+00 0.62619192E+03</pdfrwt>
<pdfrwt beam="2">  1       -2 0.62705753E-02 0.62619192E+03</pdfrwt>
<totfact> 0.59803394E+02</totfact>
</mgrwt>
</event>
<event>
 4    1  0.1751735E-005  0.6800026E+03  0.7818608E-02  0.9752055E-01
          2   -1    0    0  501    0  0.00000000000E+00  0.00000000000E+00  0.62345988251E+03  0.62345988251E+03  0.25500000000E-02 0.  1.
         -2   -1    0    0    0  501 -0.00000000000E+00 -0.00000000000E+00 -0.18541832099E+03  0.18541832101E+03  0.25500000000E-02 0. -1.
   -5000001    1    1    2    0    0  0.16099551148E+03  0.16130844306E+03  0.25955044234E+03  0.42638761783E+03  0.25000000000E+03 0.  0.
    5000001    1    1    2    0    0 -0.16099551148E+03 -0.16130844306E+03  0.17849111918E+03  0.38249058570E+03  0.25000000000E+03 0.  0.
<mgrwt>
<rscale>  0 0.68000260E+03</rscale>
<asrwt>0</asrwt>
<pdfrwt beam="1">  1        2 0.95916906E-01 0.68000260E+03</pdfrwt>
<pdfrwt beam="2">  1       -2 0.28525895E-01 0.68000260E+03</pdfrwt>
<totfact> 0.53612670E+02</totfact>
</mgrwt>
</event>
<event>
 4    1  0.1751735E-005  0.1061571E+04  0.7818608E-02  0.9243479E-01
          2   -1    0    0  501    0  0.00000000000E+00  0.00000000000E+00  0.51823968660E+03  0.51823968660E+03  0.25500000000E-02 0.  1.
         -2   -1    0    0    0  501 -0.00000000000E+00 -0.00000000000E+00 -0.54363484576E+03  0.54363484576E+03  0.25500000000E-02 0. -1.
   -5000001    1    1    2    0    0 -0.24723212114E+03  0.27699596782E+03  0.27266050662E+03  0.52411281207E+03  0.25000000000E+03 0.  0.
    5000001    1    1    2    0    0  0.24723212114E+03 -0.27699596782E+03 -0.29805566578E+03  0.53776172029E+03  0.25000000000E+03 0.  0.
<mgrwt>
<rscale>  0 0.10615708E+04</rscale>
<asrwt>0</asrwt>
<pdfrwt beam="1">  1        2 0.79729183E-01 0.10615708E+04</pdfrwt>
<pdfrwt beam="2">  1       -2 0.83636130E-01 0.10615708E+04</pdfrwt>
<totfact> 0.73504352E+01</totfact>
</mgrwt>
</event>
<event>
 4    1  0.1751735E-005  0.1299833E+04  0.7818608E-02  0.9029698E-01
         -2   -1    0    0    0  501 -0.00000000000E+00  0.00000000000E+00  0.27347207073E+03  0.27347207074E+03  0.25500000000E-02 0. -1.
          2   -1    0    0  501    0  0.00000000000E+00 -0.00000000000E+00 -0.15445498308E+04  0.15445498308E+04  0.25500000000E-02 0.  1.
   -5000001    1    1    2    0    0  0.46893384634E+03  0.31729172713E+03 -0.91287647412E+03  0.11029127116E+04  0.25000000000E+03 0.  0.
    5000001    1    1    2    0    0 -0.46893384634E+03 -0.31729172713E+03 -0.35820128597E+03  0.71510919000E+03  0.25000000000E+03 0.  0.
<mgrwt>
<rscale>  0 0.12998327E+04</rscale>
<asrwt>0</asrwt>
<pdfrwt beam="1">  1        2 0.23762305E+00 0.12998327E+04</pdfrwt>
<pdfrwt beam="2">  1       -2 0.42072627E-01 0.12998327E+04</pdfrwt>
<totfact> 0.62851513E+01</totfact>
</mgrwt>
</event>
<event>
 4    1  0.1751735E-005  0.7056469E+03  0.7818608E-02  0.9707624E-01
         -2   -1    0    0    0  501 -0.00000000000E+00  0.00000000000E+00  0.51715477514E+02  0.51715477577E+02  0.25500000000E-02 0. -1.
          2   -1    0    0  501    0  0.00000000000E+00 -0.00000000000E+00 -0.24071012272E+04  0.24071012272E+04  0.25500000000E-02 0.  1.
   -5000001    1    1    2    0    0 -0.24586129476E+03 -0.87178985954E+01 -0.10445229780E+04  0.11018402923E+04  0.25000000000E+03 0.  0.
    5000001    1    1    2    0    0  0.24586129476E+03  0.87178985954E+01 -0.13108627716E+04  0.13569764125E+04  0.25000000000E+03 0.  0.
<mgrwt>
<rscale>  0 0.70564691E+03</rscale>
<asrwt>0</asrwt>
<pdfrwt beam="1">  1        2 0.37032318E+00 0.70564691E+03</pdfrwt>
<pdfrwt beam="2">  1       -2 0.79562292E-02 0.70564691E+03</pdfrwt>
<totfact> 0.40618151E+02</totfact>
</mgrwt>
</event>
<event>
 4    1  0.1751735E-005  0.8275925E+03  0.7818608E-02  0.9520915E-01
          2   -1    0    0  501    0  0.00000000000E+00  0.00000000000E+00  0.34121593176E+04  0.34121593176E+04  0.25500000000E-02 0.  1.
         -2   -1    0    0    0  501 -0.00000000000E+00 -0.00000000000E+00 -0.50181519005E+02  0.50181519070E+02  0.25500000000E-02 0. -1.
   -5000001    1    1    2    0    0 -0.80109463643E+02 -0.15677645063E+03  0.28473963231E+04  0.28637671348E+04  0.25000000000E+03 0.  0.
    5000001    1    1    2    0    0  0.80109463643E+02  0.15677645063E+03  0.51458147553E+03  0.59857370190E+03  0.25000000000E+03 0.  0.
<mgrwt>
<rscale>  0 0.82759250E+03</rscale>
<asrwt>0</asrwt>
<pdfrwt beam="1">  1        2 0.52494764E+00 0.82759250E+03</pdfrwt>
<pdfrwt beam="2">  1       -2 0.77202329E-02 0.82759250E+03</pdfrwt>
<totfact> 0.10340311E+02</totfact>
</mgrwt>
</event>
<event>
 4    1  0.1751735E-005  0.9869224E+03  0.7818608E-02  0.9323005E-01
         -2   -1    0    0    0  501 -0.00000000000E+00  0.00000000000E+00  0.10289550063E+03  0.10289550066E+03  0.25500000000E-02 0. -1.
          2   -1    0    0  501    0  0.00000000000E+00 -0.00000000000E+00 -0.23665171432E+04  0.23665171432E+04  0.25500000000E-02 0.  1.
   -5000001    1    1    2    0    0 -0.83195794650E+02  0.21660054935E+03 -0.23953889306E+03  0.41679277766E+03  0.25000000000E+03 0.  0.
    5000001    1    1    2    0    0  0.83195794650E+02 -0.21660054935E+03 -0.20240827495E+04  0.20526198661E+04  0.25000000000E+03 0.  0.
<mgrwt>
<rscale>  0 0.98692242E+03</rscale>
<asrwt>0</asrwt>
<pdfrwt beam="1">  1        2 0.36407952E+00 0.98692242E+03</pdfrwt>
<pdfrwt beam="2">  1       -2 0.15830079E-01 0.98692242E+03</pdfrwt>
<totfact> 0.13436758E+02</totfact>
</mgrwt>
</event>
<event>
 4    1  0.1751735E-005  0.5797913E+03  0.7818608E-02  0.9948243E-01
         -2   -1    0    0    0  501 -0.00000000000E+00  0.00000000000E+00  0.30653872076E+02  0.30653872182E+02  0.25500000000E-02 0. -1.
          2   -1    0    0  501    0  0.00000000000E+00 -0.00000000000E+00 -0.27415618805E+04  0.27415618805E+04  0.25500000000E-02 0.  1.
   -5000001    1    1    2    0    0  0.10914545947E+03  0.75543359730E+02 -0.10560924847E+04  0.10933667577E+04  0.25000000000E+03 0.  0.
    5000001    1    1    2    0    0 -0.10914545947E+03 -0.75543359730E+02 -0.16548155237E+04  0.16788489950E+04  0.25000000000E+03 0.  0.
<mgrwt>
<rscale>  0 0.57979130E+03</rscale>
<asrwt>0</asrwt>
<pdfrwt beam="1">  1        2 0.42177856E+00 0.57979130E+03</pdfrwt>
<pdfrwt beam="2">  1       -2 0.47159825E-02 0.57979130E+03</pdfrwt>
<totfact> 0.60267337E+02</totfact>
</mgrwt>
</event>
<event>
 4    1  0.1751735E-005  0.6702247E+03  0.7818608E-02  0.9769552E-01
         -2   -1    0    0    0  501 -0.00000000000E+00  0.00000000000E+00  0.40260313438E+02  0.40260313518E+02  0.25500000000E-02 0. -1.
          2   -1    0    0  501    0  0.00000000000E+00 -0.00000000000E+00 -0.27893546754E+04  0.27893546754E+04  0.25500000000E-02 0.  1.
   -5000001    1    1    2    0    0 -0.23895378015E+02 -0.18729177492E+03 -0.87231800551E+03  0.92686994814E+03  0.25000000000E+03 0.  0.
    5000001    1    1    2    0    0  0.23895378015E+02  0.18729177492E+03 -0.18767763565E+04  0.19027450408E+04  0.25000000000E+03 0.  0.
<mgrwt>
<rscale>  0 0.67022472E+03</rscale>
<asrwt>0</asrwt>
<pdfrwt beam="1">  1        2 0.42913134E+00 0.67022472E+03</pdfrwt>
<pdfrwt beam="2">  1       -2 0.61938966E-02 0.67022472E+03</pdfrwt>
<totfact> 0.36607137E+02</totfact>
</mgrwt>
</event>
<event>
 4    1  0.1751735E-005  0.6874677E+03  0.7818608E-02  0.9738907E-01
          2   -1    0    0  501    0  0.00000000000E+00  0.00000000000E+00  0.64674456502E+03  0.64674456503E+03  0.25500000000E-02 0.  1.
         -2   -1    0    0    0  501 -0.00000000000E+00 -0.00000000000E+00 -0.18268873700E+03  0.18268873702E+03  0.25500000000E-02 0. -1.
   -5000001    1    1    2    0    0  0.66832771495E+02  0.20278126089E+03  0.35307645731E+03  0.48244154446E+03  0.25000000000E+03 0.  0.
    5000001    1    1    2    0    0 -0.66832771495E+02 -0.20278126089E+03  0.11097937071E+03  0.34699175759E+03  0.25000000000E+03 0.  0.
<mgrwt>
<rscale>  0 0.68746767E+03</rscale>
<asrwt>0</asrwt>
<pdfrwt beam="1">  1        2 0.99499163E-01 0.68746767E+03</pdfrwt>
<pdfrwt beam="2">  1       -2 0.28105960E-01 0.68746767E+03</pdfrwt>
<totfact> 0.52667537E+02</totfact>
</mgrwt>
</event>
<event>
 4    1  0.1751735E-005  0.7811316E+03  0.7818608E-02  0.9587737E-01
         -2   -1    0    0    0  501 -0.00000000000E+00  0.00000000000E+00  0.12977431430E+03  0.12977431432E+03  0.25500000000E-02 0. -1.
          2   -1    0    0  501    0  0.00000000000E+00 -0.00000000000E+00 -0.11754380201E+04  0.11754380201E+04  0.25500000000E-02 0.  1.
   -5000001    1    1    2    0    0  0.17453426313E+03  0.22830951455E+03 -0.66709587213E+03  0.76818249528E+03  0.25000000000E+03 0.  0.
    5000001    1    1    2    0    0 -0.17453426313E+03 -0.22830951455E+03 -0.37856783366E+03  0.53702983913E+03  0.25000000000E+03 0.  0.
<mgrwt>
<rscale>  0 0.78113165E+03</rscale>
<asrwt>0</asrwt>
<pdfrwt beam="1">  1        2 0.18083661E+00 0.78113165E+03</pdfrwt>
<pdfrwt beam="2">  1       -2 0.19965280E-01 0.78113165E+03</pdfrwt>
<totfact> 0.42214568E+02</totfact>
</mgrwt>
</event>
<event>
 4    1  0.1751735E-005  0.7509434E+03  0.7818608E-02  0.9633871E-01
         -2   -1    0    0    0  501 -0.00000000000E+00  0.00000000000E+00  0.72109714987E+02  0.72109715032E+02  0.25500000000E-02 0. -1.
          2   -1    0    0  501    0  0.00000000000E+00 -0.00000000000E+00 -0.19550625117E+04  0.19550625117E+04  0.25500000000E-02 0.  1.
   -5000001    1    1    2    0    0  0.15124317250E+03  0.23347740096E+03 -0.85223731810E+03  0.93069578292E+03  0.25000000000E+03 0.  0.
    5000001    1    1    2    0    0 -0.15124317250E+03 -0.23347740096E+03 -0.10307154787E+04  0.10964764439E+04  0.25000000000E+03 0.  0.
<mgrwt>
<rscale>  0 0.75094341E+03</rscale>
<asrwt>0</asrwt>
<pdfrwt beam="1">  1        2 0.30077881E+00 0.75094341E+03</pdfrwt>
<pdfrwt beam="2">  1       -2 0.11093804E-01 0.75094341E+03</pdfrwt>
<totfact> 0.41910329E+02</totfact>
</mgrwt>
</event>
<event>
 4    1  0.1751735E-005  0.1149023E+04  0.7818608E-02  0.9158685E-01
          2   -1    0    0  501    0  0.00000000000E+00  0.00000000000E+00  0.46327617911E+03  0.46327617912E+03  0.25500000000E-02 0.  1.
         -2   -1    0    0    0  501 -0.00000000000E+00 -0.00000000000E+00 -0.71245501647E+03  0.71245501648E+03  0.25500000000E-02 0. -1.
   -5000001    1    1    2    0    0  0.15040680042E+02 -0.23695328408E+03  0.34564712704E+03  0.48820591693E+03  0.25000000000E+03 0.  0.
    5000001    1    1    2    0    0 -0.15040680042E+02  0.23695328408E+03 -0.59482596440E+03  0.68752527867E+03  0.25000000000E+03 0.  0.
<mgrwt>
<rscale>  0 0.11490230E+04</rscale>
<asrwt>0</asrwt>
<pdfrwt beam="1">  1        2 0.71273258E-01 0.11490230E+04</pdfrwt>
<pdfrwt beam="2">  1       -2 0.10960846E+00 0.11490230E+04</pdfrwt>
<totfact> 0.44127704E+01</totfact>
</mgrwt>
</event>
<event>
 4    1  0.1751735E-005  0.8006229E+03  0.7818608E-02  0.9559116E-01
          2   -1    0    0  501    0  0.00000000000E+00  0.00000000000E+00  0.22974523036E+03  0.22974523038E+03  0.25500000000E-02 0.  1.
         -2   -1    0    0    0  501 -0.00000000000E+00 -0.00000000000E+00 -0.69750848102E+03  0.69750848102E+03  0.25500000000E-02 0. -1.
   -5000001    1    1    2    0    0 -0.30446274713E+03  0.69749890968E+02 -0.24970383399E+03  0.47160854147E+03  0.25000000000E+03 0.  0.
    5000001    1    1    2    0    0  0.30446274713E+03 -0.69749890968E+02 -0.21805941667E+03  0.45564516993E+03  0.25000000000E+03 0.  0.
<mgrwt>
<rscale>  0 0.80062287E+03</rscale>
<asrwt>0</asrwt>
<pdfrwt beam="1">  1        2 0.35345420E-01 0.80062287E+03</pdfrwt>
<pdfrwt beam="2">  1       -2 0.10730900E+00 0.80062287E+03</pdfrwt>
<totfact> 0.10393947E+02</totfact>
</mgrwt>
</event>
<event>
 4    1  0.1751735E-005  0.5805581E+03  0.7818608E-02  0.9946583E-01
          2   -1    0    0  501    0  0.00000000000E+00  0.00000000000E+00  0.14379856909E+04  0.14379856909E+04  0.25500000000E-02 0.  1.
         -2   -1    0    0    0  501 -0.00000000000E+00 -0.00000000000E+00 -0.58597192271E+02  0.58597192327E+02  0.25500000000E-02 0. -1.
   -5000001    1    1    2    0    0 -0.11491017319E+03 -0.92352034741E+02  0.70349899009E+03  0.76101516101E+03  0.25000000000E+03 0.  0.
    5000001    1    1    2    0    0  0.11491017319E+03  0.92352034741E+02  0.67588950852E+03  0.73556772221E+03  0.25000000000E+03 0.  0.
<mgrwt>
<rscale>  0 0.58055809E+03</rscale>
<asrwt>0</asrwt>
<pdfrwt beam="1">  1        2 0.22122856E+00 0.58055809E+03</pdfrwt>
<pdfrwt beam="2">  1       -2 0.90149531E-02 0.58055809E+03</pdfrwt>
<totfact> 0.11374389E+03</totfact>
</mgrwt>
</event>
<event>
 4    1  0.1751735E-005  0.5746034E+03  0.7818608E-02  0.9959543E-01
          2   -1    0    0  501    0  0.00000000000E+00  0.00000000000E+00  0.50932043945E+03  0.50932043945E+03  0.25500000000E-02 0.  1.
         -2   -1    0    0    0  501 -0.00000000000E+00 -0.00000000000E+00 -0.16206353185E+03  0.16206353187E+03  0.25500000000E-02 0. -1.
   -5000001    1    1    2    0    0 -0.14027008071E+03  0.18806999656E+02  0.16943665613E+03  0.33352388103E+03  0.25000000000E+03 0.  0.
    5000001    1    1    2    0    0  0.14027008071E+03 -0.18806999656E+02  0.17782025147E+03  0.33786009029E+03  0.25000000000E+03 0.  0.
<mgrwt>
<rscale>  0 0.57460341E+03</rscale>
<asrwt>0</asrwt>
<pdfrwt beam="1">  1        2 0.78356993E-01 0.57460341E+03</pdfrwt>
<pdfrwt beam="2">  1       -2 0.24932850E-01 0.57460341E+03</pdfrwt>
<totfact> 0.87156094E+02</totfact>
</mgrwt>
</event>
<event>
 4    1  0.1751735E-005  0.7167598E+03  0.7818608E-02  0.9688992E-01
         -2   -1    0    0    0  501 -0.00000000000E+00  0.00000000000E+00  0.24690371112E+03  0.24690371113E+03  0.25500000000E-02 0. -1.
          2   -1    0    0  501    0  0.00000000000E+00 -0.00000000000E+00 -0.52018722953E+03  0.52018722953E+03  0.25500000000E-02 0.  1.
   -5000001    1    1    2    0    0  0.12821636677E+03 -0.19496598007E+03 -0.21948348711E+02  0.34268484078E+03  0.25000000000E+03 0.  0.
    5000001    1    1    2    0    0 -0.12821636677E+03  0.19496598007E+03 -0.25133516969E+03  0.42440609988E+03  0.25000000000E+03 0.  0.
<mgrwt>
<rscale>  0 0.71675981E+03</rscale>
<asrwt>0</asrwt>
<pdfrwt beam="1">  1        2 0.80028804E-01 0.71675981E+03</pdfrwt>
<pdfrwt beam="2">  1       -2 0.37985186E-01 0.71675981E+03</pdfrwt>
<totfact> 0.38748812E+02</totfact>
</mgrwt>
</event>
<event>
 4    1  0.1751735E-005  0.5469068E+03  0.7818608E-02  0.1002212E+00
         -2   -1    0    0    0  501 -0.00000000000E+00  0.00000000000E+00  0.40834477992E+03  0.40834477993E+03  0.25500000000E-02 0. -1.
          2   -1    0    0  501    0  0.00000000000E+00 -0.00000000000E+00 -0.18312160536E+03  0.18312160538E+03  0.25500000000E-02 0.  1.
   -5000001    1    1    2    0    0  0.75992325830E+02 -0.75499474940E+01  0.19943271386E+03  0.32879361711E+03  0.25000000000E+03 0.  0.
    5000001    1    1    2    0    0 -0.75992325830E+02  0.75499474940E+01  0.25790460701E+02  0.26267276820E+03  0.25000000000E+03 0.  0.
<mgrwt>
<rscale>  0 0.54690676E+03</rscale>
<asrwt>0</asrwt>
<pdfrwt beam="1">  1        2 0.28172555E-01 0.54690676E+03</pdfrwt>
<pdfrwt beam="2">  1       -2 0.62822274E-01 0.54690676E+03</pdfrwt>
<totfact> 0.45300948E+02</totfact>
</mgrwt>
</event>
<event>
 4    1  0.1751735E-005  0.6272889E+03  0.7818608E-02  0.9850354E-01
          2   -1    0    0  501    0  0.00000000000E+00  0.00000000000E+00  0.68773436497E+03  0.68773436498E+03  0.25500000000E-02 0.  1.
         -2   -1    0    0    0  501 -0.00000000000E+00 -0.00000000000E+00 -0.14303902903E+03  0.14303902906E+03  0.25500000000E-02 0. -1.
   -5000001    1    1    2    0    0 -0.18636130853E+03 -0.17539139554E+02  0.23408463515E+03  0.39029959665E+03  0.25000000000E+03 0.  0.
    5000001    1    1    2    0    0  0.18636130853E+03  0.17539139554E+02  0.31061070079E+03  0.44047379738E+03  0.25000000000E+03 0.  0.
<mgrwt>
<rscale>  0 0.62728895E+03</rscale>
<asrwt>0</asrwt>
<pdfrwt beam="1">  1        2 0.10580529E+00 0.62728895E+03</pdfrwt>
<pdfrwt beam="2">  1       -2 0.22006004E-01 0.62728895E+03</pdfrwt>
<totfact> 0.75915952E+02</totfact>
</mgrwt>
</event>
<event>
 4    1  0.1751735E-005  0.6592312E+03  0.7818608E-02  0.9789610E-01
         -2   -1    0    0    0  501 -0.00000000000E+00  0.00000000000E+00  0.40105725128E+03  0.40105725129E+03  0.25500000000E-02 0.  1.
          2   -1    0    0  501    0  0.00000000000E+00 -0.00000000000E+00 -0.27090007329E+03  0.27090007331E+03  0.25500000000E-02 0. -1.
   -5000001    1    1    2    0    0 -0.12386275463E+03  0.17503415670E+03  0.78270641162E+02  0.33853394404E+03  0.25000000000E+03 0.  0.
    5000001    1    1    2    0    0  0.12386275463E+03 -0.17503415670E+03  0.51886536824E+02  0.33342338056E+03  0.25000000000E+03 0.  0.
<mgrwt>
<rscale>  0 0.65923118E+03</rscale>
<asrwt>0</asrwt>
<pdfrwt beam="1">  1        2 0.41676934E-01 0.65923118E+03</pdfrwt>
<pdfrwt beam="2">  1       -2 0.61701116E-01 0.65923118E+03</pdfrwt>
<totfact> 0.30328109E+02</totfact>
</mgrwt>
</event>
<event>
 4    1  0.1751735E-005  0.6962541E+03  0.7818608E-02  0.9723660E-01
         -2   -1    0    0    0  501 -0.00000000000E+00  0.00000000000E+00  0.29587819057E+03  0.29587819058E+03  0.25500000000E-02 0. -1.
          2   -1    0    0  501    0  0.00000000000E+00 -0.00000000000E+00 -0.40960253176E+03  0.40960253177E+03  0.25500000000E-02 0.  1.
   -5000001    1    1    2    0    0  0.23099273945E+03 -0.72569510303E+02 -0.65246879423E+02  0.35409198632E+03  0.25000000000E+03 0.  0.
    5000001    1    1    2    0    0 -0.23099273945E+03  0.72569510303E+02 -0.48477461767E+02  0.35138873602E+03  0.25000000000E+03 0.  0.
<mgrwt>
<rscale>  0 0.69625414E+03</rscale>
<asrwt>0</asrwt>
<pdfrwt beam="1">  1        2 0.63015774E-01 0.69625414E+03</pdfrwt>
<pdfrwt beam="2">  1       -2 0.45519721E-01 0.69625414E+03</pdfrwt>
<totfact> 0.35739699E+02</totfact>
</mgrwt>
</event>
<event>
 4    1  0.1751735E-005  0.8342369E+03  0.7818608E-02  0.9511741E-01
         -2   -1    0    0    0  501 -0.00000000000E+00  0.00000000000E+00  0.18166982431E+03  0.18166982433E+03  0.25500000000E-02 0. -1.
          2   -1    0    0  501    0  0.00000000000E+00 -0.00000000000E+00 -0.95771438088E+03  0.95771438088E+03  0.25500000000E-02 0.  1.
   -5000001    1    1    2    0    0  0.11399478105E+02  0.33369405174E+03 -0.39140518700E+03  0.57199623135E+03  0.25000000000E+03 0.  0.
    5000001    1    1    2    0    0 -0.11399478105E+02 -0.33369405174E+03 -0.38463936957E+03  0.56738797387E+03  0.25000000000E+03 0.  0.
<mgrwt>
<rscale>  0 0.83423690E+03</rscale>
<asrwt>0</asrwt>
<pdfrwt beam="1">  1        2 0.14734067E+00 0.83423690E+03</pdfrwt>
<pdfrwt beam="2">  1       -2 0.27949204E-01 0.83423690E+03</pdfrwt>
<totfact> 0.31483870E+02</totfact>
</mgrwt>
</event>
<event>
 4    1  0.1751735E-005  0.5866546E+03  0.7818608E-02  0.9933487E-01
          2   -1    0    0  501    0  0.00000000000E+00  0.00000000000E+00  0.89388416793E+03  0.89388416793E+03  0.25500000000E-02 0.  1.
         -2   -1    0    0    0  501 -0.00000000000E+00 -0.00000000000E+00 -0.96255100753E+02  0.96255100786E+02  0.25500000000E-02 0. -1.
   -5000001    1    1    2    0    0 -0.13394266050E+03  0.60483157882E+02  0.47319267681E+03  0.55498662874E+03  0.25000000000E+03 0.  0.
    5000001    1    1    2    0    0  0.13394266050E+03 -0.60483157882E+02  0.32443639036E+03  0.43515263998E+03  0.25000000000E+03 0.  0.
<mgrwt>
<rscale>  0 0.58665462E+03</rscale>
<asrwt>0</asrwt>
<pdfrwt beam="1">  1        2 0.13752064E+00 0.58665462E+03</pdfrwt>
<pdfrwt beam="2">  1       -2 0.14808477E-01 0.58665462E+03</pdfrwt>
<totfact> 0.10666777E+03</totfact>
</mgrwt>
</event>
<event>
 4    1  0.1751735E-005  0.7035167E+03  0.7818608E-02  0.9711237E-01
         -2   -1    0    0    0  501 -0.00000000000E+00  0.00000000000E+00  0.94338110766E+02  0.94338110800E+02  0.25500000000E-02 0. -1.
          2   -1    0    0  501    0  0.00000000000E+00 -0.00000000000E+00 -0.13116006026E+04  0.13116006026E+04  0.25500000000E-02 0.  1.
   -5000001    1    1    2    0    0  0.16846538195E+01 -0.18569833078E+03 -0.28179419295E+03  0.41999366102E+03  0.25000000000E+03 0.  0.
    5000001    1    1    2    0    0 -0.16846538195E+01  0.18569833078E+03 -0.93546829888E+03  0.98594505238E+03  0.25000000000E+03 0.  0.
<mgrwt>
<rscale>  0 0.70351666E+03</rscale>
<asrwt>0</asrwt>
<pdfrwt beam="1">  1        2 0.20178470E+00 0.70351666E+03</pdfrwt>
<pdfrwt beam="2">  1       -2 0.14513556E-01 0.70351666E+03</pdfrwt>
<totfact> 0.60963165E+02</totfact>
</mgrwt>
</event>
<event>
 4    1  0.1751735E-005  0.5932546E+03  0.7818608E-02  0.9919500E-01
          2   -1    0    0  501    0  0.00000000000E+00  0.00000000000E+00  0.40540481333E+04  0.40540481333E+04  0.25500000000E-02 0.  1.
         -2   -1    0    0    0  501 -0.00000000000E+00 -0.00000000000E+00 -0.21703677614E+02  0.21703677764E+02  0.25500000000E-02 0. -1.
   -5000001    1    1    2    0    0  0.11925945410E+03  0.10145414760E+03  0.22303616851E+04  0.22497842136E+04  0.25000000000E+03 0.  0.
    5000001    1    1    2    0    0 -0.11925945410E+03 -0.10145414760E+03  0.18019827706E+04  0.18259675975E+04  0.25000000000E+03 0.  0.
<mgrwt>
<rscale>  0 0.59325460E+03</rscale>
<asrwt>0</asrwt>
<pdfrwt beam="1">  1        2 0.62369985E+00 0.59325460E+03</pdfrwt>
<pdfrwt beam="2">  1       -2 0.33390266E-02 0.59325460E+03</pdfrwt>
<totfact> 0.13478244E+02</totfact>
</mgrwt>
</event>
<event>
 4    1  0.1751735E-005  0.8921370E+03  0.7818608E-02  0.9435464E-01
         -2   -1    0    0    0  501 -0.00000000000E+00  0.00000000000E+00  0.58479907470E+02  0.58479907526E+02  0.25500000000E-02 0. -1.
          2   -1    0    0  501    0  0.00000000000E+00 -0.00000000000E+00 -0.34024867014E+04  0.34024867014E+04  0.25500000000E-02 0.  1.
   -5000001    1    1    2    0    0  0.72214445849E+01  0.36680760902E+03 -0.18400825138E+04  0.18928823600E+04  0.25000000000E+03 0.  0.
    5000001    1    1    2    0    0 -0.72214445849E+01 -0.36680760902E+03 -0.15039242802E+04  0.15680842490E+04  0.25000000000E+03 0.  0.
<mgrwt>
<rscale>  0 0.89213700E+03</rscale>
<asrwt>0</asrwt>
<pdfrwt beam="1">  1        2 0.52345934E+00 0.89213700E+03</pdfrwt>
<pdfrwt beam="2">  1       -2 0.89969115E-02 0.89213700E+03</pdfrwt>
<totfact> 0.81402457E+01</totfact>
</mgrwt>
</event>
<event>
 4    1  0.1751735E-005  0.6127975E+03  0.7818608E-02  0.9879205E-01
         -2   -1    0    0    0  501 -0.00000000000E+00  0.00000000000E+00  0.83514704786E+02  0.83514704825E+02  0.25500000000E-02 0. -1.
          2   -1    0    0  501    0  0.00000000000E+00 -0.00000000000E+00 -0.11241156776E+04  0.11241156776E+04  0.25500000000E-02 0.  1.
   -5000001    1    1    2    0    0 -0.72680720290E+02  0.14438815295E+03 -0.66308690926E+03  0.72685258137E+03  0.25000000000E+03 0.  0.
    5000001    1    1    2    0    0  0.72680720290E+02 -0.14438815295E+03 -0.37751406359E+03  0.48077780109E+03  0.25000000000E+03 0.  0.
<mgrwt>
<rscale>  0 0.61279748E+03</rscale>
<asrwt>0</asrwt>
<pdfrwt beam="1">  1        2 0.17294086E+00 0.61279748E+03</pdfrwt>
<pdfrwt beam="2">  1       -2 0.12848417E-01 0.61279748E+03</pdfrwt>
<totfact> 0.96634051E+02</totfact>
</mgrwt>
</event>
<event>
 4    1  0.1751735E-005  0.1618897E+04  0.7818608E-02  0.8809022E-01
         -2   -1    0    0    0  501 -0.00000000000E+00  0.00000000000E+00  0.79160144672E+03  0.79160144672E+03  0.25500000000E-02 0. -1.
          2   -1    0    0  501    0  0.00000000000E+00 -0.00000000000E+00 -0.82769766533E+03  0.82769766533E+03  0.25500000000E-02 0.  1.
   -5000001    1    1    2    0    0 -0.42889964821E+03 -0.62789156613E+03 -0.13851035594E+03  0.81233481137E+03  0.25000000000E+03 0.  0.
    5000001    1    1    2    0    0  0.42889964821E+03  0.62789156613E+03  0.10241413733E+03  0.80696430069E+03  0.25000000000E+03 0.  0.
<mgrwt>
<rscale>  0 0.16188967E+04</rscale>
<asrwt>0</asrwt>
<pdfrwt beam="1">  1        2 0.12733810E+00 0.16188967E+04</pdfrwt>
<pdfrwt beam="2">  1       -2 0.12178484E+00 0.16188967E+04</pdfrwt>
<totfact> 0.16126539E+01</totfact>
</mgrwt>
</event>
<event>
 4    1  0.1751735E-005  0.9985744E+03  0.7818608E-02  0.9310110E-01
          2   -1    0    0  501    0  0.00000000000E+00  0.00000000000E+00  0.40965792274E+04  0.40965792274E+04  0.25500000000E-02 0.  1.
         -2   -1    0    0    0  501 -0.00000000000E+00 -0.00000000000E+00 -0.60852654723E+02  0.60852654777E+02  0.25500000000E-02 0. -1.
   -5000001    1    1    2    0    0 -0.19778051020E+03 -0.37447176982E+03  0.23770121538E+04  0.24273510285E+04  0.25000000000E+03 0.  0.
    5000001    1    1    2    0    0  0.19778051020E+03  0.37447176982E+03  0.16587144189E+04  0.17300808536E+04  0.25000000000E+03 0.  0.
<mgrwt>
<rscale>  0 0.99857443E+03</rscale>
<asrwt>0</asrwt>
<pdfrwt beam="1">  1        2 0.63024319E+00 0.99857443E+03</pdfrwt>
<pdfrwt beam="2">  1       -2 0.93619434E-02 0.99857443E+03</pdfrwt>
<totfact> 0.23158079E+01</totfact>
</mgrwt>
</event>
<event>
 4    1  0.1751735E-005  0.6002631E+03  0.7818608E-02  0.9904860E-01
         -2   -1    0    0    0  501 -0.00000000000E+00  0.00000000000E+00  0.43716641259E+02  0.43716641334E+02  0.25500000000E-02 0. -1.
          2   -1    0    0  501    0  0.00000000000E+00 -0.00000000000E+00 -0.20605181440E+04  0.20605181440E+04  0.25500000000E-02 0.  1.
   -5000001    1    1    2    0    0 -0.52577413890E+02 -0.11979224003E+03 -0.64980175210E+03  0.70841857842E+03  0.25000000000E+03 0.  0.
    5000001    1    1    2    0    0  0.52577413890E+02  0.11979224003E+03 -0.13669997506E+04  0.13958162069E+04  0.25000000000E+03 0.  0.
<mgrwt>
<rscale>  0 0.60026305E+03</rscale>
<asrwt>0</asrwt>
<pdfrwt beam="1">  1        2 0.31700272E+00 0.60026305E+03</pdfrwt>
<pdfrwt beam="2">  1       -2 0.67256387E-02 0.60026305E+03</pdfrwt>
<totfact> 0.82989904E+02</totfact>
</mgrwt>
</event>
<event>
 4    1  0.1751735E-005  0.5634443E+03  0.7818608E-02  0.9984291E-01
         -2   -1    0    0    0  501 -0.00000000000E+00  0.00000000000E+00  0.26698349639E+03  0.26698349640E+03  0.25500000000E-02 0. -1.
          2   -1    0    0  501    0  0.00000000000E+00 -0.00000000000E+00 -0.29727440786E+03  0.29727440787E+03  0.25500000000E-02 0.  1.
   -5000001    1    1    2    0    0 -0.90762718074E+02 -0.90260404184E+02  0.68532691617E+01  0.28094800027E+03  0.25000000000E+03 0.  0.
    5000001    1    1    2    0    0  0.90762718074E+02  0.90260404184E+02 -0.37144180634E+02  0.28330990401E+03  0.25000000000E+03 0.  0.
<mgrwt>
<rscale>  0 0.56344427E+03</rscale>
<asrwt>0</asrwt>
<pdfrwt beam="1">  1        2 0.45734524E-01 0.56344427E+03</pdfrwt>
<pdfrwt beam="2">  1       -2 0.41074384E-01 0.56344427E+03</pdfrwt>
<totfact> 0.62685217E+02</totfact>
</mgrwt>
</event>
<event>
 4    1  0.1751735E-005  0.6407231E+03  0.7818608E-02  0.9824344E-01
          2   -1    0    0  501    0  0.00000000000E+00  0.00000000000E+00  0.12924829662E+04  0.12924829662E+04  0.25500000000E-02 0.  1.
         -2   -1    0    0    0  501 -0.00000000000E+00 -0.00000000000E+00 -0.79406487921E+02  0.79406487962E+02  0.25500000000E-02 0. -1.
   -5000001    1    1    2    0    0  0.13890616411E+03  0.14133160856E+03  0.54367466223E+03  0.63035837772E+03  0.25000000000E+03 0.  0.
    5000001    1    1    2    0    0 -0.13890616411E+03 -0.14133160856E+03  0.66940181604E+03  0.74153107644E+03  0.25000000000E+03 0.  0.
<mgrwt>
<rscale>  0 0.64072313E+03</rscale>
<asrwt>0</asrwt>
<pdfrwt beam="1">  1        2 0.19884354E+00 0.64072313E+03</pdfrwt>
<pdfrwt beam="2">  1       -2 0.12216382E-01 0.64072313E+03</pdfrwt>
<totfact> 0.83571660E+02</totfact>
</mgrwt>
</event>
<event>
 4    1  0.1751735E-005  0.6597313E+03  0.7818608E-02  0.9788688E-01
         -2   -1    0    0    0  501 -0.00000000000E+00  0.00000000000E+00  0.32834074397E+03  0.32834074398E+03  0.25500000000E-02 0. -1.
          2   -1    0    0  501    0  0.00000000000E+00 -0.00000000000E+00 -0.33139764760E+03  0.33139764761E+03  0.25500000000E-02 0.  1.
   -5000001    1    1    2    0    0 -0.13983028597E+03 -0.14743500083E+03 -0.72393602926E+02  0.33019755009E+03  0.25000000000E+03 0.  0.
    5000001    1    1    2    0    0  0.13983028597E+03  0.14743500083E+03  0.69336699292E+02  0.32954084149E+03  0.25000000000E+03 0.  0.
<mgrwt>
<rscale>  0 0.65973131E+03</rscale>
<asrwt>0</asrwt>
<pdfrwt beam="1">  1        2 0.50984253E-01 0.65973131E+03</pdfrwt>
<pdfrwt beam="2">  1       -2 0.50513961E-01 0.65973131E+03</pdfrwt>
<totfact> 0.36749078E+02</totfact>
</mgrwt>
</event>
<event>
 4    1  0.1751735E-005  0.6965721E+03  0.7818608E-02  0.9723112E-01
          2   -1    0    0  501    0  0.00000000000E+00  0.00000000000E+00  0.20930772590E+03  0.20930772591E+03  0.25500000000E-02 0.  1.
         -2   -1    0    0    0  501 -0.00000000000E+00 -0.00000000000E+00 -0.57954464433E+03  0.57954464434E+03  0.25500000000E-02 0. -1.
   -5000001    1    1    2    0    0  0.16243886654E+03 -0.17958498177E+03 -0.17052660242E+03  0.38757769953E+03  0.25000000000E+03 0.  0.
    5000001    1    1    2    0    0 -0.16243886654E+03  0.17958498177E+03 -0.19971031602E+03  0.40127467072E+03  0.25000000000E+03 0.  0.
<mgrwt>
<rscale>  0 0.69657210E+03</rscale>
<asrwt>0</asrwt>
<pdfrwt beam="1">  1        2 0.32201189E-01 0.69657210E+03</pdfrwt>
<pdfrwt beam="2">  1       -2 0.89160714E-01 0.69657210E+03</pdfrwt>
<totfact> 0.17921521E+02</totfact>
</mgrwt>
</event>
<event>
 4    1  0.1751735E-005  0.7520690E+03  0.7818608E-02  0.9632110E-01
         -2   -1    0    0    0  501 -0.00000000000E+00  0.00000000000E+00  0.14505097465E+03  0.14505097467E+03  0.25500000000E-02 0.  1.
          2   -1    0    0  501    0  0.00000000000E+00 -0.00000000000E+00 -0.97484299413E+03  0.97484299413E+03  0.25500000000E-02 0. -1.
   -5000001    1    1    2    0    0 -0.18750969695E+03  0.20359775225E+03 -0.48615448737E+03  0.61274637230E+03  0.25000000000E+03 0.  0.
    5000001    1    1    2    0    0  0.18750969695E+03 -0.20359775225E+03 -0.34363753210E+03  0.50714759651E+03  0.25000000000E+03 0.  0.
<mgrwt>
<rscale>  0 0.75206895E+03</rscale>
<asrwt>0</asrwt>
<pdfrwt beam="1">  1        2 0.14997584E+00 0.75206895E+03</pdfrwt>
<pdfrwt beam="2">  1       -2 0.22315535E-01 0.75206895E+03</pdfrwt>
<totfact> 0.46240339E+02</totfact>
</mgrwt>
</event>
<event>
 4    1  0.1751735E-005  0.6229127E+03  0.7818608E-02  0.9858978E-01
          2   -1    0    0  501    0  0.00000000000E+00  0.00000000000E+00  0.85739037396E+03  0.85739037396E+03  0.25500000000E-02 0.  1.
         -2   -1    0    0    0  501 -0.00000000000E+00 -0.00000000000E+00 -0.11313990329E+03  0.11313990332E+03  0.25500000000E-02 0. -1.
   -5000001    1    1    2    0    0  0.16516759755E+03 -0.81028345422E+02  0.41212610131E+03  0.51593977500E+03  0.25000000000E+03 0.  0.
    5000001    1    1    2    0    0 -0.16516759755E+03  0.81028345422E+02  0.33212436936E+03  0.45459050228E+03  0.25000000000E+03 0.  0.
<mgrwt>
<rscale>  0 0.62291272E+03</rscale>
<asrwt>0</asrwt>
<pdfrwt beam="1">  1        2 0.13190621E+00 0.62291272E+03</pdfrwt>
<pdfrwt beam="2">  1       -2 0.17406140E-01 0.62291272E+03</pdfrwt>
<totfact> 0.85752067E+02</totfact>
</mgrwt>
</event>
<event>
 4    1  0.1751735E-005  0.7959698E+03  0.7818608E-02  0.9565869E-01
         -2   -1    0    0    0  501 -0.00000000000E+00  0.00000000000E+00  0.76144027092E+02  0.76144027135E+02  0.25500000000E-02 0. -1.
          2   -1    0    0  501    0  0.00000000000E+00 -0.00000000000E+00 -0.20801628926E+04  0.20801628926E+04  0.25500000000E-02 0.  1.
   -5000001    1    1    2    0    0 -0.13159846185E+03 -0.27741698993E+03 -0.89318733958E+03  0.97701687040E+03  0.25000000000E+03 0.  0.
    5000001    1    1    2    0    0  0.13159846185E+03  0.27741698993E+03 -0.11108315259E+04  0.11792900493E+04  0.25000000000E+03 0.  0.
<mgrwt>
<rscale>  0 0.79596980E+03</rscale>
<asrwt>0</asrwt>
<pdfrwt beam="1">  1        2 0.32002502E+00 0.79596980E+03</pdfrwt>
<pdfrwt beam="2">  1       -2 0.11714467E-01 0.79596980E+03</pdfrwt>
<totfact> 0.32625078E+02</totfact>
</mgrwt>
</event>
<event>
 4    1  0.1751735E-005  0.1600900E+04  0.7818608E-02  0.8819995E-01
         -2   -1    0    0    0  501 -0.00000000000E+00  0.00000000000E+00  0.20419336719E+03  0.20419336720E+03  0.25500000000E-02 0. -1.
          2   -1    0    0  501    0  0.00000000000E+00 -0.00000000000E+00 -0.31378124599E+04  0.31378124599E+04  0.25500000000E-02 0.  1.
   -5000001    1    1    2    0    0 -0.13493325990E+03 -0.66690906212E+03 -0.21754981885E+04  0.22930911561E+04  0.25000000000E+03 0.  0.
    5000001    1    1    2    0    0  0.13493325990E+03  0.66690906212E+03 -0.75812090423E+03  0.10489146711E+04  0.25000000000E+03 0.  0.
<mgrwt>
<rscale>  0 0.16009004E+04</rscale>
<asrwt>0</asrwt>
<pdfrwt beam="1">  1        2 0.48274034E+00 0.16009004E+04</pdfrwt>
<pdfrwt beam="2">  1       -2 0.31414366E-01 0.16009004E+04</pdfrwt>
<totfact> 0.12929131E+01</totfact>
</mgrwt>
</event>
<event>
 4    1  0.1751735E-005  0.8130612E+03  0.7818608E-02  0.9541302E-01
         -2   -1    0    0    0  501 -0.00000000000E+00  0.00000000000E+00  0.64348107605E+02  0.64348107656E+02  0.25500000000E-02 0. -1.
          2   -1    0    0  501    0  0.00000000000E+00 -0.00000000000E+00 -0.25683290399E+04  0.25683290399E+04  0.25500000000E-02 0.  1.
   -5000001    1    1    2    0    0  0.59422267675E+02 -0.23625820052E+03 -0.19266895895E+04  0.19580555961E+04  0.25000000000E+03 0.  0.
    5000001    1    1    2    0    0 -0.59422267675E+02  0.23625820052E+03 -0.57729134285E+03  0.67462155149E+03  0.25000000000E+03 0.  0.
<mgrwt>
<rscale>  0 0.81306116E+03</rscale>
<asrwt>0</asrwt>
<pdfrwt beam="1">  1        2 0.39512747E+00 0.81306116E+03</pdfrwt>
<pdfrwt beam="2">  1       -2 0.98997109E-02 0.81306116E+03</pdfrwt>
<totfact> 0.22910961E+02</totfact>
</mgrwt>
</event>
<event>
 4    1  0.1751735E-005  0.6258796E+03  0.7818608E-02  0.9853123E-01
          2   -1    0    0  501    0  0.00000000000E+00  0.00000000000E+00  0.19946138275E+04  0.19946138275E+04  0.25500000000E-02 0.  1.
         -2   -1    0    0    0  501 -0.00000000000E+00 -0.00000000000E+00 -0.49097884733E+02  0.49097884799E+02  0.25500000000E-02 0. -1.
   -5000001    1    1    2    0    0  0.13430034462E+03  0.10574169766E+03  0.71536625692E+03  0.77683123697E+03  0.25000000000E+03 0.  0.
    5000001    1    1    2    0    0 -0.13430034462E+03 -0.10574169766E+03  0.12301496858E+04  0.12668804753E+04  0.25000000000E+03 0.  0.
<mgrwt>
<rscale>  0 0.62587960E+03</rscale>
<asrwt>0</asrwt>
<pdfrwt beam="1">  1        2 0.30686375E+00 0.62587960E+03</pdfrwt>
<pdfrwt beam="2">  1       -2 0.75535186E-02 0.62587960E+03</pdfrwt>
<totfact> 0.74853107E+02</totfact>
</mgrwt>
</event>
<event>
 4    1  0.1751735E-005  0.6863696E+03  0.7818608E-02  0.9740830E-01
         -2   -1    0    0    0  501 -0.00000000000E+00  0.00000000000E+00  0.17839368647E+03  0.17839368649E+03  0.25500000000E-02 0. -1.
          2   -1    0    0  501    0  0.00000000000E+00 -0.00000000000E+00 -0.66020165022E+03  0.66020165022E+03  0.25500000000E-02 0.  1.
   -5000001    1    1    2    0    0 -0.19109055613E+03  0.62982950248E+02 -0.92300932041E+02  0.33391902420E+03  0.25000000000E+03 0.  0.
    5000001    1    1    2    0    0  0.19109055613E+03 -0.62982950248E+02 -0.38950703170E+03  0.50467631251E+03  0.25000000000E+03 0.  0.
<mgrwt>
<rscale>  0 0.68636960E+03</rscale>
<asrwt>0</asrwt>
<pdfrwt beam="1">  1        2 0.10156948E+00 0.68636960E+03</pdfrwt>
<pdfrwt beam="2">  1       -2 0.27445183E-01 0.68636960E+03</pdfrwt>
<totfact> 0.53635253E+02</totfact>
</mgrwt>
</event>
<event>
 4    1  0.1751735E-005  0.6011855E+03  0.7818608E-02  0.9902950E-01
         -2   -1    0    0    0  501 -0.00000000000E+00  0.00000000000E+00  0.88281697550E+02  0.88281697587E+02  0.25500000000E-02 0. -1.
          2   -1    0    0  501    0  0.00000000000E+00 -0.00000000000E+00 -0.10234962748E+04  0.10234962748E+04  0.25500000000E-02 0.  1.
   -5000001    1    1    2    0    0  0.13363124968E+03 -0.97638756488E+02 -0.42771399477E+03  0.52233121578E+03  0.25000000000E+03 0.  0.
    5000001    1    1    2    0    0 -0.13363124968E+03  0.97638756488E+02 -0.50750058250E+03  0.58944675663E+03  0.25000000000E+03 0.  0.
<mgrwt>
<rscale>  0 0.60118546E+03</rscale>
<asrwt>0</asrwt>
<pdfrwt beam="1">  1        2 0.15746096E+00 0.60118546E+03</pdfrwt>
<pdfrwt beam="2">  1       -2 0.13581800E-01 0.60118546E+03</pdfrwt>
<totfact> 0.10161194E+03</totfact>
</mgrwt>
</event>
<event>
 4    1  0.1751735E-005  0.5765286E+03  0.7818608E-02  0.9955335E-01
         -2   -1    0    0    0  501 -0.00000000000E+00  0.00000000000E+00  0.25109702484E+03  0.25109702485E+03  0.25500000000E-02 0. -1.
          2   -1    0    0  501    0  0.00000000000E+00 -0.00000000000E+00 -0.33093303261E+03  0.33093303262E+03  0.25500000000E-02 0.  1.
   -5000001    1    1    2    0    0 -0.55397238494E+01  0.93694021160E+02  0.69686142968E+02  0.27598082662E+03  0.25000000000E+03 0.  0.
    5000001    1    1    2    0    0  0.55397238494E+01 -0.93694021160E+02 -0.14952215074E+03  0.30604923085E+03  0.25000000000E+03 0.  0.
<mgrwt>
<rscale>  0 0.57652858E+03</rscale>
<asrwt>0</asrwt>
<pdfrwt beam="1">  1        2 0.50912774E-01 0.57652858E+03</pdfrwt>
<pdfrwt beam="2">  1       -2 0.38630312E-01 0.57652858E+03</pdfrwt>
<totfact> 0.62708766E+02</totfact>
</mgrwt>
</event>
<event>
 4    1  0.1751735E-005  0.7814077E+03  0.7818608E-02  0.9587326E-01
         -2   -1    0    0    0  501 -0.00000000000E+00  0.00000000000E+00  0.50515269387E+03  0.50515269388E+03  0.25500000000E-02 0. -1.
          2   -1    0    0  501    0  0.00000000000E+00 -0.00000000000E+00 -0.30218483649E+03  0.30218483650E+03  0.25500000000E-02 0.  1.
   -5000001    1    1    2    0    0 -0.68218848742E+02 -0.29225070892E+03  0.91947469881E+02  0.40127126162E+03  0.25000000000E+03 0.  0.
    5000001    1    1    2    0    0  0.68218848742E+02  0.29225070892E+03  0.11102038750E+03  0.40606626876E+03  0.25000000000E+03 0.  0.
<mgrwt>
<rscale>  0 0.78140766E+03</rscale>
<asrwt>0</asrwt>
<pdfrwt beam="1">  1        2 0.46489975E-01 0.78140766E+03</pdfrwt>
<pdfrwt beam="2">  1       -2 0.77715798E-01 0.78140766E+03</pdfrwt>
<totfact> 0.16196256E+02</totfact>
</mgrwt>
</event>
<event>
 4    1  0.1751735E-005  0.7280938E+03  0.7818608E-02  0.9670359E-01
          2   -1    0    0  501    0  0.00000000000E+00  0.00000000000E+00  0.16509252716E+04  0.16509252716E+04  0.25500000000E-02 0.  1.
         -2   -1    0    0    0  501 -0.00000000000E+00 -0.00000000000E+00 -0.80276289595E+02  0.80276289636E+02  0.25500000000E-02 0. -1.
   -5000001    1    1    2    0    0  0.17048424835E+03 -0.15050551701E+03  0.11070936160E+04  0.11575288610E+04  0.25000000000E+03 0.  0.
    5000001    1    1    2    0    0 -0.17048424835E+03  0.15050551701E+03  0.46355536602E+03  0.57367270020E+03  0.25000000000E+03 0.  0.
<mgrwt>
<rscale>  0 0.72809383E+03</rscale>
<asrwt>0</asrwt>
<pdfrwt beam="1">  1        2 0.25398851E+00 0.72809383E+03</pdfrwt>
<pdfrwt beam="2">  1       -2 0.12350198E-01 0.72809383E+03</pdfrwt>
<totfact> 0.51527689E+02</totfact>
</mgrwt>
</event>
<event>
 4    1  0.1751735E-005  0.6918338E+03  0.7818608E-02  0.9731300E-01
          2   -1    0    0  501    0  0.00000000000E+00  0.00000000000E+00  0.10960661338E+04  0.10960661338E+04  0.25500000000E-02 0.  1.
         -2   -1    0    0    0  501 -0.00000000000E+00 -0.00000000000E+00 -0.10917086366E+03  0.10917086369E+03  0.25500000000E-02 0. -1.
   -5000001    1    1    2    0    0  0.17713099438E+02 -0.21526168900E+03  0.67201945348E+03  0.74884009942E+03  0.25000000000E+03 0.  0.
    5000001    1    1    2    0    0 -0.17713099438E+02  0.21526168900E+03  0.31487581663E+03  0.45639689805E+03  0.25000000000E+03 0.  0.
<mgrwt>
<rscale>  0 0.69183376E+03</rscale>
<asrwt>0</asrwt>
<pdfrwt beam="1">  1        2 0.16862556E+00 0.69183376E+03</pdfrwt>
<pdfrwt beam="2">  1       -2 0.16795517E-01 0.69183376E+03</pdfrwt>
<totfact> 0.63822926E+02</totfact>
</mgrwt>
</event>
<event>
 4    1  0.1751735E-005  0.5713650E+03  0.7818608E-02  0.9966663E-01
          2   -1    0    0  501    0  0.00000000000E+00  0.00000000000E+00  0.26297697819E+03  0.26297697820E+03  0.25500000000E-02 0.  1.
         -2   -1    0    0    0  501 -0.00000000000E+00 -0.00000000000E+00 -0.31034843065E+03  0.31034843066E+03  0.25500000000E-02 0. -1.
   -5000001    1    1    2    0    0 -0.82524076980E+02  0.89594767167E+02 -0.89309251662E+02  0.29208489865E+03  0.25000000000E+03 0.  0.
    5000001    1    1    2    0    0  0.82524076980E+02 -0.89594767167E+02  0.41937799199E+02  0.28124051022E+03  0.25000000000E+03 0.  0.
<mgrwt>
<rscale>  0 0.57136501E+03</rscale>
<asrwt>0</asrwt>
<pdfrwt beam="1">  1        2 0.40457996E-01 0.57136501E+03</pdfrwt>
<pdfrwt beam="2">  1       -2 0.47745913E-01 0.57136501E+03</pdfrwt>
<totfact> 0.53280026E+02</totfact>
</mgrwt>
</event>
<event>
 4    1  0.1751735E-005  0.6780475E+03  0.7818608E-02  0.9755528E-01
          2   -1    0    0  501    0  0.00000000000E+00  0.00000000000E+00  0.52528201934E+03  0.52528201935E+03  0.25500000000E-02 0.  1.
         -2   -1    0    0    0  501 -0.00000000000E+00 -0.00000000000E+00 -0.21881029722E+03  0.21881029723E+03  0.25500000000E-02 0. -1.
   -5000001    1    1    2    0    0 -0.22197618290E+03  0.26401364819E+02  0.20773894231E+03  0.39449451960E+03  0.25000000000E+03 0.  0.
    5000001    1    1    2    0    0  0.22197618290E+03 -0.26401364819E+02  0.98732779812E+02  0.34959779698E+03  0.25000000000E+03 0.  0.
<mgrwt>
<rscale>  0 0.67804753E+03</rscale>
<asrwt>0</asrwt>
<pdfrwt beam="1">  1        2 0.80812618E-01 0.67804753E+03</pdfrwt>
<pdfrwt beam="2">  1       -2 0.33663123E-01 0.67804753E+03</pdfrwt>
<totfact> 0.48296647E+02</totfact>
</mgrwt>
</event>
<event>
 4    1  0.1751735E-005  0.2468528E+04  0.7818608E-02  0.8414284E-01
          2   -1    0    0  501    0  0.00000000000E+00  0.00000000000E+00  0.19073087049E+04  0.19073087049E+04  0.25500000000E-02 0.  1.
         -2   -1    0    0    0  501 -0.00000000000E+00 -0.00000000000E+00 -0.79872108275E+03  0.79872108275E+03  0.25500000000E-02 0. -1.
   -5000001    1    1    2    0    0 -0.92077770129E+03  0.77377339566E+03  0.68561446357E+03  0.14068134331E+04  0.25000000000E+03 0.  0.
    5000001    1    1    2    0    0  0.92077770129E+03 -0.77377339566E+03  0.42297315861E+03  0.12992163545E+04  0.25000000000E+03 0.  0.
<mgrwt>
<rscale>  0 0.24685280E+04</rscale>
<asrwt>0</asrwt>
<pdfrwt beam="1">  1        2 0.29343211E+00 0.24685280E+04</pdfrwt>
<pdfrwt beam="2">  1       -2 0.12288017E+00 0.24685280E+04</pdfrwt>
<totfact> 0.33668730E+00</totfact>
</mgrwt>
</event>
<event>
 4    1  0.1751735E-005  0.6379156E+03  0.7818608E-02  0.9829723E-01
         -2   -1    0    0    0  501 -0.00000000000E+00  0.00000000000E+00  0.39950625508E+02  0.39950625589E+02  0.25500000000E-02 0. -1.
          2   -1    0    0  501    0  0.00000000000E+00 -0.00000000000E+00 -0.25464954428E+04  0.25464954428E+04  0.25500000000E-02 0.  1.
   -5000001    1    1    2    0    0  0.37497651703E+02  0.16440081276E+03 -0.83190610553E+03  0.88487370259E+03  0.25000000000E+03 0.  0.
    5000001    1    1    2    0    0 -0.37497651703E+02 -0.16440081276E+03 -0.16746387117E+04  0.17015723658E+04  0.25000000000E+03 0.  0.
<mgrwt>
<rscale>  0 0.63791562E+03</rscale>
<asrwt>0</asrwt>
<pdfrwt beam="1">  1        2 0.39176840E+00 0.63791562E+03</pdfrwt>
<pdfrwt beam="2">  1       -2 0.61462521E-02 0.63791562E+03</pdfrwt>
<totfact> 0.51334757E+02</totfact>
</mgrwt>
</event>
<event>
 4    1  0.1751735E-005  0.6773286E+03  0.7818608E-02  0.9756809E-01
         -2   -1    0    0    0  501 -0.00000000000E+00  0.00000000000E+00  0.23360738577E+03  0.23360738578E+03  0.25500000000E-02 0. -1.
          2   -1    0    0  501    0  0.00000000000E+00 -0.00000000000E+00 -0.49096695298E+03  0.49096695299E+03  0.25500000000E-02 0.  1.
   -5000001    1    1    2    0    0  0.21588720139E+03 -0.22802392914E+02 -0.20482241055E+03  0.38933205970E+03  0.25000000000E+03 0.  0.
    5000001    1    1    2    0    0 -0.21588720139E+03  0.22802392914E+02 -0.52537156665E+02  0.33524227907E+03  0.25000000000E+03 0.  0.
<mgrwt>
<rscale>  0 0.67732859E+03</rscale>
<asrwt>0</asrwt>
<pdfrwt beam="1">  1        2 0.75533377E-01 0.67732859E+03</pdfrwt>
<pdfrwt beam="2">  1       -2 0.35939598E-01 0.67732859E+03</pdfrwt>
<totfact> 0.46134090E+02</totfact>
</mgrwt>
</event>
<event>
 4    1  0.1751735E-005  0.6187351E+03  0.7818608E-02  0.9867281E-01
         -2   -1    0    0    0  501 -0.00000000000E+00  0.00000000000E+00  0.48057140075E+02  0.48057140142E+02  0.25500000000E-02 0. -1.
          2   -1    0    0  501    0  0.00000000000E+00 -0.00000000000E+00 -0.19915518700E+04  0.19915518700E+04  0.25500000000E-02 0.  1.
   -5000001    1    1    2    0    0  0.10404665598E+03  0.10945968612E+02 -0.47989844883E+03  0.55113341582E+03  0.25000000000E+03 0.  0.
    5000001    1    1    2    0    0 -0.10404665598E+03 -0.10945968612E+02 -0.14635962811E+04  0.14884755943E+04  0.25000000000E+03 0.  0.
<mgrwt>
<rscale>  0 0.61873512E+03</rscale>
<asrwt>0</asrwt>
<pdfrwt beam="1">  1        2 0.30639253E+00 0.61873512E+03</pdfrwt>
<pdfrwt beam="2">  1       -2 0.73934077E-02 0.61873512E+03</pdfrwt>
<totfact> 0.77778658E+02</totfact>
</mgrwt>
</event>
<event>
 4    1  0.1751735E-005  0.6872462E+03  0.7818608E-02  0.9739295E-01
          2   -1    0    0  501    0  0.00000000000E+00  0.00000000000E+00  0.33882266124E+03  0.33882266125E+03  0.25500000000E-02 0.  1.
         -2   -1    0    0    0  501 -0.00000000000E+00 -0.00000000000E+00 -0.34849151269E+03  0.34849151270E+03  0.25500000000E-02 0. -1.
   -5000001    1    1    2    0    0  0.17042979228E+03 -0.76842833157E+02  0.13879624378E+03  0.34163655014E+03  0.25000000000E+03 0.  0.
    5000001    1    1    2    0    0 -0.17042979228E+03  0.76842833157E+02 -0.14846509523E+03  0.34567762381E+03  0.25000000000E+03 0.  0.
<mgrwt>
<rscale>  0 0.68724616E+03</rscale>
<asrwt>0</asrwt>
<pdfrwt beam="1">  1        2 0.52126563E-01 0.68724616E+03</pdfrwt>
<pdfrwt beam="2">  1       -2 0.53614079E-01 0.68724616E+03</pdfrwt>
<totfact> 0.31715337E+02</totfact>
</mgrwt>
</event>
<event>
 4    1  0.1751735E-005  0.7298902E+03  0.7818608E-02  0.9667439E-01
         -2   -1    0    0    0  501 -0.00000000000E+00  0.00000000000E+00  0.64883353162E+02  0.64883353212E+02  0.25500000000E-02 0. -1.
          2   -1    0    0  501    0  0.00000000000E+00 -0.00000000000E+00 -0.20526826519E+04  0.20526826519E+04  0.25500000000E-02 0.  1.
   -5000001    1    1    2    0    0 -0.17215605652E+02  0.26144076531E+03 -0.86294978457E+03  0.93585788533E+03  0.25000000000E+03 0.  0.
    5000001    1    1    2    0    0  0.17215605652E+02 -0.26144076531E+03 -0.11248495142E+04  0.11817081198E+04  0.25000000000E+03 0.  0.
<mgrwt>
<rscale>  0 0.72989022E+03</rscale>
<asrwt>0</asrwt>
<pdfrwt beam="1">  1        2 0.31579728E+00 0.72989022E+03</pdfrwt>
<pdfrwt beam="2">  1       -2 0.99820559E-02 0.72989022E+03</pdfrwt>
<totfact> 0.44125226E+02</totfact>
</mgrwt>
</event>
<event>
 4    1  0.1751735E-005  0.6937787E+03  0.7818608E-02  0.9727931E-01
          2   -1    0    0  501    0  0.00000000000E+00  0.00000000000E+00  0.18166665959E+04  0.18166665959E+04  0.25500000000E-02 0.  1.
         -2   -1    0    0    0  501 -0.00000000000E+00 -0.00000000000E+00 -0.66237925344E+02  0.66237925393E+02  0.25500000000E-02 0. -1.
   -5000001    1    1    2    0    0  0.71683928396E+02  0.21809842050E+03  0.68089003311E+03  0.76080006822E+03  0.25000000000E+03 0.  0.
    5000001    1    1    2    0    0 -0.71683928396E+02 -0.21809842050E+03  0.10695386374E+04  0.11221044530E+04  0.25000000000E+03 0.  0.
<mgrwt>
<rscale>  0 0.69377872E+03</rscale>
<asrwt>0</asrwt>
<pdfrwt beam="1">  1        2 0.27948716E+00 0.69377872E+03</pdfrwt>
<pdfrwt beam="2">  1       -2 0.10190450E-01 0.69377872E+03</pdfrwt>
<totfact> 0.57499491E+02</totfact>
</mgrwt>
</event>
<event>
 4    1  0.1751735E-005  0.1114573E+04  0.7818608E-02  0.9191104E-01
         -2   -1    0    0    0  501 -0.00000000000E+00  0.00000000000E+00  0.17664000525E+03  0.17664000527E+03  0.25500000000E-02 0. -1.
          2   -1    0    0  501    0  0.00000000000E+00 -0.00000000000E+00 -0.17581978761E+04  0.17581978761E+04  0.25500000000E-02 0.  1.
   -5000001    1    1    2    0    0 -0.42273629072E+03  0.22143664301E+03 -0.10382832004E+04  0.11697316626E+04  0.25000000000E+03 0.  0.
    5000001    1    1    2    0    0  0.42273629072E+03 -0.22143664301E+03 -0.54327467041E+03  0.76510621868E+03  0.25000000000E+03 0.  0.
<mgrwt>
<rscale>  0 0.11145727E+04</rscale>
<asrwt>0</asrwt>
<pdfrwt beam="1">  1        2 0.27049197E+00 0.11145727E+04</pdfrwt>
<pdfrwt beam="2">  1       -2 0.27175387E-01 0.11145727E+04</pdfrwt>
<totfact> 0.11125368E+02</totfact>
</mgrwt>
</event>
<event>
 4    1  0.1751735E-005  0.5460447E+03  0.7818608E-02  0.1002414E+00
         -2   -1    0    0    0  501 -0.00000000000E+00  0.00000000000E+00  0.14404223453E+03  0.14404223455E+03  0.25500000000E-02 0.  1.
          2   -1    0    0  501    0  0.00000000000E+00 -0.00000000000E+00 -0.51749538657E+03  0.51749538658E+03  0.25500000000E-02 0. -1.
   -5000001    1    1    2    0    0  0.99532728891E+02  0.24944548012E+02 -0.23383847472E+03  0.35736455736E+03  0.25000000000E+03 0.  0.
    5000001    1    1    2    0    0 -0.99532728891E+02 -0.24944548012E+02 -0.13961467732E+03  0.30417306376E+03  0.25000000000E+03 0.  0.
<mgrwt>
<rscale>  0 0.54604466E+03</rscale>
<asrwt>0</asrwt>
<pdfrwt beam="1">  1        2 0.79614674E-01 0.54604466E+03</pdfrwt>
<pdfrwt beam="2">  1       -2 0.22160344E-01 0.54604466E+03</pdfrwt>
<totfact> 0.10555542E+03</totfact>
</mgrwt>
</event>
<event>
 4    1  0.1751735E-005  0.8500000E+03  0.7818608E-02  0.9490337E-01
         -2   -1    0    0    0  501 -0.00000000000E+00  0.00000000000E+00  0.75361697091E+02  0.75361697134E+02  0.25500000000E-02 0. -1.
          2   -1    0    0  501    0  0.00000000000E+00 -0.00000000000E+00 -0.23967744629E+04  0.23967744629E+04  0.25500000000E-02 0.  1.
   -5000001    1    1    2    0    0 -0.24917741330E+03 -0.23579997543E+03 -0.11001181848E+04  0.11791738770E+04  0.25000000000E+03 0.  0.
    5000001    1    1    2    0    0  0.24917741330E+03  0.23579997543E+03 -0.12212945810E+04  0.12929622831E+04  0.25000000000E+03 0.  0.
<mgrwt>
<rscale>  0 0.84999998E+03</rscale>
<asrwt>0</asrwt>
<pdfrwt beam="1">  1        2 0.36873448E+00 0.84999998E+03</pdfrwt>
<pdfrwt beam="2">  1       -2 0.11594109E-01 0.84999998E+03</pdfrwt>
<totfact> 0.22050466E+02</totfact>
</mgrwt>
</event>
<event>
 4    1  0.1751735E-005  0.1259155E+04  0.7818608E-02  0.9062598E-01
          2   -1    0    0  501    0  0.00000000000E+00  0.00000000000E+00  0.17848381684E+04  0.17848381684E+04  0.25500000000E-02 0.  1.
         -2   -1    0    0    0  501 -0.00000000000E+00 -0.00000000000E+00 -0.22207500241E+03  0.22207500243E+03  0.25500000000E-02 0. -1.
   -5000001    1    1    2    0    0 -0.49993047843E+03 -0.20864555781E+03  0.11017606513E+04  0.12529325540E+04  0.25000000000E+03 0.  0.
    5000001    1    1    2    0    0  0.49993047843E+03  0.20864555781E+03  0.46100251470E+03  0.75398061688E+03  0.25000000000E+03 0.  0.
<mgrwt>
<rscale>  0 0.12591552E+04</rscale>
<asrwt>0</asrwt>
<pdfrwt beam="1">  1        2 0.27459048E+00 0.12591552E+04</pdfrwt>
<pdfrwt beam="2">  1       -2 0.34165386E-01 0.12591552E+04</pdfrwt>
<totfact> 0.69378038E+01</totfact>
</mgrwt>
</event>
<event>
 4    1  0.1751735E-005  0.1503559E+04  0.7818608E-02  0.8882089E-01
          2   -1    0    0  501    0  0.00000000000E+00  0.00000000000E+00  0.93316353340E+03  0.93316353340E+03  0.25500000000E-02 0.  1.
         -2   -1    0    0    0  501 -0.00000000000E+00 -0.00000000000E+00 -0.60565231492E+03  0.60565231493E+03  0.25500000000E-02 0. -1.
   -5000001    1    1    2    0    0 -0.44786851255E+03 -0.54960250014E+03  0.16872134071E+03  0.77046479706E+03  0.25000000000E+03 0.  0.
    5000001    1    1    2    0    0  0.44786851255E+03  0.54960250014E+03  0.15878987777E+03  0.76835105127E+03  0.25000000000E+03 0.  0.
<mgrwt>
<rscale>  0 0.15035593E+04</rscale>
<asrwt>0</asrwt>
<pdfrwt beam="1">  1        2 0.14356362E+00 0.15035593E+04</pdfrwt>
<pdfrwt beam="2">  1       -2 0.93177279E-01 0.15035593E+04</pdfrwt>
<totfact> 0.26244135E+01</totfact>
</mgrwt>
</event>
<event>
 4    1  0.1751735E-005  0.1142041E+04  0.7818608E-02  0.9165158E-01
          2   -1    0    0  501    0  0.00000000000E+00  0.00000000000E+00  0.32008620977E+04  0.32008620977E+04  0.25500000000E-02 0.  1.
         -2   -1    0    0    0  501 -0.00000000000E+00 -0.00000000000E+00 -0.10186768712E+03  0.10186768715E+03  0.25500000000E-02 0. -1.
   -5000001    1    1    2    0    0  0.14635760195E+03  0.31649074169E+03  0.26391824660E+04  0.26738307774E+04  0.25000000000E+03 0.  0.
    5000001    1    1    2    0    0 -0.14635760195E+03 -0.31649074169E+03  0.45981194456E+03  0.62889900746E+03  0.25000000000E+03 0.  0.
<mgrwt>
<rscale>  0 0.11420410E+04</rscale>
<asrwt>0</asrwt>
<pdfrwt beam="1">  1        2 0.49244023E+00 0.11420410E+04</pdfrwt>
<pdfrwt beam="2">  1       -2 0.15671955E-01 0.11420410E+04</pdfrwt>
<totfact> 0.42711782E+01</totfact>
</mgrwt>
</event>
<event>
 4    1  0.1751735E-005  0.1737946E+04  0.7818608E-02  0.8740014E-01
         -2   -1    0    0    0  501 -0.00000000000E+00  0.00000000000E+00  0.30277213025E+03  0.30277213027E+03  0.25500000000E-02 0. -1.
          2   -1    0    0  501    0  0.00000000000E+00 -0.00000000000E+00 -0.24940007193E+04  0.24940007193E+04  0.25500000000E-02 0.  1.
   -5000001    1    1    2    0    0  0.52878654613E+03 -0.51611336125E+02 -0.21264518412E+04  0.22060318162E+04  0.25000000000E+03 0.  0.
    5000001    1    1    2    0    0 -0.52878654613E+03  0.51611336125E+02 -0.64776747848E+02  0.59074103332E+03  0.25000000000E+03 0.  0.
<mgrwt>
<rscale>  0 0.17379458E+04</rscale>
<asrwt>0</asrwt>
<pdfrwt beam="1">  1        2 0.38369240E+00 0.17379458E+04</pdfrwt>
<pdfrwt beam="2">  1       -2 0.46580329E-01 0.17379458E+04</pdfrwt>
<totfact> 0.14567257E+01</totfact>
</mgrwt>
</event>
<event>
 4    1  0.1751735E-005  0.5895790E+03  0.7818608E-02  0.9927265E-01
          2   -1    0    0  501    0  0.00000000000E+00  0.00000000000E+00  0.14817366432E+04  0.14817366432E+04  0.25500000000E-02 0.  1.
         -2   -1    0    0    0  501 -0.00000000000E+00 -0.00000000000E+00 -0.58647968150E+02  0.58647968205E+02  0.25500000000E-02 0. -1.
   -5000001    1    1    2    0    0  0.61545651530E+01  0.92111369771E+02  0.10407682523E+04  0.10743467494E+04  0.25000000000E+03 0.  0.
    5000001    1    1    2    0    0 -0.61545651530E+01 -0.92111369771E+02  0.38232042282E+03  0.46603786200E+03  0.25000000000E+03 0.  0.
<mgrwt>
<rscale>  0 0.58957898E+03</rscale>
<asrwt>0</asrwt>
<pdfrwt beam="1">  1        2 0.22795947E+00 0.58957898E+03</pdfrwt>
<pdfrwt beam="2">  1       -2 0.90227648E-02 0.58957898E+03</pdfrwt>
<totfact> 0.10736663E+03</totfact>
</mgrwt>
</event>
<event>
 4    1  0.1751735E-005  0.1271313E+04  0.7818608E-02  0.9052629E-01
         -2   -1    0    0    0  501 -0.00000000000E+00  0.00000000000E+00  0.12357650789E+03  0.12357650792E+03  0.25500000000E-02 0. -1.
          2   -1    0    0  501    0  0.00000000000E+00 -0.00000000000E+00 -0.32697091917E+04  0.32697091917E+04  0.25500000000E-02 0.  1.
   -5000001    1    1    2    0    0  0.44107489118E+03  0.38099714974E+03 -0.16879735666E+04  0.18031807034E+04  0.25000000000E+03 0.  0.
    5000001    1    1    2    0    0 -0.44107489118E+03 -0.38099714974E+03 -0.14581591172E+04  0.15901049962E+04  0.25000000000E+03 0.  0.
<mgrwt>
<rscale>  0 0.12713131E+04</rscale>
<asrwt>0</asrwt>
<pdfrwt beam="1">  1        2 0.50303212E+00 0.12713131E+04</pdfrwt>
<pdfrwt beam="2">  1       -2 0.19011773E-01 0.12713131E+04</pdfrwt>
<totfact> 0.27232122E+01</totfact>
</mgrwt>
</event>
<event>
 4    1  0.1751735E-005  0.9419933E+03  0.7818608E-02  0.9374558E-01
          2   -1    0    0  501    0  0.00000000000E+00  0.00000000000E+00  0.22254360421E+03  0.22254360423E+03  0.25500000000E-02 0.  1.
         -2   -1    0    0    0  501 -0.00000000000E+00 -0.00000000000E+00 -0.99682868290E+03  0.99682868291E+03  0.25500000000E-02 0. -1.
   -5000001    1    1    2    0    0 -0.34485726792E+03  0.10922046684E+03 -0.60560422802E+03  0.74840639135E+03  0.25000000000E+03 0.  0.
    5000001    1    1    2    0    0  0.34485726792E+03 -0.10922046684E+03 -0.16868085067E+03  0.47096589578E+03  0.25000000000E+03 0.  0.
<mgrwt>
<rscale>  0 0.94199331E+03</rscale>
<asrwt>0</asrwt>
<pdfrwt beam="1">  1        2 0.34237478E-01 0.94199331E+03</pdfrwt>
<pdfrwt beam="2">  1       -2 0.15335826E+00 0.94199331E+03</pdfrwt>
<totfact> 0.43347605E+01</totfact>
</mgrwt>
</event>
<event>
 4    1  0.1751735E-005  0.6725187E+03  0.7818608E-02  0.9765418E-01
         -2   -1    0    0    0  501 -0.00000000000E+00  0.00000000000E+00  0.21192509170E+03  0.21192509171E+03  0.25500000000E-02 0. -1.
          2   -1    0    0  501    0  0.00000000000E+00 -0.00000000000E+00 -0.53353926162E+03  0.53353926163E+03  0.25500000000E-02 0.  1.
   -5000001    1    1    2    0    0 -0.11889702464E+03 -0.18410158213E+03 -0.21667710798E+03  0.39683606708E+03  0.25000000000E+03 0.  0.
    5000001    1    1    2    0    0  0.11889702464E+03  0.18410158213E+03 -0.10493706195E+03  0.34862828626E+03  0.25000000000E+03 0.  0.
<mgrwt>
<rscale>  0 0.67251872E+03</rscale>
<asrwt>0</asrwt>
<pdfrwt beam="1">  1        2 0.82082963E-01 0.67251872E+03</pdfrwt>
<pdfrwt beam="2">  1       -2 0.32603860E-01 0.67251872E+03</pdfrwt>
<totfact> 0.50373268E+02</totfact>
</mgrwt>
</event>
<event>
 4    1  0.1751735E-005  0.6366937E+03  0.7818608E-02  0.9832073E-01
          2   -1    0    0  501    0  0.00000000000E+00  0.00000000000E+00  0.71352285844E+03  0.71352285844E+03  0.25500000000E-02 0.  1.
         -2   -1    0    0    0  501 -0.00000000000E+00 -0.00000000000E+00 -0.14203430500E+03  0.14203430502E+03  0.25500000000E-02 0. -1.
   -5000001    1    1    2    0    0  0.50652560369E+02 -0.15704789956E+03  0.43056411163E+03  0.52451423131E+03  0.25000000000E+03 0.  0.
    5000001    1    1    2    0    0 -0.50652560369E+02  0.15704789956E+03  0.14092444181E+03  0.33104293215E+03  0.25000000000E+03 0.  0.
<mgrwt>
<rscale>  0 0.63669372E+03</rscale>
<asrwt>0</asrwt>
<pdfrwt beam="1">  1        2 0.10977275E+00 0.63669372E+03</pdfrwt>
<pdfrwt beam="2">  1       -2 0.21851432E-01 0.63669372E+03</pdfrwt>
<totfact> 0.73378252E+02</totfact>
</mgrwt>
</event>
<event>
 4    1  0.1751735E-005  0.9173710E+03  0.7818608E-02  0.9404124E-01
         -2   -1    0    0    0  501 -0.00000000000E+00  0.00000000000E+00  0.17480034519E+03  0.17480034521E+03  0.25500000000E-02 0. -1.
          2   -1    0    0  501    0  0.00000000000E+00 -0.00000000000E+00 -0.12036154850E+04  0.12036154850E+04  0.25500000000E-02 0.  1.
   -5000001    1    1    2    0    0 -0.52323450797E+02 -0.37803558735E+03 -0.44323333640E+03  0.63608524531E+03  0.25000000000E+03 0.  0.
    5000001    1    1    2    0    0  0.52323450797E+02  0.37803558735E+03 -0.58558180345E+03  0.74233058494E+03  0.25000000000E+03 0.  0.
<mgrwt>
<rscale>  0 0.91737103E+03</rscale>
<asrwt>0</asrwt>
<pdfrwt beam="1">  1        2 0.18517161E+00 0.91737103E+03</pdfrwt>
<pdfrwt beam="2">  1       -2 0.26892361E-01 0.91737103E+03</pdfrwt>
<totfact> 0.23675781E+02</totfact>
</mgrwt>
</event>
<event>
 4    1  0.1751735E-005  0.7253851E+03  0.7818608E-02  0.9674779E-01
          2   -1    0    0  501    0  0.00000000000E+00  0.00000000000E+00  0.13004661416E+04  0.13004661416E+04  0.25500000000E-02 0.  1.
         -2   -1    0    0    0  501 -0.00000000000E+00 -0.00000000000E+00 -0.10115287115E+03  0.10115287119E+03  0.25500000000E-02 0. -1.
   -5000001    1    1    2    0    0 -0.57701876292E+02  0.20517173974E+03  0.89662479824E+03  0.95491412081E+03  0.25000000000E+03 0.  0.
    5000001    1    1    2    0    0  0.57701876292E+02 -0.20517173974E+03  0.30268847223E+03  0.44670489200E+03  0.25000000000E+03 0.  0.
<mgrwt>
<rscale>  0 0.72538510E+03</rscale>
<asrwt>0</asrwt>
<pdfrwt beam="1">  1        2 0.20007171E+00 0.72538510E+03</pdfrwt>
<pdfrwt beam="2">  1       -2 0.15561981E-01 0.72538510E+03</pdfrwt>
<totfact> 0.54929998E+02</totfact>
</mgrwt>
</event>
<event>
 4    1  0.1751735E-005  0.1133392E+04  0.7818608E-02  0.9173243E-01
         -2   -1    0    0    0  501 -0.00000000000E+00  0.00000000000E+00  0.14402365722E+03  0.14402365725E+03  0.25500000000E-02 0. -1.
          2   -1    0    0  501    0  0.00000000000E+00 -0.00000000000E+00 -0.22298028994E+04  0.22298028994E+04  0.25500000000E-02 0.  1.
   -5000001    1    1    2    0    0 -0.20312973302E+03 -0.46613662622E+03 -0.10220159065E+04  0.11685724436E+04  0.25000000000E+03 0.  0.
    5000001    1    1    2    0    0  0.20312973302E+03  0.46613662622E+03 -0.10637633356E+04  0.12052541130E+04  0.25000000000E+03 0.  0.
<mgrwt>
<rscale>  0 0.11333920E+04</rscale>
<asrwt>0</asrwt>
<pdfrwt beam="1">  1        2 0.34304657E+00 0.11333920E+04</pdfrwt>
<pdfrwt beam="2">  1       -2 0.22157487E-01 0.11333920E+04</pdfrwt>
<totfact> 0.88125906E+01</totfact>
</mgrwt>
</event>
<event>
 4    1  0.1751735E-005  0.5938705E+03  0.7818608E-02  0.9918205E-01
          2   -1    0    0  501    0  0.00000000000E+00  0.00000000000E+00  0.68240465158E+03  0.68240465159E+03  0.25500000000E-02 0.  1.
         -2   -1    0    0    0  501 -0.00000000000E+00 -0.00000000000E+00 -0.12920565981E+03  0.12920565983E+03  0.25500000000E-02 0. -1.
   -5000001    1    1    2    0    0  0.48166962956E+02 -0.12976581527E+03  0.16632112887E+03  0.33063868655E+03  0.25000000000E+03 0.  0.
    5000001    1    1    2    0    0 -0.48166962956E+02  0.12976581527E+03  0.38687786290E+03  0.48097162487E+03  0.25000000000E+03 0.  0.
<mgrwt>
<rscale>  0 0.59387050E+03</rscale>
<asrwt>0</asrwt>
<pdfrwt beam="1">  1        2 0.10498533E+00 0.59387050E+03</pdfrwt>
<pdfrwt beam="2">  1       -2 0.19877794E-01 0.59387050E+03</pdfrwt>
<totfact> 0.91687833E+02</totfact>
</mgrwt>
</event>
<event>
 4    1  0.1751735E-005  0.6304197E+03  0.7818608E-02  0.9844230E-01
         -2   -1    0    0    0  501 -0.00000000000E+00  0.00000000000E+00  0.58269939813E+02  0.58269939869E+02  0.25500000000E-02 0. -1.
          2   -1    0    0  501    0  0.00000000000E+00 -0.00000000000E+00 -0.17051200468E+04  0.17051200468E+04  0.25500000000E-02 0.  1.
   -5000001    1    1    2    0    0  0.12481983139E+02  0.16235819927E+03 -0.11078746300E+04  0.11473457110E+04  0.25000000000E+03 0.  0.
    5000001    1    1    2    0    0 -0.12481983139E+02 -0.16235819927E+03 -0.53897547692E+03  0.61604427559E+03  0.25000000000E+03 0.  0.
<mgrwt>
<rscale>  0 0.63041968E+03</rscale>
<asrwt>0</asrwt>
<pdfrwt beam="1">  1        2 0.26232612E+00 0.63041968E+03</pdfrwt>
<pdfrwt beam="2">  1       -2 0.89646074E-02 0.63041968E+03</pdfrwt>
<totfact> 0.81677570E+02</totfact>
</mgrwt>
</event>
<event>
 4    1  0.1751735E-005  0.8339307E+03  0.7818608E-02  0.9512162E-01
          2   -1    0    0  501    0  0.00000000000E+00  0.00000000000E+00  0.95864545453E+03  0.95864545453E+03  0.25500000000E-02 0.  1.
         -2   -1    0    0    0  501 -0.00000000000E+00 -0.00000000000E+00 -0.18136018894E+03  0.18136018895E+03  0.25500000000E-02 0. -1.
   -5000001    1    1    2    0    0  0.33251944606E+03 -0.27656041393E+02  0.38166113533E+03  0.56524265661E+03  0.25000000000E+03 0.  0.
    5000001    1    1    2    0    0 -0.33251944606E+03  0.27656041393E+02  0.39562413027E+03  0.57476298688E+03  0.25000000000E+03 0.  0.
<mgrwt>
<rscale>  0 0.83393074E+03</rscale>
<asrwt>0</asrwt>
<pdfrwt beam="1">  1        2 0.14748392E+00 0.83393074E+03</pdfrwt>
<pdfrwt beam="2">  1       -2 0.27901567E-01 0.83393074E+03</pdfrwt>
<totfact> 0.31538949E+02</totfact>
</mgrwt>
</event>
<event>
 4    1  0.1751735E-005  0.7688310E+03  0.7818608E-02  0.9606262E-01
         -2   -1    0    0    0  501 -0.00000000000E+00  0.00000000000E+00  0.82699029184E+02  0.82699029223E+02  0.25500000000E-02 0. -1.
          2   -1    0    0  501    0  0.00000000000E+00 -0.00000000000E+00 -0.17869047102E+04  0.17869047102E+04  0.25500000000E-02 0.  1.
   -5000001    1    1    2    0    0 -0.26851202554E+03  0.94313303323E+02 -0.69298437265E+03  0.78976012040E+03  0.25000000000E+03 0.  0.
    5000001    1    1    2    0    0  0.26851202554E+03 -0.94313303323E+02 -0.10112213084E+04  0.10798436190E+04  0.25000000000E+03 0.  0.
<mgrwt>
<rscale>  0 0.76883102E+03</rscale>
<asrwt>0</asrwt>
<pdfrwt beam="1">  1        2 0.27490839E+00 0.76883102E+03</pdfrwt>
<pdfrwt beam="2">  1       -2 0.12722929E-01 0.76883102E+03</pdfrwt>
<totfact> 0.41221479E+02</totfact>
</mgrwt>
</event>
<event>
 4    1  0.1751735E-005  0.6498841E+03  0.7818608E-02  0.9806997E-01
         -2   -1    0    0    0  501 -0.00000000000E+00  0.00000000000E+00  0.19092234124E+03  0.19092234125E+03  0.25500000000E-02 0. -1.
          2   -1    0    0  501    0  0.00000000000E+00 -0.00000000000E+00 -0.55303818177E+03  0.55303818177E+03  0.25500000000E-02 0.  1.
   -5000001    1    1    2    0    0  0.35539999648E+02 -0.20264021976E+03 -0.14947431488E+03  0.35660723639E+03  0.25000000000E+03 0.  0.
    5000001    1    1    2    0    0 -0.35539999648E+02  0.20264021976E+03 -0.21264152565E+03  0.38735328664E+03  0.25000000000E+03 0.  0.
<mgrwt>
<rscale>  0 0.64988413E+03</rscale>
<asrwt>0</asrwt>
<pdfrwt beam="1">  1        2 0.85082796E-01 0.64988413E+03</pdfrwt>
<pdfrwt beam="2">  1       -2 0.29372668E-01 0.64988413E+03</pdfrwt>
<totfact> 0.58679415E+02</totfact>
</mgrwt>
</event>
<event>
 4    1  0.1751735E-005  0.7993612E+03  0.7818608E-02  0.9560942E-01
          2   -1    0    0  501    0  0.00000000000E+00  0.00000000000E+00  0.92581740612E+03  0.92581740613E+03  0.25500000000E-02 0.  1.
         -2   -1    0    0    0  501 -0.00000000000E+00 -0.00000000000E+00 -0.17254435960E+03  0.17254435962E+03  0.25500000000E-02 0. -1.
   -5000001    1    1    2    0    0  0.28513788391E+02  0.27380111932E+03  0.57794523364E+03  0.68724142931E+03  0.25000000000E+03 0.  0.
    5000001    1    1    2    0    0 -0.28513788391E+02 -0.27380111932E+03  0.17532781288E+03  0.41112033644E+03  0.25000000000E+03 0.  0.
<mgrwt>
<rscale>  0 0.79936117E+03</rscale>
<asrwt>0</asrwt>
<pdfrwt beam="1">  1        2 0.14243345E+00 0.79936117E+03</pdfrwt>
<pdfrwt beam="2">  1       -2 0.26545286E-01 0.79936117E+03</pdfrwt>
<totfact> 0.36368155E+02</totfact>
</mgrwt>
</event>
<event>
 4    1  0.1751735E-005  0.6494401E+03  0.7818608E-02  0.9807830E-01
          2   -1    0    0  501    0  0.00000000000E+00  0.00000000000E+00  0.98328372362E+03  0.98328372362E+03  0.25500000000E-02 0.  1.
         -2   -1    0    0    0  501 -0.00000000000E+00 -0.00000000000E+00 -0.10723568324E+03  0.10723568327E+03  0.25500000000E-02 0. -1.
   -5000001    1    1    2    0    0  0.10601091074E+03  0.16987434274E+03  0.34842032712E+03  0.47327827952E+03  0.25000000000E+03 0.  0.
    5000001    1    1    2    0    0 -0.10601091074E+03 -0.16987434274E+03  0.52762771325E+03  0.61724112737E+03  0.25000000000E+03 0.  0.
<mgrwt>
<rscale>  0 0.64944007E+03</rscale>
<asrwt>0</asrwt>
<pdfrwt beam="1">  1        2 0.15127441E+00 0.64944007E+03</pdfrwt>
<pdfrwt beam="2">  1       -2 0.16497798E-01 0.64944007E+03</pdfrwt>
<totfact> 0.77511485E+02</totfact>
</mgrwt>
</event>
<event>
 4    1  0.1751735E-005  0.8014911E+03  0.7818608E-02  0.9557861E-01
          2   -1    0    0  501    0  0.00000000000E+00  0.00000000000E+00  0.33345827516E+04  0.33345827516E+04  0.25500000000E-02 0.  1.
         -2   -1    0    0    0  501 -0.00000000000E+00 -0.00000000000E+00 -0.48161043960E+02  0.48161044027E+02  0.25500000000E-02 0. -1.
   -5000001    1    1    2    0    0  0.22811822612E+03 -0.13583604754E+03  0.23444803931E+04  0.23726731065E+04  0.25000000000E+03 0.  0.
    5000001    1    1    2    0    0 -0.22811822612E+03  0.13583604754E+03  0.94194131450E+03  0.10100706890E+04  0.25000000000E+03 0.  0.
<mgrwt>
<rscale>  0 0.80149108E+03</rscale>
<asrwt>0</asrwt>
<pdfrwt beam="1">  1        2 0.51301257E+00 0.80149108E+03</pdfrwt>
<pdfrwt beam="2">  1       -2 0.74093937E-02 0.80149108E+03</pdfrwt>
<totfact> 0.12470404E+02</totfact>
</mgrwt>
</event>
<event>
 4    1  0.1751735E-005  0.6576507E+03  0.7818608E-02  0.9792528E-01
         -2   -1    0    0    0  501 -0.00000000000E+00  0.00000000000E+00  0.13648073225E+03  0.13648073228E+03  0.25500000000E-02 0. -1.
          2   -1    0    0  501    0  0.00000000000E+00 -0.00000000000E+00 -0.79224444617E+03  0.79224444618E+03  0.25500000000E-02 0.  1.
   -5000001    1    1    2    0    0  0.21143910885E+03  0.59108259322E+01 -0.36988502001E+03  0.49402060953E+03  0.25000000000E+03 0.  0.
    5000001    1    1    2    0    0 -0.21143910885E+03 -0.59108259322E+01 -0.28587869391E+03  0.43470456892E+03  0.25000000000E+03 0.  0.
<mgrwt>
<rscale>  0 0.65765067E+03</rscale>
<asrwt>0</asrwt>
<pdfrwt beam="1">  1        2 0.12188376E+00 0.65765067E+03</pdfrwt>
<pdfrwt beam="2">  1       -2 0.20997036E-01 0.65765067E+03</pdfrwt>
<totfact> 0.68753092E+02</totfact>
</mgrwt>
</event>
<event>
 4    1  0.1751735E-005  0.8873040E+03  0.7818608E-02  0.9441593E-01
         -2   -1    0    0    0  501 -0.00000000000E+00  0.00000000000E+00  0.20954964834E+03  0.20954964836E+03  0.25500000000E-02 0. -1.
          2   -1    0    0  501    0  0.00000000000E+00 -0.00000000000E+00 -0.93928624455E+03  0.93928624455E+03  0.25500000000E-02 0.  1.
   -5000001    1    1    2    0    0 -0.26776149865E+03  0.13212087071E+02 -0.68844240141E+03  0.77995110069E+03  0.25000000000E+03 0.  0.
    5000001    1    1    2    0    0  0.26776149865E+03 -0.13212087071E+02 -0.41294194793E+02  0.36888479222E+03  0.25000000000E+03 0.  0.
<mgrwt>
<rscale>  0 0.88730401E+03</rscale>
<asrwt>0</asrwt>
<pdfrwt beam="1">  1        2 0.14450557E+00 0.88730401E+03</pdfrwt>
<pdfrwt beam="2">  1       -2 0.32238408E-01 0.88730401E+03</pdfrwt>
<totfact> 0.24764235E+02</totfact>
</mgrwt>
</event>
<event>
 4    1  0.1751735E-005  0.6644778E+03  0.7818608E-02  0.9779985E-01
         -2   -1    0    0    0  501 -0.00000000000E+00  0.00000000000E+00  0.66817903891E+02  0.66817903940E+02  0.25500000000E-02 0. -1.
          2   -1    0    0  501    0  0.00000000000E+00 -0.00000000000E+00 -0.16519928675E+04  0.16519928675E+04  0.25500000000E-02 0.  1.
   -5000001    1    1    2    0    0  0.38331716287E+02 -0.20825888946E+03 -0.93524665313E+03  0.99097295004E+03  0.25000000000E+03 0.  0.
    5000001    1    1    2    0    0 -0.38331716287E+02  0.20825888946E+03 -0.64992831051E+03  0.72783782144E+03  0.25000000000E+03 0.  0.
<mgrwt>
<rscale>  0 0.66447784E+03</rscale>
<asrwt>0</asrwt>
<pdfrwt beam="1">  1        2 0.25415272E+00 0.66447784E+03</pdfrwt>
<pdfrwt beam="2">  1       -2 0.10279679E-01 0.66447784E+03</pdfrwt>
<totfact> 0.69821462E+02</totfact>
</mgrwt>
</event>
<event>
 4    1  0.1751735E-005  0.8706602E+03  0.7818608E-02  0.9463019E-01
         -2   -1    0    0    0  501 -0.00000000000E+00  0.00000000000E+00  0.11284200528E+03  0.11284200531E+03  0.25500000000E-02 0. -1.
          2   -1    0    0  501    0  0.00000000000E+00 -0.00000000000E+00 -0.16794482624E+04  0.16794482624E+04  0.25500000000E-02 0.  1.
   -5000001    1    1    2    0    0  0.25749406262E+03  0.24256635033E+03 -0.69426833562E+03  0.81832154343E+03  0.25000000000E+03 0.  0.
    5000001    1    1    2    0    0 -0.25749406262E+03 -0.24256635033E+03 -0.87233792151E+03  0.97396872430E+03  0.25000000000E+03 0.  0.
<mgrwt>
<rscale>  0 0.87066023E+03</rscale>
<asrwt>0</asrwt>
<pdfrwt beam="1">  1        2 0.25837664E+00 0.87066023E+03</pdfrwt>
<pdfrwt beam="2">  1       -2 0.17360310E-01 0.87066023E+03</pdfrwt>
<totfact> 0.27711952E+02</totfact>
</mgrwt>
</event>
<event>
 4    1  0.1751735E-005  0.7138431E+03  0.7818608E-02  0.9693847E-01
          2   -1    0    0  501    0  0.00000000000E+00  0.00000000000E+00  0.46472427053E+03  0.46472427053E+03  0.25500000000E-02 0.  1.
         -2   -1    0    0    0  501 -0.00000000000E+00 -0.00000000000E+00 -0.27412598666E+03  0.27412598667E+03  0.25500000000E-02 0. -1.
   -5000001    1    1    2    0    0  0.14860906541E+03 -0.20625915755E+03  0.78434006418E+02  0.36507449618E+03  0.25000000000E+03 0.  0.
    5000001    1    1    2    0    0 -0.14860906541E+03  0.20625915755E+03  0.11216427745E+03  0.37377576103E+03  0.25000000000E+03 0.  0.
<mgrwt>
<rscale>  0 0.71384312E+03</rscale>
<asrwt>0</asrwt>
<pdfrwt beam="1">  1        2 0.71496041E-01 0.71384312E+03</pdfrwt>
<pdfrwt beam="2">  1       -2 0.42173229E-01 0.71384312E+03</pdfrwt>
<totfact> 0.36007495E+02</totfact>
</mgrwt>
</event>
<event>
 4    1  0.1751735E-005  0.8806193E+03  0.7818608E-02  0.9450138E-01
          2   -1    0    0  501    0  0.00000000000E+00  0.00000000000E+00  0.12393721892E+04  0.12393721892E+04  0.25500000000E-02 0.  1.
         -2   -1    0    0    0  501 -0.00000000000E+00 -0.00000000000E+00 -0.15642807507E+03  0.15642807509E+03  0.25500000000E-02 0. -1.
   -5000001    1    1    2    0    0 -0.12462798823E+03 -0.31951415479E+03  0.35560391147E+03  0.55369266964E+03  0.25000000000E+03 0.  0.
    5000001    1    1    2    0    0  0.12462798823E+03  0.31951415479E+03  0.72734020262E+03  0.84210759461E+03  0.25000000000E+03 0.  0.
<mgrwt>
<rscale>  0 0.88061934E+03</rscale>
<asrwt>0</asrwt>
<pdfrwt beam="1">  1        2 0.19067264E+00 0.88061934E+03</pdfrwt>
<pdfrwt beam="2">  1       -2 0.24065858E-01 0.88061934E+03</pdfrwt>
<totfact> 0.27634976E+02</totfact>
</mgrwt>
</event>
<event>
 4    1  0.1751735E-005  0.6521647E+03  0.7818608E-02  0.9802726E-01
         -2   -1    0    0    0  501 -0.00000000000E+00  0.00000000000E+00  0.10559126806E+04  0.10559126806E+04  0.25500000000E-02 0. -1.
          2   -1    0    0  501    0  0.00000000000E+00 -0.00000000000E+00 -0.10069933124E+03  0.10069933128E+03  0.25500000000E-02 0.  1.
   -5000001    1    1    2    0    0  0.17528227037E+03 -0.20321679076E+01  0.27460754354E+03  0.41065472965E+03  0.25000000000E+03 0.  0.
    5000001    1    1    2    0    0 -0.17528227037E+03  0.20321679076E+01  0.68060580586E+03  0.74595728228E+03  0.25000000000E+03 0.  0.
<mgrwt>
<rscale>  0 0.65216471E+03</rscale>
<asrwt>0</asrwt>
<pdfrwt beam="1">  1        2 0.15492205E-01 0.65216471E+03</pdfrwt>
<pdfrwt beam="2">  1       -2 0.16244810E+00 0.65216471E+03</pdfrwt>
<totfact> 0.94721521E+01</totfact>
</mgrwt>
</event>
<event>
 4    1  0.1751735E-005  0.7736999E+03  0.7818608E-02  0.9598885E-01
          2   -1    0    0  501    0  0.00000000000E+00  0.00000000000E+00  0.11650628157E+04  0.11650628157E+04  0.25500000000E-02 0.  1.
         -2   -1    0    0    0  501 -0.00000000000E+00 -0.00000000000E+00 -0.12845048770E+03  0.12845048772E+03  0.25500000000E-02 0. -1.
   -5000001    1    1    2    0    0 -0.27843127866E+02 -0.26738834775E+03  0.72225261090E+03  0.81019787844E+03  0.25000000000E+03 0.  0.
    5000001    1    1    2    0    0  0.27843127866E+02  0.26738834775E+03  0.31435971709E+03  0.48331542497E+03  0.25000000000E+03 0.  0.
<mgrwt>
<rscale>  0 0.77369991E+03</rscale>
<asrwt>0</asrwt>
<pdfrwt beam="1">  1        2 0.17924044E+00 0.77369991E+03</pdfrwt>
<pdfrwt beam="2">  1       -2 0.19761613E-01 0.77369991E+03</pdfrwt>
<totfact> 0.43612285E+02</totfact>
</mgrwt>
</event>
<event>
 4    1  0.1751735E-005  0.7600178E+03  0.7818608E-02  0.9619764E-01
          2   -1    0    0  501    0  0.00000000000E+00  0.00000000000E+00  0.29448471158E+04  0.29448471158E+04  0.25500000000E-02 0.  1.
         -2   -1    0    0    0  501 -0.00000000000E+00 -0.00000000000E+00 -0.49037101890E+02  0.49037101956E+02  0.25500000000E-02 0. -1.
   -5000001    1    1    2    0    0 -0.23163778338E+03 -0.10429490238E+03  0.92868415468E+03  0.99472998774E+03  0.25000000000E+03 0.  0.
    5000001    1    1    2    0    0  0.23163778338E+03  0.10429490238E+03  0.19671258592E+04  0.19991542300E+04  0.25000000000E+03 0.  0.
<mgrwt>
<rscale>  0 0.76001781E+03</rscale>
<asrwt>0</asrwt>
<pdfrwt beam="1">  1        2 0.45305348E+00 0.76001781E+03</pdfrwt>
<pdfrwt beam="2">  1       -2 0.75441682E-02 0.76001781E+03</pdfrwt>
<totfact> 0.21428193E+02</totfact>
</mgrwt>
</event>
<event>
 4    1  0.1751735E-005  0.1005372E+04  0.7818608E-02  0.9302672E-01
          2   -1    0    0  501    0  0.00000000000E+00  0.00000000000E+00  0.14508468380E+04  0.14508468380E+04  0.25500000000E-02 0.  1.
         -2   -1    0    0    0  501 -0.00000000000E+00 -0.00000000000E+00 -0.17416950224E+03  0.17416950226E+03  0.25500000000E-02 0. -1.
   -5000001    1    1    2    0    0 -0.41839058687E+03  0.10168268427E+01  0.43944721073E+03  0.65625114715E+03  0.25000000000E+03 0.  0.
    5000001    1    1    2    0    0  0.41839058687E+03 -0.10168268427E+01  0.83723012501E+03  0.96876519309E+03  0.25000000000E+03 0.  0.
<mgrwt>
<rscale>  0 0.10053721E+04</rscale>
<asrwt>0</asrwt>
<pdfrwt beam="1">  1        2 0.22320721E+00 0.10053721E+04</pdfrwt>
<pdfrwt beam="2">  1       -2 0.26795308E-01 0.10053721E+04</pdfrwt>
<totfact> 0.17058780E+02</totfact>
</mgrwt>
</event>
<event>
 4    1  0.1751735E-005  0.1317061E+04  0.7818608E-02  0.9016144E-01
          2   -1    0    0  501    0  0.00000000000E+00  0.00000000000E+00  0.10255150372E+04  0.10255150372E+04  0.25500000000E-02 0.  1.
         -2   -1    0    0    0  501 -0.00000000000E+00 -0.00000000000E+00 -0.42287272473E+03  0.42287272474E+03  0.25500000000E-02 0. -1.
   -5000001    1    1    2    0    0  0.70678831338E+02 -0.51509725481E+03 -0.47898747496E+02  0.57889115482E+03  0.25000000000E+03 0.  0.
    5000001    1    1    2    0    0 -0.70678831338E+02  0.51509725481E+03  0.65054106000E+03  0.86949660716E+03  0.25000000000E+03 0.  0.
<mgrwt>
<rscale>  0 0.13170609E+04</rscale>
<asrwt>0</asrwt>
<pdfrwt beam="1">  1        2 0.15777154E+00 0.13170609E+04</pdfrwt>
<pdfrwt beam="2">  1       -2 0.65057343E-01 0.13170609E+04</pdfrwt>
<totfact> 0.51760839E+01</totfact>
</mgrwt>
</event>
<event>
 4    1  0.1751735E-005  0.7748899E+03  0.7818608E-02  0.9597091E-01
          2   -1    0    0  501    0  0.00000000000E+00  0.00000000000E+00  0.19302611645E+04  0.19302611645E+04  0.25500000000E-02 0.  1.
         -2   -1    0    0    0  501 -0.00000000000E+00 -0.00000000000E+00 -0.77768546923E+02  0.77768546965E+02  0.25500000000E-02 0. -1.
   -5000001    1    1    2    0    0 -0.27893122712E+03  0.67977543805E+02  0.73955889178E+03  0.83178779165E+03  0.25000000000E+03 0.  0.
    5000001    1    1    2    0    0  0.27893122712E+03 -0.67977543805E+02  0.11129337258E+04  0.11762419198E+04  0.25000000000E+03 0.  0.
<mgrwt>
<rscale>  0 0.77488994E+03</rscale>
<asrwt>0</asrwt>
<pdfrwt beam="1">  1        2 0.29696322E+00 0.77488994E+03</pdfrwt>
<pdfrwt beam="2">  1       -2 0.11964393E-01 0.77488994E+03</pdfrwt>
<totfact> 0.38109223E+02</totfact>
</mgrwt>
</event>
<event>
 4    1  0.1751735E-005  0.6046946E+03  0.7818608E-02  0.9895714E-01
          2   -1    0    0  501    0  0.00000000000E+00  0.00000000000E+00  0.10704765933E+04  0.10704765933E+04  0.25500000000E-02 0.  1.
         -2   -1    0    0    0  501 -0.00000000000E+00 -0.00000000000E+00 -0.85395502516E+02  0.85395502554E+02  0.25500000000E-02 0. -1.
   -5000001    1    1    2    0    0 -0.11546347051E+03  0.12479074376E+03  0.48669752438E+03  0.57295638838E+03  0.25000000000E+03 0.  0.
    5000001    1    1    2    0    0  0.11546347051E+03 -0.12479074376E+03  0.49838356635E+03  0.58291570742E+03  0.25000000000E+03 0.  0.
<mgrwt>
<rscale>  0 0.60469459E+03</rscale>
<asrwt>0</asrwt>
<pdfrwt beam="1">  1        2 0.16468869E+00 0.60469459E+03</pdfrwt>
<pdfrwt beam="2">  1       -2 0.13137771E-01 0.60469459E+03</pdfrwt>
<totfact> 0.10041495E+03</totfact>
</mgrwt>
</event>
<event>
 4    1  0.1751735E-005  0.7492900E+03  0.7818608E-02  0.9636465E-01
          2   -1    0    0  501    0  0.00000000000E+00  0.00000000000E+00  0.14346117516E+03  0.14346117519E+03  0.25500000000E-02 0.  1.
         -2   -1    0    0    0  501 -0.00000000000E+00 -0.00000000000E+00 -0.97837532382E+03  0.97837532382E+03  0.25500000000E-02 0. -1.
   -5000001    1    1    2    0    0  0.17547580321E+03  0.16316321914E+03 -0.20337913435E+03  0.40159315965E+03  0.25000000000E+03 0.  0.
    5000001    1    1    2    0    0 -0.17547580321E+03 -0.16316321914E+03 -0.63153501431E+03  0.72024333936E+03  0.25000000000E+03 0.  0.
<mgrwt>
<rscale>  0 0.74928999E+03</rscale>
<asrwt>0</asrwt>
<pdfrwt beam="1">  1        2 0.22070951E-01 0.74928999E+03</pdfrwt>
<pdfrwt beam="2">  1       -2 0.15051928E+00 0.74928999E+03</pdfrwt>
<totfact> 0.75987063E+01</totfact>
</mgrwt>
</event>
<event>
 4    1  0.1751735E-005  0.5658678E+03  0.7818608E-02  0.9978864E-01
          2   -1    0    0  501    0  0.00000000000E+00  0.00000000000E+00  0.10586645550E+04  0.10586645550E+04  0.25500000000E-02 0. -1.
         -2   -1    0    0    0  501 -0.00000000000E+00 -0.00000000000E+00 -0.75615636966E+02  0.75615637009E+02  0.25500000000E-02 0.  1.
   -5000001    1    1    2    0    0  0.97810119133E+02 -0.84844667830E+02  0.54772754642E+03  0.61584973993E+03  0.25000000000E+03 0.  0.
    5000001    1    1    2    0    0 -0.97810119133E+02  0.84844667830E+02  0.43532137162E+03  0.51843045209E+03  0.25000000000E+03 0.  0.
<mgrwt>
<rscale>  0 0.56586781E+03</rscale>
<asrwt>0</asrwt>
<pdfrwt beam="1">  1        2 0.16287146E+00 0.56586781E+03</pdfrwt>
<pdfrwt beam="2">  1       -2 0.11633175E-01 0.56586781E+03</pdfrwt>
<totfact> 0.12494855E+03</totfact>
</mgrwt>
</event>
<event>
 4    1  0.1751735E-005  0.7425473E+03  0.7818608E-02  0.9647115E-01
         -2   -1    0    0    0  501 -0.00000000000E+00  0.00000000000E+00  0.11897647731E+03  0.11897647734E+03  0.25500000000E-02 0.  1.
          2   -1    0    0  501    0  0.00000000000E+00 -0.00000000000E+00 -0.11585831015E+04  0.11585831015E+04  0.25500000000E-02 0. -1.
   -5000001    1    1    2    0    0 -0.23829310146E+03  0.13231785177E+03 -0.57562104592E+03  0.68420114339E+03  0.25000000000E+03 0.  0.
    5000001    1    1    2    0    0  0.23829310146E+03 -0.13231785177E+03 -0.46398557828E+03  0.59335843548E+03  0.25000000000E+03 0.  0.
<mgrwt>
<rscale>  0 0.74254733E+03</rscale>
<asrwt>0</asrwt>
<pdfrwt beam="1">  1        2 0.17824355E+00 0.74254733E+03</pdfrwt>
<pdfrwt beam="2">  1       -2 0.18304074E-01 0.74254733E+03</pdfrwt>
<totfact> 0.50347694E+02</totfact>
</mgrwt>
</event>
<event>
 4    1  0.1751735E-005  0.7539195E+03  0.7818608E-02  0.9629221E-01
         -2   -1    0    0    0  501 -0.00000000000E+00  0.00000000000E+00  0.15550994311E+03  0.15550994313E+03  0.25500000000E-02 0. -1.
          2   -1    0    0  501    0  0.00000000000E+00 -0.00000000000E+00 -0.91375917520E+03  0.91375917521E+03  0.25500000000E-02 0.  1.
   -5000001    1    1    2    0    0 -0.15161075284E+03 -0.22637019924E+03 -0.27519892419E+03  0.46093788666E+03  0.25000000000E+03 0.  0.
    5000001    1    1    2    0    0  0.15161075284E+03  0.22637019924E+03 -0.48305030790E+03  0.60833123168E+03  0.25000000000E+03 0.  0.
<mgrwt>
<rscale>  0 0.75391946E+03</rscale>
<asrwt>0</asrwt>
<pdfrwt beam="1">  1        2 0.14057833E+00 0.75391946E+03</pdfrwt>
<pdfrwt beam="2">  1       -2 0.23924607E-01 0.75391946E+03</pdfrwt>
<totfact> 0.44785316E+02</totfact>
</mgrwt>
</event>
<event>
 4    1  0.1751735E-005  0.7495921E+03  0.7818608E-02  0.9635990E-01
         -2   -1    0    0    0  501 -0.00000000000E+00  0.00000000000E+00  0.35210564945E+03  0.35210564946E+03  0.25500000000E-02 0. -1.
          2   -1    0    0  501    0  0.00000000000E+00 -0.00000000000E+00 -0.39894866535E+03  0.39894866536E+03  0.25500000000E-02 0.  1.
   -5000001    1    1    2    0    0  0.19422762386E+02  0.15887384535E+03 -0.25267766902E+03  0.38982579039E+03  0.25000000000E+03 0.  0.
    5000001    1    1    2    0    0 -0.19422762386E+02 -0.15887384535E+03  0.20583465312E+03  0.36122852443E+03  0.25000000000E+03 0.  0.
<mgrwt>
<rscale>  0 0.74959210E+03</rscale>
<asrwt>0</asrwt>
<pdfrwt beam="1">  1        2 0.61376718E-01 0.74959210E+03</pdfrwt>
<pdfrwt beam="2">  1       -2 0.54170100E-01 0.74959210E+03</pdfrwt>
<totfact> 0.25814429E+02</totfact>
</mgrwt>
</event>
<event>
 4    1  0.1751735E-005  0.6937360E+03  0.7818608E-02  0.9728005E-01
          2   -1    0    0  501    0  0.00000000000E+00  0.00000000000E+00  0.15903342907E+04  0.15903342907E+04  0.25500000000E-02 0.  1.
         -2   -1    0    0    0  501 -0.00000000000E+00 -0.00000000000E+00 -0.75655424489E+02  0.75655424532E+02  0.25500000000E-02 0. -1.
   -5000001    1    1    2    0    0 -0.23695017870E+03  0.10778894905E+02  0.66261519646E+03  0.74687379813E+03  0.25000000000E+03 0.  0.
    5000001    1    1    2    0    0  0.23695017870E+03 -0.10778894905E+02  0.85206366979E+03  0.91911591714E+03  0.25000000000E+03 0.  0.
<mgrwt>
<rscale>  0 0.69373602E+03</rscale>
<asrwt>0</asrwt>
<pdfrwt beam="1">  1        2 0.24466680E+00 0.69373602E+03</pdfrwt>
<pdfrwt beam="2">  1       -2 0.11639297E-01 0.69373602E+03</pdfrwt>
<totfact> 0.61478868E+02</totfact>
</mgrwt>
</event>
<event>
 4    1  0.1751735E-005  0.6420735E+03  0.7818608E-02  0.9821767E-01
         -2   -1    0    0    0  501 -0.00000000000E+00  0.00000000000E+00  0.12295666532E+03  0.12295666534E+03  0.25500000000E-02 0. -1.
          2   -1    0    0  501    0  0.00000000000E+00 -0.00000000000E+00 -0.83821880171E+03  0.83821880172E+03  0.25500000000E-02 0.  1.
   -5000001    1    1    2    0    0  0.94644360007E+02  0.13681262906E+03 -0.52758579835E+03  0.60706014938E+03  0.25000000000E+03 0.  0.
    5000001    1    1    2    0    0 -0.94644360007E+02 -0.13681262906E+03 -0.18767633805E+03  0.35411531768E+03  0.25000000000E+03 0.  0.
<mgrwt>
<rscale>  0 0.64207348E+03</rscale>
<asrwt>0</asrwt>
<pdfrwt beam="1">  1        2 0.12895674E+00 0.64207348E+03</pdfrwt>
<pdfrwt beam="2">  1       -2 0.18916411E-01 0.64207348E+03</pdfrwt>
<totfact> 0.76561320E+02</totfact>
</mgrwt>
</event>
<event>
 4    1  0.1751735E-005  0.7161086E+03  0.7818608E-02  0.9690074E-01
         -2   -1    0    0    0  501 -0.00000000000E+00  0.00000000000E+00  0.10025618157E+03  0.10025618161E+03  0.25500000000E-02 0. -1.
          2   -1    0    0  501    0  0.00000000000E+00 -0.00000000000E+00 -0.12787529013E+04  0.12787529013E+04  0.25500000000E-02 0.  1.
   -5000001    1    1    2    0    0 -0.24188667092E+03 -0.17644181827E+02 -0.74900478277E+03  0.82603186581E+03  0.25000000000E+03 0.  0.
    5000001    1    1    2    0    0  0.24188667092E+03  0.17644181827E+02 -0.42949193698E+03  0.55297721712E+03  0.25000000000E+03 0.  0.
<mgrwt>
<rscale>  0 0.71610860E+03</rscale>
<asrwt>0</asrwt>
<pdfrwt beam="1">  1        2 0.19673120E+00 0.71610860E+03</pdfrwt>
<pdfrwt beam="2">  1       -2 0.15424029E-01 0.71610860E+03</pdfrwt>
<totfact> 0.57424167E+02</totfact>
</mgrwt>
</event>
<event>
 4    1  0.1751735E-005  0.7400286E+03  0.7818608E-02  0.9651125E-01
         -2   -1    0    0    0  501 -0.00000000000E+00  0.00000000000E+00  0.35843887480E+02  0.35843887571E+02  0.25500000000E-02 0. -1.
          2   -1    0    0  501    0  0.00000000000E+00 -0.00000000000E+00 -0.38196358871E+04  0.38196358871E+04  0.25500000000E-02 0.  1.
   -5000001    1    1    2    0    0 -0.25962659386E+03 -0.82933992537E+02 -0.18332796313E+04  0.18702134161E+04  0.25000000000E+03 0.  0.
    5000001    1    1    2    0    0  0.25962659386E+03  0.82933992537E+02 -0.19505123683E+04  0.19852663585E+04  0.25000000000E+03 0.  0.
<mgrwt>
<rscale>  0 0.74002865E+03</rscale>
<asrwt>0</asrwt>
<pdfrwt beam="1">  1        2 0.58763597E+00 0.74002865E+03</pdfrwt>
<pdfrwt beam="2">  1       -2 0.55144472E-02 0.74002865E+03</pdfrwt>
<totfact> 0.91951896E+01</totfact>
</mgrwt>
</event>
<event>
 4    1  0.1751735E-005  0.7134067E+03  0.7818608E-02  0.9694576E-01
         -2   -1    0    0    0  501 -0.00000000000E+00  0.00000000000E+00  0.11824495880E+03  0.11824495883E+03  0.25500000000E-02 0. -1.
          2   -1    0    0  501    0  0.00000000000E+00 -0.00000000000E+00 -0.10760483790E+04  0.10760483790E+04  0.25500000000E-02 0.  1.
   -5000001    1    1    2    0    0 -0.19949454548E+03 -0.15734873720E+03 -0.50139897114E+03  0.61518909860E+03  0.25000000000E+03 0.  0.
    5000001    1    1    2    0    0  0.19949454548E+03  0.15734873720E+03 -0.45640444904E+03  0.57910423922E+03  0.25000000000E+03 0.  0.
<mgrwt>
<rscale>  0 0.71340675E+03</rscale>
<asrwt>0</asrwt>
<pdfrwt beam="1">  1        2 0.16554590E+00 0.71340675E+03</pdfrwt>
<pdfrwt beam="2">  1       -2 0.18191533E-01 0.71340675E+03</pdfrwt>
<totfact> 0.57186334E+02</totfact>
</mgrwt>
</event>
<event>
 4    1  0.1751735E-005  0.8403711E+03  0.7818608E-02  0.9503352E-01
         -2   -1    0    0    0  501 -0.00000000000E+00  0.00000000000E+00  0.20661300368E+03  0.20661300369E+03  0.25500000000E-02 0. -1.
          2   -1    0    0  501    0  0.00000000000E+00 -0.00000000000E+00 -0.85452459254E+03  0.85452459254E+03  0.25500000000E-02 0.  1.
   -5000001    1    1    2    0    0  0.11907394757E+03  0.31406963180E+03 -0.27953536950E+03  0.50344648316E+03  0.25000000000E+03 0.  0.
    5000001    1    1    2    0    0 -0.11907394757E+03 -0.31406963180E+03 -0.36837621937E+03  0.55769111307E+03  0.25000000000E+03 0.  0.
<mgrwt>
<rscale>  0 0.84037109E+03</rscale>
<asrwt>0</asrwt>
<pdfrwt beam="1">  1        2 0.13146532E+00 0.84037109E+03</pdfrwt>
<pdfrwt beam="2">  1       -2 0.31786616E-01 0.84037109E+03</pdfrwt>
<totfact> 0.29084627E+02</totfact>
</mgrwt>
</event>
<event>
 4    1  0.1751735E-005  0.1100883E+04  0.7818608E-02  0.9204331E-01
          2   -1    0    0  501    0  0.00000000000E+00  0.00000000000E+00  0.92192610053E+03  0.92192610053E+03  0.25500000000E-02 0.  1.
         -2   -1    0    0    0  501 -0.00000000000E+00 -0.00000000000E+00 -0.32864466925E+03  0.32864466926E+03  0.25500000000E-02 0. -1.
   -5000001    1    1    2    0    0  0.10162360313E+03  0.44134885342E+03  0.82999994927E+02  0.52393240622E+03  0.25000000000E+03 0.  0.
    5000001    1    1    2    0    0 -0.10162360313E+03 -0.44134885342E+03  0.51028143636E+03  0.72663836357E+03  0.25000000000E+03 0.  0.
<mgrwt>
<rscale>  0 0.11008835E+04</rscale>
<asrwt>0</asrwt>
<pdfrwt beam="1">  1        2 0.14183479E+00 0.11008835E+04</pdfrwt>
<pdfrwt beam="2">  1       -2 0.50560718E-01 0.11008835E+04</pdfrwt>
<totfact> 0.10406704E+02</totfact>
</mgrwt>
</event>
<event>
 4    1  0.1751735E-005  0.9350251E+03  0.7818608E-02  0.9382827E-01
          2   -1    0    0  501    0  0.00000000000E+00  0.00000000000E+00  0.27459912185E+03  0.27459912186E+03  0.25500000000E-02 0.  1.
         -2   -1    0    0    0  501 -0.00000000000E+00 -0.00000000000E+00 -0.79595293171E+03  0.79595293172E+03  0.25500000000E-02 0. -1.
   -5000001    1    1    2    0    0 -0.11139943261E+03 -0.32266421504E+03 -0.32991329858E+02  0.42439422368E+03  0.25000000000E+03 0.  0.
    5000001    1    1    2    0    0  0.11139943261E+03  0.32266421504E+03 -0.48836248001E+03  0.64615782989E+03  0.25000000000E+03 0.  0.
<mgrwt>
<rscale>  0 0.93502508E+03</rscale>
<asrwt>0</asrwt>
<pdfrwt beam="1">  1        2 0.42246019E-01 0.93502508E+03</pdfrwt>
<pdfrwt beam="2">  1       -2 0.12245430E+00 0.93502508E+03</pdfrwt>
<totfact> 0.61249088E+01</totfact>
</mgrwt>
</event>
<event>
 4    1  0.1751735E-005  0.8328536E+03  0.7818608E-02  0.9513644E-01
          2   -1    0    0  501    0  0.00000000000E+00  0.00000000000E+00  0.24323261666E+04  0.24323261666E+04  0.25500000000E-02 0.  1.
         -2   -1    0    0    0  501 -0.00000000000E+00 -0.00000000000E+00 -0.71294410231E+02  0.71294410276E+02  0.25500000000E-02 0. -1.
   -5000001    1    1    2    0    0 -0.26033813429E+03 -0.20672053472E+03  0.12407827015E+04  0.13086447326E+04  0.25000000000E+03 0.  0.
    5000001    1    1    2    0    0  0.26033813429E+03  0.20672053472E+03  0.11202490549E+04  0.11949758443E+04  0.25000000000E+03 0.  0.
<mgrwt>
<rscale>  0 0.83285355E+03</rscale>
<asrwt>0</asrwt>
<pdfrwt beam="1">  1        2 0.37420398E+00 0.83285355E+03</pdfrwt>
<pdfrwt beam="2">  1       -2 0.10968372E-01 0.83285355E+03</pdfrwt>
<totfact> 0.23106969E+02</totfact>
</mgrwt>
</event>
<event>
 4    1  0.1751735E-005  0.7355841E+03  0.7818608E-02  0.9658242E-01
          2   -1    0    0  501    0  0.00000000000E+00  0.00000000000E+00  0.10851119933E+04  0.10851119933E+04  0.25500000000E-02 0.  1.
         -2   -1    0    0    0  501 -0.00000000000E+00 -0.00000000000E+00 -0.12466085136E+03  0.12466085139E+03  0.25500000000E-02 0. -1.
   -5000001    1    1    2    0    0 -0.24413634533E+03  0.11220743688E+03  0.44068838839E+03  0.57349744521E+03  0.25000000000E+03 0.  0.
    5000001    1    1    2    0    0  0.24413634533E+03 -0.11220743688E+03  0.51976275351E+03  0.63627539944E+03  0.25000000000E+03 0.  0.
<mgrwt>
<rscale>  0 0.73558408E+03</rscale>
<asrwt>0</asrwt>
<pdfrwt beam="1">  1        2 0.16694030E+00 0.73558408E+03</pdfrwt>
<pdfrwt beam="2">  1       -2 0.19178593E-01 0.73558408E+03</pdfrwt>
<totfact> 0.51466943E+02</totfact>
</mgrwt>
</event>
<event>
 4    1  0.1751735E-005  0.5316231E+03  0.7818608E-02  0.1005839E+00
          2   -1    0    0  501    0  0.00000000000E+00  0.00000000000E+00  0.91554702353E+03  0.91554702353E+03  0.25500000000E-02 0.  1.
         -2   -1    0    0    0  501 -0.00000000000E+00 -0.00000000000E+00 -0.77173291980E+02  0.77173292023E+02  0.25500000000E-02 0. -1.
   -5000001    1    1    2    0    0  0.82993992080E+02  0.31542351264E+02  0.38834155516E+03  0.47031062726E+03  0.25000000000E+03 0.  0.
    5000001    1    1    2    0    0 -0.82993992080E+02 -0.31542351264E+02  0.45003217638E+03  0.52240968829E+03  0.25000000000E+03 0.  0.
<mgrwt>
<rscale>  0 0.53162309E+03</rscale>
<asrwt>0</asrwt>
<pdfrwt beam="1">  1        2 0.14085338E+00 0.53162309E+03</pdfrwt>
<pdfrwt beam="2">  1       -2 0.11872815E-01 0.53162309E+03</pdfrwt>
<totfact> 0.14909338E+03</totfact>
</mgrwt>
</event>
<event>
 4    1  0.1751735E-005  0.5483147E+03  0.7818608E-02  0.1001885E+00
          2   -1    0    0  501    0  0.00000000000E+00  0.00000000000E+00  0.99120191136E+03  0.99120191137E+03  0.25500000000E-02 0.  1.
         -2   -1    0    0    0  501 -0.00000000000E+00 -0.00000000000E+00 -0.75829420110E+02  0.75829420153E+02  0.25500000000E-02 0. -1.
   -5000001    1    1    2    0    0 -0.11854990582E+02 -0.56441555159E+02  0.26965525340E+03  0.37220981400E+03  0.25000000000E+03 0.  0.
    5000001    1    1    2    0    0  0.11854990582E+02  0.56441555159E+02  0.64571723785E+03  0.69482151752E+03  0.25000000000E+03 0.  0.
<mgrwt>
<rscale>  0 0.54831475E+03</rscale>
<asrwt>0</asrwt>
<pdfrwt beam="1">  1        2 0.15249260E+00 0.54831475E+03</pdfrwt>
<pdfrwt beam="2">  1       -2 0.11666065E-01 0.54831475E+03</pdfrwt>
<totfact> 0.13709000E+03</totfact>
</mgrwt>
</event>
<event>
 4    1  0.1751735E-005  0.8720385E+03  0.7818608E-02  0.9461226E-01
         -2   -1    0    0    0  501 -0.00000000000E+00  0.00000000000E+00  0.21466030435E+03  0.21466030436E+03  0.25500000000E-02 0. -1.
          2   -1    0    0  501    0  0.00000000000E+00 -0.00000000000E+00 -0.88564481170E+03  0.88564481170E+03  0.25500000000E-02 0.  1.
   -5000001    1    1    2    0    0  0.30252687761E+02  0.29671715169E+03 -0.58357050544E+03  0.70143483520E+03  0.25000000000E+03 0.  0.
    5000001    1    1    2    0    0 -0.30252687761E+02 -0.29671715169E+03 -0.87414001916E+02  0.39887028086E+03  0.25000000000E+03 0.  0.
<mgrwt>
<rscale>  0 0.87203850E+03</rscale>
<asrwt>0</asrwt>
<pdfrwt beam="1">  1        2 0.13625305E+00 0.87203850E+03</pdfrwt>
<pdfrwt beam="2">  1       -2 0.33024663E-01 0.87203850E+03</pdfrwt>
<totfact> 0.25727772E+02</totfact>
</mgrwt>
</event>
<event>
 4    1  0.1751735E-005  0.5791123E+03  0.7818608E-02  0.9949715E-01
          2   -1    0    0  501    0  0.00000000000E+00  0.00000000000E+00  0.84022854556E+03  0.84022854557E+03  0.25500000000E-02 0.  1.
         -2   -1    0    0    0  501 -0.00000000000E+00 -0.00000000000E+00 -0.99785651395E+02  0.99785651428E+02  0.25500000000E-02 0. -1.
   -5000001    1    1    2    0    0  0.13385333716E+03  0.55657403590E+02  0.39963183057E+03  0.49317346081E+03  0.25000000000E+03 0.  0.
    5000001    1    1    2    0    0 -0.13385333716E+03 -0.55657403590E+02  0.34081106360E+03  0.44684073618E+03  0.25000000000E+03 0.  0.
<mgrwt>
<rscale>  0 0.57911226E+03</rscale>
<asrwt>0</asrwt>
<pdfrwt beam="1">  1        2 0.12926592E+00 0.57911226E+03</pdfrwt>
<pdfrwt beam="2">  1       -2 0.15351640E-01 0.57911226E+03</pdfrwt>
<totfact> 0.10921324E+03</totfact>
</mgrwt>
</event>
<event>
 4    1  0.1751735E-005  0.6130616E+03  0.7818608E-02  0.9878672E-01
         -2   -1    0    0    0  501 -0.00000000000E+00  0.00000000000E+00  0.24543132891E+03  0.24543132893E+03  0.25500000000E-02 0. -1.
          2   -1    0    0  501    0  0.00000000000E+00 -0.00000000000E+00 -0.38284087302E+03  0.38284087303E+03  0.25500000000E-02 0.  1.
   -5000001    1    1    2    0    0 -0.10423805961E+03 -0.13329521977E+03 -0.14206844163E+02  0.30221684782E+03  0.25000000000E+03 0.  0.
    5000001    1    1    2    0    0  0.10423805961E+03  0.13329521977E+03 -0.12320269994E+03  0.32605535413E+03  0.25000000000E+03 0.  0.
<mgrwt>
<rscale>  0 0.61306164E+03</rscale>
<asrwt>0</asrwt>
<pdfrwt beam="1">  1        2 0.58898596E-01 0.61306164E+03</pdfrwt>
<pdfrwt beam="2">  1       -2 0.37758666E-01 0.61306164E+03</pdfrwt>
<totfact> 0.55703848E+02</totfact>
</mgrwt>
</event>
<event>
 4    1  0.1751735E-005  0.1434434E+04  0.7818608E-02  0.8929264E-01
         -2   -1    0    0    0  501 -0.00000000000E+00  0.00000000000E+00  0.38739596572E+03  0.38739596572E+03  0.25500000000E-02 0. -1.
          2   -1    0    0  501    0  0.00000000000E+00 -0.00000000000E+00 -0.13278403266E+04  0.13278403266E+04  0.25500000000E-02 0.  1.
   -5000001    1    1    2    0    0  0.63768651357E+03 -0.13842595002E+03 -0.27706311959E+03  0.75171125139E+03  0.25000000000E+03 0.  0.
    5000001    1    1    2    0    0 -0.63768651357E+03  0.13842595002E+03 -0.66338124133E+03  0.96352504097E+03  0.25000000000E+03 0.  0.
<mgrwt>
<rscale>  0 0.14344337E+04</rscale>
<asrwt>0</asrwt>
<pdfrwt beam="1">  1        2 0.20428312E+00 0.14344337E+04</pdfrwt>
<pdfrwt beam="2">  1       -2 0.59599380E-01 0.14344337E+04</pdfrwt>
<totfact> 0.40614168E+01</totfact>
</mgrwt>
</event>
<event>
 4    1  0.1751735E-005  0.1281028E+04  0.7818608E-02  0.9044747E-01
          2   -1    0    0  501    0  0.00000000000E+00  0.00000000000E+00  0.90862687824E+03  0.90862687824E+03  0.25500000000E-02 0.  1.
         -2   -1    0    0    0  501 -0.00000000000E+00 -0.00000000000E+00 -0.45151413199E+03  0.45151413200E+03  0.25500000000E-02 0. -1.
   -5000001    1    1    2    0    0  0.36887302854E+03  0.44255883863E+03  0.36215335598E+03  0.72496944079E+03  0.25000000000E+03 0.  0.
    5000001    1    1    2    0    0 -0.36887302854E+03 -0.44255883863E+03  0.94959390265E+02  0.63517156945E+03  0.25000000000E+03 0.  0.
<mgrwt>
<rscale>  0 0.12810275E+04</rscale>
<asrwt>0</asrwt>
<pdfrwt beam="1">  1        2 0.13978875E+00 0.12810275E+04</pdfrwt>
<pdfrwt beam="2">  1       -2 0.69463713E-01 0.12810275E+04</pdfrwt>
<totfact> 0.53693138E+01</totfact>
</mgrwt>
</event>
<event>
 4    1  0.1751735E-005  0.8916528E+03  0.7818608E-02  0.9436076E-01
         -2   -1    0    0    0  501 -0.00000000000E+00  0.00000000000E+00  0.88545718707E+02  0.88545718744E+02  0.25500000000E-02 0. -1.
          2   -1    0    0  501    0  0.00000000000E+00 -0.00000000000E+00 -0.22447295495E+04  0.22447295495E+04  0.25500000000E-02 0.  1.
   -5000001    1    1    2    0    0  0.23959903943E+03 -0.18832305651E+03 -0.53301901341E+03  0.66293479465E+03  0.25000000000E+03 0.  0.
    5000001    1    1    2    0    0 -0.23959903943E+03  0.18832305651E+03 -0.16231648174E+04  0.16703404736E+04  0.25000000000E+03 0.  0.
<mgrwt>
<rscale>  0 0.89165283E+03</rscale>
<asrwt>0</asrwt>
<pdfrwt beam="1">  1        2 0.34534296E+00 0.89165283E+03</pdfrwt>
<pdfrwt beam="2">  1       -2 0.13622420E-01 0.89165283E+03</pdfrwt>
<totfact> 0.20431997E+02</totfact>
</mgrwt>
</event>
<event>
 4    1  0.1751735E-005  0.1783492E+04  0.7818608E-02  0.8715128E-01
         -2   -1    0    0    0  501 -0.00000000000E+00  0.00000000000E+00  0.41321497253E+03  0.41321497253E+03  0.25500000000E-02 0. -1.
          2   -1    0    0  501    0  0.00000000000E+00 -0.00000000000E+00 -0.19244487506E+04  0.19244487506E+04  0.25500000000E-02 0.  1.
   -5000001    1    1    2    0    0  0.80574627979E+03 -0.27620705360E+03 -0.86678622303E+03  0.12406997059E+04  0.25000000000E+03 0.  0.
    5000001    1    1    2    0    0 -0.80574627979E+03  0.27620705360E+03 -0.64444755505E+03  0.10969640172E+04  0.25000000000E+03 0.  0.
<mgrwt>
<rscale>  0 0.17834921E+04</rscale>
<asrwt>0</asrwt>
<pdfrwt beam="1">  1        2 0.29606903E+00 0.17834921E+04</pdfrwt>
<pdfrwt beam="2">  1       -2 0.63571535E-01 0.17834921E+04</pdfrwt>
<totfact> 0.15930188E+01</totfact>
</mgrwt>
</event>
<event>
 4    1  0.1751735E-005  0.2061211E+04  0.7818608E-02  0.8578525E-01
          2   -1    0    0  501    0  0.00000000000E+00  0.00000000000E+00  0.22506183292E+04  0.22506183292E+04  0.25500000000E-02 0.  1.
         -2   -1    0    0    0  501 -0.00000000000E+00 -0.00000000000E+00 -0.47193587724E+03  0.47193587725E+03  0.25500000000E-02 0. -1.
   -5000001    1    1    2    0    0  0.72123639163E+03 -0.59334625376E+03  0.13608054695E+04  0.16692912374E+04  0.25000000000E+03 0.  0.
    5000001    1    1    2    0    0 -0.72123639163E+03  0.59334625376E+03  0.41787698244E+03  0.10532629690E+04  0.25000000000E+03 0.  0.
<mgrwt>
<rscale>  0 0.20612108E+04</rscale>
<asrwt>0</asrwt>
<pdfrwt beam="1">  1        2 0.34624897E+00 0.20612108E+04</pdfrwt>
<pdfrwt beam="2">  1       -2 0.72605520E-01 0.20612108E+04</pdfrwt>
<totfact> 0.76688975E+00</totfact>
</mgrwt>
</event>
<event>
 4    1  0.1751735E-005  0.7834295E+03  0.7818608E-02  0.9584317E-01
         -2   -1    0    0    0  501 -0.00000000000E+00  0.00000000000E+00  0.66520731137E+03  0.66520731137E+03  0.25500000000E-02 0. -1.
          2   -1    0    0  501    0  0.00000000000E+00 -0.00000000000E+00 -0.23066560039E+03  0.23066560040E+03  0.25500000000E-02 0.  1.
   -5000001    1    1    2    0    0  0.27154426953E+02 -0.28429482480E+03  0.10652254562E+03  0.39421816680E+03  0.25000000000E+03 0.  0.
    5000001    1    1    2    0    0 -0.27154426953E+02  0.28429482480E+03  0.32801916536E+03  0.50165474497E+03  0.25000000000E+03 0.  0.
<mgrwt>
<rscale>  0 0.78342950E+03</rscale>
<asrwt>0</asrwt>
<pdfrwt beam="1">  1        2 0.35487016E-01 0.78342950E+03</pdfrwt>
<pdfrwt beam="2">  1       -2 0.10233959E+00 0.78342950E+03</pdfrwt>
<totfact> 0.11602565E+02</totfact>
</mgrwt>
</event>
<event>
 4    1  0.1751735E-005  0.9871845E+03  0.7818608E-02  0.9322713E-01
          2   -1    0    0  501    0  0.00000000000E+00  0.00000000000E+00  0.56610709816E+03  0.56610709817E+03  0.25500000000E-02 0.  1.
         -2   -1    0    0    0  501 -0.00000000000E+00 -0.00000000000E+00 -0.43036612005E+03  0.43036612006E+03  0.25500000000E-02 0. -1.
   -5000001    1    1    2    0    0  0.40043448356E+01  0.39977604086E+03 -0.79435489127E+02  0.47817038235E+03  0.25000000000E+03 0.  0.
    5000001    1    1    2    0    0 -0.40043448356E+01 -0.39977604086E+03  0.21517646724E+03  0.51830283587E+03  0.25000000000E+03 0.  0.
<mgrwt>
<rscale>  0 0.98718451E+03</rscale>
<asrwt>0</asrwt>
<pdfrwt beam="1">  1        2 0.87093400E-01 0.98718451E+03</pdfrwt>
<pdfrwt beam="2">  1       -2 0.66210172E-01 0.98718451E+03</pdfrwt>
<totfact> 0.11157306E+02</totfact>
</mgrwt>
</event>
<event>
 4    1  0.1751735E-005  0.6642202E+03  0.7818608E-02  0.9780456E-01
         -2   -1    0    0    0  501 -0.00000000000E+00  0.00000000000E+00  0.78443848306E+02  0.78443848347E+02  0.25500000000E-02 0. -1.
          2   -1    0    0  501    0  0.00000000000E+00 -0.00000000000E+00 -0.14060647528E+04  0.14060647528E+04  0.25500000000E-02 0.  1.
   -5000001    1    1    2    0    0 -0.14309865844E+03 -0.16345109423E+03 -0.71872166629E+03  0.79136231894E+03  0.25000000000E+03 0.  0.
    5000001    1    1    2    0    0  0.14309865844E+03  0.16345109423E+03 -0.60889923823E+03  0.69314628223E+03  0.25000000000E+03 0.  0.
<mgrwt>
<rscale>  0 0.66422024E+03</rscale>
<asrwt>0</asrwt>
<pdfrwt beam="1">  1        2 0.21631764E+00 0.66422024E+03</pdfrwt>
<pdfrwt beam="2">  1       -2 0.12068285E-01 0.66422024E+03</pdfrwt>
<totfact> 0.73422931E+02</totfact>
</mgrwt>
</event>
<event>
 4    1  0.1751735E-005  0.9060887E+03  0.7818608E-02  0.9418002E-01
          2   -1    0    0  501    0  0.00000000000E+00  0.00000000000E+00  0.10635485224E+04  0.10635485224E+04  0.25500000000E-02 0.  1.
         -2   -1    0    0    0  501 -0.00000000000E+00 -0.00000000000E+00 -0.19298524754E+03  0.19298524755E+03  0.25500000000E-02 0. -1.
   -5000001    1    1    2    0    0 -0.31784688158E+03  0.19174222935E+03  0.53292275199E+03  0.69591549935E+03  0.25000000000E+03 0.  0.
    5000001    1    1    2    0    0  0.31784688158E+03 -0.19174222935E+03  0.33764052288E+03  0.56061827061E+03  0.25000000000E+03 0.  0.
<mgrwt>
<rscale>  0 0.90608868E+03</rscale>
<asrwt>0</asrwt>
<pdfrwt beam="1">  1        2 0.16362285E+00 0.90608868E+03</pdfrwt>
<pdfrwt beam="2">  1       -2 0.29690038E-01 0.90608868E+03</pdfrwt>
<totfact> 0.24019758E+02</totfact>
</mgrwt>
</event>
<event>
 4    1  0.1751735E-005  0.6209223E+03  0.7818608E-02  0.9862925E-01
          2   -1    0    0  501    0  0.00000000000E+00  0.00000000000E+00  0.82508838355E+03  0.82508838355E+03  0.25500000000E-02 0.  1.
         -2   -1    0    0    0  501 -0.00000000000E+00 -0.00000000000E+00 -0.11681915192E+03  0.11681915195E+03  0.25500000000E-02 0. -1.
   -5000001    1    1    2    0    0  0.17851846073E+03  0.18463503983E+02  0.41624406752E+03  0.51765709263E+03  0.25000000000E+03 0.  0.
    5000001    1    1    2    0    0 -0.17851846073E+03 -0.18463503983E+02  0.29202516411E+03  0.42425044287E+03  0.25000000000E+03 0.  0.
<mgrwt>
<rscale>  0 0.62092230E+03</rscale>
<asrwt>0</asrwt>
<pdfrwt beam="1">  1        2 0.12693668E+00 0.62092230E+03</pdfrwt>
<pdfrwt beam="2">  1       -2 0.17972177E-01 0.62092230E+03</pdfrwt>
<totfact> 0.85471652E+02</totfact>
</mgrwt>
</event>
<event>
 4    1  0.1751735E-005  0.8179205E+03  0.7818608E-02  0.9534434E-01
         -2   -1    0    0    0  501 -0.00000000000E+00  0.00000000000E+00  0.13071494382E+03  0.13071494384E+03  0.25500000000E-02 0. -1.
          2   -1    0    0  501    0  0.00000000000E+00 -0.00000000000E+00 -0.12794900606E+04  0.12794900606E+04  0.25500000000E-02 0.  1.
   -5000001    1    1    2    0    0 -0.19647803216E+03  0.16142188041E+03 -0.22918225776E+03  0.42389284951E+03  0.25000000000E+03 0.  0.
    5000001    1    1    2    0    0  0.19647803216E+03 -0.16142188041E+03 -0.91959285901E+03  0.98631215492E+03  0.25000000000E+03 0.  0.
<mgrwt>
<rscale>  0 0.81792046E+03</rscale>
<asrwt>0</asrwt>
<pdfrwt beam="1">  1        2 0.19684462E+00 0.81792046E+03</pdfrwt>
<pdfrwt beam="2">  1       -2 0.20109992E-01 0.81792046E+03</pdfrwt>
<totfact> 0.36134406E+02</totfact>
</mgrwt>
</event>
<event>
 4    1  0.1751735E-005  0.6040025E+03  0.7818608E-02  0.9897137E-01
          2   -1    0    0  501    0  0.00000000000E+00  0.00000000000E+00  0.70385888789E+03  0.70385888790E+03  0.25500000000E-02 0.  1.
         -2   -1    0    0    0  501 -0.00000000000E+00 -0.00000000000E+00 -0.12957818483E+03  0.12957818486E+03  0.25500000000E-02 0. -1.
   -5000001    1    1    2    0    0 -0.15590164546E+03  0.60902933383E+02  0.25088746889E+03  0.39173844897E+03  0.25000000000E+03 0.  0.
    5000001    1    1    2    0    0  0.15590164546E+03 -0.60902933383E+02  0.32339323417E+03  0.44169862379E+03  0.25000000000E+03 0.  0.
<mgrwt>
<rscale>  0 0.60400251E+03</rscale>
<asrwt>0</asrwt>
<pdfrwt beam="1">  1        2 0.10828598E+00 0.60400251E+03</pdfrwt>
<pdfrwt beam="2">  1       -2 0.19935106E-01 0.60400251E+03</pdfrwt>
<totfact> 0.87751965E+02</totfact>
</mgrwt>
</event>
<event>
 4    1  0.1751735E-005  0.9338241E+03  0.7818608E-02  0.9384260E-01
          2   -1    0    0  501    0  0.00000000000E+00  0.00000000000E+00  0.13259493384E+04  0.13259493384E+04  0.25500000000E-02 0.  1.
         -2   -1    0    0    0  501 -0.00000000000E+00 -0.00000000000E+00 -0.16441568182E+03  0.16441568184E+03  0.25500000000E-02 0. -1.
   -5000001    1    1    2    0    0  0.17758207551E+03 -0.35195004793E+03  0.56459813943E+03  0.73258125067E+03  0.25000000000E+03 0.  0.
    5000001    1    1    2    0    0 -0.17758207551E+03  0.35195004793E+03  0.59693551714E+03  0.75778376956E+03  0.25000000000E+03 0.  0.
<mgrwt>
<rscale>  0 0.93382410E+03</rscale>
<asrwt>0</asrwt>
<pdfrwt beam="1">  1        2 0.20399220E+00 0.93382410E+03</pdfrwt>
<pdfrwt beam="2">  1       -2 0.25294721E-01 0.93382410E+03</pdfrwt>
<totfact> 0.22423280E+02</totfact>
</mgrwt>
</event>
<event>
 4    1  0.1751735E-005  0.1078562E+04  0.7818608E-02  0.9226342E-01
         -2   -1    0    0    0  501 -0.00000000000E+00  0.00000000000E+00  0.13733609384E+03  0.13733609387E+03  0.25500000000E-02 0. -1.
          2   -1    0    0  501    0  0.00000000000E+00 -0.00000000000E+00 -0.21176076939E+04  0.21176076939E+04  0.25500000000E-02 0.  1.
   -5000001    1    1    2    0    0  0.18278634817E+03 -0.38642403706E+03 -0.54373656868E+03  0.73544805501E+03  0.25000000000E+03 0.  0.
    5000001    1    1    2    0    0 -0.18278634817E+03  0.38642403706E+03 -0.14365350314E+04  0.15194957328E+04  0.25000000000E+03 0.  0.
<mgrwt>
<rscale>  0 0.10785619E+04</rscale>
<asrwt>0</asrwt>
<pdfrwt beam="1">  1        2 0.32578577E+00 0.10785619E+04</pdfrwt>
<pdfrwt beam="2">  1       -2 0.21128631E-01 0.10785619E+04</pdfrwt>
<totfact> 0.11119487E+02</totfact>
</mgrwt>
</event>
<event>
 4    1  0.1751735E-005  0.7260797E+03  0.7818608E-02  0.9673643E-01
         -2   -1    0    0    0  501 -0.00000000000E+00  0.00000000000E+00  0.10777799124E+03  0.10777799127E+03  0.25500000000E-02 0. -1.
          2   -1    0    0  501    0  0.00000000000E+00 -0.00000000000E+00 -0.12228649479E+04  0.12228649479E+04  0.25500000000E-02 0.  1.
   -5000001    1    1    2    0    0  0.25955658399E+03  0.40185293111E+02 -0.58998947384E+03  0.69251141313E+03  0.25000000000E+03 0.  0.
    5000001    1    1    2    0    0 -0.25955658399E+03 -0.40185293111E+02 -0.52509748282E+03  0.63813152605E+03  0.25000000000E+03 0.  0.
<mgrwt>
<rscale>  0 0.72607969E+03</rscale>
<asrwt>0</asrwt>
<pdfrwt beam="1">  1        2 0.18813306E+00 0.72607969E+03</pdfrwt>
<pdfrwt beam="2">  1       -2 0.16581230E-01 0.72607969E+03</pdfrwt>
<totfact> 0.54700250E+02</totfact>
</mgrwt>
</event>
<event>
 4    1  0.1751735E-005  0.6605982E+03  0.7818608E-02  0.9787093E-01
         -2   -1    0    0    0  501 -0.00000000000E+00  0.00000000000E+00  0.62272670253E+02  0.62272670305E+02  0.25500000000E-02 0. -1.
          2   -1    0    0  501    0  0.00000000000E+00 -0.00000000000E+00 -0.17519321158E+04  0.17519321158E+04  0.25500000000E-02 0.  1.
   -5000001    1    1    2    0    0  0.10127046117E+03 -0.16757059712E+03 -0.10944548872E+04  0.11395907649E+04  0.25000000000E+03 0.  0.
    5000001    1    1    2    0    0 -0.10127046117E+03  0.16757059712E+03 -0.59520455829E+03  0.67461402115E+03  0.25000000000E+03 0.  0.
<mgrwt>
<rscale>  0 0.66059819E+03</rscale>
<asrwt>0</asrwt>
<pdfrwt beam="1">  1        2 0.26952798E+00 0.66059819E+03</pdfrwt>
<pdfrwt beam="2">  1       -2 0.95804121E-02 0.66059819E+03</pdfrwt>
<totfact> 0.69071526E+02</totfact>
</mgrwt>
</event>
<event>
 4    1  0.1751735E-005  0.1512101E+04  0.7818608E-02  0.8876446E-01
          2   -1    0    0  501    0  0.00000000000E+00  0.00000000000E+00  0.28120191426E+04  0.28120191426E+04  0.25500000000E-02 0.  1.
         -2   -1    0    0    0  501 -0.00000000000E+00 -0.00000000000E+00 -0.20327470825E+03  0.20327470826E+03  0.25500000000E-02 0. -1.
   -5000001    1    1    2    0    0 -0.39749333033E+03 -0.59110573639E+03  0.12220217654E+04  0.14363997126E+04  0.25000000000E+03 0.  0.
    5000001    1    1    2    0    0  0.39749333033E+03  0.59110573639E+03  0.13867226690E+04  0.15788941383E+04  0.25000000000E+03 0.  0.
<mgrwt>
<rscale>  0 0.15121010E+04</rscale>
<asrwt>0</asrwt>
<pdfrwt beam="1">  1        2 0.43261834E+00 0.15121010E+04</pdfrwt>
<pdfrwt beam="2">  1       -2 0.31273031E-01 0.15121010E+04</pdfrwt>
<totfact> 0.20931505E+01</totfact>
</mgrwt>
</event>
<event>
 4    1  0.1751735E-005  0.6966242E+03  0.7818608E-02  0.9723023E-01
         -2   -1    0    0    0  501 -0.00000000000E+00  0.00000000000E+00  0.51648996476E+02  0.51648996539E+02  0.25500000000E-02 0. -1.
          2   -1    0    0  501    0  0.00000000000E+00 -0.00000000000E+00 -0.23489582176E+04  0.23489582177E+04  0.25500000000E-02 0.  1.
   -5000001    1    1    2    0    0 -0.14556627479E+03  0.19345941723E+03 -0.11980245187E+04  0.12475491309E+04  0.25000000000E+03 0.  0.
    5000001    1    1    2    0    0  0.14556627479E+03 -0.19345941723E+03 -0.10992847025E+04  0.11530580833E+04  0.25000000000E+03 0.  0.
<mgrwt>
<rscale>  0 0.69662425E+03</rscale>
<asrwt>0</asrwt>
<pdfrwt beam="1">  1        2 0.36137810E+00 0.69662425E+03</pdfrwt>
<pdfrwt beam="2">  1       -2 0.79460013E-02 0.69662425E+03</pdfrwt>
<totfact> 0.43895470E+02</totfact>
</mgrwt>
</event>
<event>
 4    1  0.1751735E-005  0.7676519E+03  0.7818608E-02  0.9608057E-01
          2   -1    0    0  501    0  0.00000000000E+00  0.00000000000E+00  0.20543848061E+03  0.20543848062E+03  0.25500000000E-02 0.  1.
         -2   -1    0    0    0  501 -0.00000000000E+00 -0.00000000000E+00 -0.71711185130E+03  0.71711185131E+03  0.25500000000E-02 0. -1.
   -5000001    1    1    2    0    0 -0.24929677023E+03 -0.11023035556E+03 -0.13255728231E+03  0.39290080686E+03  0.25000000000E+03 0.  0.
    5000001    1    1    2    0    0  0.24929677023E+03  0.11023035556E+03 -0.37911608838E+03  0.52964952507E+03  0.25000000000E+03 0.  0.
<mgrwt>
<rscale>  0 0.76765192E+03</rscale>
<asrwt>0</asrwt>
<pdfrwt beam="1">  1        2 0.31605921E-01 0.76765192E+03</pdfrwt>
<pdfrwt beam="2">  1       -2 0.11032490E+00 0.76765192E+03</pdfrwt>
<totfact> 0.11036976E+02</totfact>
</mgrwt>
</event>
<event>
 4    1  0.1751735E-005  0.6414257E+03  0.7818608E-02  0.9823003E-01
          2   -1    0    0  501    0  0.00000000000E+00  0.00000000000E+00  0.93166702076E+03  0.93166702076E+03  0.25500000000E-02 0.  1.
         -2   -1    0    0    0  501 -0.00000000000E+00 -0.00000000000E+00 -0.11040074922E+03  0.11040074925E+03  0.25500000000E-02 0. -1.
   -5000001    1    1    2    0    0  0.26931896648E+02 -0.16679518428E+03  0.58719171428E+03  0.66018184607E+03  0.25000000000E+03 0.  0.
    5000001    1    1    2    0    0 -0.26931896648E+02  0.16679518428E+03  0.23407455726E+03  0.38188592395E+03  0.25000000000E+03 0.  0.
<mgrwt>
<rscale>  0 0.64142572E+03</rscale>
<asrwt>0</asrwt>
<pdfrwt beam="1">  1        2 0.14333339E+00 0.64142572E+03</pdfrwt>
<pdfrwt beam="2">  1       -2 0.16984730E-01 0.64142572E+03</pdfrwt>
<totfact> 0.79684624E+02</totfact>
</mgrwt>
</event>
<event>
 4    1  0.1751735E-005  0.6194808E+03  0.7818608E-02  0.9865794E-01
          2   -1    0    0  501    0  0.00000000000E+00  0.00000000000E+00  0.20584014770E+04  0.20584014770E+04  0.25500000000E-02 0.  1.
         -2   -1    0    0    0  501 -0.00000000000E+00 -0.00000000000E+00 -0.46608549821E+02  0.46608549891E+02  0.25500000000E-02 0. -1.
   -5000001    1    1    2    0    0 -0.73812901494E+02 -0.13586435935E+03  0.67414707207E+03  0.73544662849E+03  0.25000000000E+03 0.  0.
    5000001    1    1    2    0    0  0.73812901494E+02  0.13586435935E+03  0.13376458551E+04  0.13695633984E+04  0.25000000000E+03 0.  0.
<mgrwt>
<rscale>  0 0.61948078E+03</rscale>
<asrwt>0</asrwt>
<pdfrwt beam="1">  1        2 0.31667715E+00 0.61948078E+03</pdfrwt>
<pdfrwt beam="2">  1       -2 0.71705461E-02 0.61948078E+03</pdfrwt>
<totfact> 0.75097919E+02</totfact>
</mgrwt>
</event>
<event>
 4    1  0.1751735E-005  0.9576101E+03  0.7818608E-02  0.9356299E-01
          2   -1    0    0  501    0  0.00000000000E+00  0.00000000000E+00  0.14616959228E+04  0.14616959228E+04  0.25500000000E-02 0.  1.
         -2   -1    0    0    0  501 -0.00000000000E+00 -0.00000000000E+00 -0.15684129495E+03  0.15684129497E+03  0.25500000000E-02 0. -1.
   -5000001    1    1    2    0    0 -0.19844196935E+03  0.35521935648E+03  0.59401745887E+03  0.76217894740E+03  0.25000000000E+03 0.  0.
    5000001    1    1    2    0    0  0.19844196935E+03 -0.35521935648E+03  0.71083716900E+03  0.85635827038E+03  0.25000000000E+03 0.  0.
<mgrwt>
<rscale>  0 0.95761011E+03</rscale>
<asrwt>0</asrwt>
<pdfrwt beam="1">  1        2 0.22487630E+00 0.95761011E+03</pdfrwt>
<pdfrwt beam="2">  1       -2 0.24129429E-01 0.95761011E+03</pdfrwt>
<totfact> 0.20403129E+02</totfact>
</mgrwt>
</event>
<event>
 4    1  0.1751735E-005  0.5464160E+03  0.7818608E-02  0.1002327E+00
         -2   -1    0    0    0  501 -0.00000000000E+00  0.00000000000E+00  0.52407307408E+03  0.52407307409E+03  0.25500000000E-02 0. -1.
          2   -1    0    0  501    0  0.00000000000E+00 -0.00000000000E+00 -0.14242787281E+03  0.14242787283E+03  0.25500000000E-02 0.  1.
   -5000001    1    1    2    0    0 -0.52758111820E+02  0.47775368944E+02  0.29343338879E+03  0.39200645135E+03  0.25000000000E+03 0.  0.
    5000001    1    1    2    0    0  0.52758111820E+02 -0.47775368944E+02  0.88211812481E+02  0.27449449558E+03  0.25000000000E+03 0.  0.
<mgrwt>
<rscale>  0 0.54641601E+03</rscale>
<asrwt>0</asrwt>
<pdfrwt beam="1">  1        2 0.21911980E-01 0.54641601E+03</pdfrwt>
<pdfrwt beam="2">  1       -2 0.80626627E-01 0.54641601E+03</pdfrwt>
<totfact> 0.35047703E+02</totfact>
</mgrwt>
</event>
<event>
 4    1  0.1751735E-005  0.6550260E+03  0.7818608E-02  0.9797394E-01
         -2   -1    0    0    0  501 -0.00000000000E+00  0.00000000000E+00  0.30689348896E+03  0.30689348897E+03  0.25500000000E-02 0. -1.
          2   -1    0    0  501    0  0.00000000000E+00 -0.00000000000E+00 -0.34951793356E+03  0.34951793357E+03  0.25500000000E-02 0.  1.
   -5000001    1    1    2    0    0  0.53826142315E+02 -0.20434609573E+03 -0.31831931572E+02  0.32888881450E+03  0.25000000000E+03 0.  0.
    5000001    1    1    2    0    0 -0.53826142315E+02  0.20434609573E+03 -0.10792513027E+02  0.32752260803E+03  0.25000000000E+03 0.  0.
<mgrwt>
<rscale>  0 0.65502604E+03</rscale>
<asrwt>0</asrwt>
<pdfrwt beam="1">  1        2 0.53771989E-01 0.65502604E+03</pdfrwt>
<pdfrwt beam="2">  1       -2 0.47214383E-01 0.65502604E+03</pdfrwt>
<totfact> 0.39709680E+02</totfact>
</mgrwt>
</event>
<event>
 4    1  0.1751735E-005  0.1511195E+04  0.7818608E-02  0.8877042E-01
          2   -1    0    0  501    0  0.00000000000E+00  0.00000000000E+00  0.79204722086E+03  0.79204722087E+03  0.25500000000E-02 0.  1.
         -2   -1    0    0    0  501 -0.00000000000E+00 -0.00000000000E+00 -0.72082540773E+03  0.72082540774E+03  0.25500000000E-02 0. -1.
   -5000001    1    1    2    0    0  0.29449672649E+03 -0.52725819113E+03 -0.34388536403E+03  0.73857069101E+03  0.25000000000E+03 0.  0.
    5000001    1    1    2    0    0 -0.29449672649E+03  0.52725819113E+03  0.41510717716E+03  0.77430193759E+03  0.25000000000E+03 0.  0.
<mgrwt>
<rscale>  0 0.15111952E+04</rscale>
<asrwt>0</asrwt>
<pdfrwt beam="1">  1        2 0.12185342E+00 0.15111952E+04</pdfrwt>
<pdfrwt beam="2">  1       -2 0.11089622E+00 0.15111952E+04</pdfrwt>
<totfact> 0.21710852E+01</totfact>
</mgrwt>
</event>
<event>
 4    1  0.1751735E-005  0.1476619E+04  0.7818608E-02  0.8900151E-01
          2   -1    0    0  501    0  0.00000000000E+00  0.00000000000E+00  0.82294927818E+03  0.82294927819E+03  0.25500000000E-02 0.  1.
         -2   -1    0    0    0  501 -0.00000000000E+00 -0.00000000000E+00 -0.66237506029E+03  0.66237506029E+03  0.25500000000E-02 0. -1.
   -5000001    1    1    2    0    0 -0.28241128019E+03 -0.62959629280E+03 -0.51987794981E+00  0.73392635418E+03  0.25000000000E+03 0.  0.
    5000001    1    1    2    0    0  0.28241128019E+03  0.62959629280E+03  0.16109409584E+03  0.75139798430E+03  0.25000000000E+03 0.  0.
<mgrwt>
<rscale>  0 0.14766192E+04</rscale>
<asrwt>0</asrwt>
<pdfrwt beam="1">  1        2 0.12660758E+00 0.14766192E+04</pdfrwt>
<pdfrwt beam="2">  1       -2 0.10190386E+00 0.14766192E+04</pdfrwt>
<totfact> 0.25354037E+01</totfact>
</mgrwt>
</event>
<event>
 4    1  0.1751735E-005  0.1209753E+04  0.7818608E-02  0.9104362E-01
         -2   -1    0    0    0  501 -0.00000000000E+00  0.00000000000E+00  0.56262956624E+03  0.56262956625E+03  0.25500000000E-02 0. -1.
          2   -1    0    0  501    0  0.00000000000E+00 -0.00000000000E+00 -0.65029591089E+03  0.65029591089E+03  0.25500000000E-02 0.  1.
   -5000001    1    1    2    0    0 -0.51611838176E+03 -0.86191560268E+02  0.12857278006E+03  0.59400179194E+03  0.25000000000E+03 0.  0.
    5000001    1    1    2    0    0  0.51611838176E+03  0.86191560268E+02 -0.21623912471E+03  0.61892368520E+03  0.25000000000E+03 0.  0.
<mgrwt>
<rscale>  0 0.12097532E+04</rscale>
<asrwt>0</asrwt>
<pdfrwt beam="1">  1        2 0.10004552E+00 0.12097532E+04</pdfrwt>
<pdfrwt beam="2">  1       -2 0.86558395E-01 0.12097532E+04</pdfrwt>
<totfact> 0.51247082E+01</totfact>
</mgrwt>
</event>
<event>
 4    1  0.1751735E-005  0.9071561E+03  0.7818608E-02  0.9416680E-01
          2   -1    0    0  501    0  0.00000000000E+00  0.00000000000E+00  0.27584500251E+04  0.27584500251E+04  0.25500000000E-02 0.  1.
         -2   -1    0    0    0  501 -0.00000000000E+00 -0.00000000000E+00 -0.74582846149E+02  0.74582846192E+02  0.25500000000E-02 0. -1.
   -5000001    1    1    2    0    0  0.21914810855E+03 -0.17332395920E+03  0.54471026050E+03  0.66126874734E+03  0.25000000000E+03 0.  0.
    5000001    1    1    2    0    0 -0.21914810855E+03  0.17332395920E+03  0.21391569184E+04  0.21717641239E+04  0.25000000000E+03 0.  0.
<mgrwt>
<rscale>  0 0.90715611E+03</rscale>
<asrwt>0</asrwt>
<pdfrwt beam="1">  1        2 0.42437697E+00 0.90715611E+03</pdfrwt>
<pdfrwt beam="2">  1       -2 0.11474283E-01 0.90715611E+03</pdfrwt>
<totfact> 0.13818127E+02</totfact>
</mgrwt>
</event>
<event>
 4    1  0.1751735E-005  0.8858488E+03  0.7818608E-02  0.9443446E-01
          2   -1    0    0  501    0  0.00000000000E+00  0.00000000000E+00  0.12356188336E+04  0.12356188336E+04  0.25500000000E-02 0.  1.
         -2   -1    0    0    0  501 -0.00000000000E+00 -0.00000000000E+00 -0.15877227834E+03  0.15877227836E+03  0.25500000000E-02 0. -1.
   -5000001    1    1    2    0    0  0.60077130726E+02 -0.31615354819E+03  0.26524242327E+03  0.48622615188E+03  0.25000000000E+03 0.  0.
    5000001    1    1    2    0    0 -0.60077130726E+02  0.31615354819E+03  0.81160413200E+03  0.90816496010E+03  0.25000000000E+03 0.  0.
<mgrwt>
<rscale>  0 0.88584878E+03</rscale>
<asrwt>0</asrwt>
<pdfrwt beam="1">  1        2 0.19009521E+00 0.88584878E+03</pdfrwt>
<pdfrwt beam="2">  1       -2 0.24426504E-01 0.88584878E+03</pdfrwt>
<totfact> 0.27034432E+02</totfact>
</mgrwt>
</event>
<event>
 4    1  0.1751735E-005  0.6616527E+03  0.7818608E-02  0.9785156E-01
          2   -1    0    0  501    0  0.00000000000E+00  0.00000000000E+00  0.79899769251E+03  0.79899769251E+03  0.25500000000E-02 0.  1.
         -2   -1    0    0    0  501 -0.00000000000E+00 -0.00000000000E+00 -0.13697921197E+03  0.13697921200E+03  0.25500000000E-02 0. -1.
   -5000001    1    1    2    0    0  0.16554431140E+03 -0.10259117127E+03  0.19668729403E+03  0.37298225037E+03  0.25000000000E+03 0.  0.
    5000001    1    1    2    0    0 -0.16554431140E+03  0.10259117127E+03  0.46533118650E+03  0.56299465414E+03  0.25000000000E+03 0.  0.
<mgrwt>
<rscale>  0 0.66165270E+03</rscale>
<asrwt>0</asrwt>
<pdfrwt beam="1">  1        2 0.12292272E+00 0.66165270E+03</pdfrwt>
<pdfrwt beam="2">  1       -2 0.21073725E-01 0.66165270E+03</pdfrwt>
<totfact> 0.67547028E+02</totfact>
</mgrwt>
</event>
<event>
 4    1  0.1751735E-005  0.6878409E+03  0.7818608E-02  0.9738255E-01
          2   -1    0    0  501    0  0.00000000000E+00  0.00000000000E+00  0.13864333722E+04  0.13864333722E+04  0.25500000000E-02 0.  1.
         -2   -1    0    0    0  501 -0.00000000000E+00 -0.00000000000E+00 -0.85313341663E+02  0.85313341701E+02  0.25500000000E-02 0. -1.
   -5000001    1    1    2    0    0  0.15054119307E+03  0.47159599541E+02  0.27447477797E+03  0.40338949216E+03  0.25000000000E+03 0.  0.
    5000001    1    1    2    0    0 -0.15054119307E+03 -0.47159599541E+02  0.10266452526E+04  0.10683572218E+04  0.25000000000E+03 0.  0.
<mgrwt>
<rscale>  0 0.68784087E+03</rscale>
<asrwt>0</asrwt>
<pdfrwt beam="1">  1        2 0.21329744E+00 0.68784087E+03</pdfrwt>
<pdfrwt beam="2">  1       -2 0.13125130E-01 0.68784087E+03</pdfrwt>
<totfact> 0.65454401E+02</totfact>
</mgrwt>
</event>
<event>
 4    1  0.1751735E-005  0.7264822E+03  0.7818608E-02  0.9672986E-01
          2   -1    0    0  501    0  0.00000000000E+00  0.00000000000E+00  0.13632803785E+03  0.13632803788E+03  0.25500000000E-02 0.  1.
         -2   -1    0    0    0  501 -0.00000000000E+00 -0.00000000000E+00 -0.96784267646E+03  0.96784267646E+03  0.25500000000E-02 0. -1.
   -5000001    1    1    2    0    0  0.20592562355E+03 -0.16063171228E+03 -0.46919563304E+03  0.59232799317E+03  0.25000000000E+03 0.  0.
    5000001    1    1    2    0    0 -0.20592562355E+03  0.16063171228E+03 -0.36231900556E+03  0.51184272117E+03  0.25000000000E+03 0.  0.
<mgrwt>
<rscale>  0 0.72648219E+03</rscale>
<asrwt>0</asrwt>
<pdfrwt beam="1">  1        2 0.20973545E-01 0.72648219E+03</pdfrwt>
<pdfrwt beam="2">  1       -2 0.14889887E+00 0.72648219E+03</pdfrwt>
<totfact> 0.83077960E+01</totfact>
</mgrwt>
</event>
<event>
 4    1  0.1751735E-005  0.8341409E+03  0.7818608E-02  0.9511873E-01
          2   -1    0    0  501    0  0.00000000000E+00  0.00000000000E+00  0.83064659909E+03  0.83064659909E+03  0.25500000000E-02 0.  1.
         -2   -1    0    0    0  501 -0.00000000000E+00 -0.00000000000E+00 -0.20941245806E+03  0.20941245807E+03  0.25500000000E-02 0. -1.
   -5000001    1    1    2    0    0 -0.18903696293E+03 -0.13081988032E+03  0.61244779830E+03  0.70031501489E+03  0.25000000000E+03 0.  0.
    5000001    1    1    2    0    0  0.18903696293E+03  0.13081988032E+03  0.87863427327E+01  0.33974404227E+03  0.25000000000E+03 0.  0.
<mgrwt>
<rscale>  0 0.83414087E+03</rscale>
<asrwt>0</asrwt>
<pdfrwt beam="1">  1        2 0.12779179E+00 0.83414087E+03</pdfrwt>
<pdfrwt beam="2">  1       -2 0.32217301E-01 0.83414087E+03</pdfrwt>
<totfact> 0.29479210E+02</totfact>
</mgrwt>
</event>
<event>
 4    1  0.1751735E-005  0.7975780E+03  0.7818608E-02  0.9563529E-01
          2   -1    0    0  501    0  0.00000000000E+00  0.00000000000E+00  0.12444743285E+04  0.12444743285E+04  0.25500000000E-02 0.  1.
         -2   -1    0    0    0  501 -0.00000000000E+00 -0.00000000000E+00 -0.12779104205E+03  0.12779104208E+03  0.25500000000E-02 0. -1.
   -5000001    1    1    2    0    0 -0.27918988732E+03  0.12504253150E+03  0.46489168021E+03  0.61008761846E+03  0.25000000000E+03 0.  0.
    5000001    1    1    2    0    0  0.27918988732E+03 -0.12504253150E+03  0.65179160623E+03  0.76217775211E+03  0.25000000000E+03 0.  0.
<mgrwt>
<rscale>  0 0.79757801E+03</rscale>
<asrwt>0</asrwt>
<pdfrwt beam="1">  1        2 0.19145760E+00 0.79757801E+03</pdfrwt>
<pdfrwt beam="2">  1       -2 0.19660159E-01 0.79757801E+03</pdfrwt>
<totfact> 0.39445719E+02</totfact>
</mgrwt>
</event>
<event>
 4    1  0.1751735E-005  0.8453512E+03  0.7818608E-02  0.9496598E-01
         -2   -1    0    0    0  501 -0.00000000000E+00  0.00000000000E+00  0.12163182760E+03  0.12163182762E+03  0.25500000000E-02 0. -1.
          2   -1    0    0  501    0  0.00000000000E+00 -0.00000000000E+00 -0.14688149769E+04  0.14688149769E+04  0.25500000000E-02 0.  1.
   -5000001    1    1    2    0    0 -0.24952101528E+03 -0.19418774710E+03 -0.91294451631E+03  0.99796658664E+03  0.25000000000E+03 0.  0.
    5000001    1    1    2    0    0  0.24952101528E+03  0.19418774710E+03 -0.43423863295E+03  0.59248021784E+03  0.25000000000E+03 0.  0.
<mgrwt>
<rscale>  0 0.84535117E+03</rscale>
<asrwt>0</asrwt>
<pdfrwt beam="1">  1        2 0.22597152E+00 0.84535117E+03</pdfrwt>
<pdfrwt beam="2">  1       -2 0.18712590E-01 0.84535117E+03</pdfrwt>
<totfact> 0.31909035E+02</totfact>
</mgrwt>
</event>
<event>
 4    1  0.1751735E-005  0.6688106E+03  0.7818608E-02  0.9772109E-01
          2   -1    0    0  501    0  0.00000000000E+00  0.00000000000E+00  0.36306669784E+03  0.36306669785E+03  0.25500000000E-02 0.  1.
         -2   -1    0    0    0  501 -0.00000000000E+00 -0.00000000000E+00 -0.30800648647E+03  0.30800648648E+03  0.25500000000E-02 0. -1.
   -5000001    1    1    2    0    0  0.16062854841E+03 -0.10602997155E+03  0.13873379555E+03  0.34466063230E+03  0.25000000000E+03 0.  0.
    5000001    1    1    2    0    0 -0.16062854841E+03  0.10602997155E+03 -0.83673584183E+02  0.32641255203E+03  0.25000000000E+03 0.  0.
<mgrwt>
<rscale>  0 0.66881058E+03</rscale>
<asrwt>0</asrwt>
<pdfrwt beam="1">  1        2 0.55856415E-01 0.66881058E+03</pdfrwt>
<pdfrwt beam="2">  1       -2 0.47385614E-01 0.66881058E+03</pdfrwt>
<totfact> 0.37773684E+02</totfact>
</mgrwt>
</event>
<event>
 4    1  0.1751735E-005  0.7072827E+03  0.7818608E-02  0.9704858E-01
         -2   -1    0    0    0  501 -0.00000000000E+00  0.00000000000E+00  0.78663083872E+03  0.78663083873E+03  0.25500000000E-02 0. -1.
          2   -1    0    0  501    0  0.00000000000E+00 -0.00000000000E+00 -0.15898462469E+03  0.15898462471E+03  0.25500000000E-02 0.  1.
   -5000001    1    1    2    0    0  0.16466482135E+03 -0.91563602236E+01  0.56524401647E+03  0.63968675184E+03  0.25000000000E+03 0.  0.
    5000001    1    1    2    0    0 -0.16466482135E+03  0.91563602236E+01  0.62402197564E+02  0.30592871160E+03  0.25000000000E+03 0.  0.
<mgrwt>
<rscale>  0 0.70728271E+03</rscale>
<asrwt>0</asrwt>
<pdfrwt beam="1">  1        2 0.24459173E-01 0.70728271E+03</pdfrwt>
<pdfrwt beam="2">  1       -2 0.12102013E+00 0.70728271E+03</pdfrwt>
<totfact> 0.11811387E+02</totfact>
</mgrwt>
</event>
<event>
 4    1  0.1751735E-005  0.1127558E+04  0.7818608E-02  0.9178741E-01
          2   -1    0    0  501    0  0.00000000000E+00  0.00000000000E+00  0.66369328166E+03  0.66369328166E+03  0.25500000000E-02 0.  1.
         -2   -1    0    0    0  501 -0.00000000000E+00 -0.00000000000E+00 -0.47890592928E+03  0.47890592929E+03  0.25500000000E-02 0. -1.
   -5000001    1    1    2    0    0  0.19387303972E+03 -0.21205512240E+03 -0.32883465383E+03  0.50317627133E+03  0.25000000000E+03 0.  0.
    5000001    1    1    2    0    0 -0.19387303972E+03  0.21205512240E+03  0.51362200620E+03  0.63942293963E+03  0.25000000000E+03 0.  0.
<mgrwt>
<rscale>  0 0.11275578E+04</rscale>
<asrwt>0</asrwt>
<pdfrwt beam="1">  1        2 0.10210666E+00 0.11275578E+04</pdfrwt>
<pdfrwt beam="2">  1       -2 0.73677835E-01 0.11275578E+04</pdfrwt>
<totfact> 0.72175892E+01</totfact>
</mgrwt>
</event>
<event>
 4    1  0.1751735E-005  0.9379108E+03  0.7818608E-02  0.9379394E-01
         -2   -1    0    0    0  501 -0.00000000000E+00  0.00000000000E+00  0.91096191693E+02  0.91096191729E+02  0.25500000000E-02 0. -1.
          2   -1    0    0  501    0  0.00000000000E+00 -0.00000000000E+00 -0.24141422358E+04  0.24141422358E+04  0.25500000000E-02 0.  1.
   -5000001    1    1    2    0    0 -0.99095137707E+02 -0.37539078469E+03 -0.13798516821E+04  0.14550700163E+04  0.25000000000E+03 0.  0.
    5000001    1    1    2    0    0  0.99095137707E+02  0.37539078469E+03 -0.94319436194E+03  0.10501684112E+04  0.25000000000E+03 0.  0.
<mgrwt>
<rscale>  0 0.93791079E+03</rscale>
<asrwt>0</asrwt>
<pdfrwt beam="1">  1        2 0.37140645E+00 0.93791079E+03</pdfrwt>
<pdfrwt beam="2">  1       -2 0.14014801E-01 0.93791079E+03</pdfrwt>
<totfact> 0.15594378E+02</totfact>
</mgrwt>
</event>
<event>
 4    1  0.1751735E-005  0.9856619E+03  0.7818608E-02  0.9324412E-01
         -2   -1    0    0    0  501 -0.00000000000E+00  0.00000000000E+00  0.27928900979E+03  0.27928900980E+03  0.25500000000E-02 0. -1.
          2   -1    0    0  501    0  0.00000000000E+00 -0.00000000000E+00 -0.86964511424E+03  0.86964511424E+03  0.25500000000E-02 0.  1.
   -5000001    1    1    2    0    0  0.27570446961E+03  0.32300163558E+03 -0.28786955644E+03  0.57071174219E+03  0.25000000000E+03 0.  0.
    5000001    1    1    2    0    0 -0.27570446961E+03 -0.32300163558E+03 -0.30248654801E+03  0.57822238185E+03  0.25000000000E+03 0.  0.
<mgrwt>
<rscale>  0 0.98566185E+03</rscale>
<asrwt>0</asrwt>
<pdfrwt beam="1">  1        2 0.13379155E+00 0.98566185E+03</pdfrwt>
<pdfrwt beam="2">  1       -2 0.42967540E-01 0.98566185E+03</pdfrwt>
<totfact> 0.15772083E+02</totfact>
</mgrwt>
</event>
<event>
 4    1  0.1751735E-005  0.8946007E+03  0.7818608E-02  0.9432356E-01
         -2   -1    0    0    0  501 -0.00000000000E+00  0.00000000000E+00  0.90541223487E+02  0.90541223523E+02  0.25500000000E-02 0. -1.
          2   -1    0    0  501    0  0.00000000000E+00 -0.00000000000E+00 -0.22097954797E+04  0.22097954797E+04  0.25500000000E-02 0.  1.
   -5000001    1    1    2    0    0 -0.23896436174E+03 -0.20222178844E+03 -0.15711910587E+04  0.16214619825E+04  0.25000000000E+03 0.  0.
    5000001    1    1    2    0    0  0.23896436174E+03  0.20222178844E+03 -0.54806319749E+03  0.67887472066E+03  0.25000000000E+03 0.  0.
<mgrwt>
<rscale>  0 0.89460066E+03</rscale>
<asrwt>0</asrwt>
<pdfrwt beam="1">  1        2 0.33996849E+00 0.89460066E+03</pdfrwt>
<pdfrwt beam="2">  1       -2 0.13929421E-01 0.89460066E+03</pdfrwt>
<totfact> 0.20574548E+02</totfact>
</mgrwt>
</event>
<event>
 4    1  0.1751735E-005  0.8405435E+03  0.7818608E-02  0.9503118E-01
          2   -1    0    0  501    0  0.00000000000E+00  0.00000000000E+00  0.24987569485E+04  0.24987569485E+04  0.25500000000E-02 0.  1.
         -2   -1    0    0    0  501 -0.00000000000E+00 -0.00000000000E+00 -0.70686488529E+02  0.70686488575E+02  0.25500000000E-02 0. -1.
   -5000001    1    1    2    0    0  0.23646091952E+02 -0.15545015783E+03  0.30000941984E+03  0.42098639078E+03  0.25000000000E+03 0.  0.
    5000001    1    1    2    0    0 -0.23646091952E+02  0.15545015783E+03  0.21280610401E+04  0.21484570462E+04  0.25000000000E+03 0.  0.
<mgrwt>
<rscale>  0 0.84054353E+03</rscale>
<asrwt>0</asrwt>
<pdfrwt beam="1">  1        2 0.38442414E+00 0.84054353E+03</pdfrwt>
<pdfrwt beam="2">  1       -2 0.10874845E-01 0.84054353E+03</pdfrwt>
<totfact> 0.21474291E+02</totfact>
</mgrwt>
</event>
<event>
 4    1  0.1751735E-005  0.5904225E+03  0.7818608E-02  0.9925478E-01
          2   -1    0    0  501    0  0.00000000000E+00  0.00000000000E+00  0.10949958923E+04  0.10949958923E+04  0.25500000000E-02 0.  1.
         -2   -1    0    0    0  501 -0.00000000000E+00 -0.00000000000E+00 -0.79589046240E+02  0.79589046281E+02  0.25500000000E-02 0. -1.
   -5000001    1    1    2    0    0  0.95787715859E+02 -0.40657211470E+02  0.74158568945E+03  0.78947934118E+03  0.25000000000E+03 0.  0.
    5000001    1    1    2    0    0 -0.95787715859E+02  0.40657211470E+02  0.27382115665E+03  0.38510559745E+03  0.25000000000E+03 0.  0.
<mgrwt>
<rscale>  0 0.59042249E+03</rscale>
<asrwt>0</asrwt>
<pdfrwt beam="1">  1        2 0.16846090E+00 0.59042249E+03</pdfrwt>
<pdfrwt beam="2">  1       -2 0.12244469E-01 0.59042249E+03</pdfrwt>
<totfact> 0.10905270E+03</totfact>
</mgrwt>
</event>
<event>
 4    1  0.1751735E-005  0.5316938E+03  0.7818608E-02  0.1005822E+00
         -2   -1    0    0    0  501 -0.00000000000E+00  0.00000000000E+00  0.54589725180E+02  0.54589725240E+02  0.25500000000E-02 0. -1.
          2   -1    0    0  501    0  0.00000000000E+00 -0.00000000000E+00 -0.12946497339E+04  0.12946497339E+04  0.25500000000E-02 0.  1.
   -5000001    1    1    2    0    0 -0.17064802818E+02 -0.61359082875E+02 -0.78288204891E+03  0.82429390818E+03  0.25000000000E+03 0.  0.
    5000001    1    1    2    0    0  0.17064802818E+02  0.61359082875E+02 -0.45717795982E+03  0.52494555097E+03  0.25000000000E+03 0.  0.
<mgrwt>
<rscale>  0 0.53169380E+03</rscale>
<asrwt>0</asrwt>
<pdfrwt beam="1">  1        2 0.19917686E+00 0.53169380E+03</pdfrwt>
<pdfrwt beam="2">  1       -2 0.83984202E-02 0.53169380E+03</pdfrwt>
<totfact> 0.15368556E+03</totfact>
</mgrwt>
</event>
<event>
 4    1  0.1751735E-005  0.7785097E+03  0.7818608E-02  0.9591655E-01
          2   -1    0    0  501    0  0.00000000000E+00  0.00000000000E+00  0.96684909476E+03  0.96684909476E+03  0.25500000000E-02 0.  1.
         -2   -1    0    0    0  501 -0.00000000000E+00 -0.00000000000E+00 -0.15671458754E+03  0.15671458756E+03  0.25500000000E-02 0. -1.
   -5000001    1    1    2    0    0 -0.10740433399E+03  0.24860514751E+03  0.58578252345E+03  0.69208480341E+03  0.25000000000E+03 0.  0.
    5000001    1    1    2    0    0  0.10740433399E+03 -0.24860514751E+03  0.22435198376E+03  0.43147887891E+03  0.25000000000E+03 0.  0.
<mgrwt>
<rscale>  0 0.77850975E+03</rscale>
<asrwt>0</asrwt>
<pdfrwt beam="1">  1        2 0.14874602E+00 0.77850975E+03</pdfrwt>
<pdfrwt beam="2">  1       -2 0.24109936E-01 0.77850975E+03</pdfrwt>
<totfact> 0.40714326E+02</totfact>
</mgrwt>
</event>
<event>
 4    1  0.1751735E-005  0.5324469E+03  0.7818608E-02  0.1005640E+00
         -2   -1    0    0    0  501 -0.00000000000E+00  0.00000000000E+00  0.29617170228E+02  0.29617170338E+02  0.25500000000E-02 0. -1.
          2   -1    0    0  501    0  0.00000000000E+00 -0.00000000000E+00 -0.23930347786E+04  0.23930347786E+04  0.25500000000E-02 0.  1.
   -5000001    1    1    2    0    0 -0.69465190519E+02  0.36129481484E+02 -0.13972559479E+04  0.14216029460E+04  0.25000000000E+03 0.  0.
    5000001    1    1    2    0    0  0.69465190519E+02 -0.36129481484E+02 -0.96616166051E+03  0.10010490030E+04  0.25000000000E+03 0.  0.
<mgrwt>
<rscale>  0 0.53244687E+03</rscale>
<asrwt>0</asrwt>
<pdfrwt beam="1">  1        2 0.36815904E+00 0.53244687E+03</pdfrwt>
<pdfrwt beam="2">  1       -2 0.45564896E-02 0.53244687E+03</pdfrwt>
<totfact> 0.10060159E+03</totfact>
</mgrwt>
</event>
<event>
 4    1  0.1751735E-005  0.6997987E+03  0.7818608E-02  0.9717576E-01
          2   -1    0    0  501    0  0.00000000000E+00  0.00000000000E+00  0.29390105429E+04  0.29390105429E+04  0.25500000000E-02 0.  1.
         -2   -1    0    0    0  501 -0.00000000000E+00 -0.00000000000E+00 -0.41656727799E+02  0.41656727877E+02  0.25500000000E-02 0. -1.
   -5000001    1    1    2    0    0 -0.17436310605E+03  0.45256254266E+02  0.21547348626E+04  0.21766563692E+04  0.25000000000E+03 0.  0.
    5000001    1    1    2    0    0  0.17436310605E+03 -0.45256254266E+02  0.74261895245E+03  0.80401090157E+03  0.25000000000E+03 0.  0.
<mgrwt>
<rscale>  0 0.69979872E+03</rscale>
<asrwt>0</asrwt>
<pdfrwt beam="1">  1        2 0.45215554E+00 0.69979872E+03</pdfrwt>
<pdfrwt beam="2">  1       -2 0.64087263E-02 0.69979872E+03</pdfrwt>
<totfact> 0.28164092E+02</totfact>
</mgrwt>
</event>
<event>
 4    1  0.1751735E-005  0.7852085E+03  0.7818608E-02  0.9581677E-01
         -2   -1    0    0    0  501 -0.00000000000E+00  0.00000000000E+00  0.16244401611E+03  0.16244401613E+03  0.25500000000E-02 0. -1.
          2   -1    0    0  501    0  0.00000000000E+00 -0.00000000000E+00 -0.94886897295E+03  0.94886897296E+03  0.25500000000E-02 0.  1.
   -5000001    1    1    2    0    0 -0.25839530874E+03 -0.14186518625E+03 -0.29572836933E+03  0.48667148578E+03  0.25000000000E+03 0.  0.
    5000001    1    1    2    0    0  0.25839530874E+03  0.14186518625E+03 -0.49069658752E+03  0.62464150330E+03  0.25000000000E+03 0.  0.
<mgrwt>
<rscale>  0 0.78520847E+03</rscale>
<asrwt>0</asrwt>
<pdfrwt beam="1">  1        2 0.14597984E+00 0.78520847E+03</pdfrwt>
<pdfrwt beam="2">  1       -2 0.24991388E-01 0.78520847E+03</pdfrwt>
<totfact> 0.39199257E+02</totfact>
</mgrwt>
</event>
<event>
 4    1  0.1751735E-005  0.6068238E+03  0.7818608E-02  0.9891349E-01
          2   -1    0    0  501    0  0.00000000000E+00  0.00000000000E+00  0.28989397107E+04  0.28989397107E+04  0.25500000000E-02 0.  1.
         -2   -1    0    0    0  501 -0.00000000000E+00 -0.00000000000E+00 -0.31756013473E+02  0.31756013576E+02  0.25500000000E-02 0. -1.
   -5000001    1    1    2    0    0 -0.12273260908E+03 -0.10542331563E+03  0.11527534946E+04  0.11905956442E+04  0.25000000000E+03 0.  0.
    5000001    1    1    2    0    0  0.12273260908E+03  0.10542331563E+03  0.17144302027E+04  0.17401000801E+04  0.25000000000E+03 0.  0.
<mgrwt>
<rscale>  0 0.60682376E+03</rscale>
<asrwt>0</asrwt>
<pdfrwt beam="1">  1        2 0.44599067E+00 0.60682376E+03</pdfrwt>
<pdfrwt beam="2">  1       -2 0.48855411E-02 0.60682376E+03</pdfrwt>
<totfact> 0.45961358E+02</totfact>
</mgrwt>
</event>
<event>
 4    1  0.1751735E-005  0.6749491E+03  0.7818608E-02  0.9761058E-01
          2   -1    0    0  501    0  0.00000000000E+00  0.00000000000E+00  0.60530755593E+03  0.60530755594E+03  0.25500000000E-02 0.  1.
         -2   -1    0    0    0  501 -0.00000000000E+00 -0.00000000000E+00 -0.18815074890E+03  0.18815074892E+03  0.25500000000E-02 0. -1.
   -5000001    1    1    2    0    0 -0.13321660806E+03  0.62559226558E+02  0.41127264217E+03  0.50329465295E+03  0.25000000000E+03 0.  0.
    5000001    1    1    2    0    0  0.13321660806E+03 -0.62559226558E+02  0.58841648556E+01  0.29016365190E+03  0.25000000000E+03 0.  0.
<mgrwt>
<rscale>  0 0.67494909E+03</rscale>
<asrwt>0</asrwt>
<pdfrwt beam="1">  1        2 0.93124240E-01 0.67494909E+03</pdfrwt>
<pdfrwt beam="2">  1       -2 0.28946269E-01 0.67494909E+03</pdfrwt>
<totfact> 0.54096938E+02</totfact>
</mgrwt>
</event>
<event>
 4    1  0.1751735E-005  0.6062246E+03  0.7818608E-02  0.9892575E-01
          2   -1    0    0  501    0  0.00000000000E+00  0.00000000000E+00  0.38384456982E+04  0.38384456982E+04  0.25500000000E-02 0.  1.
         -2   -1    0    0    0  501 -0.00000000000E+00 -0.00000000000E+00 -0.23936009220E+02  0.23936009356E+02  0.25500000000E-02 0. -1.
   -5000001    1    1    2    0    0  0.11954513645E+03 -0.96337564940E+01  0.26873886955E+04  0.27016553906E+04  0.25000000000E+03 0.  0.
    5000001    1    1    2    0    0 -0.11954513645E+03  0.96337564940E+01  0.11271209935E+04  0.11607263170E+04  0.25000000000E+03 0.  0.
<mgrwt>
<rscale>  0 0.60622462E+03</rscale>
<asrwt>0</asrwt>
<pdfrwt beam="1">  1        2 0.59052961E+00 0.60622462E+03</pdfrwt>
<pdfrwt beam="2">  1       -2 0.36824661E-02 0.60622462E+03</pdfrwt>
<totfact> 0.16978245E+02</totfact>
</mgrwt>
</event>
<event>
 4    1  0.1751735E-005  0.5800704E+03  0.7818608E-02  0.9947639E-01
         -2   -1    0    0    0  501 -0.00000000000E+00  0.00000000000E+00  0.55004246122E+03  0.55004246122E+03  0.25500000000E-02 0. -1.
          2   -1    0    0  501    0  0.00000000000E+00 -0.00000000000E+00 -0.15293438274E+03  0.15293438277E+03  0.25500000000E-02 0.  1.
   -5000001    1    1    2    0    0  0.14457427234E+03  0.54136037010E+01  0.23037320095E+03  0.36946290618E+03  0.25000000000E+03 0.  0.
    5000001    1    1    2    0    0 -0.14457427234E+03 -0.54136037010E+01  0.16673487753E+03  0.33351393781E+03  0.25000000000E+03 0.  0.
<mgrwt>
<rscale>  0 0.58007036E+03</rscale>
<asrwt>0</asrwt>
<pdfrwt beam="1">  1        2 0.23528367E-01 0.58007036E+03</pdfrwt>
<pdfrwt beam="2">  1       -2 0.84621917E-01 0.58007036E+03</pdfrwt>
<totfact> 0.28932316E+02</totfact>
</mgrwt>
</event>
<event>
 4    1  0.1751735E-005  0.6335889E+03  0.7818608E-02  0.9838070E-01
         -2   -1    0    0    0  501 -0.00000000000E+00  0.00000000000E+00  0.85598869676E+02  0.85598869714E+02  0.25500000000E-02 0. -1.
          2   -1    0    0  501    0  0.00000000000E+00 -0.00000000000E+00 -0.11724303864E+04  0.11724303864E+04  0.25500000000E-02 0.  1.
   -5000001    1    1    2    0    0  0.66128252591E+01 -0.18383988662E+03 -0.66927404460E+03  0.73774560666E+03  0.25000000000E+03 0.  0.
    5000001    1    1    2    0    0 -0.66128252591E+01  0.18383988662E+03 -0.41755747215E+03  0.52028364948E+03  0.25000000000E+03 0.  0.
<mgrwt>
<rscale>  0 0.63358888E+03</rscale>
<asrwt>0</asrwt>
<pdfrwt beam="1">  1        2 0.18037389E+00 0.63358888E+03</pdfrwt>
<pdfrwt beam="2">  1       -2 0.13169058E-01 0.63358888E+03</pdfrwt>
<totfact> 0.86726357E+02</totfact>
</mgrwt>
</event>
<event>
 4    1  0.1751735E-005  0.6559062E+03  0.7818608E-02  0.9795759E-01
         -2   -1    0    0    0  501 -0.00000000000E+00  0.00000000000E+00  0.47554716737E+03  0.47554716738E+03  0.25500000000E-02 0. -1.
          2   -1    0    0  501    0  0.00000000000E+00 -0.00000000000E+00 -0.22616734165E+03  0.22616734167E+03  0.25500000000E-02 0.  1.
   -5000001    1    1    2    0    0  0.93728241062E+02 -0.19021816996E+03  0.11480889470E+03  0.34734567459E+03  0.25000000000E+03 0.  0.
    5000001    1    1    2    0    0 -0.93728241062E+02  0.19021816996E+03  0.13457093102E+03  0.35436883445E+03  0.25000000000E+03 0.  0.
<mgrwt>
<rscale>  0 0.65590621E+03</rscale>
<asrwt>0</asrwt>
<pdfrwt beam="1">  1        2 0.34794975E-01 0.65590621E+03</pdfrwt>
<pdfrwt beam="2">  1       -2 0.73161103E-01 0.65590621E+03</pdfrwt>
<totfact> 0.25665211E+02</totfact>
</mgrwt>
</event>
<event>
 4    1  0.1751735E-005  0.1392557E+04  0.7818608E-02  0.8959224E-01
          2   -1    0    0  501    0  0.00000000000E+00  0.00000000000E+00  0.15379254662E+04  0.15379254662E+04  0.25500000000E-02 0.  1.
         -2   -1    0    0    0  501 -0.00000000000E+00 -0.00000000000E+00 -0.31523235288E+03  0.31523235289E+03  0.25500000000E-02 0. -1.
   -5000001    1    1    2    0    0 -0.27834291152E+03 -0.54113875750E+03  0.30789287518E+03  0.72636351357E+03  0.25000000000E+03 0.  0.
    5000001    1    1    2    0    0  0.27834291152E+03  0.54113875750E+03  0.91480023814E+03  0.11267943055E+04  0.25000000000E+03 0.  0.
<mgrwt>
<rscale>  0 0.13925572E+04</rscale>
<asrwt>0</asrwt>
<pdfrwt beam="1">  1        2 0.23660392E+00 0.13925572E+04</pdfrwt>
<pdfrwt beam="2">  1       -2 0.48497285E-01 0.13925572E+04</pdfrwt>
<totfact> 0.47375832E+01</totfact>
</mgrwt>
</event>
<event>
 4    1  0.1751735E-005  0.6853595E+03  0.7818608E-02  0.9742602E-01
         -2   -1    0    0    0  501 -0.00000000000E+00  0.00000000000E+00  0.40176321899E+03  0.40176321900E+03  0.25500000000E-02 0. -1.
          2   -1    0    0  501    0  0.00000000000E+00 -0.00000000000E+00 -0.29228515444E+03  0.29228515446E+03  0.25500000000E-02 0.  1.
   -5000001    1    1    2    0    0  0.22418086511E+02  0.22298991895E+03 -0.14704012200E+02  0.33607035354E+03  0.25000000000E+03 0.  0.
    5000001    1    1    2    0    0 -0.22418086511E+02 -0.22298991895E+03  0.12418207675E+03  0.35797801991E+03  0.25000000000E+03 0.  0.
<mgrwt>
<rscale>  0 0.68535954E+03</rscale>
<asrwt>0</asrwt>
<pdfrwt beam="1">  1        2 0.44966947E-01 0.68535954E+03</pdfrwt>
<pdfrwt beam="2">  1       -2 0.61809726E-01 0.68535954E+03</pdfrwt>
<totfact> 0.27755582E+02</totfact>
</mgrwt>
</event>
<event>
 4    1  0.1751735E-005  0.8554879E+03  0.7818608E-02  0.9483001E-01
          2   -1    0    0  501    0  0.00000000000E+00  0.00000000000E+00  0.82071256214E+03  0.82071256214E+03  0.25500000000E-02 0. -1.
         -2   -1    0    0    0  501 -0.00000000000E+00 -0.00000000000E+00 -0.22293416273E+03  0.22293416274E+03  0.25500000000E-02 0.  1.
   -5000001    1    1    2    0    0  0.25361902799E+02  0.34042441679E+03  0.22238349647E+03  0.47800254096E+03  0.25000000000E+03 0.  0.
    5000001    1    1    2    0    0 -0.25361902799E+02 -0.34042441679E+03  0.37539490294E+03  0.56564418393E+03  0.25000000000E+03 0.  0.
<mgrwt>
<rscale>  0 0.85548786E+03</rscale>
<asrwt>0</asrwt>
<pdfrwt beam="1">  1        2 0.12626347E+00 0.85548786E+03</pdfrwt>
<pdfrwt beam="2">  1       -2 0.34297564E-01 0.85548786E+03</pdfrwt>
<totfact> 0.26593926E+02</totfact>
</mgrwt>
</event>
<event>
 4    1  0.1751735E-005  0.1142024E+04  0.7818608E-02  0.9165173E-01
          2   -1    0    0  501    0  0.00000000000E+00  0.00000000000E+00  0.48919665143E+03  0.48919665144E+03  0.25500000000E-02 0.  1.
         -2   -1    0    0    0  501 -0.00000000000E+00 -0.00000000000E+00 -0.66651068587E+03  0.66651068588E+03  0.25500000000E-02 0. -1.
   -5000001    1    1    2    0    0 -0.41421260618E+03  0.20301816011E+03  0.13935645201E+03  0.54287077391E+03  0.25000000000E+03 0.  0.
    5000001    1    1    2    0    0  0.41421260618E+03 -0.20301816011E+03 -0.31667048645E+03  0.61283656340E+03  0.25000000000E+03 0.  0.
<mgrwt>
<rscale>  0 0.11420242E+04</rscale>
<asrwt>0</asrwt>
<pdfrwt beam="1">  1        2 0.75261023E-01 0.11420242E+04</pdfrwt>
<pdfrwt beam="2">  1       -2 0.10254011E+00 0.11420242E+04</pdfrwt>
<totfact> 0.48680057E+01</totfact>
</mgrwt>
</event>
<event>
 4    1  0.1751735E-005  0.5363173E+03  0.7818608E-02  0.1004711E+00
         -2   -1    0    0    0  501 -0.00000000000E+00  0.00000000000E+00  0.61318882356E+02  0.61318882409E+02  0.25500000000E-02 0. -1.
          2   -1    0    0  501    0  0.00000000000E+00 -0.00000000000E+00 -0.11727067087E+04  0.11727067087E+04  0.25500000000E-02 0.  1.
   -5000001    1    1    2    0    0 -0.53415857688E+02 -0.24656363962E+02 -0.73314687499E+03  0.77683043867E+03  0.25000000000E+03 0.  0.
    5000001    1    1    2    0    0  0.53415857688E+02  0.24656363962E+02 -0.37824095136E+03  0.45719515245E+03  0.25000000000E+03 0.  0.
<mgrwt>
<rscale>  0 0.53631731E+03</rscale>
<asrwt>0</asrwt>
<pdfrwt beam="1">  1        2 0.18041640E+00 0.53631731E+03</pdfrwt>
<pdfrwt beam="2">  1       -2 0.94336751E-02 0.53631731E+03</pdfrwt>
<totfact> 0.15007479E+03</totfact>
</mgrwt>
</event>
<event>
 4    1  0.1751735E-005  0.1263973E+04  0.7818608E-02  0.9058633E-01
         -2   -1    0    0    0  501 -0.00000000000E+00  0.00000000000E+00  0.24354655879E+03  0.24354655880E+03  0.25500000000E-02 0. -1.
          2   -1    0    0  501    0  0.00000000000E+00 -0.00000000000E+00 -0.16399606299E+04  0.16399606299E+04  0.25500000000E-02 0.  1.
   -5000001    1    1    2    0    0 -0.56937276463E+03 -0.10901786238E+03 -0.65510776113E+03  0.90980020780E+03  0.25000000000E+03 0.  0.
    5000001    1    1    2    0    0  0.56937276463E+03  0.10901786238E+03 -0.74130630996E+03  0.97370698088E+03  0.25000000000E+03 0.  0.
<mgrwt>
<rscale>  0 0.12639727E+04</rscale>
<asrwt>0</asrwt>
<pdfrwt beam="1">  1        2 0.25230163E+00 0.12639727E+04</pdfrwt>
<pdfrwt beam="2">  1       -2 0.37468702E-01 0.12639727E+04</pdfrwt>
<totfact> 0.69900854E+01</totfact>
</mgrwt>
</event>
<event>
 4    1  0.1751735E-005  0.6361915E+03  0.7818608E-02  0.9833040E-01
         -2   -1    0    0    0  501 -0.00000000000E+00  0.00000000000E+00  0.78356283612E+02  0.78356283653E+02  0.25500000000E-02 0. -1.
          2   -1    0    0  501    0  0.00000000000E+00 -0.00000000000E+00 -0.12913438480E+04  0.12913438480E+04  0.25500000000E-02 0.  1.
   -5000001    1    1    2    0    0  0.18628828937E+03  0.35629472970E+02 -0.49437148515E+03  0.58555610443E+03  0.25000000000E+03 0.  0.
    5000001    1    1    2    0    0 -0.18628828937E+03 -0.35629472970E+02 -0.71861607919E+03  0.78414402718E+03  0.25000000000E+03 0.  0.
<mgrwt>
<rscale>  0 0.63619150E+03</rscale>
<asrwt>0</asrwt>
<pdfrwt beam="1">  1        2 0.19866827E+00 0.63619150E+03</pdfrwt>
<pdfrwt beam="2">  1       -2 0.12054814E-01 0.63619150E+03</pdfrwt>
<totfact> 0.85573772E+02</totfact>
</mgrwt>
</event>
<event>
 4    1  0.1751735E-005  0.1587087E+04  0.7818608E-02  0.8828520E-01
          2   -1    0    0  501    0  0.00000000000E+00  0.00000000000E+00  0.18943754274E+04  0.18943754274E+04  0.25500000000E-02 0.  1.
         -2   -1    0    0    0  501 -0.00000000000E+00 -0.00000000000E+00 -0.33241101529E+03  0.33241101530E+03  0.25500000000E-02 0. -1.
   -5000001    1    1    2    0    0 -0.64706576314E+03 -0.22997340012E+03  0.34709829903E+03  0.80904826543E+03  0.25000000000E+03 0.  0.
    5000001    1    1    2    0    0  0.64706576314E+03  0.22997340012E+03  0.12148661131E+04  0.14177381773E+04  0.25000000000E+03 0.  0.
<mgrwt>
<rscale>  0 0.15870870E+04</rscale>
<asrwt>0</asrwt>
<pdfrwt beam="1">  1        2 0.29144238E+00 0.15870870E+04</pdfrwt>
<pdfrwt beam="2">  1       -2 0.51140156E-01 0.15870870E+04</pdfrwt>
<totfact> 0.26529564E+01</totfact>
</mgrwt>
</event>
<event>
 4    1  0.1751735E-005  0.1077562E+04  0.7818608E-02  0.9227341E-01
         -2   -1    0    0    0  501 -0.00000000000E+00  0.00000000000E+00  0.16911557748E+04  0.16911557748E+04  0.25500000000E-02 0. -1.
          2   -1    0    0  501    0  0.00000000000E+00 -0.00000000000E+00 -0.17164896144E+03  0.17164896146E+03  0.25500000000E-02 0.  1.
   -5000001    1    1    2    0    0 -0.19848325186E+03  0.43343547628E+03  0.72021067114E+03  0.89914699810E+03  0.25000000000E+03 0.  0.
    5000001    1    1    2    0    0  0.19848325186E+03 -0.43343547628E+03  0.79929614226E+03  0.96365773821E+03  0.25000000000E+03 0.  0.
<mgrwt>
<rscale>  0 0.10775623E+04</rscale>
<asrwt>0</asrwt>
<pdfrwt beam="1">  1        2 0.26407531E-01 0.10775623E+04</pdfrwt>
<pdfrwt beam="2">  1       -2 0.26017783E+00 0.10775623E+04</pdfrwt>
<totfact> 0.11467219E+01</totfact>
</mgrwt>
</event>
<event>
 4    1  0.1751735E-005  0.8708066E+03  0.7818608E-02  0.9462829E-01
          2   -1    0    0  501    0  0.00000000000E+00  0.00000000000E+00  0.10300675328E+04  0.10300675329E+04  0.25500000000E-02 0.  1.
         -2   -1    0    0    0  501 -0.00000000000E+00 -0.00000000000E+00 -0.18404235458E+03  0.18404235460E+03  0.25500000000E-02 0. -1.
   -5000001    1    1    2    0    0 -0.26576836553E+03 -0.23138739924E+03  0.49813462859E+03  0.65940204795E+03  0.25000000000E+03 0.  0.
    5000001    1    1    2    0    0  0.26576836553E+03  0.23138739924E+03  0.34789054968E+03  0.55470783950E+03  0.25000000000E+03 0.  0.
<mgrwt>
<rscale>  0 0.87080665E+03</rscale>
<asrwt>0</asrwt>
<pdfrwt beam="1">  1        2 0.15847193E+00 0.87080665E+03</pdfrwt>
<pdfrwt beam="2">  1       -2 0.28314208E-01 0.87080665E+03</pdfrwt>
<totfact> 0.27572911E+02</totfact>
</mgrwt>
</event>
<event>
 4    1  0.1751735E-005  0.7146596E+03  0.7818608E-02  0.9692486E-01
         -2   -1    0    0    0  501 -0.00000000000E+00  0.00000000000E+00  0.54832541113E+02  0.54832541172E+02  0.25500000000E-02 0. -1.
          2   -1    0    0  501    0  0.00000000000E+00 -0.00000000000E+00 -0.23286276263E+04  0.23286276263E+04  0.25500000000E-02 0.  1.
   -5000001    1    1    2    0    0 -0.76072011092E+02  0.23865034205E+03 -0.97203320265E+03  0.10344512959E+04  0.25000000000E+03 0.  0.
    5000001    1    1    2    0    0  0.76072011092E+02 -0.23865034205E+03 -0.13017618825E+04  0.13490088715E+04  0.25000000000E+03 0.  0.
<mgrwt>
<rscale>  0 0.71465956E+03</rscale>
<asrwt>0</asrwt>
<pdfrwt beam="1">  1        2 0.35825033E+00 0.71465956E+03</pdfrwt>
<pdfrwt beam="2">  1       -2 0.84357774E-02 0.71465956E+03</pdfrwt>
<totfact> 0.40873881E+02</totfact>
</mgrwt>
</event>
<event>
 4    1  0.1751735E-005  0.8815642E+03  0.7818608E-02  0.9448925E-01
          2   -1    0    0  501    0  0.00000000000E+00  0.00000000000E+00  0.20786887676E+04  0.20786887676E+04  0.25500000000E-02 0.  1.
         -2   -1    0    0    0  501 -0.00000000000E+00 -0.00000000000E+00 -0.93467029984E+02  0.93467030019E+02  0.25500000000E-02 0. -1.
   -5000001    1    1    2    0    0  0.30936653148E+03  0.18932011223E+03  0.10307118033E+04  0.11208998961E+04  0.25000000000E+03 0.  0.
    5000001    1    1    2    0    0 -0.30936653148E+03 -0.18932011223E+03  0.95450993429E+03  0.10512559015E+04  0.25000000000E+03 0.  0.
<mgrwt>
<rscale>  0 0.88156421E+03</rscale>
<asrwt>0</asrwt>
<pdfrwt beam="1">  1        2 0.31979824E+00 0.88156421E+03</pdfrwt>
<pdfrwt beam="2">  1       -2 0.14379545E-01 0.88156421E+03</pdfrwt>
<totfact> 0.23060974E+02</totfact>
</mgrwt>
</event>
<event>
 4    1  0.1751735E-005  0.5449261E+03  0.7818608E-02  0.1002675E+00
          2   -1    0    0  501    0  0.00000000000E+00  0.00000000000E+00  0.48645248210E+03  0.48645248211E+03  0.25500000000E-02 0.  1.
         -2   -1    0    0    0  501 -0.00000000000E+00 -0.00000000000E+00 -0.15260714428E+03  0.15260714430E+03  0.25500000000E-02 0. -1.
   -5000001    1    1    2    0    0  0.76862298823E+02  0.73470397133E+02  0.19125287983E+03  0.33223993782E+03  0.25000000000E+03 0.  0.
    5000001    1    1    2    0    0 -0.76862298823E+02 -0.73470397133E+02  0.14259245799E+03  0.30681968860E+03  0.25000000000E+03 0.  0.
<mgrwt>
<rscale>  0 0.54492614E+03</rscale>
<asrwt>0</asrwt>
<pdfrwt beam="1">  1        2 0.74838844E-01 0.54492614E+03</pdfrwt>
<pdfrwt beam="2">  1       -2 0.23478022E-01 0.54492614E+03</pdfrwt>
<totfact> 0.10232486E+03</totfact>
</mgrwt>
</event>
<event>
 4    1  0.1751735E-005  0.1547300E+04  0.7818608E-02  0.8853594E-01
         -2   -1    0    0    0  501 -0.00000000000E+00  0.00000000000E+00  0.21679083639E+03  0.21679083641E+03  0.25500000000E-02 0. -1.
          2   -1    0    0  501    0  0.00000000000E+00 -0.00000000000E+00 -0.27608846025E+04  0.27608846025E+04  0.25500000000E-02 0.  1.
   -5000001    1    1    2    0    0  0.47588648241E+03  0.50938258026E+03 -0.17027757465E+04  0.18568478129E+04  0.25000000000E+03 0.  0.
    5000001    1    1    2    0    0 -0.47588648241E+03 -0.50938258026E+03 -0.84131801961E+03  0.11208276261E+04  0.25000000000E+03 0.  0.
<mgrwt>
<rscale>  0 0.15473002E+04</rscale>
<asrwt>0</asrwt>
<pdfrwt beam="1">  1        2 0.42475145E+00 0.15473002E+04</pdfrwt>
<pdfrwt beam="2">  1       -2 0.33352438E-01 0.15473002E+04</pdfrwt>
<totfact> 0.19830590E+01</totfact>
</mgrwt>
</event>
<event>
 4    1  0.1751735E-005  0.5950850E+03  0.7818608E-02  0.9915656E-01
          2   -1    0    0  501    0  0.00000000000E+00  0.00000000000E+00  0.12565567168E+04  0.12565567168E+04  0.25500000000E-02 0.  1.
         -2   -1    0    0    0  501 -0.00000000000E+00 -0.00000000000E+00 -0.70455660827E+02  0.70455660873E+02  0.25500000000E-02 0. -1.
   -5000001    1    1    2    0    0 -0.11303379316E+03  0.10699520710E+03  0.68784119605E+03  0.74823133035E+03  0.25000000000E+03 0.  0.
    5000001    1    1    2    0    0  0.11303379316E+03 -0.10699520710E+03  0.49825985996E+03  0.57878104736E+03  0.25000000000E+03 0.  0.
<mgrwt>
<rscale>  0 0.59508498E+03</rscale>
<asrwt>0</asrwt>
<pdfrwt beam="1">  1        2 0.19331639E+00 0.59508498E+03</pdfrwt>
<pdfrwt beam="2">  1       -2 0.10839334E-01 0.59508498E+03</pdfrwt>
<totfact> 0.10686019E+03</totfact>
</mgrwt>
</event>
<event>
 4    1  0.1751735E-005  0.6931610E+03  0.7818608E-02  0.9729000E-01
         -2   -1    0    0    0  501 -0.00000000000E+00  0.00000000000E+00  0.93905472946E+02  0.93905472981E+02  0.25500000000E-02 0.  1.
          2   -1    0    0  501    0  0.00000000000E+00 -0.00000000000E+00 -0.12791377666E+04  0.12791377666E+04  0.25500000000E-02 0. -1.
   -5000001    1    1    2    0    0  0.22376565272E+03 -0.45374439138E+02 -0.44587149014E+03  0.55984934829E+03  0.25000000000E+03 0.  0.
    5000001    1    1    2    0    0 -0.22376565272E+03  0.45374439138E+02 -0.73936080351E+03  0.81319389129E+03  0.25000000000E+03 0.  0.
<mgrwt>
<rscale>  0 0.69316098E+03</rscale>
<asrwt>0</asrwt>
<pdfrwt beam="1">  1        2 0.19679041E+00 0.69316098E+03</pdfrwt>
<pdfrwt beam="2">  1       -2 0.14446997E-01 0.69316098E+03</pdfrwt>
<totfact> 0.64169699E+02</totfact>
</mgrwt>
</event>
<event>
 4    1  0.1751735E-005  0.6211075E+03  0.7818608E-02  0.9862557E-01
         -2   -1    0    0    0  501 -0.00000000000E+00  0.00000000000E+00  0.65870403769E+02  0.65870403818E+02  0.25500000000E-02 0. -1.
          2   -1    0    0  501    0  0.00000000000E+00 -0.00000000000E+00 -0.14641418776E+04  0.14641418776E+04  0.25500000000E-02 0.  1.
   -5000001    1    1    2    0    0  0.46031282481E+02  0.15791539979E+03 -0.90357196310E+03  0.95183950588E+03  0.25000000000E+03 0.  0.
    5000001    1    1    2    0    0 -0.46031282481E+02 -0.15791539979E+03 -0.49469951074E+03  0.57817277554E+03  0.25000000000E+03 0.  0.
<mgrwt>
<rscale>  0 0.62110745E+03</rscale>
<asrwt>0</asrwt>
<pdfrwt beam="1">  1        2 0.22525257E+00 0.62110745E+03</pdfrwt>
<pdfrwt beam="2">  1       -2 0.10133909E-01 0.62110745E+03</pdfrwt>
<totfact> 0.90884404E+02</totfact>
</mgrwt>
</event>
<event>
 4    1  0.1751735E-005  0.1151927E+04  0.7818608E-02  0.9156008E-01
          2   -1    0    0  501    0  0.00000000000E+00  0.00000000000E+00  0.58564197010E+03  0.58564197010E+03  0.25500000000E-02 0.  1.
         -2   -1    0    0    0  501 -0.00000000000E+00 -0.00000000000E+00 -0.56644467193E+03  0.56644467193E+03  0.25500000000E-02 0. -1.
   -5000001    1    1    2    0    0 -0.34634350407E+03 -0.36751635513E+03  0.12882795171E+03  0.57803004701E+03  0.25000000000E+03 0.  0.
    5000001    1    1    2    0    0  0.34634350407E+03  0.36751635513E+03 -0.10963065354E+03  0.57405659503E+03  0.25000000000E+03 0.  0.
<mgrwt>
<rscale>  0 0.11519267E+04</rscale>
<asrwt>0</asrwt>
<pdfrwt beam="1">  1        2 0.90098764E-01 0.11519267E+04</pdfrwt>
<pdfrwt beam="2">  1       -2 0.87145335E-01 0.11519267E+04</pdfrwt>
<totfact> 0.57558921E+01</totfact>
</mgrwt>
</event>
<event>
 4    1  0.1751735E-005  0.8985795E+03  0.7818608E-02  0.9427359E-01
          2   -1    0    0  501    0  0.00000000000E+00  0.00000000000E+00  0.12877652891E+04  0.12877652891E+04  0.25500000000E-02 0.  1.
         -2   -1    0    0    0  501 -0.00000000000E+00 -0.00000000000E+00 -0.15675315645E+03  0.15675315648E+03  0.25500000000E-02 0. -1.
   -5000001    1    1    2    0    0  0.25169741854E+03 -0.36665936181E+02  0.12624169739E+03  0.37832915237E+03  0.25000000000E+03 0.  0.
    5000001    1    1    2    0    0 -0.25169741854E+03  0.36665936181E+02  0.10047704353E+04  0.10661892932E+04  0.25000000000E+03 0.  0.
<mgrwt>
<rscale>  0 0.89857949E+03</rscale>
<asrwt>0</asrwt>
<pdfrwt beam="1">  1        2 0.19811773E+00 0.89857949E+03</pdfrwt>
<pdfrwt beam="2">  1       -2 0.24115871E-01 0.89857949E+03</pdfrwt>
<totfact> 0.25769841E+02</totfact>
</mgrwt>
</event>
<event>
 4    1  0.1751735E-005  0.8545136E+03  0.7818608E-02  0.9484299E-01
         -2   -1    0    0    0  501 -0.00000000000E+00  0.00000000000E+00  0.14384174988E+03  0.14384174990E+03  0.25500000000E-02 0. -1.
          2   -1    0    0  501    0  0.00000000000E+00 -0.00000000000E+00 -0.12690917745E+04  0.12690917745E+04  0.25500000000E-02 0.  1.
   -5000001    1    1    2    0    0 -0.14995006217E+03 -0.49811821757E+02 -0.52763510406E+02  0.30041675513E+03  0.25000000000E+03 0.  0.
    5000001    1    1    2    0    0  0.14995006217E+03  0.49811821757E+02 -0.10724865142E+04  0.11125167693E+04  0.25000000000E+03 0.  0.
<mgrwt>
<rscale>  0 0.85451362E+03</rscale>
<asrwt>0</asrwt>
<pdfrwt beam="1">  1        2 0.19524488E+00 0.85451362E+03</pdfrwt>
<pdfrwt beam="2">  1       -2 0.22129501E-01 0.85451362E+03</pdfrwt>
<totfact> 0.30886975E+02</totfact>
</mgrwt>
</event>
<event>
 4    1  0.1751735E-005  0.1029061E+04  0.7818608E-02  0.9277234E-01
          2   -1    0    0  501    0  0.00000000000E+00  0.00000000000E+00  0.53926693983E+03  0.53926693984E+03  0.25500000000E-02 0. -1.
         -2   -1    0    0    0  501 -0.00000000000E+00 -0.00000000000E+00 -0.49092833453E+03  0.49092833454E+03  0.25500000000E-02 0.  1.
   -5000001    1    1    2    0    0  0.31434366194E+03  0.22526363236E+03 -0.20561762169E+03  0.50431562361E+03  0.25000000000E+03 0.  0.
    5000001    1    1    2    0    0 -0.31434366194E+03 -0.22526363236E+03  0.25395622699E+03  0.52587965077E+03  0.25000000000E+03 0.  0.
<mgrwt>
<rscale>  0 0.10290606E+04</rscale>
<asrwt>0</asrwt>
<pdfrwt beam="1">  1        2 0.82964144E-01 0.10290606E+04</pdfrwt>
<pdfrwt beam="2">  1       -2 0.75527437E-01 0.10290606E+04</pdfrwt>
<totfact> 0.88380790E+01</totfact>
</mgrwt>
</event>
<event>
 4    1  0.1751735E-005  0.8065442E+03  0.7818608E-02  0.9550593E-01
          2   -1    0    0  501    0  0.00000000000E+00  0.00000000000E+00  0.10557655297E+04  0.10557655297E+04  0.25500000000E-02 0.  1.
         -2   -1    0    0    0  501 -0.00000000000E+00 -0.00000000000E+00 -0.15403834520E+03  0.15403834522E+03  0.25500000000E-02 0. -1.
   -5000001    1    1    2    0    0 -0.19115722120E+03  0.23564693457E+03  0.58551020632E+03  0.70526077638E+03  0.25000000000E+03 0.  0.
    5000001    1    1    2    0    0  0.19115722120E+03 -0.23564693457E+03  0.31621697816E+03  0.50454309852E+03  0.25000000000E+03 0.  0.
<mgrwt>
<rscale>  0 0.80654417E+03</rscale>
<asrwt>0</asrwt>
<pdfrwt beam="1">  1        2 0.16242546E+00 0.80654417E+03</pdfrwt>
<pdfrwt beam="2">  1       -2 0.23698208E-01 0.80654417E+03</pdfrwt>
<totfact> 0.36819256E+02</totfact>
</mgrwt>
</event>
<event>
 4    1  0.1751735E-005  0.6223877E+03  0.7818608E-02  0.9860017E-01
         -2   -1    0    0    0  501 -0.00000000000E+00  0.00000000000E+00  0.11124821657E+03  0.11124821660E+03  0.25500000000E-02 0. -1.
          2   -1    0    0  501    0  0.00000000000E+00 -0.00000000000E+00 -0.87050033428E+03  0.87050033428E+03  0.25500000000E-02 0.  1.
   -5000001    1    1    2    0    0  0.16582774770E+03 -0.69888643498E+02 -0.30982147992E+03  0.43688970441E+03  0.25000000000E+03 0.  0.
    5000001    1    1    2    0    0 -0.16582774770E+03  0.69888643498E+02 -0.44943063778E+03  0.54485884647E+03  0.25000000000E+03 0.  0.
<mgrwt>
<rscale>  0 0.62238769E+03</rscale>
<asrwt>0</asrwt>
<pdfrwt beam="1">  1        2 0.13392312E+00 0.62238769E+03</pdfrwt>
<pdfrwt beam="2">  1       -2 0.17115111E-01 0.62238769E+03</pdfrwt>
<totfact> 0.86462233E+02</totfact>
</mgrwt>
</event>
<event>
 4    1  0.1751735E-005  0.6034710E+03  0.7818608E-02  0.9898231E-01
         -2   -1    0    0    0  501 -0.00000000000E+00  0.00000000000E+00  0.59901090541E+02  0.59901090595E+02  0.25500000000E-02 0. -1.
          2   -1    0    0  501    0  0.00000000000E+00 -0.00000000000E+00 -0.15199105402E+04  0.15199105402E+04  0.25500000000E-02 0.  1.
   -5000001    1    1    2    0    0 -0.39451379854E+02 -0.89503515762E+02 -0.36937393253E+03  0.45662281233E+03  0.25000000000E+03 0.  0.
    5000001    1    1    2    0    0  0.39451379854E+02  0.89503515762E+02 -0.10906355171E+04  0.11231888184E+04  0.25000000000E+03 0.  0.
<mgrwt>
<rscale>  0 0.60347096E+03</rscale>
<asrwt>0</asrwt>
<pdfrwt beam="1">  1        2 0.23383236E+00 0.60347096E+03</pdfrwt>
<pdfrwt beam="2">  1       -2 0.92155536E-02 0.60347096E+03</pdfrwt>
<totfact> 0.98792624E+02</totfact>
</mgrwt>
</event>
<event>
 4    1  0.1751735E-005  0.6428722E+03  0.7818608E-02  0.9820247E-01
          2   -1    0    0  501    0  0.00000000000E+00  0.00000000000E+00  0.88790111663E+03  0.88790111663E+03  0.25500000000E-02 0.  1.
         -2   -1    0    0    0  501 -0.00000000000E+00 -0.00000000000E+00 -0.11636561580E+03  0.11636561583E+03  0.25500000000E-02 0. -1.
   -5000001    1    1    2    0    0 -0.14672227574E+03  0.13196285876E+03  0.45349290284E+03  0.55416372600E+03  0.25000000000E+03 0.  0.
    5000001    1    1    2    0    0  0.14672227574E+03 -0.13196285876E+03  0.31804259799E+03  0.45010300646E+03  0.25000000000E+03 0.  0.
<mgrwt>
<rscale>  0 0.64287218E+03</rscale>
<asrwt>0</asrwt>
<pdfrwt beam="1">  1        2 0.13660017E+00 0.64287218E+03</pdfrwt>
<pdfrwt beam="2">  1       -2 0.17902403E-01 0.64287218E+03</pdfrwt>
<totfact> 0.77854361E+02</totfact>
</mgrwt>
</event>
<event>
 4    1  0.1751735E-005  0.5316539E+03  0.7818608E-02  0.1005832E+00
         -2   -1    0    0    0  501 -0.00000000000E+00  0.00000000000E+00  0.76053973112E+03  0.76053973113E+03  0.25500000000E-02 0. -1.
          2   -1    0    0  501    0  0.00000000000E+00 -0.00000000000E+00 -0.92912927213E+02  0.92912927248E+02  0.25500000000E-02 0.  1.
   -5000001    1    1    2    0    0  0.81775492117E+02  0.38290576014E+02  0.33903324243E+03  0.43080963173E+03  0.25000000000E+03 0.  0.
    5000001    1    1    2    0    0 -0.81775492117E+02 -0.38290576014E+02  0.32859356148E+03  0.42264302664E+03  0.25000000000E+03 0.  0.
<mgrwt>
<rscale>  0 0.53165392E+03</rscale>
<asrwt>0</asrwt>
<pdfrwt beam="1">  1        2 0.14294297E-01 0.53165392E+03</pdfrwt>
<pdfrwt beam="2">  1       -2 0.11700611E+00 0.53165392E+03</pdfrwt>
<totfact> 0.24365816E+02</totfact>
</mgrwt>
</event>
<event>
 4    1  0.1751735E-005  0.6527270E+03  0.7818608E-02  0.9801676E-01
         -2   -1    0    0    0  501 -0.00000000000E+00  0.00000000000E+00  0.11284585806E+03  0.11284585809E+03  0.25500000000E-02 0. -1.
          2   -1    0    0  501    0  0.00000000000E+00 -0.00000000000E+00 -0.94388157862E+03  0.94388157862E+03  0.25500000000E-02 0.  1.
   -5000001    1    1    2    0    0 -0.16163731456E+03  0.10592355741E+03 -0.54770434288E+03  0.63231832860E+03  0.25000000000E+03 0.  0.
    5000001    1    1    2    0    0  0.16163731456E+03 -0.10592355741E+03 -0.28333137767E+03  0.42440910811E+03  0.25000000000E+03 0.  0.
<mgrwt>
<rscale>  0 0.65272698E+03</rscale>
<asrwt>0</asrwt>
<pdfrwt beam="1">  1        2 0.14521255E+00 0.65272698E+03</pdfrwt>
<pdfrwt beam="2">  1       -2 0.17360902E-01 0.65272698E+03</pdfrwt>
<totfact> 0.75323037E+02</totfact>
</mgrwt>
</event>
<event>
 4    1  0.1751735E-005  0.5507389E+03  0.7818608E-02  0.1001323E+00
          2   -1    0    0  501    0  0.00000000000E+00  0.00000000000E+00  0.71069238623E+03  0.71069238624E+03  0.25500000000E-02 0.  1.
         -2   -1    0    0    0  501 -0.00000000000E+00 -0.00000000000E+00 -0.10669643228E+03  0.10669643231E+03  0.25500000000E-02 0. -1.
   -5000001    1    1    2    0    0  0.76465998291E+02 -0.20871824236E+02  0.17741928648E+03  0.31663904553E+03  0.25000000000E+03 0.  0.
    5000001    1    1    2    0    0 -0.76465998291E+02  0.20871824236E+02  0.42657666747E+03  0.50074977302E+03  0.25000000000E+03 0.  0.
<mgrwt>
<rscale>  0 0.55073893E+03</rscale>
<asrwt>0</asrwt>
<pdfrwt beam="1">  1        2 0.10933729E+00 0.55073893E+03</pdfrwt>
<pdfrwt beam="2">  1       -2 0.16414836E-01 0.55073893E+03</pdfrwt>
<totfact> 0.12118531E+03</totfact>
</mgrwt>
</event>
<event>
 4    1  0.1751735E-005  0.1080681E+04  0.7818608E-02  0.9224229E-01
         -2   -1    0    0    0  501 -0.00000000000E+00  0.00000000000E+00  0.25718690887E+03  0.25718690888E+03  0.25500000000E-02 0. -1.
          2   -1    0    0  501    0  0.00000000000E+00 -0.00000000000E+00 -0.11352364405E+04  0.11352364405E+04  0.25500000000E-02 0.  1.
   -5000001    1    1    2    0    0  0.38065420524E+03  0.24346723506E+03 -0.23410552110E+03  0.56699145807E+03  0.25000000000E+03 0.  0.
    5000001    1    1    2    0    0 -0.38065420524E+03 -0.24346723506E+03 -0.64394401057E+03  0.82543189135E+03  0.25000000000E+03 0.  0.
<mgrwt>
<rscale>  0 0.10806812E+04</rscale>
<asrwt>0</asrwt>
<pdfrwt beam="1">  1        2 0.17465176E+00 0.10806812E+04</pdfrwt>
<pdfrwt beam="2">  1       -2 0.39567218E-01 0.10806812E+04</pdfrwt>
<totfact> 0.12436758E+02</totfact>
</mgrwt>
</event>
<event>
 4    1  0.1751735E-005  0.5475027E+03  0.7818608E-02  0.1002074E+00
          2   -1    0    0  501    0  0.00000000000E+00  0.00000000000E+00  0.37482572707E+03  0.37482572708E+03  0.25500000000E-02 0.  1.
         -2   -1    0    0    0  501 -0.00000000000E+00 -0.00000000000E+00 -0.19993240598E+03  0.19993240600E+03  0.25500000000E-02 0. -1.
   -5000001    1    1    2    0    0 -0.18369215892E+02 -0.83569216830E+02  0.12340934520E+02  0.26452512311E+03  0.25000000000E+03 0.  0.
    5000001    1    1    2    0    0  0.18369215892E+02  0.83569216830E+02  0.16255238657E+03  0.31023300997E+03  0.25000000000E+03 0.  0.
<mgrwt>
<rscale>  0 0.54750273E+03</rscale>
<asrwt>0</asrwt>
<pdfrwt beam="1">  1        2 0.57665496E-01 0.54750273E+03</pdfrwt>
<pdfrwt beam="2">  1       -2 0.30758832E-01 0.54750273E+03</pdfrwt>
<totfact> 0.84045621E+02</totfact>
</mgrwt>
</event>
<event>
 4    1  0.1751735E-005  0.1060291E+04  0.7818608E-02  0.9244783E-01
         -2   -1    0    0    0  501 -0.00000000000E+00  0.00000000000E+00  0.16908691705E+03  0.16908691707E+03  0.25500000000E-02 0. -1.
          2   -1    0    0  501    0  0.00000000000E+00 -0.00000000000E+00 -0.16621891964E+04  0.16621891964E+04  0.25500000000E-02 0.  1.
   -5000001    1    1    2    0    0  0.17562253377E+02 -0.46664998579E+03 -0.70856162972E+03  0.88466390516E+03  0.25000000000E+03 0.  0.
    5000001    1    1    2    0    0 -0.17562253377E+02  0.46664998579E+03 -0.78454064960E+03  0.94661220828E+03  0.25000000000E+03 0.  0.
<mgrwt>
<rscale>  0 0.10602914E+04</rscale>
<asrwt>0</asrwt>
<pdfrwt beam="1">  1        2 0.25572140E+00 0.10602914E+04</pdfrwt>
<pdfrwt beam="2">  1       -2 0.26013373E-01 0.10602914E+04</pdfrwt>
<totfact> 0.13668830E+02</totfact>
</mgrwt>
</event>
<event>
 4    1  0.1751735E-005  0.5061308E+03  0.7818608E-02  0.1012191E+00
         -2   -1    0    0    0  501 -0.00000000000E+00  0.00000000000E+00  0.64852469712E+02  0.64852469762E+02  0.25500000000E-02 0. -1.
          2   -1    0    0  501    0  0.00000000000E+00 -0.00000000000E+00 -0.98750447672E+03  0.98750447672E+03  0.25500000000E-02 0.  1.
   -5000001    1    1    2    0    0  0.26663643082E+02 -0.26939810717E+02 -0.43997970862E+03  0.50746314867E+03  0.25000000000E+03 0.  0.
    5000001    1    1    2    0    0 -0.26663643082E+02  0.26939810717E+02 -0.48267229839E+03  0.54489379781E+03  0.25000000000E+03 0.  0.
<mgrwt>
<rscale>  0 0.50613083E+03</rscale>
<asrwt>0</asrwt>
<pdfrwt beam="1">  1        2 0.15192375E+00 0.50613083E+03</pdfrwt>
<pdfrwt beam="2">  1       -2 0.99773038E-02 0.50613083E+03</pdfrwt>
<totfact> 0.17789072E+03</totfact>
</mgrwt>
</event>
<event>
 4    1  0.1751735E-005  0.7068848E+03  0.7818608E-02  0.9705530E-01
          2   -1    0    0  501    0  0.00000000000E+00  0.00000000000E+00  0.65421557992E+03  0.65421557993E+03  0.25500000000E-02 0.  1.
         -2   -1    0    0    0  501 -0.00000000000E+00 -0.00000000000E+00 -0.19094857447E+03  0.19094857449E+03  0.25500000000E-02 0. -1.
   -5000001    1    1    2    0    0 -0.22824565848E+03 -0.92951584064E+02  0.28071874925E+03  0.44948759023E+03  0.25000000000E+03 0.  0.
    5000001    1    1    2    0    0  0.22824565848E+03  0.92951584064E+02  0.18254825621E+03  0.39567656418E+03  0.25000000000E+03 0.  0.
<mgrwt>
<rscale>  0 0.70688481E+03</rscale>
<asrwt>0</asrwt>
<pdfrwt beam="1">  1        2 0.10064855E+00 0.70688481E+03</pdfrwt>
<pdfrwt beam="2">  1       -2 0.29376704E-01 0.70688481E+03</pdfrwt>
<totfact> 0.47841009E+02</totfact>
</mgrwt>
</event>
<event>
 4    1  0.1751735E-005  0.6153186E+03  0.7818608E-02  0.9874125E-01
          2   -1    0    0  501    0  0.00000000000E+00  0.00000000000E+00  0.65475764657E+03  0.65475764658E+03  0.25500000000E-02 0.  1.
         -2   -1    0    0    0  501 -0.00000000000E+00 -0.00000000000E+00 -0.14456377109E+03  0.14456377111E+03  0.25500000000E-02 0. -1.
   -5000001    1    1    2    0    0 -0.75875124600E+02 -0.15101123625E+03  0.33296123113E+03  0.44936022236E+03  0.25000000000E+03 0.  0.
    5000001    1    1    2    0    0  0.75875124600E+02  0.15101123625E+03  0.17723264436E+03  0.34996119533E+03  0.25000000000E+03 0.  0.
<mgrwt>
<rscale>  0 0.61531857E+03</rscale>
<asrwt>0</asrwt>
<pdfrwt beam="1">  1        2 0.10073195E+00 0.61531857E+03</pdfrwt>
<pdfrwt beam="2">  1       -2 0.22240580E-01 0.61531857E+03</pdfrwt>
<totfact> 0.79201150E+02</totfact>
</mgrwt>
</event>
<event>
 4    1  0.1751735E-005  0.8618205E+03  0.7818608E-02  0.9474608E-01
          2   -1    0    0  501    0  0.00000000000E+00  0.00000000000E+00  0.32276979891E+03  0.32276979892E+03  0.25500000000E-02 0.  1.
         -2   -1    0    0    0  501 -0.00000000000E+00 -0.00000000000E+00 -0.57528199531E+03  0.57528199531E+03  0.25500000000E-02 0. -1.
   -5000001    1    1    2    0    0 -0.12360659016E+03  0.32776509339E+03 -0.14896943258E+03  0.45541238172E+03  0.25000000000E+03 0.  0.
    5000001    1    1    2    0    0  0.12360659016E+03 -0.32776509339E+03 -0.10354276381E+03  0.44263941252E+03  0.25000000000E+03 0.  0.
<mgrwt>
<rscale>  0 0.86182052E+03</rscale>
<asrwt>0</asrwt>
<pdfrwt beam="1">  1        2 0.49656892E-01 0.86182052E+03</pdfrwt>
<pdfrwt beam="2">  1       -2 0.88504922E-01 0.86182052E+03</pdfrwt>
<totfact> 0.11172324E+02</totfact>
</mgrwt>
</event>
<event>
 4    1  0.1751735E-005  0.7422896E+03  0.7818608E-02  0.9647525E-01
         -2   -1    0    0    0  501 -0.00000000000E+00  0.00000000000E+00  0.14083600643E+03  0.14083600645E+03  0.25500000000E-02 0. -1.
          2   -1    0    0  501    0  0.00000000000E+00 -0.00000000000E+00 -0.97807701383E+03  0.97807701383E+03  0.25500000000E-02 0.  1.
   -5000001    1    1    2    0    0  0.62249789987E+02  0.18625579121E+03 -0.12991792121E+03  0.34343110279E+03  0.25000000000E+03 0.  0.
    5000001    1    1    2    0    0 -0.62249789987E+02 -0.18625579121E+03 -0.70732308618E+03  0.77548191749E+03  0.25000000000E+03 0.  0.
<mgrwt>
<rscale>  0 0.74228959E+03</rscale>
<asrwt>0</asrwt>
<pdfrwt beam="1">  1        2 0.15047338E+00 0.74228959E+03</pdfrwt>
<pdfrwt beam="2">  1       -2 0.21667078E-01 0.74228959E+03</pdfrwt>
<totfact> 0.48506332E+02</totfact>
</mgrwt>
</event>
<event>
 4    1  0.1751735E-005  0.8970115E+03  0.7818608E-02  0.9429325E-01
          2   -1    0    0  501    0  0.00000000000E+00  0.00000000000E+00  0.16327943949E+04  0.16327943949E+04  0.25500000000E-02 0.  1.
         -2   -1    0    0    0  501 -0.00000000000E+00 -0.00000000000E+00 -0.12319825561E+03  0.12319825563E+03  0.25500000000E-02 0. -1.
   -5000001    1    1    2    0    0 -0.34560095115E+03  0.13569057660E+03  0.69923967535E+03  0.83023374636E+03  0.25000000000E+03 0.  0.
    5000001    1    1    2    0    0  0.34560095115E+03 -0.13569057660E+03  0.81035646396E+03  0.92575890419E+03  0.25000000000E+03 0.  0.
<mgrwt>
<rscale>  0 0.89701153E+03</rscale>
<asrwt>0</asrwt>
<pdfrwt beam="1">  1        2 0.25119913E+00 0.89701153E+03</pdfrwt>
<pdfrwt beam="2">  1       -2 0.18953578E-01 0.89701153E+03</pdfrwt>
<totfact> 0.25211777E+02</totfact>
</mgrwt>
</event>
<event>
 4    1  0.1751735E-005  0.7670273E+03  0.7818608E-02  0.9609009E-01
          2   -1    0    0  501    0  0.00000000000E+00  0.00000000000E+00  0.28473106414E+04  0.28473106414E+04  0.25500000000E-02 0. -1.
         -2   -1    0    0    0  501 -0.00000000000E+00 -0.00000000000E+00 -0.51656722554E+02  0.51656722617E+02  0.25500000000E-02 0.  1.
   -5000001    1    1    2    0    0  0.13198973141E+03 -0.19618218424E+03  0.20378219884E+04  0.20666705579E+04  0.25000000000E+03 0.  0.
    5000001    1    1    2    0    0 -0.13198973141E+03  0.19618218424E+03  0.75783193040E+03  0.83229680605E+03  0.25000000000E+03 0.  0.
<mgrwt>
<rscale>  0 0.76702734E+03</rscale>
<asrwt>0</asrwt>
<pdfrwt beam="1">  1        2 0.43804786E+00 0.76702734E+03</pdfrwt>
<pdfrwt beam="2">  1       -2 0.79471868E-02 0.76702734E+03</pdfrwt>
<totfact> 0.22550355E+02</totfact>
</mgrwt>
</event>
<event>
 4    1  0.1751735E-005  0.7851391E+03  0.7818608E-02  0.9581780E-01
         -2   -1    0    0    0  501 -0.00000000000E+00  0.00000000000E+00  0.20077906209E+03  0.20077906210E+03  0.25500000000E-02 0. -1.
          2   -1    0    0  501    0  0.00000000000E+00 -0.00000000000E+00 -0.76756428701E+03  0.76756428702E+03  0.25500000000E-02 0.  1.
   -5000001    1    1    2    0    0 -0.16243054693E+02 -0.30023684535E+03 -0.24058243494E+03  0.45911426479E+03  0.25000000000E+03 0.  0.
    5000001    1    1    2    0    0  0.16243054693E+02  0.30023684535E+03 -0.32620278998E+03  0.50922908433E+03  0.25000000000E+03 0.  0.
<mgrwt>
<rscale>  0 0.78513906E+03</rscale>
<asrwt>0</asrwt>
<pdfrwt beam="1">  1        2 0.11808681E+00 0.78513906E+03</pdfrwt>
<pdfrwt beam="2">  1       -2 0.30889087E-01 0.78513906E+03</pdfrwt>
<totfact> 0.35493692E+02</totfact>
</mgrwt>
</event>
<event>
 4    1  0.1751735E-005  0.7488116E+03  0.7818608E-02  0.9637217E-01
          2   -1    0    0  501    0  0.00000000000E+00  0.00000000000E+00  0.14086543858E+04  0.14086543858E+04  0.25500000000E-02 0.  1.
         -2   -1    0    0    0  501 -0.00000000000E+00 -0.00000000000E+00 -0.99513202297E+02  0.99513202330E+02  0.25500000000E-02 0. -1.
   -5000001    1    1    2    0    0  0.18437950000E+03  0.15848152621E+03  0.38012647892E+03  0.51585689309E+03  0.25000000000E+03 0.  0.
    5000001    1    1    2    0    0 -0.18437950000E+03 -0.15848152621E+03  0.92901470460E+03  0.99231069506E+03  0.25000000000E+03 0.  0.
<mgrwt>
<rscale>  0 0.74881162E+03</rscale>
<asrwt>0</asrwt>
<pdfrwt beam="1">  1        2 0.21671605E+00 0.74881162E+03</pdfrwt>
<pdfrwt beam="2">  1       -2 0.15309724E-01 0.74881162E+03</pdfrwt>
<totfact> 0.48942341E+02</totfact>
</mgrwt>
</event>
<event>
 4    1  0.1751735E-005  0.1092895E+04  0.7818608E-02  0.9212144E-01
         -2   -1    0    0    0  501 -0.00000000000E+00  0.00000000000E+00  0.11476803495E+03  0.11476803498E+03  0.25500000000E-02 0. -1.
          2   -1    0    0  501    0  0.00000000000E+00 -0.00000000000E+00 -0.26018139794E+04  0.26018139794E+04  0.25500000000E-02 0.  1.
   -5000001    1    1    2    0    0  0.46204047682E+03  0.12116244401E+03 -0.14650597040E+04  0.15611091174E+04  0.25000000000E+03 0.  0.
    5000001    1    1    2    0    0 -0.46204047682E+03 -0.12116244401E+03 -0.10219862404E+04  0.11554728970E+04  0.25000000000E+03 0.  0.
<mgrwt>
<rscale>  0 0.10928954E+04</rscale>
<asrwt>0</asrwt>
<pdfrwt beam="1">  1        2 0.40027903E+00 0.10928954E+04</pdfrwt>
<pdfrwt beam="2">  1       -2 0.17656623E-01 0.10928954E+04</pdfrwt>
<totfact> 0.80969955E+01</totfact>
</mgrwt>
</event>
<event>
 4    1  0.1751735E-005  0.9932961E+03  0.7818608E-02  0.9315928E-01
         -2   -1    0    0    0  501 -0.00000000000E+00  0.00000000000E+00  0.82849766793E+03  0.82849766793E+03  0.25500000000E-02 0. -1.
          2   -1    0    0  501    0  0.00000000000E+00 -0.00000000000E+00 -0.29771877269E+03  0.29771877270E+03  0.25500000000E-02 0.  1.
   -5000001    1    1    2    0    0  0.48636499118E+02  0.36059697474E+03  0.74276235783E+01  0.44153239613E+03  0.25000000000E+03 0.  0.
    5000001    1    1    2    0    0 -0.48636499118E+02 -0.36059697474E+03  0.52335127167E+03  0.68468404450E+03  0.25000000000E+03 0.  0.
<mgrwt>
<rscale>  0 0.99329615E+03</rscale>
<asrwt>0</asrwt>
<pdfrwt beam="1">  1        2 0.45802889E-01 0.99329615E+03</pdfrwt>
<pdfrwt beam="2">  1       -2 0.12746118E+00 0.99329615E+03</pdfrwt>
<totfact> 0.50454703E+01</totfact>
</mgrwt>
</event>
<event>
 4    1  0.1751735E-005  0.8447426E+03  0.7818608E-02  0.9497421E-01
         -2   -1    0    0    0  501 -0.00000000000E+00  0.00000000000E+00  0.56656527972E+02  0.56656528030E+02  0.25500000000E-02 0. -1.
          2   -1    0    0  501    0  0.00000000000E+00 -0.00000000000E+00 -0.31487548338E+04  0.31487548338E+04  0.25500000000E-02 0.  1.
   -5000001    1    1    2    0    0 -0.12342068576E+03  0.31359498059E+03 -0.17289381650E+04  0.17791294658E+04  0.25000000000E+03 0.  0.
    5000001    1    1    2    0    0  0.12342068576E+03 -0.31359498059E+03 -0.13631601408E+04  0.14262818960E+04  0.25000000000E+03 0.  0.
<mgrwt>
<rscale>  0 0.84474260E+03</rscale>
<asrwt>0</asrwt>
<pdfrwt beam="1">  1        2 0.48442369E+00 0.84474260E+03</pdfrwt>
<pdfrwt beam="2">  1       -2 0.87163914E-02 0.84474260E+03</pdfrwt>
<totfact> 0.12593914E+02</totfact>
</mgrwt>
</event>
<event>
 4    1  0.1751735E-005  0.1021192E+04  0.7818608E-02  0.9285603E-01
          2   -1    0    0  501    0  0.00000000000E+00  0.00000000000E+00  0.21101588615E+04  0.21101588615E+04  0.25500000000E-02 0.  1.
         -2   -1    0    0    0  501 -0.00000000000E+00 -0.00000000000E+00 -0.12354906870E+03  0.12354906873E+03  0.25500000000E-02 0. -1.
   -5000001    1    1    2    0    0 -0.82679148467E+02  0.19226069772E+03  0.18528213183E+04  0.18812886155E+04  0.25000000000E+03 0.  0.
    5000001    1    1    2    0    0  0.82679148467E+02 -0.19226069772E+03  0.13378847458E+03  0.35241931475E+03  0.25000000000E+03 0.  0.
<mgrwt>
<rscale>  0 0.10211918E+04</rscale>
<asrwt>0</asrwt>
<pdfrwt beam="1">  1        2 0.32463983E+00 0.10211918E+04</pdfrwt>
<pdfrwt beam="2">  1       -2 0.19007549E-01 0.10211918E+04</pdfrwt>
<totfact> 0.13580809E+02</totfact>
</mgrwt>
</event>
<event>
 4    1  0.1751735E-005  0.7192394E+03  0.7818608E-02  0.9684884E-01
          2   -1    0    0  501    0  0.00000000000E+00  0.00000000000E+00  0.11038632358E+04  0.11038632358E+04  0.25500000000E-02 0. -1.
         -2   -1    0    0    0  501 -0.00000000000E+00 -0.00000000000E+00 -0.11715793390E+03  0.11715793393E+03  0.25500000000E-02 0.  1.
   -5000001    1    1    2    0    0 -0.82634725504E+02  0.23663049489E+03  0.38593183393E+03  0.52370399026E+03  0.25000000000E+03 0.  0.
    5000001    1    1    2    0    0  0.82634725504E+02 -0.23663049489E+03  0.60077346798E+03  0.69731717948E+03  0.25000000000E+03 0.  0.
<mgrwt>
<rscale>  0 0.71923942E+03</rscale>
<asrwt>0</asrwt>
<pdfrwt beam="1">  1        2 0.16982512E+00 0.71923942E+03</pdfrwt>
<pdfrwt beam="2">  1       -2 0.18024297E-01 0.71923942E+03</pdfrwt>
<totfact> 0.55854242E+02</totfact>
</mgrwt>
</event>
<event>
 4    1  0.1751735E-005  0.1580235E+04  0.7818608E-02  0.8832783E-01
          2   -1    0    0  501    0  0.00000000000E+00  0.00000000000E+00  0.99384997343E+03  0.99384997343E+03  0.25500000000E-02 0.  1.
         -2   -1    0    0    0  501 -0.00000000000E+00 -0.00000000000E+00 -0.62814912807E+03  0.62814912807E+03  0.25500000000E-02 0. -1.
   -5000001    1    1    2    0    0 -0.74572814415E+03 -0.40437580136E+02  0.11760691362E+03  0.79628955098E+03  0.25000000000E+03 0.  0.
    5000001    1    1    2    0    0  0.74572814415E+03  0.40437580136E+02  0.24809393174E+03  0.82570955053E+03  0.25000000000E+03 0.  0.
<mgrwt>
<rscale>  0 0.15802354E+04</rscale>
<asrwt>0</asrwt>
<pdfrwt beam="1">  1        2 0.15290000E+00 0.15802354E+04</pdfrwt>
<pdfrwt beam="2">  1       -2 0.96638327E-01 0.15802354E+04</pdfrwt>
<totfact> 0.21863097E+01</totfact>
</mgrwt>
</event>
<event>
 4    1  0.1751735E-005  0.6673908E+03  0.7818608E-02  0.9774683E-01
          2   -1    0    0  501    0  0.00000000000E+00  0.00000000000E+00  0.35817704266E+04  0.35817704266E+04  0.25500000000E-02 0.  1.
         -2   -1    0    0    0  501 -0.00000000000E+00 -0.00000000000E+00 -0.31088711898E+02  0.31088712003E+02  0.25500000000E-02 0. -1.
   -5000001    1    1    2    0    0  0.15082764426E+03  0.15174707449E+03  0.20756009223E+04  0.21015221487E+04  0.25000000000E+03 0.  0.
    5000001    1    1    2    0    0 -0.15082764426E+03 -0.15174707449E+03  0.14750807924E+04  0.15113369899E+04  0.25000000000E+03 0.  0.
<mgrwt>
<rscale>  0 0.66739083E+03</rscale>
<asrwt>0</asrwt>
<pdfrwt beam="1">  1        2 0.55104134E+00 0.66739083E+03</pdfrwt>
<pdfrwt beam="2">  1       -2 0.47828810E-02 0.66739083E+03</pdfrwt>
<totfact> 0.17197357E+02</totfact>
</mgrwt>
</event>
<event>
 4    1  0.1751735E-005  0.9090880E+03  0.7818608E-02  0.9414292E-01
          2   -1    0    0  501    0  0.00000000000E+00  0.00000000000E+00  0.28318574491E+04  0.28318574491E+04  0.25500000000E-02 0.  1.
         -2   -1    0    0    0  501 -0.00000000000E+00 -0.00000000000E+00 -0.72959268169E+02  0.72959268213E+02  0.25500000000E-02 0. -1.
   -5000001    1    1    2    0    0  0.37164648897E+03 -0.66663887113E+02  0.12538502713E+04  0.13331187829E+04  0.25000000000E+03 0.  0.
    5000001    1    1    2    0    0 -0.37164648897E+03  0.66663887113E+02  0.15050479097E+04  0.15716979344E+04  0.25000000000E+03 0.  0.
<mgrwt>
<rscale>  0 0.90908800E+03</rscale>
<asrwt>0</asrwt>
<pdfrwt beam="1">  1        2 0.43567040E+00 0.90908800E+03</pdfrwt>
<pdfrwt beam="2">  1       -2 0.11224502E-01 0.90908800E+03</pdfrwt>
<totfact> 0.12958520E+02</totfact>
</mgrwt>
</event>
<event>
 4    1  0.1751735E-005  0.7252458E+03  0.7818608E-02  0.9675007E-01
         -2   -1    0    0    0  501 -0.00000000000E+00  0.00000000000E+00  0.10762565694E+03  0.10762565697E+03  0.25500000000E-02 0. -1.
          2   -1    0    0  501    0  0.00000000000E+00 -0.00000000000E+00 -0.12217847289E+04  0.12217847289E+04  0.25500000000E-02 0.  1.
   -5000001    1    1    2    0    0 -0.23582129010E+03  0.59269528475E+02 -0.37496250094E+03  0.51207561452E+03  0.25000000000E+03 0.  0.
    5000001    1    1    2    0    0  0.23582129010E+03 -0.59269528475E+02 -0.73919657097E+03  0.81733477132E+03  0.25000000000E+03 0.  0.
<mgrwt>
<rscale>  0 0.72524585E+03</rscale>
<asrwt>0</asrwt>
<pdfrwt beam="1">  1        2 0.18796687E+00 0.72524585E+03</pdfrwt>
<pdfrwt beam="2">  1       -2 0.16557794E-01 0.72524585E+03</pdfrwt>
<totfact> 0.54914911E+02</totfact>
</mgrwt>
</event>
<event>
 4    1  0.1751735E-005  0.1218897E+04  0.7818608E-02  0.9096475E-01
          2   -1    0    0  501    0  0.00000000000E+00  0.00000000000E+00  0.13342841289E+04  0.13342841289E+04  0.25500000000E-02 0.  1.
         -2   -1    0    0    0  501 -0.00000000000E+00 -0.00000000000E+00 -0.27837220943E+03  0.27837220944E+03  0.25500000000E-02 0. -1.
   -5000001    1    1    2    0    0  0.22324429206E+03  0.48967619960E+03  0.34412012062E+03  0.68595878288E+03  0.25000000000E+03 0.  0.
    5000001    1    1    2    0    0 -0.22324429206E+03 -0.48967619960E+03  0.71179179882E+03  0.92669755544E+03  0.25000000000E+03 0.  0.
<mgrwt>
<rscale>  0 0.12188972E+04</rscale>
<asrwt>0</asrwt>
<pdfrwt beam="1">  1        2 0.20527448E+00 0.12188972E+04</pdfrwt>
<pdfrwt beam="2">  1       -2 0.42826494E-01 0.12188972E+04</pdfrwt>
<totfact> 0.80391790E+01</totfact>
</mgrwt>
</event>
<event>
 4    1  0.1751735E-005  0.7047971E+03  0.7818608E-02  0.9709064E-01
          2   -1    0    0  501    0  0.00000000000E+00  0.00000000000E+00  0.70808281242E+03  0.70808281242E+03  0.25500000000E-02 0.  1.
         -2   -1    0    0    0  501 -0.00000000000E+00 -0.00000000000E+00 -0.17538165177E+03  0.17538165179E+03  0.25500000000E-02 0. -1.
   -5000001    1    1    2    0    0  0.21194488078E+03 -0.38042230661E+02  0.11121540737E+03  0.34819062400E+03  0.25000000000E+03 0.  0.
    5000001    1    1    2    0    0 -0.21194488078E+03  0.38042230661E+02  0.42148575328E+03  0.53527384022E+03  0.25000000000E+03 0.  0.
<mgrwt>
<rscale>  0 0.70479709E+03</rscale>
<asrwt>0</asrwt>
<pdfrwt beam="1">  1        2 0.10893582E+00 0.70479709E+03</pdfrwt>
<pdfrwt beam="2">  1       -2 0.26981792E-01 0.70479709E+03</pdfrwt>
<totfact> 0.50664052E+02</totfact>
</mgrwt>
</event>
<event>
 4    1  0.1751735E-005  0.1022398E+04  0.7818608E-02  0.9284315E-01
         -2   -1    0    0    0  501 -0.00000000000E+00  0.00000000000E+00  0.35785370716E+03  0.35785370717E+03  0.25500000000E-02 0. -1.
          2   -1    0    0  501    0  0.00000000000E+00 -0.00000000000E+00 -0.73025423419E+03  0.73025423419E+03  0.25500000000E-02 0.  1.
   -5000001    1    1    2    0    0 -0.31720467773E+03  0.31327163425E+03 -0.17753704079E+03  0.54108901786E+03  0.25000000000E+03 0.  0.
    5000001    1    1    2    0    0  0.31720467773E+03 -0.31327163425E+03 -0.19486348624E+03  0.54701892350E+03  0.25000000000E+03 0.  0.
<mgrwt>
<rscale>  0 0.10223975E+04</rscale>
<asrwt>0</asrwt>
<pdfrwt beam="1">  1        2 0.11234681E+00 0.10223975E+04</pdfrwt>
<pdfrwt beam="2">  1       -2 0.55054417E-01 0.10223975E+04</pdfrwt>
<totfact> 0.12013281E+02</totfact>
</mgrwt>
</event>
<event>
 4    1  0.1751735E-005  0.7263538E+03  0.7818608E-02  0.9673196E-01
         -2   -1    0    0    0  501 -0.00000000000E+00  0.00000000000E+00  0.69720106022E+02  0.69720106069E+02  0.25500000000E-02 0. -1.
          2   -1    0    0  501    0  0.00000000000E+00 -0.00000000000E+00 -0.18918136754E+04  0.18918136754E+04  0.25500000000E-02 0.  1.
   -5000001    1    1    2    0    0 -0.25215247168E+03  0.25128860536E+02 -0.71658822547E+03  0.80013187256E+03  0.25000000000E+03 0.  0.
    5000001    1    1    2    0    0  0.25215247168E+03 -0.25128860536E+02 -0.11055053439E+04  0.11614019089E+04  0.25000000000E+03 0.  0.
<mgrwt>
<rscale>  0 0.72635377E+03</rscale>
<asrwt>0</asrwt>
<pdfrwt beam="1">  1        2 0.29104822E+00 0.72635377E+03</pdfrwt>
<pdfrwt beam="2">  1       -2 0.10726172E-01 0.72635377E+03</pdfrwt>
<totfact> 0.48029948E+02</totfact>
</mgrwt>
</event>
<event>
 4    1  0.1751735E-005  0.1378370E+04  0.7818608E-02  0.8969626E-01
         -2   -1    0    0    0  501 -0.00000000000E+00  0.00000000000E+00  0.27555934534E+03  0.27555934535E+03  0.25500000000E-02 0. -1.
          2   -1    0    0  501    0  0.00000000000E+00 -0.00000000000E+00 -0.17236794770E+04  0.17236794770E+04  0.25500000000E-02 0.  1.
   -5000001    1    1    2    0    0 -0.33371739309E+03 -0.50239877539E+03 -0.40396285974E+03  0.76776156456E+03  0.25000000000E+03 0.  0.
    5000001    1    1    2    0    0  0.33371739309E+03  0.50239877539E+03 -0.10441572719E+04  0.12314772578E+04  0.25000000000E+03 0.  0.
<mgrwt>
<rscale>  0 0.13783700E+04</rscale>
<asrwt>0</asrwt>
<pdfrwt beam="1">  1        2 0.26518145E+00 0.13783700E+04</pdfrwt>
<pdfrwt beam="2">  1       -2 0.42393747E-01 0.13783700E+04</pdfrwt>
<totfact> 0.48909158E+01</totfact>
</mgrwt>
</event>
<event>
 4    1  0.1751735E-005  0.6678232E+03  0.7818608E-02  0.9773898E-01
          2   -1    0    0  501    0  0.00000000000E+00  0.00000000000E+00  0.23062916675E+04  0.23062916675E+04  0.25500000000E-02 0. -1.
         -2   -1    0    0    0  501 -0.00000000000E+00 -0.00000000000E+00 -0.48344684946E+02  0.48344685013E+02  0.25500000000E-02 0.  1.
   -5000001    1    1    2    0    0 -0.10332874527E+03 -0.15763242947E+03  0.15382158008E+04  0.15697556059E+04  0.25000000000E+03 0.  0.
    5000001    1    1    2    0    0  0.10332874527E+03  0.15763242947E+03  0.71973118177E+03  0.78488074663E+03  0.25000000000E+03 0.  0.
<mgrwt>
<rscale>  0 0.66782316E+03</rscale>
<asrwt>0</asrwt>
<pdfrwt beam="1">  1        2 0.35481402E+00 0.66782316E+03</pdfrwt>
<pdfrwt beam="2">  1       -2 0.74376456E-02 0.66782316E+03</pdfrwt>
<totfact> 0.51634362E+02</totfact>
</mgrwt>
</event>
<event>
 4    1  0.1751735E-005  0.9932501E+03  0.7818608E-02  0.9315979E-01
         -2   -1    0    0    0  501 -0.00000000000E+00  0.00000000000E+00  0.19156809827E+03  0.19156809829E+03  0.25500000000E-02 0. -1.
          2   -1    0    0  501    0  0.00000000000E+00 -0.00000000000E+00 -0.12874609516E+04  0.12874609516E+04  0.25500000000E-02 0.  1.
   -5000001    1    1    2    0    0  0.21010884509E+03  0.37409128520E+03 -0.53779993663E+03  0.73199644008E+03  0.25000000000E+03 0.  0.
    5000001    1    1    2    0    0 -0.21010884509E+03 -0.37409128520E+03 -0.55809291670E+03  0.74703260981E+03  0.25000000000E+03 0.  0.
<mgrwt>
<rscale>  0 0.99325011E+03</rscale>
<asrwt>0</asrwt>
<pdfrwt beam="1">  1        2 0.19807091E+00 0.99325011E+03</pdfrwt>
<pdfrwt beam="2">  1       -2 0.29472016E-01 0.99325011E+03</pdfrwt>
<totfact> 0.17773228E+02</totfact>
</mgrwt>
</event>
<event>
 4    1  0.1751735E-005  0.8143328E+03  0.7818608E-02  0.9539500E-01
         -2   -1    0    0    0  501 -0.00000000000E+00  0.00000000000E+00  0.10344241270E+03  0.10344241273E+03  0.25500000000E-02 0. -1.
          2   -1    0    0  501    0  0.00000000000E+00 -0.00000000000E+00 -0.16026741947E+04  0.16026741947E+04  0.25500000000E-02 0.  1.
   -5000001    1    1    2    0    0  0.10054091732E+03  0.13831962363E+03 -0.17951620447E+03  0.35208928130E+03  0.25000000000E+03 0.  0.
    5000001    1    1    2    0    0 -0.10054091732E+03 -0.13831962363E+03 -0.13197155775E+04  0.13540273261E+04  0.25000000000E+03 0.  0.
<mgrwt>
<rscale>  0 0.81433282E+03</rscale>
<asrwt>0</asrwt>
<pdfrwt beam="1">  1        2 0.24656524E+00 0.81433282E+03</pdfrwt>
<pdfrwt beam="2">  1       -2 0.15914219E-01 0.81433282E+03</pdfrwt>
<totfact> 0.35585827E+02</totfact>
</mgrwt>
</event>
<event>
 4    1  0.1751735E-005  0.1010559E+04  0.7818608E-02  0.9297040E-01
          2   -1    0    0  501    0  0.00000000000E+00  0.00000000000E+00  0.14867379849E+04  0.14867379849E+04  0.25500000000E-02 0.  1.
         -2   -1    0    0    0  501 -0.00000000000E+00 -0.00000000000E+00 -0.17172301249E+03  0.17172301251E+03  0.25500000000E-02 0. -1.
   -5000001    1    1    2    0    0 -0.20520256018E+03 -0.38177275828E+02  0.23508379622E+02  0.32652448454E+03  0.25000000000E+03 0.  0.
    5000001    1    1    2    0    0  0.20520256018E+03  0.38177275828E+02  0.12915065927E+04  0.13319365128E+04  0.25000000000E+03 0.  0.
<mgrwt>
<rscale>  0 0.10105585E+04</rscale>
<asrwt>0</asrwt>
<pdfrwt beam="1">  1        2 0.22872892E+00 0.10105585E+04</pdfrwt>
<pdfrwt beam="2">  1       -2 0.26418925E-01 0.10105585E+04</pdfrwt>
<totfact> 0.16702560E+02</totfact>
</mgrwt>
</event>
<event>
 4    1  0.1751735E-005  0.1339432E+04  0.7818608E-02  0.8998866E-01
         -2   -1    0    0    0  501 -0.00000000000E+00  0.00000000000E+00  0.99349733338E+03  0.99349733339E+03  0.25500000000E-02 0. -1.
          2   -1    0    0  501    0  0.00000000000E+00 -0.00000000000E+00 -0.45145545135E+03  0.45145545136E+03  0.25500000000E-02 0.  1.
   -5000001    1    1    2    0    0  0.21741035298E+03  0.56629158779E+03  0.12602086696E+03  0.66808284134E+03  0.25000000000E+03 0.  0.
    5000001    1    1    2    0    0 -0.21741035298E+03 -0.56629158779E+03  0.41602101507E+03  0.77686994341E+03  0.25000000000E+03 0.  0.
<mgrwt>
<rscale>  0 0.13394324E+04</rscale>
<asrwt>0</asrwt>
<pdfrwt beam="1">  1        2 0.69454685E-01 0.13394324E+04</pdfrwt>
<pdfrwt beam="2">  1       -2 0.15284574E+00 0.13394324E+04</pdfrwt>
<totfact> 0.19284215E+01</totfact>
</mgrwt>
</event>
<event>
 4    1  0.1751735E-005  0.1184109E+04  0.7818608E-02  0.9126881E-01
         -2   -1    0    0    0  501 -0.00000000000E+00  0.00000000000E+00  0.27022045604E+03  0.27022045606E+03  0.25500000000E-02 0. -1.
          2   -1    0    0  501    0  0.00000000000E+00 -0.00000000000E+00 -0.12971936920E+04  0.12971936920E+04  0.25500000000E-02 0.  1.
   -5000001    1    1    2    0    0 -0.40525132390E+03 -0.16465599857E+02 -0.97872534607E+03  0.10885325234E+04  0.25000000000E+03 0.  0.
    5000001    1    1    2    0    0  0.40525132390E+03  0.16465599857E+02 -0.48247889837E+02  0.47888162459E+03  0.25000000000E+03 0.  0.
<mgrwt>
<rscale>  0 0.11841086E+04</rscale>
<asrwt>0</asrwt>
<pdfrwt beam="1">  1        2 0.19956826E+00 0.11841086E+04</pdfrwt>
<pdfrwt beam="2">  1       -2 0.41572378E-01 0.11841086E+04</pdfrwt>
<totfact> 0.89802794E+01</totfact>
</mgrwt>
</event>
<event>
 4    1  0.1751735E-005  0.6365303E+03  0.7818608E-02  0.9832388E-01
          2   -1    0    0  501    0  0.00000000000E+00  0.00000000000E+00  0.24674234574E+03  0.24674234576E+03  0.25500000000E-02 0.  1.
         -2   -1    0    0    0  501 -0.00000000000E+00 -0.00000000000E+00 -0.41052016887E+03  0.41052016888E+03  0.25500000000E-02 0. -1.
   -5000001    1    1    2    0    0 -0.17407589704E+03 -0.77436394635E+02 -0.13345438034E+03  0.34148043103E+03  0.25000000000E+03 0.  0.
    5000001    1    1    2    0    0  0.17407589704E+03  0.77436394635E+02 -0.30323442786E+02  0.31578208360E+03  0.25000000000E+03 0.  0.
<mgrwt>
<rscale>  0 0.63653031E+03</rscale>
<asrwt>0</asrwt>
<pdfrwt beam="1">  1        2 0.37960361E-01 0.63653031E+03</pdfrwt>
<pdfrwt beam="2">  1       -2 0.63156949E-01 0.63653031E+03</pdfrwt>
<totfact> 0.32032551E+02</totfact>
</mgrwt>
</event>
<event>
 4    1  0.1751735E-005  0.8319687E+03  0.7818608E-02  0.9514863E-01
         -2   -1    0    0    0  501 -0.00000000000E+00  0.00000000000E+00  0.15344360359E+03  0.15344360361E+03  0.25500000000E-02 0. -1.
          2   -1    0    0  501    0  0.00000000000E+00 -0.00000000000E+00 -0.11277302639E+04  0.11277302639E+04  0.25500000000E-02 0.  1.
   -5000001    1    1    2    0    0 -0.30726507185E+03  0.43980910652E+02 -0.30365980671E+03  0.50105431152E+03  0.25000000000E+03 0.  0.
    5000001    1    1    2    0    0  0.30726507185E+03 -0.43980910652E+02 -0.67062685360E+03  0.78011955600E+03  0.25000000000E+03 0.  0.
<mgrwt>
<rscale>  0 0.83196874E+03</rscale>
<asrwt>0</asrwt>
<pdfrwt beam="1">  1        2 0.17349696E+00 0.83196874E+03</pdfrwt>
<pdfrwt beam="2">  1       -2 0.23606709E-01 0.83196874E+03</pdfrwt>
<totfact> 0.33439876E+02</totfact>
</mgrwt>
</event>
<event>
 4    1  0.1751735E-005  0.1107726E+04  0.7818608E-02  0.9197694E-01
         -2   -1    0    0    0  501 -0.00000000000E+00  0.00000000000E+00  0.20271356555E+03  0.20271356557E+03  0.25500000000E-02 0. -1.
          2   -1    0    0  501    0  0.00000000000E+00 -0.00000000000E+00 -0.15132903780E+04  0.15132903780E+04  0.25500000000E-02 0.  1.
   -5000001    1    1    2    0    0  0.39928866668E+03 -0.39202313488E+02 -0.20819484997E+03  0.51653979157E+03  0.25000000000E+03 0.  0.
    5000001    1    1    2    0    0 -0.39928866668E+03  0.39202313488E+02 -0.11023819624E+04  0.11994641520E+04  0.25000000000E+03 0.  0.
<mgrwt>
<rscale>  0 0.11077265E+04</rscale>
<asrwt>0</asrwt>
<pdfrwt beam="1">  1        2 0.23281390E+00 0.11077265E+04</pdfrwt>
<pdfrwt beam="2">  1       -2 0.31186703E-01 0.11077265E+04</pdfrwt>
<totfact> 0.11797862E+02</totfact>
</mgrwt>
</event>
<event>
 4    1  0.1751735E-005  0.8050369E+03  0.7818608E-02  0.9552755E-01
         -2   -1    0    0    0  501 -0.00000000000E+00  0.00000000000E+00  0.15738270647E+03  0.15738270650E+03  0.25500000000E-02 0. -1.
          2   -1    0    0  501    0  0.00000000000E+00 -0.00000000000E+00 -0.10294720977E+04  0.10294720977E+04  0.25500000000E-02 0.  1.
   -5000001    1    1    2    0    0  0.27846816743E+03  0.84790090646E+02 -0.61532193068E+03  0.72515857447E+03  0.25000000000E+03 0.  0.
    5000001    1    1    2    0    0 -0.27846816743E+03 -0.84790090646E+02 -0.25676746052E+03  0.46169622971E+03  0.25000000000E+03 0.  0.
<mgrwt>
<rscale>  0 0.80503691E+03</rscale>
<asrwt>0</asrwt>
<pdfrwt beam="1">  1        2 0.15838032E+00 0.80503691E+03</pdfrwt>
<pdfrwt beam="2">  1       -2 0.24212725E-01 0.80503691E+03</pdfrwt>
<totfact> 0.36800841E+02</totfact>
</mgrwt>
</event>
<event>
 4    1  0.1751735E-005  0.6363165E+03  0.7818608E-02  0.9832800E-01
         -2   -1    0    0    0  501 -0.00000000000E+00  0.00000000000E+00  0.14968275320E+03  0.14968275322E+03  0.25500000000E-02 0. -1.
          2   -1    0    0  501    0  0.00000000000E+00 -0.00000000000E+00 -0.67626147846E+03  0.67626147847E+03  0.25500000000E-02 0.  1.
   -5000001    1    1    2    0    0 -0.18463303358E+03 -0.67843219502E+02 -0.27070285108E+03  0.41769856727E+03  0.25000000000E+03 0.  0.
    5000001    1    1    2    0    0  0.18463303358E+03  0.67843219502E+02 -0.25587587419E+03  0.40824566441E+03  0.25000000000E+03 0.  0.
<mgrwt>
<rscale>  0 0.63631652E+03</rscale>
<asrwt>0</asrwt>
<pdfrwt beam="1">  1        2 0.10404023E+00 0.63631652E+03</pdfrwt>
<pdfrwt beam="2">  1       -2 0.23028116E-01 0.63631652E+03</pdfrwt>
<totfact> 0.71514514E+02</totfact>
</mgrwt>
</event>
<event>
 4    1  0.1751735E-005  0.1556556E+04  0.7818608E-02  0.8847691E-01
          2   -1    0    0  501    0  0.00000000000E+00  0.00000000000E+00  0.37299811912E+04  0.37299811912E+04  0.25500000000E-02 0.  1.
         -2   -1    0    0    0  501 -0.00000000000E+00 -0.00000000000E+00 -0.16239139830E+03  0.16239139832E+03  0.25500000000E-02 0. -1.
   -5000001    1    1    2    0    0  0.39391144560E+02 -0.73586455127E+03  0.17513289242E+04  0.19164293102E+04  0.25000000000E+03 0.  0.
    5000001    1    1    2    0    0 -0.39391144560E+02  0.73586455127E+03  0.18162608687E+04  0.19759432793E+04  0.25000000000E+03 0.  0.
<mgrwt>
<rscale>  0 0.15565563E+04</rscale>
<asrwt>0</asrwt>
<pdfrwt beam="1">  1        2 0.57384324E+00 0.15565563E+04</pdfrwt>
<pdfrwt beam="2">  1       -2 0.24983293E-01 0.15565563E+04</pdfrwt>
<totfact> 0.77911066E+00</totfact>
</mgrwt>
</event>
<event>
 4    1  0.1751735E-005  0.5586399E+03  0.7818608E-02  0.9995137E-01
         -2   -1    0    0    0  501 -0.00000000000E+00  0.00000000000E+00  0.49023694928E+02  0.49023694994E+02  0.25500000000E-02 0. -1.
          2   -1    0    0  501    0  0.00000000000E+00 -0.00000000000E+00 -0.15914676314E+04  0.15914676314E+04  0.25500000000E-02 0.  1.
   -5000001    1    1    2    0    0  0.11351740140E+03 -0.13994663648E+02 -0.62623772581E+03  0.68392670679E+03  0.25000000000E+03 0.  0.
    5000001    1    1    2    0    0 -0.11351740140E+03  0.13994663648E+02 -0.91620621070E+03  0.95656461964E+03  0.25000000000E+03 0.  0.
<mgrwt>
<rscale>  0 0.55863986E+03</rscale>
<asrwt>0</asrwt>
<pdfrwt beam="1">  1        2 0.24484113E+00 0.55863986E+03</pdfrwt>
<pdfrwt beam="2">  1       -2 0.75421081E-02 0.55863986E+03</pdfrwt>
<totfact> 0.12458450E+03</totfact>
</mgrwt>
</event>
<event>
 4    1  0.1751735E-005  0.6488520E+03  0.7818608E-02  0.9808936E-01
         -2   -1    0    0    0  501 -0.00000000000E+00  0.00000000000E+00  0.99732949420E+03  0.99732949420E+03  0.25500000000E-02 0. -1.
          2   -1    0    0  501    0  0.00000000000E+00 -0.00000000000E+00 -0.10553404343E+03  0.10553404346E+03  0.25500000000E-02 0.  1.
   -5000001    1    1    2    0    0  0.13306006677E+03 -0.14324848923E+03  0.56026094065E+03  0.64390793803E+03  0.25000000000E+03 0.  0.
    5000001    1    1    2    0    0 -0.13306006677E+03  0.14324848923E+03  0.33153451011E+03  0.45895559963E+03  0.25000000000E+03 0.  0.
<mgrwt>
<rscale>  0 0.64885195E+03</rscale>
<asrwt>0</asrwt>
<pdfrwt beam="1">  1        2 0.16236007E-01 0.64885195E+03</pdfrwt>
<pdfrwt beam="2">  1       -2 0.15343531E+00 0.64885195E+03</pdfrwt>
<totfact> 0.10436516E+02</totfact>
</mgrwt>
</event>
<event>
 4    1  0.1751735E-005  0.6658433E+03  0.7818608E-02  0.9777496E-01
          2   -1    0    0  501    0  0.00000000000E+00  0.00000000000E+00  0.10238311993E+04  0.10238311993E+04  0.25500000000E-02 0.  1.
         -2   -1    0    0    0  501 -0.00000000000E+00 -0.00000000000E+00 -0.10825691625E+03  0.10825691628E+03  0.25500000000E-02 0. -1.
   -5000001    1    1    2    0    0  0.12483783564E+03  0.18096840797E+03  0.45496325905E+03  0.56376024778E+03  0.25000000000E+03 0.  0.
    5000001    1    1    2    0    0 -0.12483783564E+03 -0.18096840797E+03  0.46061102397E+03  0.56832786778E+03  0.25000000000E+03 0.  0.
<mgrwt>
<rscale>  0 0.66584325E+03</rscale>
<asrwt>0</asrwt>
<pdfrwt beam="1">  1        2 0.15751248E+00 0.66584325E+03</pdfrwt>
<pdfrwt beam="2">  1       -2 0.16654911E-01 0.66584325E+03</pdfrwt>
<totfact> 0.71843443E+02</totfact>
</mgrwt>
</event>
<event>
 4    1  0.1751735E-005  0.7969269E+03  0.7818608E-02  0.9564476E-01
         -2   -1    0    0    0  501 -0.00000000000E+00  0.00000000000E+00  0.15313352985E+03  0.15313352987E+03  0.25500000000E-02 0. -1.
          2   -1    0    0  501    0  0.00000000000E+00 -0.00000000000E+00 -0.10368279609E+04  0.10368279609E+04  0.25500000000E-02 0.  1.
   -5000001    1    1    2    0    0 -0.19501784249E+03  0.21891936902E+03 -0.29019140266E+03  0.48235743925E+03  0.25000000000E+03 0.  0.
    5000001    1    1    2    0    0  0.19501784249E+03 -0.21891936902E+03 -0.59350302840E+03  0.70760405153E+03  0.25000000000E+03 0.  0.
<mgrwt>
<rscale>  0 0.79692691E+03</rscale>
<asrwt>0</asrwt>
<pdfrwt beam="1">  1        2 0.15951199E+00 0.79692691E+03</pdfrwt>
<pdfrwt beam="2">  1       -2 0.23559005E-01 0.79692691E+03</pdfrwt>
<totfact> 0.38256796E+02</totfact>
</mgrwt>
</event>
<event>
 4    1  0.1751735E-005  0.6213841E+03  0.7818608E-02  0.9862008E-01
          2   -1    0    0  501    0  0.00000000000E+00  0.00000000000E+00  0.11110385014E+04  0.11110385014E+04  0.25500000000E-02 0.  1.
         -2   -1    0    0    0  501 -0.00000000000E+00 -0.00000000000E+00 -0.86882271143E+02  0.86882271181E+02  0.25500000000E-02 0. -1.
   -5000001    1    1    2    0    0 -0.80940757029E+02 -0.76532497256E+02  0.22860946299E+03  0.35661031373E+03  0.25000000000E+03 0.  0.
    5000001    1    1    2    0    0  0.80940757029E+02  0.76532497256E+02  0.79554676728E+03  0.84131045888E+03  0.25000000000E+03 0.  0.
<mgrwt>
<rscale>  0 0.62138409E+03</rscale>
<asrwt>0</asrwt>
<pdfrwt beam="1">  1        2 0.17092902E+00 0.62138409E+03</pdfrwt>
<pdfrwt beam="2">  1       -2 0.13366502E-01 0.62138409E+03</pdfrwt>
<totfact> 0.92121254E+02</totfact>
</mgrwt>
</event>
<event>
 4    1  0.1751735E-005  0.1052810E+04  0.7818608E-02  0.9252448E-01
          2   -1    0    0  501    0  0.00000000000E+00  0.00000000000E+00  0.15333175483E+04  0.15333175483E+04  0.25500000000E-02 0.  1.
         -2   -1    0    0    0  501 -0.00000000000E+00 -0.00000000000E+00 -0.18072063877E+03  0.18072063879E+03  0.25500000000E-02 0. -1.
   -5000001    1    1    2    0    0 -0.32398892485E+03 -0.27840823430E+03  0.96809015063E+03  0.10872803264E+04  0.25000000000E+03 0.  0.
    5000001    1    1    2    0    0  0.32398892485E+03  0.27840823430E+03  0.38450675890E+03  0.62675786073E+03  0.25000000000E+03 0.  0.
<mgrwt>
<rscale>  0 0.10528098E+04</rscale>
<asrwt>0</asrwt>
<pdfrwt beam="1">  1        2 0.23589500E+00 0.10528098E+04</pdfrwt>
<pdfrwt beam="2">  1       -2 0.27803176E-01 0.10528098E+04</pdfrwt>
<totfact> 0.14282047E+02</totfact>
</mgrwt>
</event>
<event>
 4    1  0.1751735E-005  0.9465244E+03  0.7818608E-02  0.9369222E-01
          2   -1    0    0  501    0  0.00000000000E+00  0.00000000000E+00  0.67759376333E+03  0.67759376334E+03  0.25500000000E-02 0.  1.
         -2   -1    0    0    0  501 -0.00000000000E+00 -0.00000000000E+00 -0.33054779007E+03  0.33054779008E+03  0.25500000000E-02 0. -1.
   -5000001    1    1    2    0    0  0.19569739762E+03 -0.13306195760E+02  0.54707134112E+03  0.63266229424E+03  0.25000000000E+03 0.  0.
    5000001    1    1    2    0    0 -0.19569739762E+03  0.13306195760E+02 -0.20002536786E+03  0.37547925917E+03  0.25000000000E+03 0.  0.
<mgrwt>
<rscale>  0 0.94652442E+03</rscale>
<asrwt>0</asrwt>
<pdfrwt beam="1">  1        2 0.10424519E+00 0.94652442E+03</pdfrwt>
<pdfrwt beam="2">  1       -2 0.50853507E-01 0.94652442E+03</pdfrwt>
<totfact> 0.15624000E+02</totfact>
</mgrwt>
</event>
<event>
 4    1  0.1751735E-005  0.7052201E+03  0.7818608E-02  0.9708347E-01
          2   -1    0    0  501    0  0.00000000000E+00  0.00000000000E+00  0.45156881649E+03  0.45156881649E+03  0.25500000000E-02 0.  1.
         -2   -1    0    0    0  501 -0.00000000000E+00 -0.00000000000E+00 -0.27533751594E+03  0.27533751596E+03  0.25500000000E-02 0. -1.
   -5000001    1    1    2    0    0 -0.24508511370E+03  0.28921219089E+02  0.56670370680E+02  0.35582956705E+03  0.25000000000E+03 0.  0.
    5000001    1    1    2    0    0  0.24508511370E+03 -0.28921219089E+02  0.11956092986E+03  0.37107676540E+03  0.25000000000E+03 0.  0.
<mgrwt>
<rscale>  0 0.70522007E+03</rscale>
<asrwt>0</asrwt>
<pdfrwt beam="1">  1        2 0.69472126E-01 0.70522007E+03</pdfrwt>
<pdfrwt beam="2">  1       -2 0.42359618E-01 0.70522007E+03</pdfrwt>
<totfact> 0.36896202E+02</totfact>
</mgrwt>
</event>
<event>
 4    1  0.1751735E-005  0.6142474E+03  0.7818608E-02  0.9876280E-01
          2   -1    0    0  501    0  0.00000000000E+00  0.00000000000E+00  0.30732759553E+04  0.30732759553E+04  0.25500000000E-02 0.  1.
         -2   -1    0    0    0  501 -0.00000000000E+00 -0.00000000000E+00 -0.30691992721E+02  0.30691992827E+02  0.25500000000E-02 0. -1.
   -5000001    1    1    2    0    0 -0.89261336604E+02 -0.14729448070E+03  0.12863433374E+04  0.13216816682E+04  0.25000000000E+03 0.  0.
    5000001    1    1    2    0    0  0.89261336604E+02  0.14729448070E+03  0.17562406251E+04  0.17822862799E+04  0.25000000000E+03 0.  0.
<mgrwt>
<rscale>  0 0.61424739E+03</rscale>
<asrwt>0</asrwt>
<pdfrwt beam="1">  1        2 0.47281171E+00 0.61424739E+03</pdfrwt>
<pdfrwt beam="2">  1       -2 0.47218448E-02 0.61424739E+03</pdfrwt>
<totfact> 0.37947481E+02</totfact>
</mgrwt>
</event>
<event>
 4    1  0.1751735E-005  0.1012031E+04  0.7818608E-02  0.9295447E-01
          2   -1    0    0  501    0  0.00000000000E+00  0.00000000000E+00  0.40184498736E+03  0.40184498736E+03  0.25500000000E-02 0.  1.
         -2   -1    0    0    0  501 -0.00000000000E+00 -0.00000000000E+00 -0.63718989344E+03  0.63718989344E+03  0.25500000000E-02 0. -1.
   -5000001    1    1    2    0    0  0.13202712727E+03 -0.41739519184E+03 -0.16244403219E+03  0.52965835413E+03  0.25000000000E+03 0.  0.
    5000001    1    1    2    0    0 -0.13202712727E+03  0.41739519184E+03 -0.72900873888E+02  0.50937652667E+03  0.25000000000E+03 0.  0.
<mgrwt>
<rscale>  0 0.10120308E+04</rscale>
<asrwt>0</asrwt>
<pdfrwt beam="1">  1        2 0.61822306E-01 0.10120308E+04</pdfrwt>
<pdfrwt beam="2">  1       -2 0.98029214E-01 0.10120308E+04</pdfrwt>
<totfact> 0.68357844E+01</totfact>
</mgrwt>
</event>
<event>
 4    1  0.1751735E-005  0.7245600E+03  0.7818608E-02  0.9676129E-01
          2   -1    0    0  501    0  0.00000000000E+00  0.00000000000E+00  0.96463621610E+03  0.96463621610E+03  0.25500000000E-02 0.  1.
         -2   -1    0    0    0  501 -0.00000000000E+00 -0.00000000000E+00 -0.13605833509E+03  0.13605833511E+03  0.25500000000E-02 0. -1.
   -5000001    1    1    2    0    0  0.25319560868E+03  0.29939442047E+02  0.32135631443E+03  0.48038970355E+03  0.25000000000E+03 0.  0.
    5000001    1    1    2    0    0 -0.25319560868E+03 -0.29939442047E+02  0.50722156657E+03  0.62030484767E+03  0.25000000000E+03 0.  0.
<mgrwt>
<rscale>  0 0.72456000E+03</rscale>
<asrwt>0</asrwt>
<pdfrwt beam="1">  1        2 0.14840557E+00 0.72456000E+03</pdfrwt>
<pdfrwt beam="2">  1       -2 0.20932051E-01 0.72456000E+03</pdfrwt>
<totfact> 0.52629496E+02</totfact>
</mgrwt>
</event>
<event>
 4    1  0.1751735E-005  0.2728588E+04  0.7818608E-02  0.8325788E-01
          2   -1    0    0  501    0  0.00000000000E+00  0.00000000000E+00  0.15055589031E+04  0.15055589031E+04  0.25500000000E-02 0.  1.
         -2   -1    0    0    0  501 -0.00000000000E+00 -0.00000000000E+00 -0.12362838308E+04  0.12362838308E+04  0.25500000000E-02 0. -1.
   -5000001    1    1    2    0    0  0.39678475482E+03  0.58784831439E+03  0.12784968567E+04  0.14832592474E+04  0.25000000000E+03 0.  0.
    5000001    1    1    2    0    0 -0.39678475482E+03 -0.58784831439E+03 -0.10092217844E+04  0.12585834865E+04  0.25000000000E+03 0.  0.
<mgrwt>
<rscale>  0 0.27285880E+04</rscale>
<asrwt>0</asrwt>
<pdfrwt beam="1">  1        2 0.23162445E+00 0.27285880E+04</pdfrwt>
<pdfrwt beam="2">  1       -2 0.19019751E+00 0.27285880E+04</pdfrwt>
<totfact> 0.17046924E+00</totfact>
</mgrwt>
</event>
<event>
 4    1  0.1751735E-005  0.8081664E+03  0.7818608E-02  0.9548271E-01
          2   -1    0    0  501    0  0.00000000000E+00  0.00000000000E+00  0.29271489193E+04  0.29271489193E+04  0.25500000000E-02 0.  1.
         -2   -1    0    0    0  501 -0.00000000000E+00 -0.00000000000E+00 -0.55782349724E+02  0.55782349782E+02  0.25500000000E-02 0. -1.
   -5000001    1    1    2    0    0 -0.20373442891E+03  0.22299723493E+03  0.17963393149E+04  0.18386327580E+04  0.25000000000E+03 0.  0.
    5000001    1    1    2    0    0  0.20373442891E+03 -0.22299723493E+03  0.10750272546E+04  0.11442985111E+04  0.25000000000E+03 0.  0.
<mgrwt>
<rscale>  0 0.80816643E+03</rscale>
<asrwt>0</asrwt>
<pdfrwt beam="1">  1        2 0.45033057E+00 0.80816643E+03</pdfrwt>
<pdfrwt beam="2">  1       -2 0.85819006E-02 0.80816643E+03</pdfrwt>
<totfact> 0.17772771E+02</totfact>
</mgrwt>
</event>
<event>
 4    1  0.1751735E-005  0.1038213E+04  0.7818608E-02  0.9267598E-01
          2   -1    0    0  501    0  0.00000000000E+00  0.00000000000E+00  0.54854828667E+03  0.54854828668E+03  0.25500000000E-02 0.  1.
         -2   -1    0    0    0  501 -0.00000000000E+00 -0.00000000000E+00 -0.49124506244E+03  0.49124506244E+03  0.25500000000E-02 0. -1.
   -5000001    1    1    2    0    0 -0.42828752153E+03 -0.64056675520E+02  0.16828468407E+03  0.52759188173E+03  0.25000000000E+03 0.  0.
    5000001    1    1    2    0    0  0.42828752153E+03  0.64056675520E+02 -0.11098145983E+03  0.51220146739E+03  0.25000000000E+03 0.  0.
<mgrwt>
<rscale>  0 0.10382132E+04</rscale>
<asrwt>0</asrwt>
<pdfrwt beam="1">  1        2 0.84392043E-01 0.10382132E+04</pdfrwt>
<pdfrwt beam="2">  1       -2 0.75576164E-01 0.10382132E+04</pdfrwt>
<totfact> 0.86444400E+01</totfact>
</mgrwt>
</event>
<event>
 4    1  0.1751735E-005  0.7165346E+03  0.7818608E-02  0.9689366E-01
         -2   -1    0    0    0  501 -0.00000000000E+00  0.00000000000E+00  0.61875447593E+02  0.61875447645E+02  0.25500000000E-02 0. -1.
          2   -1    0    0  501    0  0.00000000000E+00 -0.00000000000E+00 -0.20744165875E+04  0.20744165875E+04  0.25500000000E-02 0.  1.
   -5000001    1    1    2    0    0 -0.41329485341E+02  0.20603199976E+03 -0.14454426781E+04  0.14818778111E+04  0.25000000000E+03 0.  0.
    5000001    1    1    2    0    0  0.41329485341E+02 -0.20603199976E+03 -0.56709846180E+03  0.65441422406E+03  0.25000000000E+03 0.  0.
<mgrwt>
<rscale>  0 0.71653459E+03</rscale>
<asrwt>0</asrwt>
<pdfrwt beam="1">  1        2 0.31914096E+00 0.71653459E+03</pdfrwt>
<pdfrwt beam="2">  1       -2 0.95193012E-02 0.71653459E+03</pdfrwt>
<totfact> 0.46421723E+02</totfact>
</mgrwt>
</event>
<event>
 4    1  0.1751735E-005  0.6844951E+03  0.7818608E-02  0.9744121E-01
          2   -1    0    0  501    0  0.00000000000E+00  0.00000000000E+00  0.73501856696E+03  0.73501856696E+03  0.25500000000E-02 0.  1.
         -2   -1    0    0    0  501 -0.00000000000E+00 -0.00000000000E+00 -0.15936113827E+03  0.15936113829E+03  0.25500000000E-02 0. -1.
   -5000001    1    1    2    0    0 -0.90726226942E+02 -0.21294045756E+03  0.33033946789E+03  0.47455142058E+03  0.25000000000E+03 0.  0.
    5000001    1    1    2    0    0  0.90726226942E+02  0.21294045756E+03  0.24531796080E+03  0.41982828467E+03  0.25000000000E+03 0.  0.
<mgrwt>
<rscale>  0 0.68449513E+03</rscale>
<asrwt>0</asrwt>
<pdfrwt beam="1">  1        2 0.11307978E+00 0.68449513E+03</pdfrwt>
<pdfrwt beam="2">  1       -2 0.24517098E-01 0.68449513E+03</pdfrwt>
<totfact> 0.57491947E+02</totfact>
</mgrwt>
</event>
<event>
 4    1  0.1751735E-005  0.6301579E+03  0.7818608E-02  0.9844741E-01
          2   -1    0    0  501    0  0.00000000000E+00  0.00000000000E+00  0.18110025486E+04  0.18110025486E+04  0.25500000000E-02 0.  1.
         -2   -1    0    0    0  501 -0.00000000000E+00 -0.00000000000E+00 -0.54817567100E+02  0.54817567160E+02  0.25500000000E-02 0. -1.
   -5000001    1    1    2    0    0  0.13169289003E+03 -0.15352259673E+02  0.46786360122E+03  0.54678611770E+03  0.25000000000E+03 0.  0.
    5000001    1    1    2    0    0 -0.13169289003E+03  0.15352259673E+02  0.12883213802E+04  0.13190339980E+04  0.25000000000E+03 0.  0.
<mgrwt>
<rscale>  0 0.63015793E+03</rscale>
<asrwt>0</asrwt>
<pdfrwt beam="1">  1        2 0.27861580E+00 0.63015793E+03</pdfrwt>
<pdfrwt beam="2">  1       -2 0.84334711E-02 0.63015793E+03</pdfrwt>
<totfact> 0.78925641E+02</totfact>
</mgrwt>
</event>
<event>
 4    1  0.1751735E-005  0.8600071E+03  0.7818608E-02  0.9477003E-01
         -2   -1    0    0    0  501 -0.00000000000E+00  0.00000000000E+00  0.42642354111E+02  0.42642354187E+02  0.25500000000E-02 0. -1.
          2   -1    0    0  501    0  0.00000000000E+00 -0.00000000000E+00 -0.43361358560E+04  0.43361358560E+04  0.25500000000E-02 0.  1.
   -5000001    1    1    2    0    0 -0.25660702904E+03 -0.21934384519E+03 -0.26146207623E+04  0.26481504150E+04  0.25000000000E+03 0.  0.
    5000001    1    1    2    0    0  0.25660702904E+03  0.21934384519E+03 -0.16788727396E+04  0.17306277953E+04  0.25000000000E+03 0.  0.
<mgrwt>
<rscale>  0 0.86000707E+03</rscale>
<asrwt>0</asrwt>
<pdfrwt beam="1">  1        2 0.66709748E+00 0.86000707E+03</pdfrwt>
<pdfrwt beam="2">  1       -2 0.65603656E-02 0.86000707E+03</pdfrwt>
<totfact> 0.26096680E+01</totfact>
</mgrwt>
</event>
<event>
 4    1  0.1751735E-005  0.8477345E+03  0.7818608E-02  0.9493383E-01
         -2   -1    0    0    0  501 -0.00000000000E+00  0.00000000000E+00  0.11598450292E+03  0.11598450295E+03  0.25500000000E-02 0. -1.
          2   -1    0    0  501    0  0.00000000000E+00 -0.00000000000E+00 -0.15490297829E+04  0.15490297829E+04  0.25500000000E-02 0.  1.
   -5000001    1    1    2    0    0 -0.14922139231E+02 -0.34192434476E+03 -0.70603337137E+03  0.82347923426E+03  0.25000000000E+03 0.  0.
    5000001    1    1    2    0    0  0.14922139231E+02  0.34192434476E+03 -0.72701190859E+03  0.84153505156E+03  0.25000000000E+03 0.  0.
<mgrwt>
<rscale>  0 0.84773451E+03</rscale>
<asrwt>0</asrwt>
<pdfrwt beam="1">  1        2 0.23831226E+00 0.84773451E+03</pdfrwt>
<pdfrwt beam="2">  1       -2 0.17843771E-01 0.84773451E+03</pdfrwt>
<totfact> 0.31248367E+02</totfact>
</mgrwt>
</event>
<event>
 4    1  0.1751735E-005  0.5429542E+03  0.7818608E-02  0.1003138E+00
          2   -1    0    0  501    0  0.00000000000E+00  0.00000000000E+00  0.13583989320E+04  0.13583989320E+04  0.25500000000E-02 0.  1.
         -2   -1    0    0    0  501 -0.00000000000E+00 -0.00000000000E+00 -0.54254912836E+02  0.54254912896E+02  0.25500000000E-02 0. -1.
   -5000001    1    1    2    0    0 -0.16192567217E+02  0.92854008544E+02  0.52686796618E+03  0.59074014585E+03  0.25000000000E+03 0.  0.
    5000001    1    1    2    0    0  0.16192567217E+02 -0.92854008544E+02  0.77727605299E+03  0.82191369905E+03  0.25000000000E+03 0.  0.
<mgrwt>
<rscale>  0 0.54295420E+03</rscale>
<asrwt>0</asrwt>
<pdfrwt beam="1">  1        2 0.20898445E+00 0.54295420E+03</pdfrwt>
<pdfrwt beam="2">  1       -2 0.83469098E-02 0.54295420E+03</pdfrwt>
<totfact> 0.14276786E+03</totfact>
</mgrwt>
</event>
<event>
 4    1  0.1751735E-005  0.6806917E+03  0.7818608E-02  0.9750834E-01
         -2   -1    0    0    0  501 -0.00000000000E+00  0.00000000000E+00  0.38698715522E+02  0.38698715606E+02  0.25500000000E-02 0. -1.
          2   -1    0    0  501    0  0.00000000000E+00 -0.00000000000E+00 -0.29932595556E+04  0.29932595556E+04  0.25500000000E-02 0.  1.
   -5000001    1    1    2    0    0  0.12857099155E+03 -0.51616554626E+02 -0.65426513803E+03  0.71397313634E+03  0.25000000000E+03 0.  0.
    5000001    1    1    2    0    0 -0.12857099155E+03  0.51616554626E+02 -0.23002957021E+04  0.23179851349E+04  0.25000000000E+03 0.  0.
<mgrwt>
<rscale>  0 0.68069171E+03</rscale>
<asrwt>0</asrwt>
<pdfrwt beam="1">  1        2 0.46050129E+00 0.68069171E+03</pdfrwt>
<pdfrwt beam="2">  1       -2 0.59536509E-02 0.68069171E+03</pdfrwt>
<totfact> 0.29379518E+02</totfact>
</mgrwt>
</event>
<event>
 4    1  0.1751735E-005  0.6056695E+03  0.7818608E-02  0.9893713E-01
          2   -1    0    0  501    0  0.00000000000E+00  0.00000000000E+00  0.34932490916E+03  0.34932490917E+03  0.25500000000E-02 0.  1.
         -2   -1    0    0    0  501 -0.00000000000E+00 -0.00000000000E+00 -0.26253174519E+03  0.26253174520E+03  0.25500000000E-02 0. -1.
   -5000001    1    1    2    0    0 -0.64155275389E+02  0.15047365750E+03  0.93406400044E+02  0.31302232593E+03  0.25000000000E+03 0.  0.
    5000001    1    1    2    0    0  0.64155275389E+02 -0.15047365750E+03 -0.66132360749E+01  0.29883432844E+03  0.25000000000E+03 0.  0.
<mgrwt>
<rscale>  0 0.60566947E+03</rscale>
<asrwt>0</asrwt>
<pdfrwt beam="1">  1        2 0.53742294E-01 0.60566947E+03</pdfrwt>
<pdfrwt beam="2">  1       -2 0.40389499E-01 0.60566947E+03</pdfrwt>
<totfact> 0.54155128E+02</totfact>
</mgrwt>
</event>
<event>
 4    1  0.1751735E-005  0.6733652E+03  0.7818608E-02  0.9763898E-01
          2   -1    0    0  501    0  0.00000000000E+00  0.00000000000E+00  0.17490030043E+04  0.17490030043E+04  0.25500000000E-02 0.  1.
         -2   -1    0    0    0  501 -0.00000000000E+00 -0.00000000000E+00 -0.64811299973E+02  0.64811300023E+02  0.25500000000E-02 0. -1.
   -5000001    1    1    2    0    0 -0.74380813402E+02  0.21270935252E+03  0.81840019338E+03  0.88490488222E+03  0.25000000000E+03 0.  0.
    5000001    1    1    2    0    0  0.74380813402E+02 -0.21270935252E+03  0.86579151095E+03  0.92890942211E+03  0.25000000000E+03 0.  0.
<mgrwt>
<rscale>  0 0.67336516E+03</rscale>
<asrwt>0</asrwt>
<pdfrwt beam="1">  1        2 0.26907735E+00 0.67336516E+03</pdfrwt>
<pdfrwt beam="2">  1       -2 0.99709706E-02 0.67336516E+03</pdfrwt>
<totfact> 0.64924274E+02</totfact>
</mgrwt>
</event>
<event>
 4    1  0.1751735E-005  0.6985076E+03  0.7818608E-02  0.9719788E-01
          2   -1    0    0  501    0  0.00000000000E+00  0.00000000000E+00  0.76988270205E+03  0.76988270205E+03  0.25500000000E-02 0.  1.
         -2   -1    0    0    0  501 -0.00000000000E+00 -0.00000000000E+00 -0.15843741247E+03  0.15843741249E+03  0.25500000000E-02 0. -1.
   -5000001    1    1    2    0    0  0.20496007395E+03 -0.33308709442E+02  0.13573401555E+03  0.35219571976E+03  0.25000000000E+03 0.  0.
    5000001    1    1    2    0    0 -0.20496007395E+03  0.33308709442E+02  0.47571127402E+03  0.57612439479E+03  0.25000000000E+03 0.  0.
<mgrwt>
<rscale>  0 0.69850762E+03</rscale>
<asrwt>0</asrwt>
<pdfrwt beam="1">  1        2 0.11844349E+00 0.69850762E+03</pdfrwt>
<pdfrwt beam="2">  1       -2 0.24374986E-01 0.69850762E+03</pdfrwt>
<totfact> 0.54698911E+02</totfact>
</mgrwt>
</event>
<event>
 4    1  0.1751735E-005  0.6114295E+03  0.7818608E-02  0.9881973E-01
         -2   -1    0    0    0  501 -0.00000000000E+00  0.00000000000E+00  0.10592999768E+03  0.10592999771E+03  0.25500000000E-02 0. -1.
          2   -1    0    0  501    0  0.00000000000E+00 -0.00000000000E+00 -0.88229501354E+03  0.88229501354E+03  0.25500000000E-02 0.  1.
   -5000001    1    1    2    0    0 -0.60656359438E+02 -0.15753256641E+03 -0.46844060261E+03  0.55716451933E+03  0.25000000000E+03 0.  0.
    5000001    1    1    2    0    0  0.60656359438E+02  0.15753256641E+03 -0.30792441325E+03  0.43106049192E+03  0.25000000000E+03 0.  0.
<mgrwt>
<rscale>  0 0.61142950E+03</rscale>
<asrwt>0</asrwt>
<pdfrwt beam="1">  1        2 0.13573769E+00 0.61142950E+03</pdfrwt>
<pdfrwt beam="2">  1       -2 0.16296923E-01 0.61142950E+03</pdfrwt>
<totfact> 0.92307422E+02</totfact>
</mgrwt>
</event>
<event>
 4    1  0.1751735E-005  0.8671384E+03  0.7818608E-02  0.9467619E-01
         -2   -1    0    0    0  501 -0.00000000000E+00  0.00000000000E+00  0.31303114426E+03  0.31303114427E+03  0.25500000000E-02 0. -1.
          2   -1    0    0  501    0  0.00000000000E+00 -0.00000000000E+00 -0.60052250043E+03  0.60052250044E+03  0.25500000000E-02 0.  1.
   -5000001    1    1    2    0    0  0.33464423467E+03 -0.42998467436E+02 -0.30049602739E+02  0.42099716225E+03  0.25000000000E+03 0.  0.
    5000001    1    1    2    0    0 -0.33464423467E+03  0.42998467436E+02 -0.25744175343E+03  0.49255648246E+03  0.25000000000E+03 0.  0.
<mgrwt>
<rscale>  0 0.86713839E+03</rscale>
<asrwt>0</asrwt>
<pdfrwt beam="1">  1        2 0.92388077E-01 0.86713839E+03</pdfrwt>
<pdfrwt beam="2">  1       -2 0.48158638E-01 0.86713839E+03</pdfrwt>
<totfact> 0.20329139E+02</totfact>
</mgrwt>
</event>
<event>
 4    1  0.1751735E-005  0.6846167E+03  0.7818608E-02  0.9743907E-01
          2   -1    0    0  501    0  0.00000000000E+00  0.00000000000E+00  0.11612602886E+04  0.11612602886E+04  0.25500000000E-02 0.  1.
         -2   -1    0    0    0  501 -0.00000000000E+00 -0.00000000000E+00 -0.10090330812E+03  0.10090330815E+03  0.25500000000E-02 0. -1.
   -5000001    1    1    2    0    0  0.10874275877E+03 -0.17088200076E+03  0.31478910723E+03  0.45013090074E+03  0.25000000000E+03 0.  0.
    5000001    1    1    2    0    0 -0.10874275877E+03  0.17088200076E+03  0.74556787329E+03  0.81203269605E+03  0.25000000000E+03 0.  0.
<mgrwt>
<rscale>  0 0.68461669E+03</rscale>
<asrwt>0</asrwt>
<pdfrwt beam="1">  1        2 0.17865543E+00 0.68461669E+03</pdfrwt>
<pdfrwt beam="2">  1       -2 0.15523586E-01 0.68461669E+03</pdfrwt>
<totfact> 0.66675443E+02</totfact>
</mgrwt>
</event>
<event>
 4    1  0.1751735E-005  0.6565011E+03  0.7818608E-02  0.9794656E-01
          2   -1    0    0  501    0  0.00000000000E+00  0.00000000000E+00  0.42419668724E+03  0.42419668725E+03  0.25500000000E-02 0.  1.
         -2   -1    0    0    0  501 -0.00000000000E+00 -0.00000000000E+00 -0.25400578317E+03  0.25400578318E+03  0.25500000000E-02 0. -1.
   -5000001    1    1    2    0    0 -0.84078959235E+02 -0.15833485532E+03 -0.33184804878E+02  0.30941950338E+03  0.25000000000E+03 0.  0.
    5000001    1    1    2    0    0  0.84078959235E+02  0.15833485532E+03  0.20337570895E+03  0.36878296705E+03  0.25000000000E+03 0.  0.
<mgrwt>
<rscale>  0 0.65650106E+03</rscale>
<asrwt>0</asrwt>
<pdfrwt beam="1">  1        2 0.65261029E-01 0.65650106E+03</pdfrwt>
<pdfrwt beam="2">  1       -2 0.39077813E-01 0.65650106E+03</pdfrwt>
<totfact> 0.46422397E+02</totfact>
</mgrwt>
</event>
<event>
 4    1  0.1751735E-005  0.1010620E+04  0.7818608E-02  0.9296974E-01
          2   -1    0    0  501    0  0.00000000000E+00  0.00000000000E+00  0.18036524869E+04  0.18036524869E+04  0.25500000000E-02 0.  1.
         -2   -1    0    0    0  501 -0.00000000000E+00 -0.00000000000E+00 -0.14156715405E+03  0.14156715408E+03  0.25500000000E-02 0. -1.
   -5000001    1    1    2    0    0  0.42674428198E+03 -0.13047025632E+01  0.10303811076E+04  0.11429337738E+04  0.25000000000E+03 0.  0.
    5000001    1    1    2    0    0 -0.42674428198E+03  0.13047025632E+01  0.63170422528E+03  0.80228586719E+03  0.25000000000E+03 0.  0.
<mgrwt>
<rscale>  0 0.10106195E+04</rscale>
<asrwt>0</asrwt>
<pdfrwt beam="1">  1        2 0.27748499E+00 0.10106195E+04</pdfrwt>
<pdfrwt beam="2">  1       -2 0.21779563E-01 0.10106195E+04</pdfrwt>
<totfact> 0.15773636E+02</totfact>
</mgrwt>
</event>
<event>
 4    1  0.1751735E-005  0.7553277E+03  0.7818608E-02  0.9627029E-01
          2   -1    0    0  501    0  0.00000000000E+00  0.00000000000E+00  0.23597548744E+03  0.23597548745E+03  0.25500000000E-02 0.  1.
         -2   -1    0    0    0  501 -0.00000000000E+00 -0.00000000000E+00 -0.60442709221E+03  0.60442709221E+03  0.25500000000E-02 0. -1.
   -5000001    1    1    2    0    0  0.21826576665E+03  0.82494415812E+02 -0.59102357139E+01  0.34202368985E+03  0.25000000000E+03 0.  0.
    5000001    1    1    2    0    0 -0.21826576665E+03 -0.82494415812E+02 -0.36254136906E+03  0.49837888981E+03  0.25000000000E+03 0.  0.
<mgrwt>
<rscale>  0 0.75532768E+03</rscale>
<asrwt>0</asrwt>
<pdfrwt beam="1">  1        2 0.36303921E-01 0.75532768E+03</pdfrwt>
<pdfrwt beam="2">  1       -2 0.92988783E-01 0.75532768E+03</pdfrwt>
<totfact> 0.14187812E+02</totfact>
</mgrwt>
</event>
<event>
 4    1  0.1751735E-005  0.7514539E+03  0.7818608E-02  0.9633072E-01
          2   -1    0    0  501    0  0.00000000000E+00  0.00000000000E+00  0.54307403222E+03  0.54307403222E+03  0.25500000000E-02 0.  1.
         -2   -1    0    0    0  501 -0.00000000000E+00 -0.00000000000E+00 -0.25994751148E+03  0.25994751150E+03  0.25500000000E-02 0. -1.
   -5000001    1    1    2    0    0 -0.14930402879E+03 -0.23104121253E+03  0.20008452291E+03  0.42214399345E+03  0.25000000000E+03 0.  0.
    5000001    1    1    2    0    0  0.14930402879E+03  0.23104121253E+03  0.83041997821E+02  0.38087755027E+03  0.25000000000E+03 0.  0.
<mgrwt>
<rscale>  0 0.75145391E+03</rscale>
<asrwt>0</asrwt>
<pdfrwt beam="1">  1        2 0.83549851E-01 0.75145391E+03</pdfrwt>
<pdfrwt beam="2">  1       -2 0.39991925E-01 0.75145391E+03</pdfrwt>
<totfact> 0.33301458E+02</totfact>
</mgrwt>
</event>
<event>
 4    1  0.1751735E-005  0.6913635E+03  0.7818608E-02  0.9732117E-01
          2   -1    0    0  501    0  0.00000000000E+00  0.00000000000E+00  0.29290191354E+03  0.29290191355E+03  0.25500000000E-02 0.  1.
         -2   -1    0    0    0  501 -0.00000000000E+00 -0.00000000000E+00 -0.40797228601E+03  0.40797228601E+03  0.25500000000E-02 0. -1.
   -5000001    1    1    2    0    0 -0.23403976626E+03 -0.34742605551E+02 -0.25250545109E+02  0.34513656842E+03  0.25000000000E+03 0.  0.
    5000001    1    1    2    0    0  0.23403976626E+03  0.34742605551E+02 -0.89819827354E+02  0.35573763115E+03  0.25000000000E+03 0.  0.
<mgrwt>
<rscale>  0 0.69136347E+03</rscale>
<asrwt>0</asrwt>
<pdfrwt beam="1">  1        2 0.45061833E-01 0.69136347E+03</pdfrwt>
<pdfrwt beam="2">  1       -2 0.62764967E-01 0.69136347E+03</pdfrwt>
<totfact> 0.26798351E+02</totfact>
</mgrwt>
</event>
<event>
 4    1  0.1751735E-005  0.1762478E+04  0.7818608E-02  0.8726512E-01
         -2   -1    0    0    0  501 -0.00000000000E+00  0.00000000000E+00  0.10532094563E+04  0.10532094563E+04  0.25500000000E-02 0. -1.
          2   -1    0    0  501    0  0.00000000000E+00 -0.00000000000E+00 -0.73734831320E+03  0.73734831320E+03  0.25500000000E-02 0.  1.
   -5000001    1    1    2    0    0 -0.67935742683E+03  0.49498515904E+03  0.24617872187E+03  0.91084619128E+03  0.25000000000E+03 0.  0.
    5000001    1    1    2    0    0  0.67935742683E+03 -0.49498515904E+03  0.69682421254E+02  0.87971157825E+03  0.25000000000E+03 0.  0.
<mgrwt>
<rscale>  0 0.17624780E+04</rscale>
<asrwt>0</asrwt>
<pdfrwt beam="1">  1        2 0.11343820E+00 0.17624780E+04</pdfrwt>
<pdfrwt beam="2">  1       -2 0.16203222E+00 0.17624780E+04</pdfrwt>
<totfact> 0.88284968E+00</totfact>
</mgrwt>
</event>
<event>
 4    1  0.1751735E-005  0.8703903E+03  0.7818608E-02  0.9463371E-01
          2   -1    0    0  501    0  0.00000000000E+00  0.00000000000E+00  0.68658051371E+03  0.68658051371E+03  0.25500000000E-02 0. -1.
         -2   -1    0    0    0  501 -0.00000000000E+00 -0.00000000000E+00 -0.27585231351E+03  0.27585231352E+03  0.25500000000E-02 0.  1.
   -5000001    1    1    2    0    0  0.33127143353E+03  0.36599818804E+02  0.34441836105E+03  0.54055926302E+03  0.25000000000E+03 0.  0.
    5000001    1    1    2    0    0 -0.33127143353E+03 -0.36599818804E+02  0.66309839152E+02  0.42187356421E+03  0.25000000000E+03 0.  0.
<mgrwt>
<rscale>  0 0.87039031E+03</rscale>
<asrwt>0</asrwt>
<pdfrwt beam="1">  1        2 0.10562777E+00 0.87039031E+03</pdfrwt>
<pdfrwt beam="2">  1       -2 0.42438817E-01 0.87039031E+03</pdfrwt>
<totfact> 0.22182945E+02</totfact>
</mgrwt>
</event>
<event>
 4    1  0.1751735E-005  0.7687104E+03  0.7818608E-02  0.9606446E-01
          2   -1    0    0  501    0  0.00000000000E+00  0.00000000000E+00  0.85473003311E+03  0.85473003311E+03  0.25500000000E-02 0.  1.
         -2   -1    0    0    0  501 -0.00000000000E+00 -0.00000000000E+00 -0.17283692323E+03  0.17283692324E+03  0.25500000000E-02 0. -1.
   -5000001    1    1    2    0    0 -0.19017623964E+02  0.28271725785E+03  0.24701071127E+03  0.45144768179E+03  0.25000000000E+03 0.  0.
    5000001    1    1    2    0    0  0.19017623964E+02 -0.28271725785E+03  0.43488239861E+03  0.57611927457E+03  0.25000000000E+03 0.  0.
<mgrwt>
<rscale>  0 0.76871037E+03</rscale>
<asrwt>0</asrwt>
<pdfrwt beam="1">  1        2 0.13149693E+00 0.76871037E+03</pdfrwt>
<pdfrwt beam="2">  1       -2 0.26590295E-01 0.76871037E+03</pdfrwt>
<totfact> 0.40561176E+02</totfact>
</mgrwt>
</event>
<event>
 4    1  0.1751735E-005  0.8014272E+03  0.7818608E-02  0.9557954E-01
         -2   -1    0    0    0  501 -0.00000000000E+00  0.00000000000E+00  0.13799639754E+03  0.13799639756E+03  0.25500000000E-02 0.  1.
          2   -1    0    0  501    0  0.00000000000E+00 -0.00000000000E+00 -0.11635912643E+04  0.11635912643E+04  0.25500000000E-02 0. -1.
   -5000001    1    1    2    0    0  0.11609956747E+03  0.21389606134E+03 -0.19272134450E+03  0.39858769581E+03  0.25000000000E+03 0.  0.
    5000001    1    1    2    0    0 -0.11609956747E+03 -0.21389606134E+03 -0.83287352226E+03  0.90299996606E+03  0.25000000000E+03 0.  0.
<mgrwt>
<rscale>  0 0.80142723E+03</rscale>
<asrwt>0</asrwt>
<pdfrwt beam="1">  1        2 0.17901403E+00 0.80142723E+03</pdfrwt>
<pdfrwt beam="2">  1       -2 0.21230216E-01 0.80142723E+03</pdfrwt>
<totfact> 0.38478974E+02</totfact>
</mgrwt>
</event>
<event>
 4    1  0.1751735E-005  0.7560203E+03  0.7818608E-02  0.9625952E-01
          2   -1    0    0  501    0  0.00000000000E+00  0.00000000000E+00  0.22803052907E+04  0.22803052907E+04  0.25500000000E-02 0.  1.
         -2   -1    0    0    0  501 -0.00000000000E+00 -0.00000000000E+00 -0.62663403710E+02  0.62663403762E+02  0.25500000000E-02 0. -1.
   -5000001    1    1    2    0    0 -0.40833487370E+02 -0.27317217156E+03  0.13072900076E+04  0.13593371815E+04  0.25000000000E+03 0.  0.
    5000001    1    1    2    0    0  0.40833487370E+02  0.27317217156E+03  0.91035187938E+03  0.98363151297E+03  0.25000000000E+03 0.  0.
<mgrwt>
<rscale>  0 0.75602035E+03</rscale>
<asrwt>0</asrwt>
<pdfrwt beam="1">  1        2 0.35081622E+00 0.75602035E+03</pdfrwt>
<pdfrwt beam="2">  1       -2 0.96405230E-02 0.75602035E+03</pdfrwt>
<totfact> 0.34928644E+02</totfact>
</mgrwt>
</event>
<event>
 4    1  0.1751735E-005  0.6392146E+03  0.7818608E-02  0.9827230E-01
          2   -1    0    0  501    0  0.00000000000E+00  0.00000000000E+00  0.46152550644E+03  0.46152550645E+03  0.25500000000E-02 0.  1.
         -2   -1    0    0    0  501 -0.00000000000E+00 -0.00000000000E+00 -0.22132868525E+03  0.22132868527E+03  0.25500000000E-02 0. -1.
   -5000001    1    1    2    0    0 -0.90611129869E+02 -0.67889612792E+02  0.29507793071E+03  0.40297687473E+03  0.25000000000E+03 0.  0.
    5000001    1    1    2    0    0  0.90611129869E+02  0.67889612792E+02 -0.54881109515E+02  0.27987731699E+03  0.25000000000E+03 0.  0.
<mgrwt>
<rscale>  0 0.63921462E+03</rscale>
<asrwt>0</asrwt>
<pdfrwt beam="1">  1        2 0.71003924E-01 0.63921462E+03</pdfrwt>
<pdfrwt beam="2">  1       -2 0.34050567E-01 0.63921462E+03</pdfrwt>
<totfact> 0.54924066E+02</totfact>
</mgrwt>
</event>
<event>
 4    1  0.1751735E-005  0.7316195E+03  0.7818608E-02  0.9664636E-01
         -2   -1    0    0    0  501 -0.00000000000E+00  0.00000000000E+00  0.45044904150E+02  0.45044904223E+02  0.25500000000E-02 0. -1.
          2   -1    0    0  501    0  0.00000000000E+00 -0.00000000000E+00 -0.29707413757E+04  0.29707413757E+04  0.25500000000E-02 0.  1.
   -5000001    1    1    2    0    0  0.24894873737E+03  0.52488252495E+02 -0.17973782424E+04  0.18324298177E+04  0.25000000000E+03 0.  0.
    5000001    1    1    2    0    0 -0.24894873737E+03 -0.52488252495E+02 -0.11283182291E+04  0.11833564622E+04  0.25000000000E+03 0.  0.
<mgrwt>
<rscale>  0 0.73161947E+03</rscale>
<asrwt>0</asrwt>
<pdfrwt beam="1">  1        2 0.45703698E+00 0.73161947E+03</pdfrwt>
<pdfrwt beam="2">  1       -2 0.69299876E-02 0.73161947E+03</pdfrwt>
<totfact> 0.23727080E+02</totfact>
</mgrwt>
</event>
<event>
 4    1  0.1751735E-005  0.9531666E+03  0.7818608E-02  0.9361457E-01
         -2   -1    0    0    0  501 -0.00000000000E+00  0.00000000000E+00  0.18916396917E+03  0.18916396919E+03  0.25500000000E-02 0. -1.
          2   -1    0    0  501    0  0.00000000000E+00 -0.00000000000E+00 -0.12007131117E+04  0.12007131117E+04  0.25500000000E-02 0.  1.
   -5000001    1    1    2    0    0  0.64095854306E+01 -0.40507050236E+03 -0.53865499506E+03  0.71886883252E+03  0.25000000000E+03 0.  0.
    5000001    1    1    2    0    0 -0.64095854306E+01  0.40507050236E+03 -0.47289414744E+03  0.67100824835E+03  0.25000000000E+03 0.  0.
<mgrwt>
<rscale>  0 0.95316663E+03</rscale>
<asrwt>0</asrwt>
<pdfrwt beam="1">  1        2 0.18472509E+00 0.95316663E+03</pdfrwt>
<pdfrwt beam="2">  1       -2 0.29102150E-01 0.95316663E+03</pdfrwt>
<totfact> 0.20513913E+02</totfact>
</mgrwt>
</event>
<event>
 4    1  0.1751735E-005  0.6397800E+03  0.7818608E-02  0.9826148E-01
          2   -1    0    0  501    0  0.00000000000E+00  0.00000000000E+00  0.46160759099E+03  0.46160759100E+03  0.25500000000E-02 0.  1.
         -2   -1    0    0    0  501 -0.00000000000E+00 -0.00000000000E+00 -0.22168095567E+03  0.22168095568E+03  0.25500000000E-02 0. -1.
   -5000001    1    1    2    0    0  0.13942206258E+03  0.95682713776E+02  0.23317148905E+03  0.38139564307E+03  0.25000000000E+03 0.  0.
    5000001    1    1    2    0    0 -0.13942206258E+03 -0.95682713776E+02  0.67551462734E+01  0.30189290361E+03  0.25000000000E+03 0.  0.
<mgrwt>
<rscale>  0 0.63978000E+03</rscale>
<asrwt>0</asrwt>
<pdfrwt beam="1">  1        2 0.71016551E-01 0.63978000E+03</pdfrwt>
<pdfrwt beam="2">  1       -2 0.34104763E-01 0.63978000E+03</pdfrwt>
<totfact> 0.54747431E+02</totfact>
</mgrwt>
</event>
<event>
 4    1  0.1751735E-005  0.7160708E+03  0.7818608E-02  0.9690137E-01
         -2   -1    0    0    0  501 -0.00000000000E+00  0.00000000000E+00  0.33547750070E+02  0.33547750167E+02  0.25500000000E-02 0. -1.
          2   -1    0    0  501    0  0.00000000000E+00 -0.00000000000E+00 -0.38211009010E+04  0.38211009010E+04  0.25500000000E-02 0.  1.
   -5000001    1    1    2    0    0  0.15235862764E+03  0.16402314530E+03 -0.12220240018E+04  0.12672645362E+04  0.25000000000E+03 0.  0.
    5000001    1    1    2    0    0 -0.15235862764E+03 -0.16402314530E+03 -0.25655291491E+04  0.25873841150E+04  0.25000000000E+03 0.  0.
<mgrwt>
<rscale>  0 0.71607077E+03</rscale>
<asrwt>0</asrwt>
<pdfrwt beam="1">  1        2 0.58786133E+00 0.71607077E+03</pdfrwt>
<pdfrwt beam="2">  1       -2 0.51611953E-02 0.71607077E+03</pdfrwt>
<totfact> 0.10207192E+02</totfact>
</mgrwt>
</event>
<event>
 4    1  0.1751735E-005  0.7712234E+03  0.7818608E-02  0.9602630E-01
          2   -1    0    0  501    0  0.00000000000E+00  0.00000000000E+00  0.19657952855E+04  0.19657952855E+04  0.25500000000E-02 0.  1.
         -2   -1    0    0    0  501 -0.00000000000E+00 -0.00000000000E+00 -0.75641848267E+02  0.75641848310E+02  0.25500000000E-02 0. -1.
   -5000001    1    1    2    0    0  0.28737251750E+03 -0.52979538200E+02  0.86990003609E+03  0.95111296284E+03  0.25000000000E+03 0.  0.
    5000001    1    1    2    0    0 -0.28737251750E+03  0.52979538200E+02  0.10202534012E+04  0.10903241710E+04  0.25000000000E+03 0.  0.
<mgrwt>
<rscale>  0 0.77122341E+03</rscale>
<asrwt>0</asrwt>
<pdfrwt beam="1">  1        2 0.30243000E+00 0.77122341E+03</pdfrwt>
<pdfrwt beam="2">  1       -2 0.11637209E-01 0.77122341E+03</pdfrwt>
<totfact> 0.38163504E+02</totfact>
</mgrwt>
</event>
<event>
 4    1  0.1751735E-005  0.1142225E+04  0.7818608E-02  0.9164986E-01
         -2   -1    0    0    0  501 -0.00000000000E+00  0.00000000000E+00  0.39353070120E+03  0.39353070121E+03  0.25500000000E-02 0. -1.
          2   -1    0    0  501    0  0.00000000000E+00 -0.00000000000E+00 -0.82882904197E+03  0.82882904197E+03  0.25500000000E-02 0.  1.
   -5000001    1    1    2    0    0  0.47182000986E+03  0.17345576282E+03 -0.32972806953E+03  0.65109263795E+03  0.25000000000E+03 0.  0.
    5000001    1    1    2    0    0 -0.47182000986E+03 -0.17345576282E+03 -0.10557027124E+03  0.57126710524E+03  0.25000000000E+03 0.  0.
<mgrwt>
<rscale>  0 0.11422253E+04</rscale>
<asrwt>0</asrwt>
<pdfrwt beam="1">  1        2 0.12751216E+00 0.11422253E+04</pdfrwt>
<pdfrwt beam="2">  1       -2 0.60543185E-01 0.11422253E+04</pdfrwt>
<totfact> 0.82681630E+01</totfact>
</mgrwt>
</event>
<event>
 4    1  0.1751735E-005  0.9752024E+03  0.7818608E-02  0.9336168E-01
         -2   -1    0    0    0  501 -0.00000000000E+00  0.00000000000E+00  0.13726281361E+03  0.13726281363E+03  0.25500000000E-02 0. -1.
          2   -1    0    0  501    0  0.00000000000E+00 -0.00000000000E+00 -0.17321147043E+04  0.17321147043E+04  0.25500000000E-02 0.  1.
   -5000001    1    1    2    0    0 -0.21676875857E+03  0.30619438629E+03 -0.11535346052E+04  0.12385014260E+04  0.25000000000E+03 0.  0.
    5000001    1    1    2    0    0  0.21676875857E+03 -0.30619438629E+03 -0.44131728556E+03  0.63087609197E+03  0.25000000000E+03 0.  0.
<mgrwt>
<rscale>  0 0.97520242E+03</rscale>
<asrwt>0</asrwt>
<pdfrwt beam="1">  1        2 0.26647917E+00 0.97520242E+03</pdfrwt>
<pdfrwt beam="2">  1       -2 0.21117357E-01 0.97520242E+03</pdfrwt>
<totfact> 0.18287157E+02</totfact>
</mgrwt>
</event>
<event>
 4    1  0.1751735E-005  0.5880385E+03  0.7818608E-02  0.9930538E-01
          2   -1    0    0  501    0  0.00000000000E+00  0.00000000000E+00  0.23757319659E+03  0.23757319661E+03  0.25500000000E-02 0.  1.
         -2   -1    0    0    0  501 -0.00000000000E+00 -0.00000000000E+00 -0.36387654543E+03  0.36387654543E+03  0.25500000000E-02 0. -1.
   -5000001    1    1    2    0    0  0.12126009043E+03 -0.24615702932E+02 -0.15820873925E+03  0.32068668126E+03  0.25000000000E+03 0.  0.
    5000001    1    1    2    0    0 -0.12126009043E+03  0.24615702932E+02  0.31905390416E+02  0.28076306078E+03  0.25000000000E+03 0.  0.
<mgrwt>
<rscale>  0 0.58803848E+03</rscale>
<asrwt>0</asrwt>
<pdfrwt beam="1">  1        2 0.36549722E-01 0.58803848E+03</pdfrwt>
<pdfrwt beam="2">  1       -2 0.55981007E-01 0.58803848E+03</pdfrwt>
<totfact> 0.43088040E+02</totfact>
</mgrwt>
</event>
<event>
 4    1  0.1751735E-005  0.5403133E+03  0.7818608E-02  0.1003761E+00
          2   -1    0    0  501    0  0.00000000000E+00  0.00000000000E+00  0.73668215536E+03  0.73668215536E+03  0.25500000000E-02 0.  1.
         -2   -1    0    0    0  501 -0.00000000000E+00 -0.00000000000E+00 -0.99072066540E+02  0.99072066573E+02  0.25500000000E-02 0. -1.
   -5000001    1    1    2    0    0 -0.64549774752E+02 -0.79360310916E+02  0.32570367613E+03  0.42314018601E+03  0.25000000000E+03 0.  0.
    5000001    1    1    2    0    0  0.64549774752E+02  0.79360310916E+02  0.31190641269E+03  0.41261403593E+03  0.25000000000E+03 0.  0.
<mgrwt>
<rscale>  0 0.54031333E+03</rscale>
<asrwt>0</asrwt>
<pdfrwt beam="1">  1        2 0.11333571E+00 0.54031333E+03</pdfrwt>
<pdfrwt beam="2">  1       -2 0.15241857E-01 0.54031333E+03</pdfrwt>
<totfact> 0.13129416E+03</totfact>
</mgrwt>
</event>
<event>
 4    1  0.1751735E-005  0.5480865E+03  0.7818608E-02  0.1001938E+00
         -2   -1    0    0    0  501 -0.00000000000E+00  0.00000000000E+00  0.30368101488E+03  0.30368101489E+03  0.25500000000E-02 0. -1.
          2   -1    0    0  501    0  0.00000000000E+00 -0.00000000000E+00 -0.24729796841E+03  0.24729796842E+03  0.25500000000E-02 0.  1.
   -5000001    1    1    2    0    0  0.42896352291E+02 -0.88934377685E+02  0.81861265699E+02  0.28098164957E+03  0.25000000000E+03 0.  0.
    5000001    1    1    2    0    0 -0.42896352291E+02  0.88934377685E+02 -0.25478219227E+02  0.26999733374E+03  0.25000000000E+03 0.  0.
<mgrwt>
<rscale>  0 0.54808648E+03</rscale>
<asrwt>0</asrwt>
<pdfrwt beam="1">  1        2 0.38045841E-01 0.54808648E+03</pdfrwt>
<pdfrwt beam="2">  1       -2 0.46720156E-01 0.54808648E+03</pdfrwt>
<totfact> 0.59579204E+02</totfact>
</mgrwt>
</event>
<event>
 4    1  0.1751735E-005  0.6195787E+03  0.7818608E-02  0.9865599E-01
         -2   -1    0    0    0  501 -0.00000000000E+00  0.00000000000E+00  0.66112880950E+03  0.66112880951E+03  0.25500000000E-02 0. -1.
          2   -1    0    0  501    0  0.00000000000E+00 -0.00000000000E+00 -0.14515998696E+03  0.14515998698E+03  0.25500000000E-02 0.  1.
   -5000001    1    1    2    0    0 -0.14915818346E+03  0.10570415141E+03  0.24897609269E+03  0.39737970009E+03  0.25000000000E+03 0.  0.
    5000001    1    1    2    0    0  0.14915818346E+03 -0.10570415141E+03  0.26699272985E+03  0.40890909639E+03  0.25000000000E+03 0.  0.
<mgrwt>
<rscale>  0 0.61957873E+03</rscale>
<asrwt>0</asrwt>
<pdfrwt beam="1">  1        2 0.22332305E-01 0.61957873E+03</pdfrwt>
<pdfrwt beam="2">  1       -2 0.10171213E+00 0.61957873E+03</pdfrwt>
<totfact> 0.20048553E+02</totfact>
</mgrwt>
</event>
<event>
 4    1  0.1751735E-005  0.5692601E+03  0.7818608E-02  0.9971317E-01
          2   -1    0    0  501    0  0.00000000000E+00  0.00000000000E+00  0.77897221099E+02  0.77897221141E+02  0.25500000000E-02 0. -1.
         -2   -1    0    0    0  501 -0.00000000000E+00 -0.00000000000E+00 -0.10400149482E+04  0.10400149482E+04  0.25500000000E-02 0.  1.
   -5000001    1    1    2    0    0  0.10382672608E+03 -0.37955893466E+02 -0.63685178026E+03  0.69303739360E+03  0.25000000000E+03 0.  0.
    5000001    1    1    2    0    0 -0.10382672608E+03  0.37955893466E+02 -0.32526594685E+03  0.42487477576E+03  0.25000000000E+03 0.  0.
<mgrwt>
<rscale>  0 0.56926013E+03</rscale>
<asrwt>0</asrwt>
<pdfrwt beam="1">  1        2 0.11984189E-01 0.56926013E+03</pdfrwt>
<pdfrwt beam="2">  1       -2 0.16000229E+00 0.56926013E+03</pdfrwt>
<totfact> 0.13573505E+02</totfact>
</mgrwt>
</event>
<event>
 4    1  0.1751735E-005  0.8971525E+03  0.7818608E-02  0.9429148E-01
          2   -1    0    0  501    0  0.00000000000E+00  0.00000000000E+00  0.22289103553E+03  0.22289103555E+03  0.25500000000E-02 0.  1.
         -2   -1    0    0    0  501 -0.00000000000E+00 -0.00000000000E+00 -0.90277582415E+03  0.90277582416E+03  0.25500000000E-02 0. -1.
   -5000001    1    1    2    0    0  0.56291982833E+02 -0.36272702761E+03 -0.41910812525E+03  0.61064826582E+03  0.25000000000E+03 0.  0.
    5000001    1    1    2    0    0 -0.56291982833E+02  0.36272702761E+03 -0.26077666337E+03  0.51501859389E+03  0.25000000000E+03 0.  0.
<mgrwt>
<rscale>  0 0.89715247E+03</rscale>
<asrwt>0</asrwt>
<pdfrwt beam="1">  1        2 0.34290929E-01 0.89715247E+03</pdfrwt>
<pdfrwt beam="2">  1       -2 0.13888859E+00 0.89715247E+03</pdfrwt>
<totfact> 0.56290170E+01</totfact>
</mgrwt>
</event>
<event>
 4    1  0.1751735E-005  0.1231481E+04  0.7818608E-02  0.9085739E-01
          2   -1    0    0  501    0  0.00000000000E+00  0.00000000000E+00  0.21030820151E+04  0.21030820151E+04  0.25500000000E-02 0.  1.
         -2   -1    0    0    0  501 -0.00000000000E+00 -0.00000000000E+00 -0.18027667234E+03  0.18027667235E+03  0.25500000000E-02 0. -1.
   -5000001    1    1    2    0    0  0.32204922434E+03 -0.33864733257E+03  0.38025294624E+03  0.65229596188E+03  0.25000000000E+03 0.  0.
    5000001    1    1    2    0    0 -0.32204922434E+03  0.33864733257E+03  0.15425523965E+04  0.16310627256E+04  0.25000000000E+03 0.  0.
<mgrwt>
<rscale>  0 0.12314814E+04</rscale>
<asrwt>0</asrwt>
<pdfrwt beam="1">  1        2 0.32355107E+00 0.12314814E+04</pdfrwt>
<pdfrwt beam="2">  1       -2 0.27734873E-01 0.12314814E+04</pdfrwt>
<totfact> 0.68500803E+01</totfact>
</mgrwt>
</event>
<event>
 4    1  0.1751735E-005  0.6967058E+03  0.7818608E-02  0.9722882E-01
          2   -1    0    0  501    0  0.00000000000E+00  0.00000000000E+00  0.29373490255E+03  0.29373490256E+03  0.25500000000E-02 0.  1.
         -2   -1    0    0    0  501 -0.00000000000E+00 -0.00000000000E+00 -0.41312678604E+03  0.41312678605E+03  0.25500000000E-02 0. -1.
   -5000001    1    1    2    0    0  0.19903885405E+03 -0.12420126201E+03 -0.12229901780E+03  0.36400476461E+03  0.25000000000E+03 0.  0.
    5000001    1    1    2    0    0 -0.19903885405E+03  0.12420126201E+03  0.29071343062E+01  0.34285692400E+03  0.25000000000E+03 0.  0.
<mgrwt>
<rscale>  0 0.69670584E+03</rscale>
<asrwt>0</asrwt>
<pdfrwt beam="1">  1        2 0.45189985E-01 0.69670584E+03</pdfrwt>
<pdfrwt beam="2">  1       -2 0.63557968E-01 0.69670584E+03</pdfrwt>
<totfact> 0.26004629E+02</totfact>
</mgrwt>
</event>
<event>
 4    1  0.1751735E-005  0.6771153E+03  0.7818608E-02  0.9757189E-01
          2   -1    0    0  501    0  0.00000000000E+00  0.00000000000E+00  0.92000220570E+03  0.92000220570E+03  0.25500000000E-02 0.  1.
         -2   -1    0    0    0  501 -0.00000000000E+00 -0.00000000000E+00 -0.12458804457E+03  0.12458804460E+03  0.25500000000E-02 0. -1.
   -5000001    1    1    2    0    0  0.15345047749E+03  0.11847623156E+03  0.58371432128E+03  0.66393228220E+03  0.25000000000E+03 0.  0.
    5000001    1    1    2    0    0 -0.15345047749E+03 -0.11847623156E+03  0.21169983985E+03  0.38065796810E+03  0.25000000000E+03 0.  0.
<mgrwt>
<rscale>  0 0.67711528E+03</rscale>
<asrwt>0</asrwt>
<pdfrwt beam="1">  1        2 0.14153880E+00 0.67711528E+03</pdfrwt>
<pdfrwt beam="2">  1       -2 0.19167392E-01 0.67711528E+03</pdfrwt>
<totfact> 0.65780614E+02</totfact>
</mgrwt>
</event>
<event>
 4    1  0.1751735E-005  0.7625283E+03  0.7818608E-02  0.9615898E-01
         -2   -1    0    0    0  501 -0.00000000000E+00  0.00000000000E+00  0.14099473001E+03  0.14099473003E+03  0.25500000000E-02 0. -1.
          2   -1    0    0  501    0  0.00000000000E+00 -0.00000000000E+00 -0.10309773127E+04  0.10309773128E+04  0.25500000000E-02 0.  1.
   -5000001    1    1    2    0    0  0.13510848020E+03 -0.13124826823E+03 -0.77954647703E+03  0.84004352220E+03  0.25000000000E+03 0.  0.
    5000001    1    1    2    0    0 -0.13510848020E+03  0.13124826823E+03 -0.11043610571E+03  0.33192852059E+03  0.25000000000E+03 0.  0.
<mgrwt>
<rscale>  0 0.76252834E+03</rscale>
<asrwt>0</asrwt>
<pdfrwt beam="1">  1        2 0.15861189E+00 0.76252834E+03</pdfrwt>
<pdfrwt beam="2">  1       -2 0.21691498E-01 0.76252834E+03</pdfrwt>
<totfact> 0.44758856E+02</totfact>
</mgrwt>
</event>
<event>
 4    1  0.1751735E-005  0.7274717E+03  0.7818608E-02  0.9671372E-01
         -2   -1    0    0    0  501 -0.00000000000E+00  0.00000000000E+00  0.99644737141E+02  0.99644737174E+02  0.25500000000E-02 0. -1.
          2   -1    0    0  501    0  0.00000000000E+00 -0.00000000000E+00 -0.13277545555E+04  0.13277545555E+04  0.25500000000E-02 0.  1.
   -5000001    1    1    2    0    0  0.22146396035E+03 -0.83323261167E+02 -0.84467660467E+03  0.91212258939E+03  0.25000000000E+03 0.  0.
    5000001    1    1    2    0    0 -0.22146396035E+03  0.83323261167E+02 -0.38343321365E+03  0.51527670325E+03  0.25000000000E+03 0.  0.
<mgrwt>
<rscale>  0 0.72747166E+03</rscale>
<asrwt>0</asrwt>
<pdfrwt beam="1">  1        2 0.20426992E+00 0.72747166E+03</pdfrwt>
<pdfrwt beam="2">  1       -2 0.15329961E-01 0.72747166E+03</pdfrwt>
<totfact> 0.54344989E+02</totfact>
</mgrwt>
</event>
<event>
 4    1  0.1751735E-005  0.8953435E+03  0.7818608E-02  0.9431421E-01
         -2   -1    0    0    0  501 -0.00000000000E+00  0.00000000000E+00  0.14926854542E+03  0.14926854544E+03  0.25500000000E-02 0. -1.
          2   -1    0    0  501    0  0.00000000000E+00 -0.00000000000E+00 -0.13426137901E+04  0.13426137901E+04  0.25500000000E-02 0.  1.
   -5000001    1    1    2    0    0 -0.24407457020E+03 -0.23710990173E+03 -0.84447366805E+03  0.94415532480E+03  0.25000000000E+03 0.  0.
    5000001    1    1    2    0    0  0.24407457020E+03  0.23710990173E+03 -0.34887157663E+03  0.54772701074E+03  0.25000000000E+03 0.  0.
<mgrwt>
<rscale>  0 0.89534353E+03</rscale>
<asrwt>0</asrwt>
<pdfrwt beam="1">  1        2 0.20655596E+00 0.89534353E+03</pdfrwt>
<pdfrwt beam="2">  1       -2 0.22964393E-01 0.89534353E+03</pdfrwt>
<totfact> 0.26157099E+02</totfact>
</mgrwt>
</event>
<event>
 4    1  0.1751735E-005  0.1439002E+04  0.7818608E-02  0.8926061E-01
         -2   -1    0    0    0  501 -0.00000000000E+00  0.00000000000E+00  0.43082236897E+03  0.43082236898E+03  0.25500000000E-02 0. -1.
          2   -1    0    0  501    0  0.00000000000E+00 -0.00000000000E+00 -0.12016131100E+04  0.12016131100E+04  0.25500000000E-02 0.  1.
   -5000001    1    1    2    0    0  0.37083363264E+03 -0.45479877409E+03 -0.76304421052E+03  0.99453304381E+03  0.25000000000E+03 0.  0.
    5000001    1    1    2    0    0 -0.37083363264E+03  0.45479877409E+03 -0.77465304535E+01  0.63790243513E+03  0.25000000000E+03 0.  0.
<mgrwt>
<rscale>  0 0.14390022E+04</rscale>
<asrwt>0</asrwt>
<pdfrwt beam="1">  1        2 0.18486355E+00 0.14390022E+04</pdfrwt>
<pdfrwt beam="2">  1       -2 0.66280365E-01 0.14390022E+04</pdfrwt>
<totfact> 0.38396549E+01</totfact>
</mgrwt>
</event>
<event>
 4    1  0.1751735E-005  0.8733211E+03  0.7818608E-02  0.9459560E-01
         -2   -1    0    0    0  501 -0.00000000000E+00  0.00000000000E+00  0.85450226011E+02  0.85450226049E+02  0.25500000000E-02 0. -1.
          2   -1    0    0  501    0  0.00000000000E+00 -0.00000000000E+00 -0.22313859960E+04  0.22313859960E+04  0.25500000000E-02 0.  1.
   -5000001    1    1    2    0    0  0.84595993514E+02  0.34689625415E+03 -0.11420934198E+04  0.12224446298E+04  0.25000000000E+03 0.  0.
    5000001    1    1    2    0    0 -0.84595993514E+02 -0.34689625415E+03 -0.10038423502E+04  0.10943915923E+04  0.25000000000E+03 0.  0.
<mgrwt>
<rscale>  0 0.87332110E+03</rscale>
<asrwt>0</asrwt>
<pdfrwt beam="1">  1        2 0.34329011E+00 0.87332110E+03</pdfrwt>
<pdfrwt beam="2">  1       -2 0.13146190E-01 0.87332110E+03</pdfrwt>
<totfact> 0.22093468E+02</totfact>
</mgrwt>
</event>
<event>
 4    1  0.1751735E-005  0.5893107E+03  0.7818608E-02  0.9927835E-01
          2   -1    0    0  501    0  0.00000000000E+00  0.00000000000E+00  0.84340269528E+03  0.84340269528E+03  0.25500000000E-02 0. -1.
         -2   -1    0    0    0  501 -0.00000000000E+00 -0.00000000000E+00 -0.10294223902E+03  0.10294223906E+03  0.25500000000E-02 0.  1.
   -5000001    1    1    2    0    0  0.11097426234E+03 -0.10811726473E+03  0.39882754083E+03  0.49554821880E+03  0.25000000000E+03 0.  0.
    5000001    1    1    2    0    0 -0.11097426234E+03  0.10811726473E+03  0.34163291543E+03  0.45079671553E+03  0.25000000000E+03 0.  0.
<mgrwt>
<rscale>  0 0.58931065E+03</rscale>
<asrwt>0</asrwt>
<pdfrwt beam="1">  1        2 0.12975426E+00 0.58931065E+03</pdfrwt>
<pdfrwt beam="2">  1       -2 0.15837268E-01 0.58931065E+03</pdfrwt>
<totfact> 0.10306808E+03</totfact>
</mgrwt>
</event>
<event>
 4    1  0.1751735E-005  0.5247773E+03  0.7818608E-02  0.1007507E+00
          2   -1    0    0  501    0  0.00000000000E+00  0.00000000000E+00  0.53197977892E+03  0.53197977893E+03  0.25500000000E-02 0.  1.
         -2   -1    0    0    0  501 -0.00000000000E+00 -0.00000000000E+00 -0.12941810770E+03  0.12941810773E+03  0.25500000000E-02 0. -1.
   -5000001    1    1    2    0    0 -0.51900639010E+02  0.55801620147E+02  0.17198452576E+03  0.31286766251E+03  0.25000000000E+03 0.  0.
    5000001    1    1    2    0    0  0.51900639010E+02 -0.55801620147E+02  0.23057714546E+03  0.34853022415E+03  0.25000000000E+03 0.  0.
<mgrwt>
<rscale>  0 0.52477735E+03</rscale>
<asrwt>0</asrwt>
<pdfrwt beam="1">  1        2 0.81843044E-01 0.52477735E+03</pdfrwt>
<pdfrwt beam="2">  1       -2 0.19910478E-01 0.52477735E+03</pdfrwt>
<totfact> 0.12331096E+03</totfact>
</mgrwt>
</event>
<event>
 4    1  0.1751735E-005  0.8223817E+03  0.7818608E-02  0.9528174E-01
          2   -1    0    0  501    0  0.00000000000E+00  0.00000000000E+00  0.43004824559E+03  0.43004824560E+03  0.25500000000E-02 0.  1.
         -2   -1    0    0    0  501 -0.00000000000E+00 -0.00000000000E+00 -0.39316038666E+03  0.39316038667E+03  0.25500000000E-02 0. -1.
   -5000001    1    1    2    0    0 -0.38921985208E+02 -0.25968516530E+03  0.21261481270E+03  0.42030508514E+03  0.25000000000E+03 0.  0.
    5000001    1    1    2    0    0  0.38921985208E+02  0.25968516530E+03 -0.17572695377E+03  0.40290354713E+03  0.25000000000E+03 0.  0.
<mgrwt>
<rscale>  0 0.82238175E+03</rscale>
<asrwt>0</asrwt>
<pdfrwt beam="1">  1        2 0.66161268E-01 0.82238175E+03</pdfrwt>
<pdfrwt beam="2">  1       -2 0.60486214E-01 0.82238175E+03</pdfrwt>
<totfact> 0.18777919E+02</totfact>
</mgrwt>
</event>
<event>
 4    1  0.1751735E-005  0.5696078E+03  0.7818608E-02  0.9970547E-01
          2   -1    0    0  501    0  0.00000000000E+00  0.00000000000E+00  0.16124788283E+03  0.16124788285E+03  0.25500000000E-02 0.  1.
         -2   -1    0    0    0  501 -0.00000000000E+00 -0.00000000000E+00 -0.50303451860E+03  0.50303451861E+03  0.25500000000E-02 0. -1.
   -5000001    1    1    2    0    0 -0.11713132805E+03  0.13955367526E+01 -0.89328974619E+02  0.29017470813E+03  0.25000000000E+03 0.  0.
    5000001    1    1    2    0    0  0.11713132805E+03 -0.13955367526E+01 -0.25245766115E+03  0.37410769333E+03  0.25000000000E+03 0.  0.
<mgrwt>
<rscale>  0 0.56960776E+03</rscale>
<asrwt>0</asrwt>
<pdfrwt beam="1">  1        2 0.24807367E-01 0.56960776E+03</pdfrwt>
<pdfrwt beam="2">  1       -2 0.77389925E-01 0.56960776E+03</pdfrwt>
<totfact> 0.33277019E+02</totfact>
</mgrwt>
</event>
<event>
 4    1  0.1751735E-005  0.9294476E+03  0.7818608E-02  0.9389501E-01
          2   -1    0    0  501    0  0.00000000000E+00  0.00000000000E+00  0.14191911054E+04  0.14191911054E+04  0.25500000000E-02 0.  1.
         -2   -1    0    0    0  501 -0.00000000000E+00 -0.00000000000E+00 -0.15217697981E+03  0.15217697984E+03  0.25500000000E-02 0. -1.
   -5000001    1    1    2    0    0  0.71859788958E+01  0.39160152817E+03  0.64711872240E+03  0.79665929734E+03  0.25000000000E+03 0.  0.
    5000001    1    1    2    0    0 -0.71859788958E+01 -0.39160152817E+03  0.61989540319E+03  0.77470878790E+03  0.25000000000E+03 0.  0.
<mgrwt>
<rscale>  0 0.92944761E+03</rscale>
<asrwt>0</asrwt>
<pdfrwt beam="1">  1        2 0.21833709E+00 0.92944761E+03</pdfrwt>
<pdfrwt beam="2">  1       -2 0.23411844E-01 0.92944761E+03</pdfrwt>
<totfact> 0.22804933E+02</totfact>
</mgrwt>
</event>
<event>
 4    1  0.1751735E-005  0.6275472E+03  0.7818608E-02  0.9849847E-01
          2   -1    0    0  501    0  0.00000000000E+00  0.00000000000E+00  0.31661948764E+03  0.31661948765E+03  0.25500000000E-02 0.  1.
         -2   -1    0    0    0  501 -0.00000000000E+00 -0.00000000000E+00 -0.31095324535E+03  0.31095324536E+03  0.25500000000E-02 0. -1.
   -5000001    1    1    2    0    0 -0.27174262005E+02  0.90314557216E+02  0.16733510734E+03  0.31527162560E+03  0.25000000000E+03 0.  0.
    5000001    1    1    2    0    0  0.27174262005E+02 -0.90314557216E+02 -0.16166886506E+03  0.31230110741E+03  0.25000000000E+03 0.  0.
<mgrwt>
<rscale>  0 0.62754715E+03</rscale>
<asrwt>0</asrwt>
<pdfrwt beam="1">  1        2 0.48710690E-01 0.62754715E+03</pdfrwt>
<pdfrwt beam="2">  1       -2 0.47838961E-01 0.62754715E+03</pdfrwt>
<totfact> 0.43185717E+02</totfact>
</mgrwt>
</event>
<event>
 4    1  0.1751735E-005  0.7740927E+03  0.7818608E-02  0.9598293E-01
          2   -1    0    0  501    0  0.00000000000E+00  0.00000000000E+00  0.28215000492E+03  0.28215000493E+03  0.25500000000E-02 0.  1.
         -2   -1    0    0    0  501 -0.00000000000E+00 -0.00000000000E+00 -0.53094060819E+03  0.53094060820E+03  0.25500000000E-02 0. -1.
   -5000001    1    1    2    0    0 -0.11321620958E+03  0.26731415162E+03 -0.18221509569E+03  0.42423708804E+03  0.25000000000E+03 0.  0.
    5000001    1    1    2    0    0  0.11321620958E+03 -0.26731415162E+03 -0.66575507578E+02  0.38885352509E+03  0.25000000000E+03 0.  0.
<mgrwt>
<rscale>  0 0.77409275E+03</rscale>
<asrwt>0</asrwt>
<pdfrwt beam="1">  1        2 0.43407693E-01 0.77409275E+03</pdfrwt>
<pdfrwt beam="2">  1       -2 0.81683171E-01 0.77409275E+03</pdfrwt>
<totfact> 0.15634253E+02</totfact>
</mgrwt>
</event>
<event>
 4    1  0.1751735E-005  0.9714774E+03  0.7818608E-02  0.9340393E-01
          2   -1    0    0  501    0  0.00000000000E+00  0.00000000000E+00  0.14199404731E+04  0.14199404731E+04  0.25500000000E-02 0.  1.
         -2   -1    0    0    0  501 -0.00000000000E+00 -0.00000000000E+00 -0.16616337252E+03  0.16616337254E+03  0.25500000000E-02 0. -1.
   -5000001    1    1    2    0    0 -0.33030357455E+03 -0.97799680787E+02  0.10090065592E+04  0.10951070566E+04  0.25000000000E+03 0.  0.
    5000001    1    1    2    0    0  0.33030357455E+03  0.97799680787E+02  0.24477054141E+03  0.49099678906E+03  0.25000000000E+03 0.  0.
<mgrwt>
<rscale>  0 0.97147743E+03</rscale>
<asrwt>0</asrwt>
<pdfrwt beam="1">  1        2 0.21845237E+00 0.97147743E+03</pdfrwt>
<pdfrwt beam="2">  1       -2 0.25563597E-01 0.97147743E+03</pdfrwt>
<totfact> 0.19391645E+02</totfact>
</mgrwt>
</event>
<event>
 4    1  0.1751735E-005  0.8680712E+03  0.7818608E-02  0.9466398E-01
         -2   -1    0    0    0  501 -0.00000000000E+00  0.00000000000E+00  0.15370587524E+04  0.15370587524E+04  0.25500000000E-02 0. -1.
          2   -1    0    0  501    0  0.00000000000E+00 -0.00000000000E+00 -0.12256322881E+03  0.12256322884E+03  0.25500000000E-02 0.  1.
   -5000001    1    1    2    0    0 -0.31603374328E+03  0.14938762921E+03  0.82342932360E+03  0.92883251537E+03  0.25000000000E+03 0.  0.
    5000001    1    1    2    0    0  0.31603374328E+03 -0.14938762921E+03  0.59106619997E+03  0.73078946585E+03  0.25000000000E+03 0.  0.
<mgrwt>
<rscale>  0 0.86807116E+03</rscale>
<asrwt>0</asrwt>
<pdfrwt beam="1">  1        2 0.18855882E-01 0.86807116E+03</pdfrwt>
<pdfrwt beam="2">  1       -2 0.23647057E+00 0.86807116E+03</pdfrwt>
<totfact> 0.24089878E+01</totfact>
</mgrwt>
</event>
<event>
 4    1  0.1751735E-005  0.7770961E+03  0.7818608E-02  0.9593774E-01
          2   -1    0    0  501    0  0.00000000000E+00  0.00000000000E+00  0.73565071729E+03  0.73565071729E+03  0.25500000000E-02 0. -1.
         -2   -1    0    0    0  501 -0.00000000000E+00 -0.00000000000E+00 -0.20521913028E+03  0.20521913029E+03  0.25500000000E-02 0.  1.
   -5000001    1    1    2    0    0  0.80300809275E+02  0.28463443758E+03  0.22684019651E+03  0.44880001981E+03  0.25000000000E+03 0.  0.
    5000001    1    1    2    0    0 -0.80300809275E+02 -0.28463443758E+03  0.30359139050E+03  0.49206982778E+03  0.25000000000E+03 0.  0.
<mgrwt>
<rscale>  0 0.77709613E+03</rscale>
<asrwt>0</asrwt>
<pdfrwt beam="1">  1        2 0.11317703E+00 0.77709613E+03</pdfrwt>
<pdfrwt beam="2">  1       -2 0.31572174E-01 0.77709613E+03</pdfrwt>
<totfact> 0.36009141E+02</totfact>
</mgrwt>
</event>
<event>
 4    1  0.1751735E-005  0.6695060E+03  0.7818608E-02  0.9770851E-01
         -2   -1    0    0    0  501 -0.00000000000E+00  0.00000000000E+00  0.11534455348E+03  0.11534455351E+03  0.25500000000E-02 0. -1.
          2   -1    0    0  501    0  0.00000000000E+00 -0.00000000000E+00 -0.97152018128E+03  0.97152018129E+03  0.25500000000E-02 0.  1.
   -5000001    1    1    2    0    0 -0.21421880841E+03 -0.57002726983E+02 -0.39479647300E+03  0.51720717691E+03  0.25000000000E+03 0.  0.
    5000001    1    1    2    0    0  0.21421880841E+03  0.57002726983E+02 -0.46137915480E+03  0.56965755788E+03  0.25000000000E+03 0.  0.
<mgrwt>
<rscale>  0 0.66950597E+03</rscale>
<asrwt>0</asrwt>
<pdfrwt beam="1">  1        2 0.14946464E+00 0.66950597E+03</pdfrwt>
<pdfrwt beam="2">  1       -2 0.17745317E-01 0.66950597E+03</pdfrwt>
<totfact> 0.69569768E+02</totfact>
</mgrwt>
</event>
<event>
 4    1  0.1751735E-005  0.1448647E+04  0.7818608E-02  0.8919339E-01
         -2   -1    0    0    0  501 -0.00000000000E+00  0.00000000000E+00  0.23932779812E+03  0.23932779813E+03  0.25500000000E-02 0. -1.
          2   -1    0    0  501    0  0.00000000000E+00 -0.00000000000E+00 -0.21921593322E+04  0.21921593322E+04  0.25500000000E-02 0.  1.
   -5000001    1    1    2    0    0 -0.35613724104E+03 -0.57725586130E+03 -0.89974511007E+03  0.11541660743E+04  0.25000000000E+03 0.  0.
    5000001    1    1    2    0    0  0.35613724104E+03  0.57725586130E+03 -0.10530864240E+04  0.12773210560E+04  0.25000000000E+03 0.  0.
<mgrwt>
<rscale>  0 0.14486472E+04</rscale>
<asrwt>0</asrwt>
<pdfrwt beam="1">  1        2 0.33725527E+00 0.14486472E+04</pdfrwt>
<pdfrwt beam="2">  1       -2 0.36819663E-01 0.14486472E+04</pdfrwt>
<totfact> 0.35202763E+01</totfact>
</mgrwt>
</event>
<event>
 4    1  0.1751735E-005  0.6586309E+03  0.7818608E-02  0.9790717E-01
         -2   -1    0    0    0  501 -0.00000000000E+00  0.00000000000E+00  0.37297405896E+02  0.37297405983E+02  0.25500000000E-02 0. -1.
          2   -1    0    0  501    0  0.00000000000E+00 -0.00000000000E+00 -0.29076731106E+04  0.29076731106E+04  0.25500000000E-02 0.  1.
   -5000001    1    1    2    0    0  0.11702413803E+02  0.17385044230E+03 -0.87693564335E+03  0.92837333296E+03  0.25000000000E+03 0.  0.
    5000001    1    1    2    0    0 -0.11702413803E+02 -0.17385044230E+03 -0.19934400613E+04  0.20165971836E+04  0.25000000000E+03 0.  0.
<mgrwt>
<rscale>  0 0.65863090E+03</rscale>
<asrwt>0</asrwt>
<pdfrwt beam="1">  1        2 0.44733415E+00 0.65863090E+03</pdfrwt>
<pdfrwt beam="2">  1       -2 0.57380647E-02 0.65863090E+03</pdfrwt>
<totfact> 0.35150954E+02</totfact>
</mgrwt>
</event>
<event>
 4    1  0.1751735E-005  0.7953989E+03  0.7818608E-02  0.9566701E-01
         -2   -1    0    0    0  501 -0.00000000000E+00  0.00000000000E+00  0.88021244949E+03  0.88021244949E+03  0.25500000000E-02 0. -1.
          2   -1    0    0  501    0  0.00000000000E+00 -0.00000000000E+00 -0.17968940390E+03  0.17968940392E+03  0.25500000000E-02 0.  1.
   -5000001    1    1    2    0    0 -0.20660218837E+03 -0.16770173287E+03  0.14017374514E+03  0.39109719287E+03  0.25000000000E+03 0.  0.
    5000001    1    1    2    0    0  0.20660218837E+03  0.16770173287E+03  0.56034930045E+03  0.66880466054E+03  0.25000000000E+03 0.  0.
<mgrwt>
<rscale>  0 0.79539889E+03</rscale>
<asrwt>0</asrwt>
<pdfrwt beam="1">  1        2 0.27644523E-01 0.79539889E+03</pdfrwt>
<pdfrwt beam="2">  1       -2 0.13541730E+00 0.79539889E+03</pdfrwt>
<totfact> 0.77044393E+01</totfact>
</mgrwt>
</event>
<event>
 4    1  0.1751735E-005  0.6234768E+03  0.7818608E-02  0.9857862E-01
          2   -1    0    0  501    0  0.00000000000E+00  0.00000000000E+00  0.62727112978E+03  0.62727112978E+03  0.25500000000E-02 0.  1.
         -2   -1    0    0    0  501 -0.00000000000E+00 -0.00000000000E+00 -0.15492634175E+03  0.15492634177E+03  0.25500000000E-02 0. -1.
   -5000001    1    1    2    0    0  0.14129365549E+03  0.80406460244E+02  0.35013661219E+03  0.45991819178E+03  0.25000000000E+03 0.  0.
    5000001    1    1    2    0    0 -0.14129365549E+03 -0.80406460244E+02  0.12220817584E+03  0.32227927978E+03  0.25000000000E+03 0.  0.
<mgrwt>
<rscale>  0 0.62347677E+03</rscale>
<asrwt>0</asrwt>
<pdfrwt beam="1">  1        2 0.96503252E-01 0.62347677E+03</pdfrwt>
<pdfrwt beam="2">  1       -2 0.23834822E-01 0.62347677E+03</pdfrwt>
<totfact> 0.73786307E+02</totfact>
</mgrwt>
</event>
<event>
 4    1  0.1751735E-005  0.1091978E+04  0.7818608E-02  0.9213046E-01
          2   -1    0    0  501    0  0.00000000000E+00  0.00000000000E+00  0.13295670198E+03  0.13295670200E+03  0.25500000000E-02 0.  1.
         -2   -1    0    0    0  501 -0.00000000000E+00 -0.00000000000E+00 -0.22421146788E+04  0.22421146788E+04  0.25500000000E-02 0. -1.
   -5000001    1    1    2    0    0  0.84272045982E+02  0.46649088387E+03 -0.82761880356E+03  0.98598600724E+03  0.25000000000E+03 0.  0.
    5000001    1    1    2    0    0 -0.84272045982E+02 -0.46649088387E+03 -0.12815391733E+04  0.13890853736E+04  0.25000000000E+03 0.  0.
<mgrwt>
<rscale>  0 0.10919783E+04</rscale>
<asrwt>0</asrwt>
<pdfrwt beam="1">  1        2 0.20454879E-01 0.10919783E+04</pdfrwt>
<pdfrwt beam="2">  1       -2 0.34494069E+00 0.10919783E+04</pdfrwt>
<totfact> 0.46934754E+00</totfact>
</mgrwt>
</event>
<event>
 4    1  0.1751735E-005  0.1142233E+04  0.7818608E-02  0.9164979E-01
          2   -1    0    0  501    0  0.00000000000E+00  0.00000000000E+00  0.32365089957E+04  0.32365089957E+04  0.25500000000E-02 0.  1.
         -2   -1    0    0    0  501 -0.00000000000E+00 -0.00000000000E+00 -0.10077952923E+03  0.10077952926E+03  0.25500000000E-02 0. -1.
   -5000001    1    1    2    0    0 -0.18692359058E+02 -0.44095937290E+03  0.80106229094E+03  0.94815366202E+03  0.25000000000E+03 0.  0.
    5000001    1    1    2    0    0  0.18692359058E+02  0.44095937290E+03  0.23346671755E+04  0.23891348629E+04  0.25000000000E+03 0.  0.
<mgrwt>
<rscale>  0 0.11422326E+04</rscale>
<asrwt>0</asrwt>
<pdfrwt beam="1">  1        2 0.49792452E+00 0.11422326E+04</pdfrwt>
<pdfrwt beam="2">  1       -2 0.15504541E-01 0.11422326E+04</pdfrwt>
<totfact> 0.41254912E+01</totfact>
</mgrwt>
</event>
<event>
 4    1  0.1751735E-005  0.6849995E+03  0.7818608E-02  0.9743235E-01
         -2   -1    0    0    0  501 -0.00000000000E+00  0.00000000000E+00  0.13319421296E+03  0.13319421299E+03  0.25500000000E-02 0. -1.
          2   -1    0    0  501    0  0.00000000000E+00 -0.00000000000E+00 -0.88071442793E+03  0.88071442794E+03  0.25500000000E-02 0.  1.
   -5000001    1    1    2    0    0 -0.19722977112E+03 -0.11483976200E+03 -0.45093183269E+03  0.56385039797E+03  0.25000000000E+03 0.  0.
    5000001    1    1    2    0    0  0.19722977112E+03  0.11483976200E+03 -0.29658838228E+03  0.45005824296E+03  0.25000000000E+03 0.  0.
<mgrwt>
<rscale>  0 0.68499946E+03</rscale>
<asrwt>0</asrwt>
<pdfrwt beam="1">  1        2 0.13549452E+00 0.68499946E+03</pdfrwt>
<pdfrwt beam="2">  1       -2 0.20491418E-01 0.68499946E+03</pdfrwt>
<totfact> 0.62187442E+02</totfact>
</mgrwt>
</event>
<event>
 4    1  0.1751735E-005  0.9703028E+03  0.7818608E-02  0.9341730E-01
         -2   -1    0    0    0  501 -0.00000000000E+00  0.00000000000E+00  0.14240632534E+03  0.14240632536E+03  0.25500000000E-02 0. -1.
          2   -1    0    0  501    0  0.00000000000E+00 -0.00000000000E+00 -0.16528189049E+04  0.16528189049E+04  0.25500000000E-02 0.  1.
   -5000001    1    1    2    0    0  0.62668235867E+02  0.23348873377E+03 -0.13810660215E+04  0.14241796419E+04  0.25000000000E+03 0.  0.
    5000001    1    1    2    0    0 -0.62668235867E+02 -0.23348873377E+03 -0.12934655808E+03  0.37104558840E+03  0.25000000000E+03 0.  0.
<mgrwt>
<rscale>  0 0.97030277E+03</rscale>
<asrwt>0</asrwt>
<pdfrwt beam="1">  1        2 0.25427982E+00 0.97030277E+03</pdfrwt>
<pdfrwt beam="2">  1       -2 0.21908667E-01 0.97030277E+03</pdfrwt>
<totfact> 0.18955240E+02</totfact>
</mgrwt>
</event>
<event>
 4    1  0.1751735E-005  0.7897599E+03  0.7818608E-02  0.9574959E-01
          2   -1    0    0  501    0  0.00000000000E+00  0.00000000000E+00  0.37526805808E+04  0.37526805808E+04  0.25500000000E-02 0.  1.
         -2   -1    0    0    0  501 -0.00000000000E+00 -0.00000000000E+00 -0.41551674081E+02  0.41551674159E+02  0.25500000000E-02 0. -1.
   -5000001    1    1    2    0    0 -0.14705640470E+03 -0.25031370625E+03  0.23150617693E+04  0.23465492821E+04  0.25000000000E+03 0.  0.
    5000001    1    1    2    0    0  0.14705640470E+03  0.25031370625E+03  0.13960671375E+04  0.14476829729E+04  0.25000000000E+03 0.  0.
<mgrwt>
<rscale>  0 0.78975986E+03</rscale>
<asrwt>0</asrwt>
<pdfrwt beam="1">  1        2 0.57733568E+00 0.78975986E+03</pdfrwt>
<pdfrwt beam="2">  1       -2 0.63925630E-02 0.78975986E+03</pdfrwt>
<totfact> 0.81093258E+01</totfact>
</mgrwt>
</event>
<event>
 4    1  0.1751735E-005  0.8945956E+03  0.7818608E-02  0.9432362E-01
         -2   -1    0    0    0  501 -0.00000000000E+00  0.00000000000E+00  0.16990048268E+03  0.16990048270E+03  0.25500000000E-02 0. -1.
          2   -1    0    0  501    0  0.00000000000E+00 -0.00000000000E+00 -0.11776030483E+04  0.11776030483E+04  0.25500000000E-02 0.  1.
   -5000001    1    1    2    0    0  0.30372158559E+03 -0.21041894451E+03 -0.55271562266E+03  0.71029394851E+03  0.25000000000E+03 0.  0.
    5000001    1    1    2    0    0 -0.30372158559E+03  0.21041894451E+03 -0.45498694300E+03  0.63720958252E+03  0.25000000000E+03 0.  0.
<mgrwt>
<rscale>  0 0.89459561E+03</rscale>
<asrwt>0</asrwt>
<pdfrwt beam="1">  1        2 0.18116969E+00 0.89459561E+03</pdfrwt>
<pdfrwt beam="2">  1       -2 0.26138537E-01 0.89459561E+03</pdfrwt>
<totfact> 0.25875373E+02</totfact>
</mgrwt>
</event>
<event>
 4    1  0.1751735E-005  0.9541702E+03  0.7818608E-02  0.9360289E-01
          2   -1    0    0  501    0  0.00000000000E+00  0.00000000000E+00  0.11712592419E+04  0.11712592419E+04  0.25500000000E-02 0.  1.
         -2   -1    0    0    0  501 -0.00000000000E+00 -0.00000000000E+00 -0.19432948708E+03  0.19432948709E+03  0.25500000000E-02 0. -1.
   -5000001    1    1    2    0    0 -0.35276962738E+03 -0.95804567991E+02  0.23451508777E+03  0.50112099501E+03  0.25000000000E+03 0.  0.
    5000001    1    1    2    0    0  0.35276962738E+03  0.95804567991E+02  0.74241466704E+03  0.86446773397E+03  0.25000000000E+03 0.  0.
<mgrwt>
<rscale>  0 0.95417023E+03</rscale>
<asrwt>0</asrwt>
<pdfrwt beam="1">  1        2 0.18019373E+00 0.95417023E+03</pdfrwt>
<pdfrwt beam="2">  1       -2 0.29896844E-01 0.95417023E+03</pdfrwt>
<totfact> 0.20320396E+02</totfact>
</mgrwt>
</event>
<event>
 4    1  0.1751735E-005  0.8783642E+03  0.7818608E-02  0.9453039E-01
         -2   -1    0    0    0  501 -0.00000000000E+00  0.00000000000E+00  0.15619676992E+03  0.15619676994E+03  0.25500000000E-02 0. -1.
          2   -1    0    0  501    0  0.00000000000E+00 -0.00000000000E+00 -0.12348586260E+04  0.12348586260E+04  0.25500000000E-02 0.  1.
   -5000001    1    1    2    0    0 -0.25698306702E+03  0.24626392194E+03 -0.44306776592E+03  0.62088264687E+03  0.25000000000E+03 0.  0.
    5000001    1    1    2    0    0  0.25698306702E+03 -0.24626392194E+03 -0.63559409018E+03  0.77017274910E+03  0.25000000000E+03 0.  0.
<mgrwt>
<rscale>  0 0.87836423E+03</rscale>
<asrwt>0</asrwt>
<pdfrwt beam="1">  1        2 0.18997824E+00 0.87836423E+03</pdfrwt>
<pdfrwt beam="2">  1       -2 0.24030273E-01 0.87836423E+03</pdfrwt>
<totfact> 0.27881992E+02</totfact>
</mgrwt>
</event>
<event>
 4    1  0.1751735E-005  0.1073802E+04  0.7818608E-02  0.9231109E-01
         -2   -1    0    0    0  501 -0.00000000000E+00  0.00000000000E+00  0.22693483257E+03  0.22693483258E+03  0.25500000000E-02 0. -1.
          2   -1    0    0  501    0  0.00000000000E+00 -0.00000000000E+00 -0.12702454664E+04  0.12702454664E+04  0.25500000000E-02 0.  1.
   -5000001    1    1    2    0    0  0.33402316635E+03 -0.32973711683E+03 -0.62472734594E+03  0.82041593027E+03  0.25000000000E+03 0.  0.
    5000001    1    1    2    0    0 -0.33402316635E+03  0.32973711683E+03 -0.41858328791E+03  0.67676436873E+03  0.25000000000E+03 0.  0.
<mgrwt>
<rscale>  0 0.10738025E+04</rscale>
<asrwt>0</asrwt>
<pdfrwt beam="1">  1        2 0.19542237E+00 0.10738025E+04</pdfrwt>
<pdfrwt beam="2">  1       -2 0.34913052E-01 0.10738025E+04</pdfrwt>
<totfact> 0.13157607E+02</totfact>
</mgrwt>
</event>
<event>
 4    1  0.1751735E-005  0.1073719E+04  0.7818608E-02  0.9231193E-01
          2   -1    0    0  501    0  0.00000000000E+00  0.00000000000E+00  0.42626996417E+03  0.42626996417E+03  0.25500000000E-02 0.  1.
         -2   -1    0    0    0  501 -0.00000000000E+00 -0.00000000000E+00 -0.67613957377E+03  0.67613957378E+03  0.25500000000E-02 0. -1.
   -5000001    1    1    2    0    0 -0.73990066172E+01 -0.32069371543E+03  0.23488480243E+03  0.46964888462E+03  0.25000000000E+03 0.  0.
    5000001    1    1    2    0    0  0.73990066172E+01  0.32069371543E+03 -0.48475441204E+03  0.63276065333E+03  0.25000000000E+03 0.  0.
<mgrwt>
<rscale>  0 0.10737188E+04</rscale>
<asrwt>0</asrwt>
<pdfrwt beam="1">  1        2 0.65579994E-01 0.10737188E+04</pdfrwt>
<pdfrwt beam="2">  1       -2 0.10402147E+00 0.10737188E+04</pdfrwt>
<totfact> 0.55316753E+01</totfact>
</mgrwt>
</event>
<event>
 4    1  0.1751735E-005  0.6726416E+03  0.7818608E-02  0.9765198E-01
         -2   -1    0    0    0  501 -0.00000000000E+00  0.00000000000E+00  0.71309640642E+02  0.71309640687E+02  0.25500000000E-02 0. -1.
          2   -1    0    0  501    0  0.00000000000E+00 -0.00000000000E+00 -0.15862044673E+04  0.15862044673E+04  0.25500000000E-02 0.  1.
   -5000001    1    1    2    0    0  0.56102485548E+02 -0.11659787299E+03 -0.12109455128E+04  0.12432343254E+04  0.25000000000E+03 0.  0.
    5000001    1    1    2    0    0 -0.56102485548E+02  0.11659787299E+03 -0.30394931386E+03  0.41427978259E+03  0.25000000000E+03 0.  0.
<mgrwt>
<rscale>  0 0.67264157E+03</rscale>
<asrwt>0</asrwt>
<pdfrwt beam="1">  1        2 0.24403143E+00 0.67264157E+03</pdfrwt>
<pdfrwt beam="2">  1       -2 0.10970715E-01 0.67264157E+03</pdfrwt>
<totfact> 0.68187370E+02</totfact>
</mgrwt>
</event>
<event>
 4    1  0.1751735E-005  0.7214469E+03  0.7818608E-02  0.9681242E-01
          2   -1    0    0  501    0  0.00000000000E+00  0.00000000000E+00  0.13989000721E+04  0.13989000721E+04  0.25500000000E-02 0.  1.
         -2   -1    0    0    0  501 -0.00000000000E+00 -0.00000000000E+00 -0.93016931079E+02  0.93016931114E+02  0.25500000000E-02 0. -1.
   -5000001    1    1    2    0    0  0.12156011282E+03 -0.16330153279E+03  0.31836046183E+03  0.45309782089E+03  0.25000000000E+03 0.  0.
    5000001    1    1    2    0    0 -0.12156011282E+03  0.16330153279E+03  0.98752267917E+03  0.10388191823E+04  0.25000000000E+03 0.  0.
<mgrwt>
<rscale>  0 0.72144686E+03</rscale>
<asrwt>0</asrwt>
<pdfrwt beam="1">  1        2 0.21521539E+00 0.72144686E+03</pdfrwt>
<pdfrwt beam="2">  1       -2 0.14310297E-01 0.72144686E+03</pdfrwt>
<totfact> 0.55630726E+02</totfact>
</mgrwt>
</event>
<event>
 4    1  0.1751735E-005  0.9797775E+03  0.7818608E-02  0.9331007E-01
          2   -1    0    0  501    0  0.00000000000E+00  0.00000000000E+00  0.38445776319E+03  0.38445776320E+03  0.25500000000E-02 0.  1.
         -2   -1    0    0    0  501 -0.00000000000E+00 -0.00000000000E+00 -0.62423235016E+03  0.62423235016E+03  0.25500000000E-02 0. -1.
   -5000001    1    1    2    0    0  0.32562770563E+02 -0.32840423930E+03  0.14972094244E+03  0.44025678759E+03  0.25000000000E+03 0.  0.
    5000001    1    1    2    0    0 -0.32562770563E+02  0.32840423930E+03 -0.38949552941E+03  0.56843332577E+03  0.25000000000E+03 0.  0.
<mgrwt>
<rscale>  0 0.97977747E+03</rscale>
<asrwt>0</asrwt>
<pdfrwt beam="1">  1        2 0.59147348E-01 0.97977747E+03</pdfrwt>
<pdfrwt beam="2">  1       -2 0.96035746E-01 0.97977747E+03</pdfrwt>
<totfact> 0.75542554E+01</totfact>
</mgrwt>
</event>
<event>
 4    1  0.1751735E-005  0.7848116E+03  0.7818608E-02  0.9582266E-01
         -2   -1    0    0    0  501 -0.00000000000E+00  0.00000000000E+00  0.74700525929E+02  0.74700525973E+02  0.25500000000E-02 0. -1.
          2   -1    0    0  501    0  0.00000000000E+00 -0.00000000000E+00 -0.20613283036E+04  0.20613283036E+04  0.25500000000E-02 0.  1.
   -5000001    1    1    2    0    0  0.17252210850E+02 -0.29340812312E+03 -0.11876130940E+04  0.12487236790E+04  0.25000000000E+03 0.  0.
    5000001    1    1    2    0    0 -0.17252210850E+02  0.29340812312E+03 -0.79901468370E+03  0.88730515059E+03  0.25000000000E+03 0.  0.
<mgrwt>
<rscale>  0 0.78481159E+03</rscale>
<asrwt>0</asrwt>
<pdfrwt beam="1">  1        2 0.31712739E+00 0.78481159E+03</pdfrwt>
<pdfrwt beam="2">  1       -2 0.11492390E-01 0.78481159E+03</pdfrwt>
<totfact> 0.34511142E+02</totfact>
</mgrwt>
</event>
<event>
 4    1  0.1751735E-005  0.9891184E+03  0.7818608E-02  0.9320561E-01
          2   -1    0    0  501    0  0.00000000000E+00  0.00000000000E+00  0.37555901226E+03  0.37555901227E+03  0.25500000000E-02 0.  1.
         -2   -1    0    0    0  501 -0.00000000000E+00 -0.00000000000E+00 -0.65126591165E+03  0.65126591166E+03  0.25500000000E-02 0. -1.
   -5000001    1    1    2    0    0 -0.31295498562E+03  0.15221507900E+03 -0.39420539117E+03  0.58224405856E+03  0.25000000000E+03 0.  0.
    5000001    1    1    2    0    0  0.31295498562E+03 -0.15221507900E+03  0.11849849178E+03  0.44458086537E+03  0.25000000000E+03 0.  0.
<mgrwt>
<rscale>  0 0.98911836E+03</rscale>
<asrwt>0</asrwt>
<pdfrwt beam="1">  1        2 0.57778310E-01 0.98911836E+03</pdfrwt>
<pdfrwt beam="2">  1       -2 0.10019476E+00 0.98911836E+03</pdfrwt>
<totfact> 0.70139952E+01</totfact>
</mgrwt>
</event>
<event>
 4    1  0.1751735E-005  0.7021761E+03  0.7818608E-02  0.9713518E-01
          2   -1    0    0  501    0  0.00000000000E+00  0.00000000000E+00  0.29619639542E+04  0.29619639542E+04  0.25500000000E-02 0.  1.
         -2   -1    0    0    0  501 -0.00000000000E+00 -0.00000000000E+00 -0.41615230144E+02  0.41615230222E+02  0.25500000000E-02 0. -1.
   -5000001    1    1    2    0    0 -0.15153226459E+03  0.59866828105E+02  0.66892674118E+03  0.73246778044E+03  0.25000000000E+03 0.  0.
    5000001    1    1    2    0    0  0.15153226459E+03 -0.59866828105E+02  0.22514219828E+04  0.22711114040E+04  0.25000000000E+03 0.  0.
<mgrwt>
<rscale>  0 0.70217608E+03</rscale>
<asrwt>0</asrwt>
<pdfrwt beam="1">  1        2 0.45568677E+00 0.70217608E+03</pdfrwt>
<pdfrwt beam="2">  1       -2 0.64023430E-02 0.70217608E+03</pdfrwt>
<totfact> 0.27313264E+02</totfact>
</mgrwt>
</event>
<event>
 4    1  0.1751735E-005  0.1424884E+04  0.7818608E-02  0.8936001E-01
          2   -1    0    0  501    0  0.00000000000E+00  0.00000000000E+00  0.32844740389E+04  0.32844740389E+04  0.25500000000E-02 0.  1.
         -2   -1    0    0    0  501 -0.00000000000E+00 -0.00000000000E+00 -0.15453719133E+03  0.15453719135E+03  0.25500000000E-02 0. -1.
   -5000001    1    1    2    0    0 -0.47508955663E+02  0.60494790650E+03  0.22340642544E+04  0.23284677715E+04  0.25000000000E+03 0.  0.
    5000001    1    1    2    0    0  0.47508955663E+02 -0.60494790650E+03  0.89587259317E+03  0.11105434587E+04  0.25000000000E+03 0.  0.
<mgrwt>
<rscale>  0 0.14248837E+04</rscale>
<asrwt>0</asrwt>
<pdfrwt beam="1">  1        2 0.50530372E+00 0.14248837E+04</pdfrwt>
<pdfrwt beam="2">  1       -2 0.23774951E-01 0.14248837E+04</pdfrwt>
<totfact> 0.17635740E+01</totfact>
</mgrwt>
</event>
<event>
 4    1  0.1751735E-005  0.5444263E+03  0.7818608E-02  0.1002792E+00
         -2   -1    0    0    0  501 -0.00000000000E+00  0.00000000000E+00  0.42028632673E+02  0.42028632750E+02  0.25500000000E-02 0. -1.
          2   -1    0    0  501    0  0.00000000000E+00 -0.00000000000E+00 -0.17630838136E+04  0.17630838136E+04  0.25500000000E-02 0.  1.
   -5000001    1    1    2    0    0 -0.58294368557E+01  0.10689211520E+03 -0.89977193848E+03  0.93997311020E+03  0.25000000000E+03 0.  0.
    5000001    1    1    2    0    0  0.58294368557E+01 -0.10689211520E+03 -0.82128324240E+03  0.86513933610E+03  0.25000000000E+03 0.  0.
<mgrwt>
<rscale>  0 0.54442631E+03</rscale>
<asrwt>0</asrwt>
<pdfrwt beam="1">  1        2 0.27124361E+00 0.54442631E+03</pdfrwt>
<pdfrwt beam="2">  1       -2 0.64659449E-02 0.54442631E+03</pdfrwt>
<totfact> 0.12828400E+03</totfact>
</mgrwt>
</event>
<event>
 4    1  0.1751735E-005  0.7848401E+03  0.7818608E-02  0.9582223E-01
         -2   -1    0    0    0  501 -0.00000000000E+00  0.00000000000E+00  0.62789747703E+03  0.62789747703E+03  0.25500000000E-02 0. -1.
          2   -1    0    0  501    0  0.00000000000E+00 -0.00000000000E+00 -0.24525262898E+03  0.24525262900E+03  0.25500000000E-02 0.  1.
   -5000001    1    1    2    0    0 -0.26871874922E+03 -0.12386189265E+03  0.12147273173E+03  0.40596448020E+03  0.25000000000E+03 0.  0.
    5000001    1    1    2    0    0  0.26871874922E+03  0.12386189265E+03  0.26117211632E+03  0.46718562582E+03  0.25000000000E+03 0.  0.
<mgrwt>
<rscale>  0 0.78484013E+03</rscale>
<asrwt>0</asrwt>
<pdfrwt beam="1">  1        2 0.37731175E-01 0.78484013E+03</pdfrwt>
<pdfrwt beam="2">  1       -2 0.96599609E-01 0.78484013E+03</pdfrwt>
<totfact> 0.12418497E+02</totfact>
</mgrwt>
</event>
<event>
 4    1  0.1751735E-005  0.7076940E+03  0.7818608E-02  0.9704164E-01
         -2   -1    0    0    0  501 -0.00000000000E+00  0.00000000000E+00  0.36611837779E+03  0.36611837780E+03  0.25500000000E-02 0. -1.
          2   -1    0    0  501    0  0.00000000000E+00 -0.00000000000E+00 -0.34198688635E+03  0.34198688636E+03  0.25500000000E-02 0.  1.
   -5000001    1    1    2    0    0 -0.14579248068E+03  0.40771036062E+02 -0.18752439450E+03  0.34725080754E+03  0.25000000000E+03 0.  0.
    5000001    1    1    2    0    0  0.14579248068E+03 -0.40771036062E+02  0.21165588594E+03  0.36085445661E+03  0.25000000000E+03 0.  0.
<mgrwt>
<rscale>  0 0.70769396E+03</rscale>
<asrwt>0</asrwt>
<pdfrwt beam="1">  1        2 0.52613367E-01 0.70769396E+03</pdfrwt>
<pdfrwt beam="2">  1       -2 0.56325904E-01 0.70769396E+03</pdfrwt>
<totfact> 0.28322280E+02</totfact>
</mgrwt>
</event>
<event>
 4    1  0.1751735E-005  0.6948633E+03  0.7818608E-02  0.9726057E-01
          2   -1    0    0  501    0  0.00000000000E+00  0.00000000000E+00  0.18776814055E+03  0.18776814056E+03  0.25500000000E-02 0.  1.
         -2   -1    0    0    0  501 -0.00000000000E+00 -0.00000000000E+00 -0.64286057120E+03  0.64286057120E+03  0.25500000000E-02 0. -1.
   -5000001    1    1    2    0    0  0.11461853412E+02  0.19982362958E+03 -0.66511129141E+02  0.32708498486E+03  0.25000000000E+03 0.  0.
    5000001    1    1    2    0    0 -0.11461853412E+02 -0.19982362958E+03 -0.38858130151E+03  0.50354372691E+03  0.25000000000E+03 0.  0.
<mgrwt>
<rscale>  0 0.69486325E+03</rscale>
<asrwt>0</asrwt>
<pdfrwt beam="1">  1        2 0.28887406E-01 0.69486325E+03</pdfrwt>
<pdfrwt beam="2">  1       -2 0.98901626E-01 0.69486325E+03</pdfrwt>
<totfact> 0.15914959E+02</totfact>
</mgrwt>
</event>
<event>
 4    1  0.1751735E-005  0.5682961E+03  0.7818608E-02  0.9973456E-01
          2   -1    0    0  501    0  0.00000000000E+00  0.00000000000E+00  0.77412538180E+03  0.77412538180E+03  0.25500000000E-02 0. -1.
         -2   -1    0    0    0  501 -0.00000000000E+00 -0.00000000000E+00 -0.10429851046E+03  0.10429851049E+03  0.25500000000E-02 0.  1.
   -5000001    1    1    2    0    0 -0.35068229635E+02  0.12091426813E+03  0.41048109221E+03  0.49683474921E+03  0.25000000000E+03 0.  0.
    5000001    1    1    2    0    0  0.35068229635E+02 -0.12091426813E+03  0.25934577913E+03  0.38158914308E+03  0.25000000000E+03 0.  0.
<mgrwt>
<rscale>  0 0.56829613E+03</rscale>
<asrwt>0</asrwt>
<pdfrwt beam="1">  1        2 0.11909621E+00 0.56829613E+03</pdfrwt>
<pdfrwt beam="2">  1       -2 0.16045925E-01 0.56829613E+03</pdfrwt>
<totfact> 0.11291567E+03</totfact>
</mgrwt>
</event>
<event>
 4    1  0.1751735E-005  0.6931961E+03  0.7818608E-02  0.9728939E-01
          2   -1    0    0  501    0  0.00000000000E+00  0.00000000000E+00  0.55967739198E+03  0.55967739199E+03  0.25500000000E-02 0.  1.
         -2   -1    0    0    0  501 -0.00000000000E+00 -0.00000000000E+00 -0.21464189887E+03  0.21464189888E+03  0.25500000000E-02 0. -1.
   -5000001    1    1    2    0    0  0.13863164968E+03 -0.75847980152E+02 -0.29347946975E+02  0.29720860078E+03  0.25000000000E+03 0.  0.
    5000001    1    1    2    0    0 -0.13863164968E+03  0.75847980152E+02  0.37438344009E+03  0.47711069009E+03  0.25000000000E+03 0.  0.
<mgrwt>
<rscale>  0 0.69319613E+03</rscale>
<asrwt>0</asrwt>
<pdfrwt beam="1">  1        2 0.86104212E-01 0.69319613E+03</pdfrwt>
<pdfrwt beam="2">  1       -2 0.33021832E-01 0.69319613E+03</pdfrwt>
<totfact> 0.46461946E+02</totfact>
</mgrwt>
</event>
<event>
 4    1  0.1751735E-005  0.8114979E+03  0.7818608E-02  0.9543522E-01
          2   -1    0    0  501    0  0.00000000000E+00  0.00000000000E+00  0.32916084080E+03  0.32916084081E+03  0.25500000000E-02 0.  1.
         -2   -1    0    0    0  501 -0.00000000000E+00 -0.00000000000E+00 -0.50015738803E+03  0.50015738804E+03  0.25500000000E-02 0. -1.
   -5000001    1    1    2    0    0 -0.25872528561E+03 -0.11156140764E+03 -0.23963306451E+03  0.44644005946E+03  0.25000000000E+03 0.  0.
    5000001    1    1    2    0    0  0.25872528561E+03  0.11156140764E+03  0.68636517274E+02  0.38287816938E+03  0.25000000000E+03 0.  0.
<mgrwt>
<rscale>  0 0.81149794E+03</rscale>
<asrwt>0</asrwt>
<pdfrwt beam="1">  1        2 0.50640129E-01 0.81149794E+03</pdfrwt>
<pdfrwt beam="2">  1       -2 0.76947291E-01 0.81149794E+03</pdfrwt>
<totfact> 0.15038513E+02</totfact>
</mgrwt>
</event>
<event>
 4    1  0.1751735E-005  0.8845710E+03  0.7818608E-02  0.9445077E-01
          2   -1    0    0  501    0  0.00000000000E+00  0.00000000000E+00  0.34190937454E+03  0.34190937455E+03  0.25500000000E-02 0. -1.
         -2   -1    0    0    0  501 -0.00000000000E+00 -0.00000000000E+00 -0.57212963471E+03  0.57212963471E+03  0.25500000000E-02 0.  1.
   -5000001    1    1    2    0    0 -0.97799014321E+02  0.33938067367E+03 -0.20560007716E+02  0.43320503550E+03  0.25000000000E+03 0.  0.
    5000001    1    1    2    0    0  0.97799014321E+02 -0.33938067367E+03 -0.20966025245E+03  0.48083397376E+03  0.25000000000E+03 0.  0.
<mgrwt>
<rscale>  0 0.88457105E+03</rscale>
<asrwt>0</asrwt>
<pdfrwt beam="1">  1        2 0.52601442E-01 0.88457105E+03</pdfrwt>
<pdfrwt beam="2">  1       -2 0.88019944E-01 0.88457105E+03</pdfrwt>
<totfact> 0.10598841E+02</totfact>
</mgrwt>
</event>
<event>
 4    1  0.1751735E-005  0.6834162E+03  0.7818608E-02  0.9746021E-01
         -2   -1    0    0    0  501 -0.00000000000E+00  0.00000000000E+00  0.82718948062E+02  0.82718948102E+02  0.25500000000E-02 0. -1.
          2   -1    0    0  501    0  0.00000000000E+00 -0.00000000000E+00 -0.14115802392E+04  0.14115802392E+04  0.25500000000E-02 0.  1.
   -5000001    1    1    2    0    0  0.21534891274E+03 -0.80272750179E+02 -0.74756316118E+03  0.82107828408E+03  0.25000000000E+03 0.  0.
    5000001    1    1    2    0    0 -0.21534891274E+03  0.80272750179E+02 -0.58129812993E+03  0.67322090320E+03  0.25000000000E+03 0.  0.
<mgrwt>
<rscale>  0 0.68341622E+03</rscale>
<asrwt>0</asrwt>
<pdfrwt beam="1">  1        2 0.21716617E+00 0.68341622E+03</pdfrwt>
<pdfrwt beam="2">  1       -2 0.12725993E-01 0.68341622E+03</pdfrwt>
<totfact> 0.66706402E+02</totfact>
</mgrwt>
</event>
<event>
 4    1  0.1751735E-005  0.8915788E+03  0.7818608E-02  0.9436170E-01
          2   -1    0    0  501    0  0.00000000000E+00  0.00000000000E+00  0.44334589291E+03  0.44334589292E+03  0.25500000000E-02 0.  1.
         -2   -1    0    0    0  501 -0.00000000000E+00 -0.00000000000E+00 -0.44824635507E+03  0.44824635508E+03  0.25500000000E-02 0. -1.
   -5000001    1    1    2    0    0 -0.26462344069E+03 -0.25460438661E+03  0.34688201324E+02  0.44559199988E+03  0.25000000000E+03 0.  0.
    5000001    1    1    2    0    0  0.26462344069E+03  0.25460438661E+03 -0.39588663489E+02  0.44600024812E+03  0.25000000000E+03 0.  0.
<mgrwt>
<rscale>  0 0.89157878E+03</rscale>
<asrwt>0</asrwt>
<pdfrwt beam="1">  1        2 0.68207060E-01 0.89157878E+03</pdfrwt>
<pdfrwt beam="2">  1       -2 0.68960978E-01 0.89157878E+03</pdfrwt>
<totfact> 0.13647086E+02</totfact>
</mgrwt>
</event>
<event>
 4    1  0.1751735E-005  0.6189291E+03  0.7818608E-02  0.9866894E-01
          2   -1    0    0  501    0  0.00000000000E+00  0.00000000000E+00  0.14434995514E+04  0.14434995514E+04  0.25500000000E-02 0.  1.
         -2   -1    0    0    0  501 -0.00000000000E+00 -0.00000000000E+00 -0.66344545162E+02  0.66344545211E+02  0.25500000000E-02 0. -1.
   -5000001    1    1    2    0    0  0.17884916480E+03  0.34962821544E+02  0.70729912888E+03  0.77199836810E+03  0.25000000000E+03 0.  0.
    5000001    1    1    2    0    0 -0.17884916480E+03 -0.34962821544E+02  0.66985587733E+03  0.73784572848E+03  0.25000000000E+03 0.  0.
<mgrwt>
<rscale>  0 0.61892914E+03</rscale>
<asrwt>0</asrwt>
<pdfrwt beam="1">  1        2 0.22207685E+00 0.61892914E+03</pdfrwt>
<pdfrwt beam="2">  1       -2 0.10206853E-01 0.61892914E+03</pdfrwt>
<totfact> 0.92249424E+02</totfact>
</mgrwt>
</event>
<event>
 4    1  0.1751735E-005  0.8400583E+03  0.7818608E-02  0.9503778E-01
          2   -1    0    0  501    0  0.00000000000E+00  0.00000000000E+00  0.73538251583E+03  0.73538251584E+03  0.25500000000E-02 0.  1.
         -2   -1    0    0    0  501 -0.00000000000E+00 -0.00000000000E+00 -0.23990845991E+03  0.23990845993E+03  0.25500000000E-02 0. -1.
   -5000001    1    1    2    0    0  0.15115332655E+03  0.30115891388E+03  0.22509144823E+03  0.47614092410E+03  0.25000000000E+03 0.  0.
    5000001    1    1    2    0    0 -0.15115332655E+03 -0.30115891388E+03  0.27038260769E+03  0.49915005167E+03  0.25000000000E+03 0.  0.
<mgrwt>
<rscale>  0 0.84005830E+03</rscale>
<asrwt>0</asrwt>
<pdfrwt beam="1">  1        2 0.11313577E+00 0.84005830E+03</pdfrwt>
<pdfrwt beam="2">  1       -2 0.36908994E-01 0.84005830E+03</pdfrwt>
<totfact> 0.26717846E+02</totfact>
</mgrwt>
</event>
<event>
 4    1  0.1751735E-005  0.7464236E+03  0.7818608E-02  0.9640978E-01
          2   -1    0    0  501    0  0.00000000000E+00  0.00000000000E+00  0.15237920823E+03  0.15237920825E+03  0.25500000000E-02 0.  1.
         -2   -1    0    0    0  501 -0.00000000000E+00 -0.00000000000E+00 -0.91408172177E+03  0.91408172177E+03  0.25500000000E-02 0. -1.
   -5000001    1    1    2    0    0 -0.21470327557E+03  0.13284811174E+03 -0.54401133147E+03  0.64976491603E+03  0.25000000000E+03 0.  0.
    5000001    1    1    2    0    0  0.21470327557E+03 -0.13284811174E+03 -0.21769118206E+03  0.41669601399E+03  0.25000000000E+03 0.  0.
<mgrwt>
<rscale>  0 0.74642360E+03</rscale>
<asrwt>0</asrwt>
<pdfrwt beam="1">  1        2 0.23442956E-01 0.74642360E+03</pdfrwt>
<pdfrwt beam="2">  1       -2 0.14062795E+00 0.74642360E+03</pdfrwt>
<totfact> 0.84664107E+01</totfact>
</mgrwt>
</event>
<event>
 4    1  0.1751735E-005  0.7575052E+03  0.7818608E-02  0.9623649E-01
         -2   -1    0    0    0  501 -0.00000000000E+00  0.00000000000E+00  0.12064234681E+04  0.12064234681E+04  0.25500000000E-02 0. -1.
          2   -1    0    0  501    0  0.00000000000E+00 -0.00000000000E+00 -0.11890809386E+03  0.11890809389E+03  0.25500000000E-02 0.  1.
   -5000001    1    1    2    0    0 -0.18186019951E+03 -0.21411238510E+03  0.46480688189E+03  0.59788183035E+03  0.25000000000E+03 0.  0.
    5000001    1    1    2    0    0  0.18186019951E+03  0.21411238510E+03  0.62270849234E+03  0.72744973163E+03  0.25000000000E+03 0.  0.
<mgrwt>
<rscale>  0 0.75750516E+03</rscale>
<asrwt>0</asrwt>
<pdfrwt beam="1">  1        2 0.18293552E-01 0.75750516E+03</pdfrwt>
<pdfrwt beam="2">  1       -2 0.18560362E+00 0.75750516E+03</pdfrwt>
<totfact> 0.53170555E+01</totfact>
</mgrwt>
</event>
<event>
 4    1  0.1751735E-005  0.1492589E+04  0.7818608E-02  0.8889396E-01
         -2   -1    0    0    0  501 -0.00000000000E+00  0.00000000000E+00  0.29845894048E+03  0.29845894050E+03  0.25500000000E-02 0. -1.
          2   -1    0    0  501    0  0.00000000000E+00 -0.00000000000E+00 -0.18661032043E+04  0.18661032043E+04  0.25500000000E-02 0.  1.
   -5000001    1    1    2    0    0  0.40259504788E+03  0.57144414058E+03 -0.89449492612E+03  0.11624338051E+04  0.25000000000E+03 0.  0.
    5000001    1    1    2    0    0 -0.40259504788E+03 -0.57144414058E+03 -0.67314933768E+03  0.10021283397E+04  0.25000000000E+03 0.  0.
<mgrwt>
<rscale>  0 0.14925886E+04</rscale>
<asrwt>0</asrwt>
<pdfrwt beam="1">  1        2 0.28709279E+00 0.14925886E+04</pdfrwt>
<pdfrwt beam="2">  1       -2 0.45916761E-01 0.14925886E+04</pdfrwt>
<totfact> 0.34479606E+01</totfact>
</mgrwt>
</event>
<event>
 4    1  0.1751735E-005  0.5616951E+03  0.7818608E-02  0.9988227E-01
          2   -1    0    0  501    0  0.00000000000E+00  0.00000000000E+00  0.47276392234E+03  0.47276392235E+03  0.25500000000E-02 0.  1.
         -2   -1    0    0    0  501 -0.00000000000E+00 -0.00000000000E+00 -0.16683873727E+03  0.16683873729E+03  0.25500000000E-02 0. -1.
   -5000001    1    1    2    0    0 -0.12460658953E+03 -0.23973329096E+02  0.17180501886E+03  0.32881375757E+03  0.25000000000E+03 0.  0.
    5000001    1    1    2    0    0  0.12460658953E+03  0.23973329096E+02  0.13412016621E+03  0.31078890207E+03  0.25000000000E+03 0.  0.
<mgrwt>
<rscale>  0 0.56169506E+03</rscale>
<asrwt>0</asrwt>
<pdfrwt beam="1">  1        2 0.72732910E-01 0.56169506E+03</pdfrwt>
<pdfrwt beam="2">  1       -2 0.25667498E-01 0.56169506E+03</pdfrwt>
<totfact> 0.90115247E+02</totfact>
</mgrwt>
</event>
<event>
 4    1  0.1751735E-005  0.6750454E+03  0.7818608E-02  0.9760886E-01
          2   -1    0    0  501    0  0.00000000000E+00  0.00000000000E+00  0.13426420771E+04  0.13426420771E+04  0.25500000000E-02 0.  1.
         -2   -1    0    0    0  501 -0.00000000000E+00 -0.00000000000E+00 -0.84848804713E+02  0.84848804751E+02  0.25500000000E-02 0. -1.
   -5000001    1    1    2    0    0 -0.64396235097E+02  0.16971508971E+03  0.91629964138E+03  0.96698248152E+03  0.25000000000E+03 0.  0.
    5000001    1    1    2    0    0  0.64396235097E+02 -0.16971508971E+03  0.34149363105E+03  0.46050840038E+03  0.25000000000E+03 0.  0.
<mgrwt>
<rscale>  0 0.67504541E+03</rscale>
<asrwt>0</asrwt>
<pdfrwt beam="1">  1        2 0.20656032E+00 0.67504541E+03</pdfrwt>
<pdfrwt beam="2">  1       -2 0.13053662E-01 0.67504541E+03</pdfrwt>
<totfact> 0.69981720E+02</totfact>
</mgrwt>
</event>
<event>
 4    1  0.1751735E-005  0.7837227E+03  0.7818608E-02  0.9583881E-01
         -2   -1    0    0    0  501 -0.00000000000E+00  0.00000000000E+00  0.10333219205E+03  0.10333219208E+03  0.25500000000E-02 0. -1.
          2   -1    0    0  501    0  0.00000000000E+00 -0.00000000000E+00 -0.14860357893E+04  0.14860357893E+04  0.25500000000E-02 0.  1.
   -5000001    1    1    2    0    0 -0.26513468510E+03  0.22530759416E+01 -0.39919807310E+03  0.54051880556E+03  0.25000000000E+03 0.  0.
    5000001    1    1    2    0    0  0.26513468510E+03 -0.22530759416E+01 -0.98350552419E+03  0.10488491759E+04  0.25000000000E+03 0.  0.
<mgrwt>
<rscale>  0 0.78372275E+03</rscale>
<asrwt>0</asrwt>
<pdfrwt beam="1">  1        2 0.22862088E+00 0.78372275E+03</pdfrwt>
<pdfrwt beam="2">  1       -2 0.15897261E-01 0.78372275E+03</pdfrwt>
<totfact> 0.41459162E+02</totfact>
</mgrwt>
</event>
<event>
 4    1  0.1751735E-005  0.1028867E+04  0.7818608E-02  0.9277438E-01
          2   -1    0    0  501    0  0.00000000000E+00  0.00000000000E+00  0.12460168815E+04  0.12460168815E+04  0.25500000000E-02 0. -1.
         -2   -1    0    0    0  501 -0.00000000000E+00 -0.00000000000E+00 -0.21239039735E+03  0.21239039736E+03  0.25500000000E-02 0.  1.
   -5000001    1    1    2    0    0  0.31734263783E+03  0.16911296031E+03  0.13425823319E+03  0.45807293776E+03  0.25000000000E+03 0.  0.
    5000001    1    1    2    0    0 -0.31734263783E+03 -0.16911296031E+03  0.89936825095E+03  0.10003343411E+04  0.25000000000E+03 0.  0.
<mgrwt>
<rscale>  0 0.10288674E+04</rscale>
<asrwt>0</asrwt>
<pdfrwt beam="1">  1        2 0.19169491E+00 0.10288674E+04</pdfrwt>
<pdfrwt beam="2">  1       -2 0.32675445E-01 0.10288674E+04</pdfrwt>
<totfact> 0.15460879E+02</totfact>
</mgrwt>
</event>
<event>
 4    1  0.1751735E-005  0.1021064E+04  0.7818608E-02  0.9285739E-01
         -2   -1    0    0    0  501 -0.00000000000E+00  0.00000000000E+00  0.16863162167E+03  0.16863162169E+03  0.25500000000E-02 0. -1.
          2   -1    0    0  501    0  0.00000000000E+00 -0.00000000000E+00 -0.15456356568E+04  0.15456356568E+04  0.25500000000E-02 0.  1.
   -5000001    1    1    2    0    0 -0.39635026450E+03 -0.18248110256E+03 -0.54069982783E+03  0.73840990566E+03  0.25000000000E+03 0.  0.
    5000001    1    1    2    0    0  0.39635026450E+03  0.18248110256E+03 -0.83630420729E+03  0.97585737282E+03  0.25000000000E+03 0.  0.
<mgrwt>
<rscale>  0 0.10210642E+04</rscale>
<asrwt>0</asrwt>
<pdfrwt beam="1">  1        2 0.23779009E+00 0.10210642E+04</pdfrwt>
<pdfrwt beam="2">  1       -2 0.25943327E-01 0.10210642E+04</pdfrwt>
<totfact> 0.15989681E+02</totfact>
</mgrwt>
</event>
<event>
 4    1  0.1751735E-005  0.6762329E+03  0.7818608E-02  0.9758763E-01
         -2   -1    0    0    0  501 -0.00000000000E+00  0.00000000000E+00  0.35644427065E+03  0.35644427066E+03  0.25500000000E-02 0. -1.
          2   -1    0    0  501    0  0.00000000000E+00 -0.00000000000E+00 -0.32073102471E+03  0.32073102472E+03  0.25500000000E-02 0.  1.
   -5000001    1    1    2    0    0 -0.17517177104E+03  0.10777195227E+03 -0.79864169392E+02  0.33343399440E+03  0.25000000000E+03 0.  0.
    5000001    1    1    2    0    0  0.17517177104E+03 -0.10777195227E+03  0.11557741532E+03  0.34374130098E+03  0.25000000000E+03 0.  0.
<mgrwt>
<rscale>  0 0.67623291E+03</rscale>
<asrwt>0</asrwt>
<pdfrwt beam="1">  1        2 0.49343234E-01 0.67623291E+03</pdfrwt>
<pdfrwt beam="2">  1       -2 0.54837580E-01 0.67623291E+03</pdfrwt>
<totfact> 0.32183688E+02</totfact>
</mgrwt>
</event>
<event>
 4    1  0.1751735E-005  0.1466023E+04  0.7818608E-02  0.8907367E-01
         -2   -1    0    0    0  501 -0.00000000000E+00  0.00000000000E+00  0.15973504799E+04  0.15973504799E+04  0.25500000000E-02 0. -1.
          2   -1    0    0  501    0  0.00000000000E+00 -0.00000000000E+00 -0.33637330245E+03  0.33637330246E+03  0.25500000000E-02 0.  1.
   -5000001    1    1    2    0    0 -0.66279005943E+03  0.15269629456E+03  0.77617527705E+03  0.10618638717E+04  0.25000000000E+03 0.  0.
    5000001    1    1    2    0    0  0.66279005943E+03 -0.15269629456E+03  0.48480190039E+03  0.87185991069E+03  0.25000000000E+03 0.  0.
<mgrwt>
<rscale>  0 0.14660233E+04</rscale>
<asrwt>0</asrwt>
<pdfrwt beam="1">  1        2 0.51749738E-01 0.14660233E+04</pdfrwt>
<pdfrwt beam="2">  1       -2 0.24574623E+00 0.14660233E+04</pdfrwt>
<totfact> 0.63914141E+00</totfact>
</mgrwt>
</event>
<event>
 4    1  0.1751735E-005  0.8690416E+03  0.7818608E-02  0.9465130E-01
          2   -1    0    0  501    0  0.00000000000E+00  0.00000000000E+00  0.20583934676E+04  0.20583934676E+04  0.25500000000E-02 0.  1.
         -2   -1    0    0    0  501 -0.00000000000E+00 -0.00000000000E+00 -0.91726067842E+02  0.91726067878E+02  0.25500000000E-02 0. -1.
   -5000001    1    1    2    0    0  0.14113962606E+03 -0.28821414496E+03  0.60550805521E+03  0.72947089889E+03  0.25000000000E+03 0.  0.
    5000001    1    1    2    0    0 -0.14113962606E+03  0.28821414496E+03  0.13611593445E+04  0.14206486366E+04  0.25000000000E+03 0.  0.
<mgrwt>
<rscale>  0 0.86904163E+03</rscale>
<asrwt>0</asrwt>
<pdfrwt beam="1">  1        2 0.31667591E+00 0.86904163E+03</pdfrwt>
<pdfrwt beam="2">  1       -2 0.14111703E-01 0.86904163E+03</pdfrwt>
<totfact> 0.24446437E+02</totfact>
</mgrwt>
</event>
<event>
 4    1  0.1751735E-005  0.6591348E+03  0.7818608E-02  0.9789788E-01
          2   -1    0    0  501    0  0.00000000000E+00  0.00000000000E+00  0.76264846750E+03  0.76264846751E+03  0.25500000000E-02 0.  1.
         -2   -1    0    0    0  501 -0.00000000000E+00 -0.00000000000E+00 -0.14241775028E+03  0.14241775030E+03  0.25500000000E-02 0. -1.
   -5000001    1    1    2    0    0  0.77184804680E+02  0.19550150801E+03  0.37053769309E+03  0.49393978956E+03  0.25000000000E+03 0.  0.
    5000001    1    1    2    0    0 -0.77184804680E+02 -0.19550150801E+03  0.24969302413E+03  0.41112642825E+03  0.25000000000E+03 0.  0.
<mgrwt>
<rscale>  0 0.65913482E+03</rscale>
<asrwt>0</asrwt>
<pdfrwt beam="1">  1        2 0.11733053E+00 0.65913482E+03</pdfrwt>
<pdfrwt beam="2">  1       -2 0.21910423E-01 0.65913482E+03</pdfrwt>
<totfact> 0.67028690E+02</totfact>
</mgrwt>
</event>
<event>
 4    1  0.1751735E-005  0.9165423E+03  0.7818608E-02  0.9405136E-01
         -2   -1    0    0    0  501 -0.00000000000E+00  0.00000000000E+00  0.23195714056E+03  0.23195714058E+03  0.25500000000E-02 0. -1.
          2   -1    0    0  501    0  0.00000000000E+00 -0.00000000000E+00 -0.90539341556E+03  0.90539341557E+03  0.25500000000E-02 0.  1.
   -5000001    1    1    2    0    0 -0.33762182397E+03  0.17527704170E+03 -0.40240378438E+03  0.60756838549E+03  0.25000000000E+03 0.  0.
    5000001    1    1    2    0    0  0.33762182397E+03 -0.17527704170E+03 -0.27103249062E+03  0.52978217065E+03  0.25000000000E+03 0.  0.
<mgrwt>
<rscale>  0 0.91654235E+03</rscale>
<asrwt>0</asrwt>
<pdfrwt beam="1">  1        2 0.13929129E+00 0.91654235E+03</pdfrwt>
<pdfrwt beam="2">  1       -2 0.35685714E-01 0.91654235E+03</pdfrwt>
<totfact> 0.21482586E+02</totfact>
</mgrwt>
</event>
<event>
 4    1  0.1751735E-005  0.1114308E+04  0.7818608E-02  0.9191358E-01
          2   -1    0    0  501    0  0.00000000000E+00  0.00000000000E+00  0.77864740150E+03  0.77864740151E+03  0.25500000000E-02 0.  1.
         -2   -1    0    0    0  501 -0.00000000000E+00 -0.00000000000E+00 -0.39866608685E+03  0.39866608686E+03  0.25500000000E-02 0. -1.
   -5000001    1    1    2    0    0  0.27960297224E+03  0.40563956423E+03  0.11380935273E+03  0.56406900900E+03  0.25000000000E+03 0.  0.
    5000001    1    1    2    0    0 -0.27960297224E+03 -0.40563956423E+03  0.26617196192E+03  0.61324447936E+03  0.25000000000E+03 0.  0.
<mgrwt>
<rscale>  0 0.11143075E+04</rscale>
<asrwt>0</asrwt>
<pdfrwt beam="1">  1        2 0.11979191E+00 0.11143075E+04</pdfrwt>
<pdfrwt beam="2">  1       -2 0.61333244E-01 0.11143075E+04</pdfrwt>
<totfact> 0.87588770E+01</totfact>
</mgrwt>
</event>
<event>
 4    1  0.1751735E-005  0.6671525E+03  0.7818608E-02  0.9775116E-01
         -2   -1    0    0    0  501 -0.00000000000E+00  0.00000000000E+00  0.13816650328E+03  0.13816650331E+03  0.25500000000E-02 0. -1.
          2   -1    0    0  501    0  0.00000000000E+00 -0.00000000000E+00 -0.80535521332E+03  0.80535521332E+03  0.25500000000E-02 0.  1.
   -5000001    1    1    2    0    0  0.42697413529E+02 -0.20144884395E+03 -0.22073378997E+03  0.39195422167E+03  0.25000000000E+03 0.  0.
    5000001    1    1    2    0    0 -0.42697413529E+02  0.20144884395E+03 -0.44645492006E+03  0.55156749496E+03  0.25000000000E+03 0.  0.
<mgrwt>
<rscale>  0 0.66715250E+03</rscale>
<asrwt>0</asrwt>
<pdfrwt beam="1">  1        2 0.12390080E+00 0.66715250E+03</pdfrwt>
<pdfrwt beam="2">  1       -2 0.21256386E-01 0.66715250E+03</pdfrwt>
<totfact> 0.65825639E+02</totfact>
</mgrwt>
</event>
<event>
 4    1  0.1751735E-005  0.7606777E+03  0.7818608E-02  0.9618746E-01
         -2   -1    0    0    0  501 -0.00000000000E+00  0.00000000000E+00  0.10925225160E+03  0.10925225163E+03  0.25500000000E-02 0. -1.
          2   -1    0    0  501    0  0.00000000000E+00 -0.00000000000E+00 -0.13240701364E+04  0.13240701364E+04  0.25500000000E-02 0.  1.
   -5000001    1    1    2    0    0 -0.20710287947E+03 -0.19406363437E+03 -0.68290558384E+03  0.78064866189E+03  0.25000000000E+03 0.  0.
    5000001    1    1    2    0    0  0.20710287947E+03  0.19406363437E+03 -0.53191230093E+03  0.65267372610E+03  0.25000000000E+03 0.  0.
<mgrwt>
<rscale>  0 0.76067771E+03</rscale>
<asrwt>0</asrwt>
<pdfrwt beam="1">  1        2 0.20370309E+00 0.76067771E+03</pdfrwt>
<pdfrwt beam="2">  1       -2 0.16808040E-01 0.76067771E+03</pdfrwt>
<totfact> 0.46605959E+02</totfact>
</mgrwt>
</event>
<event>
 4    1  0.1751735E-005  0.1013018E+04  0.7818608E-02  0.9294381E-01
          2   -1    0    0  501    0  0.00000000000E+00  0.00000000000E+00  0.12836912142E+04  0.12836912142E+04  0.25500000000E-02 0.  1.
         -2   -1    0    0    0  501 -0.00000000000E+00 -0.00000000000E+00 -0.19985437038E+03  0.19985437040E+03  0.25500000000E-02 0. -1.
   -5000001    1    1    2    0    0 -0.25437380898E+03 -0.34000670378E+03  0.37025082985E+03  0.61635725867E+03  0.25000000000E+03 0.  0.
    5000001    1    1    2    0    0  0.25437380898E+03  0.34000670378E+03  0.71358601396E+03  0.86718832593E+03  0.25000000000E+03 0.  0.
<mgrwt>
<rscale>  0 0.10130179E+04</rscale>
<asrwt>0</asrwt>
<pdfrwt beam="1">  1        2 0.19749096E+00 0.10130179E+04</pdfrwt>
<pdfrwt beam="2">  1       -2 0.30746826E-01 0.10130179E+04</pdfrwt>
<totfact> 0.16488872E+02</totfact>
</mgrwt>
</event>
<event>
 4    1  0.1751735E-005  0.1022590E+04  0.7818608E-02  0.9284109E-01
          2   -1    0    0  501    0  0.00000000000E+00  0.00000000000E+00  0.10917622681E+04  0.10917622681E+04  0.25500000000E-02 0.  1.
         -2   -1    0    0    0  501 -0.00000000000E+00 -0.00000000000E+00 -0.23945018639E+03  0.23945018640E+03  0.25500000000E-02 0. -1.
   -5000001    1    1    2    0    0 -0.29772786266E+03 -0.19820116388E+03  0.79286598562E+02  0.44352220494E+03  0.25000000000E+03 0.  0.
    5000001    1    1    2    0    0  0.29772786266E+03  0.19820116388E+03  0.77302548316E+03  0.88769024957E+03  0.25000000000E+03 0.  0.
<mgrwt>
<rscale>  0 0.10225902E+04</rscale>
<asrwt>0</asrwt>
<pdfrwt beam="1">  1        2 0.16796343E+00 0.10225902E+04</pdfrwt>
<pdfrwt beam="2">  1       -2 0.36838490E-01 0.10225902E+04</pdfrwt>
<totfact> 0.15243294E+02</totfact>
</mgrwt>
</event>
<event>
 4    1  0.1751735E-005  0.8162979E+03  0.7818608E-02  0.9536722E-01
         -2   -1    0    0    0  501 -0.00000000000E+00  0.00000000000E+00  0.59291857561E+03  0.59291857561E+03  0.25500000000E-02 0. -1.
          2   -1    0    0  501    0  0.00000000000E+00 -0.00000000000E+00 -0.28095858542E+03  0.28095858543E+03  0.25500000000E-02 0.  1.
   -5000001    1    1    2    0    0 -0.12894231195E+03 -0.29498933252E+03  0.13350539136E+03  0.42891551106E+03  0.25000000000E+03 0.  0.
    5000001    1    1    2    0    0  0.12894231195E+03  0.29498933252E+03  0.17845459883E+03  0.44496164998E+03  0.25000000000E+03 0.  0.
<mgrwt>
<rscale>  0 0.81629790E+03</rscale>
<asrwt>0</asrwt>
<pdfrwt beam="1">  1        2 0.43224398E-01 0.81629790E+03</pdfrwt>
<pdfrwt beam="2">  1       -2 0.91218243E-01 0.81629790E+03</pdfrwt>
<totfact> 0.12183927E+02</totfact>
</mgrwt>
</event>
<event>
 4    1  0.1751735E-005  0.7348862E+03  0.7818608E-02  0.9659364E-01
          2   -1    0    0  501    0  0.00000000000E+00  0.00000000000E+00  0.10360404099E+04  0.10360404099E+04  0.25500000000E-02 0. -1.
         -2   -1    0    0    0  501 -0.00000000000E+00 -0.00000000000E+00 -0.13031771851E+03  0.13031771853E+03  0.25500000000E-02 0.  1.
   -5000001    1    1    2    0    0 -0.48366500832E+02  0.22589553663E+03  0.23325019195E+03  0.41264241653E+03  0.25000000000E+03 0.  0.
    5000001    1    1    2    0    0  0.48366500832E+02 -0.22589553663E+03  0.67247249945E+03  0.75371571192E+03  0.25000000000E+03 0.  0.
<mgrwt>
<rscale>  0 0.73488617E+03</rscale>
<asrwt>0</asrwt>
<pdfrwt beam="1">  1        2 0.15939083E+00 0.73488617E+03</pdfrwt>
<pdfrwt beam="2">  1       -2 0.20048880E-01 0.73488617E+03</pdfrwt>
<totfact> 0.51094904E+02</totfact>
</mgrwt>
</event>
<event>
 4    1  0.1751735E-005  0.6227326E+03  0.7818608E-02  0.9859334E-01
          2   -1    0    0  501    0  0.00000000000E+00  0.00000000000E+00  0.21618803812E+03  0.21618803814E+03  0.25500000000E-02 0.  1.
         -2   -1    0    0    0  501 -0.00000000000E+00 -0.00000000000E+00 -0.44844745212E+03  0.44844745213E+03  0.25500000000E-02 0. -1.
   -5000001    1    1    2    0    0 -0.11785120153E+03  0.14326769662E+03 -0.10986659669E+03  0.33012907728E+03  0.25000000000E+03 0.  0.
    5000001    1    1    2    0    0  0.11785120153E+03 -0.14326769662E+03 -0.12239281731E+03  0.33450641298E+03  0.25000000000E+03 0.  0.
<mgrwt>
<rscale>  0 0.62273261E+03</rscale>
<asrwt>0</asrwt>
<pdfrwt beam="1">  1        2 0.33259698E-01 0.62273261E+03</pdfrwt>
<pdfrwt beam="2">  1       -2 0.68991916E-01 0.62273261E+03</pdfrwt>
<totfact> 0.30709413E+02</totfact>
</mgrwt>
</event>
<event>
 4    1  0.1751735E-005  0.6266740E+03  0.7818608E-02  0.9851561E-01
          2   -1    0    0  501    0  0.00000000000E+00  0.00000000000E+00  0.10034231580E+04  0.10034231580E+04  0.25500000000E-02 0.  1.
         -2   -1    0    0    0  501 -0.00000000000E+00 -0.00000000000E+00 -0.97845127671E+02  0.97845127704E+02  0.25500000000E-02 0. -1.
   -5000001    1    1    2    0    0  0.13691570952E+03 -0.13013122504E+03  0.45303618568E+03  0.55083739232E+03  0.25000000000E+03 0.  0.
    5000001    1    1    2    0    0 -0.13691570952E+03  0.13013122504E+03  0.45254184469E+03  0.55043089342E+03  0.25000000000E+03 0.  0.
<mgrwt>
<rscale>  0 0.62667397E+03</rscale>
<asrwt>0</asrwt>
<pdfrwt beam="1">  1        2 0.15437279E+00 0.62667397E+03</pdfrwt>
<pdfrwt beam="2">  1       -2 0.15053097E-01 0.62667397E+03</pdfrwt>
<totfact> 0.87972328E+02</totfact>
</mgrwt>
</event>
<event>
 4    1  0.1751735E-005  0.5460469E+03  0.7818608E-02  0.1002413E+00
          2   -1    0    0  501    0  0.00000000000E+00  0.00000000000E+00  0.83925780599E+03  0.83925780600E+03  0.25500000000E-02 0.  1.
         -2   -1    0    0    0  501 -0.00000000000E+00 -0.00000000000E+00 -0.88818724261E+02  0.88818724298E+02  0.25500000000E-02 0. -1.
   -5000001    1    1    2    0    0 -0.14164989875E+02 -0.60932045429E+02  0.52845441364E+03  0.58794338877E+03  0.25000000000E+03 0.  0.
    5000001    1    1    2    0    0  0.14164989875E+02  0.60932045429E+02  0.22198466809E+03  0.34013314153E+03  0.25000000000E+03 0.  0.
<mgrwt>
<rscale>  0 0.54604691E+03</rscale>
<asrwt>0</asrwt>
<pdfrwt beam="1">  1        2 0.12911658E+00 0.54604691E+03</pdfrwt>
<pdfrwt beam="2">  1       -2 0.13664419E-01 0.54604691E+03</pdfrwt>
<totfact> 0.13302648E+03</totfact>
</mgrwt>
</event>
<event>
 4    1  0.1751735E-005  0.7474143E+03  0.7818608E-02  0.9639416E-01
          2   -1    0    0  501    0  0.00000000000E+00  0.00000000000E+00  0.31786131929E+03  0.31786131930E+03  0.25500000000E-02 0.  1.
         -2   -1    0    0    0  501 -0.00000000000E+00 -0.00000000000E+00 -0.43936462694E+03  0.43936462695E+03  0.25500000000E-02 0. -1.
   -5000001    1    1    2    0    0 -0.20128880708E+03 -0.19140861099E+03 -0.62378901522E+02  0.37887407878E+03  0.25000000000E+03 0.  0.
    5000001    1    1    2    0    0  0.20128880708E+03  0.19140861099E+03 -0.59124406128E+02  0.37835186747E+03  0.25000000000E+03 0.  0.
<mgrwt>
<rscale>  0 0.74741426E+03</rscale>
<asrwt>0</asrwt>
<pdfrwt beam="1">  1        2 0.48901742E-01 0.74741426E+03</pdfrwt>
<pdfrwt beam="2">  1       -2 0.67594558E-01 0.74741426E+03</pdfrwt>
<totfact> 0.20834951E+02</totfact>
</mgrwt>
</event>
<event>
 4    1  0.1751735E-005  0.8024267E+03  0.7818608E-02  0.9556511E-01
          2   -1    0    0  501    0  0.00000000000E+00  0.00000000000E+00  0.31246133277E+04  0.31246133277E+04  0.25500000000E-02 0.  1.
         -2   -1    0    0    0  501 -0.00000000000E+00 -0.00000000000E+00 -0.51517457673E+02  0.51517457736E+02  0.25500000000E-02 0. -1.
   -5000001    1    1    2    0    0 -0.17705971938E+03  0.25566164186E+03  0.13705356524E+04  0.14274386130E+04  0.25000000000E+03 0.  0.
    5000001    1    1    2    0    0  0.17705971938E+03 -0.25566164186E+03  0.17025602176E+04  0.17486921724E+04  0.25000000000E+03 0.  0.
<mgrwt>
<rscale>  0 0.80242666E+03</rscale>
<asrwt>0</asrwt>
<pdfrwt beam="1">  1        2 0.48070962E+00 0.80242666E+03</pdfrwt>
<pdfrwt beam="2">  1       -2 0.79257647E-02 0.80242666E+03</pdfrwt>
<totfact> 0.15270515E+02</totfact>
</mgrwt>
</event>
<event>
 4    1  0.1751735E-005  0.7652968E+03  0.7818608E-02  0.9611653E-01
         -2   -1    0    0    0  501 -0.00000000000E+00  0.00000000000E+00  0.44900543004E+02  0.44900543076E+02  0.25500000000E-02 0. -1.
          2   -1    0    0  501    0  0.00000000000E+00 -0.00000000000E+00 -0.32609806391E+04  0.32609806391E+04  0.25500000000E-02 0.  1.
   -5000001    1    1    2    0    0 -0.19803891177E+03 -0.20078645391E+03 -0.13219837003E+04  0.13746546892E+04  0.25000000000E+03 0.  0.
    5000001    1    1    2    0    0  0.19803891177E+03  0.20078645391E+03 -0.18940963957E+04  0.19312264929E+04  0.25000000000E+03 0.  0.
<mgrwt>
<rscale>  0 0.76529681E+03</rscale>
<asrwt>0</asrwt>
<pdfrwt beam="1">  1        2 0.50168914E+00 0.76529681E+03</pdfrwt>
<pdfrwt beam="2">  1       -2 0.69077784E-02 0.76529681E+03</pdfrwt>
<totfact> 0.15635791E+02</totfact>
</mgrwt>
</event>
<event>
 4    1  0.1751735E-005  0.1060664E+04  0.7818608E-02  0.9244403E-01
         -2   -1    0    0    0  501 -0.00000000000E+00  0.00000000000E+00  0.12309159112E+03  0.12309159115E+03  0.25500000000E-02 0. -1.
          2   -1    0    0  501    0  0.00000000000E+00 -0.00000000000E+00 -0.22848991043E+04  0.22848991043E+04  0.25500000000E-02 0.  1.
   -5000001    1    1    2    0    0  0.37231498676E+03 -0.27409366497E+03 -0.12415335075E+04  0.13482029657E+04  0.25000000000E+03 0.  0.
    5000001    1    1    2    0    0 -0.37231498676E+03  0.27409366497E+03 -0.92027400566E+03  0.10597877297E+04  0.25000000000E+03 0.  0.
<mgrwt>
<rscale>  0 0.10606637E+04</rscale>
<asrwt>0</asrwt>
<pdfrwt beam="1">  1        2 0.35152291E+00 0.10606637E+04</pdfrwt>
<pdfrwt beam="2">  1       -2 0.18937170E-01 0.10606637E+04</pdfrwt>
<totfact> 0.10892521E+02</totfact>
</mgrwt>
</event>
<event>
 4    1  0.1751735E-005  0.9417036E+03  0.7818608E-02  0.9374901E-01
          2   -1    0    0  501    0  0.00000000000E+00  0.00000000000E+00  0.10948941503E+04  0.10948941503E+04  0.25500000000E-02 0.  1.
         -2   -1    0    0    0  501 -0.00000000000E+00 -0.00000000000E+00 -0.20248663896E+03  0.20248663898E+03  0.25500000000E-02 0. -1.
   -5000001    1    1    2    0    0  0.23805850438E+03  0.27879387397E+03  0.22922848919E+03  0.49944326597E+03  0.25000000000E+03 0.  0.
    5000001    1    1    2    0    0 -0.23805850438E+03 -0.27879387397E+03  0.66317902210E+03  0.79793752326E+03  0.25000000000E+03 0.  0.
<mgrwt>
<rscale>  0 0.94170364E+03</rscale>
<asrwt>0</asrwt>
<pdfrwt beam="1">  1        2 0.16844526E+00 0.94170364E+03</pdfrwt>
<pdfrwt beam="2">  1       -2 0.31151790E-01 0.94170364E+03</pdfrwt>
<totfact> 0.20959921E+02</totfact>
</mgrwt>
</event>
<event>
 4    1  0.1751735E-005  0.6711691E+03  0.7818608E-02  0.9767848E-01
         -2   -1    0    0    0  501 -0.00000000000E+00  0.00000000000E+00  0.62812672165E+02  0.62812672217E+02  0.25500000000E-02 0. -1.
          2   -1    0    0  501    0  0.00000000000E+00 -0.00000000000E+00 -0.17929024143E+04  0.17929024143E+04  0.25500000000E-02 0.  1.
   -5000001    1    1    2    0    0 -0.19251708228E+03 -0.61387488683E+02 -0.59861211190E+03  0.67946133904E+03  0.25000000000E+03 0.  0.
    5000001    1    1    2    0    0  0.19251708228E+03  0.61387488683E+02 -0.11314776302E+04  0.11762537474E+04  0.25000000000E+03 0.  0.
<mgrwt>
<rscale>  0 0.67116910E+03</rscale>
<asrwt>0</asrwt>
<pdfrwt beam="1">  1        2 0.27583110E+00 0.67116910E+03</pdfrwt>
<pdfrwt beam="2">  1       -2 0.96634894E-02 0.67116910E+03</pdfrwt>
<totfact> 0.64665518E+02</totfact>
</mgrwt>
</event>
<event>
 4    1  0.1751735E-005  0.8303134E+03  0.7818608E-02  0.9517147E-01
          2   -1    0    0  501    0  0.00000000000E+00  0.00000000000E+00  0.27467454256E+04  0.27467454257E+04  0.25500000000E-02 0.  1.
         -2   -1    0    0    0  501 -0.00000000000E+00 -0.00000000000E+00 -0.62748846012E+02  0.62748846064E+02  0.25500000000E-02 0. -1.
   -5000001    1    1    2    0    0  0.32956933922E+03  0.19309071271E+02  0.12424063240E+04  0.13096038575E+04  0.25000000000E+03 0.  0.
    5000001    1    1    2    0    0 -0.32956933922E+03 -0.19309071271E+02  0.14415902556E+04  0.14998904142E+04  0.25000000000E+03 0.  0.
<mgrwt>
<rscale>  0 0.83031345E+03</rscale>
<asrwt>0</asrwt>
<pdfrwt beam="1">  1        2 0.42257621E+00 0.83031345E+03</pdfrwt>
<pdfrwt beam="2">  1       -2 0.96536688E-02 0.83031345E+03</pdfrwt>
<totfact> 0.18775581E+02</totfact>
</mgrwt>
</event>
<event>
 4    1  0.1751735E-005  0.6760330E+03  0.7818608E-02  0.9759120E-01
         -2   -1    0    0    0  501 -0.00000000000E+00  0.00000000000E+00  0.17980991725E+03  0.17980991727E+03  0.25500000000E-02 0. -1.
          2   -1    0    0  501    0  0.00000000000E+00 -0.00000000000E+00 -0.63542190877E+03  0.63542190877E+03  0.25500000000E-02 0.  1.
   -5000001    1    1    2    0    0  0.14980008803E+03  0.14916125297E+03 -0.12643808462E+03  0.35096400813E+03  0.25000000000E+03 0.  0.
    5000001    1    1    2    0    0 -0.14980008803E+03 -0.14916125297E+03 -0.32917390689E+03  0.46426781790E+03  0.25000000000E+03 0.  0.
<mgrwt>
<rscale>  0 0.67603302E+03</rscale>
<asrwt>0</asrwt>
<pdfrwt beam="1">  1        2 0.97757215E-01 0.67603302E+03</pdfrwt>
<pdfrwt beam="2">  1       -2 0.27663065E-01 0.67603302E+03</pdfrwt>
<totfact> 0.55425968E+02</totfact>
</mgrwt>
</event>
<event>
 4    1  0.1751735E-005  0.7887784E+03  0.7818608E-02  0.9576403E-01
          2   -1    0    0  501    0  0.00000000000E+00  0.00000000000E+00  0.97338098389E+03  0.97338098390E+03  0.25500000000E-02 0. -1.
         -2   -1    0    0    0  501 -0.00000000000E+00 -0.00000000000E+00 -0.15979646548E+03  0.15979646550E+03  0.25500000000E-02 0.  1.
   -5000001    1    1    2    0    0  0.89954187781E+02  0.22400047102E+03  0.67469409908E+03  0.75893352427E+03  0.25000000000E+03 0.  0.
    5000001    1    1    2    0    0 -0.89954187781E+02 -0.22400047102E+03  0.13889041933E+03  0.37424392513E+03  0.25000000000E+03 0.  0.
<mgrwt>
<rscale>  0 0.78877840E+03</rscale>
<asrwt>0</asrwt>
<pdfrwt beam="1">  1        2 0.14975092E+00 0.78877840E+03</pdfrwt>
<pdfrwt beam="2">  1       -2 0.24584072E-01 0.78877840E+03</pdfrwt>
<totfact> 0.38914648E+02</totfact>
</mgrwt>
</event>
<event>
 4    1  0.1751735E-005  0.6121366E+03  0.7818608E-02  0.9880542E-01
         -2   -1    0    0    0  501 -0.00000000000E+00  0.00000000000E+00  0.89610783608E+03  0.89610783608E+03  0.25500000000E-02 0. -1.
          2   -1    0    0  501    0  0.00000000000E+00 -0.00000000000E+00 -0.10453854638E+03  0.10453854641E+03  0.25500000000E-02 0.  1.
   -5000001    1    1    2    0    0  0.60509405572E+02  0.13990094511E+03  0.54148343013E+03  0.61557937564E+03  0.25000000000E+03 0.  0.
    5000001    1    1    2    0    0 -0.60509405572E+02 -0.13990094511E+03  0.25008585958E+03  0.38506700685E+03  0.25000000000E+03 0.  0.
<mgrwt>
<rscale>  0 0.61213662E+03</rscale>
<asrwt>0</asrwt>
<pdfrwt beam="1">  1        2 0.16082853E-01 0.61213662E+03</pdfrwt>
<pdfrwt beam="2">  1       -2 0.13786275E+00 0.61213662E+03</pdfrwt>
<totfact> 0.13979851E+02</totfact>
</mgrwt>
</event>
<event>
 4    1  0.1751735E-005  0.6007369E+03  0.7818608E-02  0.9903878E-01
         -2   -1    0    0    0  501 -0.00000000000E+00  0.00000000000E+00  0.23145972821E+03  0.23145972823E+03  0.25500000000E-02 0. -1.
          2   -1    0    0  501    0  0.00000000000E+00 -0.00000000000E+00 -0.38979222709E+03  0.38979222710E+03  0.25500000000E-02 0.  1.
   -5000001    1    1    2    0    0 -0.16373730874E+03  0.15952695607E+02 -0.10566971968E+03  0.31738066171E+03  0.25000000000E+03 0.  0.
    5000001    1    1    2    0    0  0.16373730874E+03 -0.15952695607E+02 -0.52662779201E+02  0.30387129362E+03  0.25000000000E+03 0.  0.
<mgrwt>
<rscale>  0 0.60073689E+03</rscale>
<asrwt>0</asrwt>
<pdfrwt beam="1">  1        2 0.59968035E-01 0.60073689E+03</pdfrwt>
<pdfrwt beam="2">  1       -2 0.35609189E-01 0.60073689E+03</pdfrwt>
<totfact> 0.61086435E+02</totfact>
</mgrwt>
</event>
<event>
 4    1  0.1751735E-005  0.6043089E+03  0.7818608E-02  0.9896506E-01
         -2   -1    0    0    0  501 -0.00000000000E+00  0.00000000000E+00  0.77823802160E+02  0.77823802202E+02  0.25500000000E-02 0. -1.
          2   -1    0    0  501    0  0.00000000000E+00 -0.00000000000E+00 -0.11731285448E+04  0.11731285448E+04  0.25500000000E-02 0.  1.
   -5000001    1    1    2    0    0  0.73825718449E+02  0.96776213722E+02 -0.79242219673E+03  0.83979093239E+03  0.25000000000E+03 0.  0.
    5000001    1    1    2    0    0 -0.73825718449E+02 -0.96776213722E+02 -0.30288254587E+03  0.41116141458E+03  0.25000000000E+03 0.  0.
<mgrwt>
<rscale>  0 0.60430894E+03</rscale>
<asrwt>0</asrwt>
<pdfrwt beam="1">  1        2 0.18048130E+00 0.60430894E+03</pdfrwt>
<pdfrwt beam="2">  1       -2 0.11972894E-01 0.60430894E+03</pdfrwt>
<totfact> 0.10154178E+03</totfact>
</mgrwt>
</event>
<event>
 4    1  0.1751735E-005  0.7167843E+03  0.7818608E-02  0.9688952E-01
          2   -1    0    0  501    0  0.00000000000E+00  0.00000000000E+00  0.63661536310E+03  0.63661536311E+03  0.25500000000E-02 0.  1.
         -2   -1    0    0    0  501 -0.00000000000E+00 -0.00000000000E+00 -0.20176223875E+03  0.20176223877E+03  0.25500000000E-02 0. -1.
   -5000001    1    1    2    0    0  0.18231691057E+03 -0.18082148709E+03  0.21390309595E+03  0.41736123506E+03  0.25000000000E+03 0.  0.
    5000001    1    1    2    0    0 -0.18231691057E+03  0.18082148709E+03  0.22095002840E+03  0.42101636681E+03  0.25000000000E+03 0.  0.
<mgrwt>
<rscale>  0 0.71678432E+03</rscale>
<asrwt>0</asrwt>
<pdfrwt beam="1">  1        2 0.97940824E-01 0.71678432E+03</pdfrwt>
<pdfrwt beam="2">  1       -2 0.31040345E-01 0.71678432E+03</pdfrwt>
<totfact> 0.44650074E+02</totfact>
</mgrwt>
</event>
<event>
 4    1  0.1751735E-005  0.5460641E+03  0.7818608E-02  0.1002409E+00
         -2   -1    0    0    0  501 -0.00000000000E+00  0.00000000000E+00  0.33871028196E+02  0.33871028292E+02  0.25500000000E-02 0. -1.
          2   -1    0    0  501    0  0.00000000000E+00 -0.00000000000E+00 -0.22008924790E+04  0.22008924790E+04  0.25500000000E-02 0.  1.
   -5000001    1    1    2    0    0 -0.10463537947E+03  0.22912232323E+02 -0.98555056733E+03  0.10223910474E+04  0.25000000000E+03 0.  0.
    5000001    1    1    2    0    0  0.10463537947E+03 -0.22912232323E+02 -0.11814708835E+04  0.12123724599E+04  0.25000000000E+03 0.  0.
<mgrwt>
<rscale>  0 0.54606407E+03</rscale>
<asrwt>0</asrwt>
<pdfrwt beam="1">  1        2 0.33859873E+00 0.54606407E+03</pdfrwt>
<pdfrwt beam="2">  1       -2 0.52109292E-02 0.54606407E+03</pdfrwt>
<totfact> 0.10414401E+03</totfact>
</mgrwt>
</event>
<event>
 4    1  0.1751735E-005  0.6317878E+03  0.7818608E-02  0.9841566E-01
          2   -1    0    0  501    0  0.00000000000E+00  0.00000000000E+00  0.70705496821E+03  0.70705496821E+03  0.25500000000E-02 0.  1.
         -2   -1    0    0    0  501 -0.00000000000E+00 -0.00000000000E+00 -0.14113322044E+03  0.14113322046E+03  0.25500000000E-02 0. -1.
   -5000001    1    1    2    0    0 -0.41683015774E+02  0.18803401216E+03  0.30169282366E+03  0.43659228507E+03  0.25000000000E+03 0.  0.
    5000001    1    1    2    0    0  0.41683015774E+02 -0.18803401216E+03  0.26422892411E+03  0.41159590361E+03  0.25000000000E+03 0.  0.
<mgrwt>
<rscale>  0 0.63178776E+03</rscale>
<asrwt>0</asrwt>
<pdfrwt beam="1">  1        2 0.10877769E+00 0.63178776E+03</pdfrwt>
<pdfrwt beam="2">  1       -2 0.21712803E-01 0.63178776E+03</pdfrwt>
<totfact> 0.75073164E+02</totfact>
</mgrwt>
</event>
<event>
 4    1  0.1751735E-005  0.8914435E+03  0.7818608E-02  0.9436341E-01
          2   -1    0    0  501    0  0.00000000000E+00  0.00000000000E+00  0.60648153378E+03  0.60648153378E+03  0.25500000000E-02 0.  1.
         -2   -1    0    0    0  501 -0.00000000000E+00 -0.00000000000E+00 -0.32757446890E+03  0.32757446891E+03  0.25500000000E-02 0. -1.
   -5000001    1    1    2    0    0  0.30555982049E+03 -0.13693640123E+03  0.30194553529E+03  0.51554775546E+03  0.25000000000E+03 0.  0.
    5000001    1    1    2    0    0 -0.30555982049E+03  0.13693640123E+03 -0.23038470406E+02  0.41850824723E+03  0.25000000000E+03 0.  0.
<mgrwt>
<rscale>  0 0.89144347E+03</rscale>
<asrwt>0</asrwt>
<pdfrwt beam="1">  1        2 0.93304849E-01 0.89144347E+03</pdfrwt>
<pdfrwt beam="2">  1       -2 0.50396073E-01 0.89144347E+03</pdfrwt>
<totfact> 0.18296711E+02</totfact>
</mgrwt>
</event>
<event>
 4    1  0.1751735E-005  0.7529220E+03  0.7818608E-02  0.9630777E-01
         -2   -1    0    0    0  501 -0.00000000000E+00  0.00000000000E+00  0.86393458093E+02  0.86393458131E+02  0.25500000000E-02 0. -1.
          2   -1    0    0  501    0  0.00000000000E+00 -0.00000000000E+00 -0.16404354754E+04  0.16404354754E+04  0.25500000000E-02 0.  1.
   -5000001    1    1    2    0    0  0.24934675121E+03 -0.13339092107E+02 -0.10749218882E+04  0.11315073131E+04  0.25000000000E+03 0.  0.
    5000001    1    1    2    0    0 -0.24934675121E+03  0.13339092107E+02 -0.47912012909E+03  0.59532162048E+03  0.25000000000E+03 0.  0.
<mgrwt>
<rscale>  0 0.75292202E+03</rscale>
<asrwt>0</asrwt>
<pdfrwt beam="1">  1        2 0.25237467E+00 0.75292202E+03</pdfrwt>
<pdfrwt beam="2">  1       -2 0.13291302E-01 0.75292202E+03</pdfrwt>
<totfact> 0.46140334E+02</totfact>
</mgrwt>
</event>
<event>
 4    1  0.1751735E-005  0.1501758E+04  0.7818608E-02  0.8883285E-01
         -2   -1    0    0    0  501 -0.00000000000E+00  0.00000000000E+00  0.59363327250E+03  0.59363327251E+03  0.25500000000E-02 0. -1.
          2   -1    0    0  501    0  0.00000000000E+00 -0.00000000000E+00 -0.94977685460E+03  0.94977685461E+03  0.25500000000E-02 0.  1.
   -5000001    1    1    2    0    0 -0.34630716069E+03  0.25402762863E+03  0.40044432720E+03  0.63821183383E+03  0.25000000000E+03 0.  0.
    5000001    1    1    2    0    0  0.34630716069E+03 -0.25402762863E+03 -0.75658790930E+03  0.90519829328E+03  0.25000000000E+03 0.  0.
<mgrwt>
<rscale>  0 0.15017578E+04</rscale>
<asrwt>0</asrwt>
<pdfrwt beam="1">  1        2 0.14611952E+00 0.15017578E+04</pdfrwt>
<pdfrwt beam="2">  1       -2 0.91328196E-01 0.15017578E+04</pdfrwt>
<totfact> 0.26810797E+01</totfact>
</mgrwt>
</event>
<event>
 4    1  0.1751735E-005  0.6615876E+03  0.7818608E-02  0.9785276E-01
          2   -1    0    0  501    0  0.00000000000E+00  0.00000000000E+00  0.42548335377E+03  0.42548335378E+03  0.25500000000E-02 0.  1.
         -2   -1    0    0    0  501 -0.00000000000E+00 -0.00000000000E+00 -0.25717699128E+03  0.25717699129E+03  0.25500000000E-02 0. -1.
   -5000001    1    1    2    0    0  0.20940510834E+03 -0.51927218656E+02  0.64102483227E+02  0.33638677708E+03  0.25000000000E+03 0.  0.
    5000001    1    1    2    0    0 -0.20940510834E+03  0.51927218656E+02  0.10420387926E+03  0.34627356799E+03  0.25000000000E+03 0.  0.
<mgrwt>
<rscale>  0 0.66158757E+03</rscale>
<asrwt>0</asrwt>
<pdfrwt beam="1">  1        2 0.65458977E-01 0.66158757E+03</pdfrwt>
<pdfrwt beam="2">  1       -2 0.39565691E-01 0.66158757E+03</pdfrwt>
<totfact> 0.45158456E+02</totfact>
</mgrwt>
</event>
<event>
 4    1  0.1751735E-005  0.7881253E+03  0.7818608E-02  0.9577366E-01
          2   -1    0    0  501    0  0.00000000000E+00  0.00000000000E+00  0.55469132953E+03  0.55469132953E+03  0.25500000000E-02 0.  1.
         -2   -1    0    0    0  501 -0.00000000000E+00 -0.00000000000E+00 -0.27994919005E+03  0.27994919006E+03  0.25500000000E-02 0. -1.
   -5000001    1    1    2    0    0  0.10002392201E+03 -0.28633734442E+03  0.16716566519E+03  0.42712787242E+03  0.25000000000E+03 0.  0.
    5000001    1    1    2    0    0 -0.10002392201E+03  0.28633734442E+03  0.10757647429E+03  0.40751264717E+03  0.25000000000E+03 0.  0.
<mgrwt>
<rscale>  0 0.78812534E+03</rscale>
<asrwt>0</asrwt>
<pdfrwt beam="1">  1        2 0.85337128E-01 0.78812534E+03</pdfrwt>
<pdfrwt beam="2">  1       -2 0.43069106E-01 0.78812534E+03</pdfrwt>
<totfact> 0.28042523E+02</totfact>
</mgrwt>
</event>
<event>
 4    1  0.1751735E-005  0.6870566E+03  0.7818608E-02  0.9739627E-01
         -2   -1    0    0    0  501 -0.00000000000E+00  0.00000000000E+00  0.14474502355E+03  0.14474502358E+03  0.25500000000E-02 0.  1.
          2   -1    0    0  501    0  0.00000000000E+00 -0.00000000000E+00 -0.81530749848E+03  0.81530749849E+03  0.25500000000E-02 0. -1.
   -5000001    1    1    2    0    0  0.18616902824E+03  0.60026397411E+02 -0.15175746822E+03  0.35184144813E+03  0.25000000000E+03 0.  0.
    5000001    1    1    2    0    0 -0.18616902824E+03 -0.60026397411E+02 -0.51880500671E+03  0.60821107393E+03  0.25000000000E+03 0.  0.
<mgrwt>
<rscale>  0 0.68705663E+03</rscale>
<asrwt>0</asrwt>
<pdfrwt beam="1">  1        2 0.12543192E+00 0.68705663E+03</pdfrwt>
<pdfrwt beam="2">  1       -2 0.22268466E-01 0.68705663E+03</pdfrwt>
<totfact> 0.59616902E+02</totfact>
</mgrwt>
</event>
<event>
 4    1  0.1751735E-005  0.7141422E+03  0.7818608E-02  0.9693348E-01
          2   -1    0    0  501    0  0.00000000000E+00  0.00000000000E+00  0.12649443413E+04  0.12649443413E+04  0.25500000000E-02 0.  1.
         -2   -1    0    0    0  501 -0.00000000000E+00 -0.00000000000E+00 -0.10079476441E+03  0.10079476444E+03  0.25500000000E-02 0. -1.
   -5000001    1    1    2    0    0  0.15550519321E+03  0.20043765896E+03  0.63055552181E+03  0.72419430150E+03  0.25000000000E+03 0.  0.
    5000001    1    1    2    0    0 -0.15550519321E+03 -0.20043765896E+03  0.53359405512E+03  0.64154480429E+03  0.25000000000E+03 0.  0.
<mgrwt>
<rscale>  0 0.71414219E+03</rscale>
<asrwt>0</asrwt>
<pdfrwt beam="1">  1        2 0.19460682E+00 0.71414219E+03</pdfrwt>
<pdfrwt beam="2">  1       -2 0.15506887E-01 0.71414219E+03</pdfrwt>
<totfact> 0.57968462E+02</totfact>
</mgrwt>
</event>
<event>
 4    1  0.1751735E-005  0.5446322E+03  0.7818608E-02  0.1002744E+00
         -2   -1    0    0    0  501 -0.00000000000E+00  0.00000000000E+00  0.62716440088E+02  0.62716440140E+02  0.25500000000E-02 0. -1.
          2   -1    0    0  501    0  0.00000000000E+00 -0.00000000000E+00 -0.11824022722E+04  0.11824022723E+04  0.25500000000E-02 0.  1.
   -5000001    1    1    2    0    0  0.58745988780E+02  0.73601970248E+02 -0.68054979442E+03  0.73110626034E+03  0.25000000000E+03 0.  0.
    5000001    1    1    2    0    0 -0.58745988780E+02 -0.73601970248E+02 -0.43913603774E+03  0.51401245205E+03  0.25000000000E+03 0.  0.
<mgrwt>
<rscale>  0 0.54463221E+03</rscale>
<asrwt>0</asrwt>
<pdfrwt beam="1">  1        2 0.18190803E+00 0.54463221E+03</pdfrwt>
<pdfrwt beam="2">  1       -2 0.96486840E-02 0.54463221E+03</pdfrwt>
<totfact> 0.14280056E+03</totfact>
</mgrwt>
</event>
<event>
 4    1  0.1751735E-005  0.8275403E+03  0.7818608E-02  0.9520987E-01
         -2   -1    0    0    0  501 -0.00000000000E+00  0.00000000000E+00  0.28905371046E+03  0.28905371047E+03  0.25500000000E-02 0. -1.
          2   -1    0    0  501    0  0.00000000000E+00 -0.00000000000E+00 -0.59229730976E+03  0.59229730976E+03  0.25500000000E-02 0.  1.
   -5000001    1    1    2    0    0 -0.28215995738E+03 -0.14235211401E+03 -0.25168523448E+03  0.47510401300E+03  0.25000000000E+03 0.  0.
    5000001    1    1    2    0    0  0.28215995738E+03  0.14235211401E+03 -0.51558364809E+02  0.40624700724E+03  0.25000000000E+03 0.  0.
<mgrwt>
<rscale>  0 0.82754030E+03</rscale>
<asrwt>0</asrwt>
<pdfrwt beam="1">  1        2 0.91122663E-01 0.82754030E+03</pdfrwt>
<pdfrwt beam="2">  1       -2 0.44469802E-01 0.82754030E+03</pdfrwt>
<totfact> 0.24295149E+02</totfact>
</mgrwt>
</event>
<event>
 4    1  0.1751735E-005  0.7412322E+03  0.7818608E-02  0.9649207E-01
         -2   -1    0    0    0  501 -0.00000000000E+00  0.00000000000E+00  0.16665035358E+03  0.16665035360E+03  0.25500000000E-02 0. -1.
          2   -1    0    0  501    0  0.00000000000E+00 -0.00000000000E+00 -0.82421834282E+03  0.82421834282E+03  0.25500000000E-02 0.  1.
   -5000001    1    1    2    0    0  0.21596383658E+03 -0.16296183221E+03 -0.38323797760E+03  0.53157152382E+03  0.25000000000E+03 0.  0.
    5000001    1    1    2    0    0 -0.21596383658E+03  0.16296183221E+03 -0.27433001165E+03  0.45929717260E+03  0.25000000000E+03 0.  0.
<mgrwt>
<rscale>  0 0.74123216E+03</rscale>
<asrwt>0</asrwt>
<pdfrwt beam="1">  1        2 0.12680282E+00 0.74123216E+03</pdfrwt>
<pdfrwt beam="2">  1       -2 0.25638516E-01 0.74123216E+03</pdfrwt>
<totfact> 0.45566484E+02</totfact>
</mgrwt>
</event>
<event>
 4    1  0.1751735E-005  0.1021406E+04  0.7818608E-02  0.9285373E-01
          2   -1    0    0  501    0  0.00000000000E+00  0.00000000000E+00  0.85284479093E+03  0.85284479093E+03  0.25500000000E-02 0.  1.
         -2   -1    0    0    0  501 -0.00000000000E+00 -0.00000000000E+00 -0.30582079954E+03  0.30582079955E+03  0.25500000000E-02 0. -1.
   -5000001    1    1    2    0    0 -0.59785079249E+02 -0.43538895395E+03  0.35515508093E+03  0.61787776173E+03  0.25000000000E+03 0.  0.
    5000001    1    1    2    0    0  0.59785079249E+02  0.43538895395E+03  0.19186891046E+03  0.54078782875E+03  0.25000000000E+03 0.  0.
<mgrwt>
<rscale>  0 0.10214062E+04</rscale>
<asrwt>0</asrwt>
<pdfrwt beam="1">  1        2 0.13120689E+00 0.10214062E+04</pdfrwt>
<pdfrwt beam="2">  1       -2 0.47049355E-01 0.10214062E+04</pdfrwt>
<totfact> 0.13488048E+02</totfact>
</mgrwt>
</event>
<event>
 4    1  0.1751735E-005  0.6264092E+03  0.7818608E-02  0.9852081E-01
         -2   -1    0    0    0  501 -0.00000000000E+00  0.00000000000E+00  0.91937407526E+02  0.91937407561E+02  0.25500000000E-02 0.  1.
          2   -1    0    0  501    0  0.00000000000E+00 -0.00000000000E+00 -0.10669988352E+04  0.10669988352E+04  0.25500000000E-02 0. -1.
   -5000001    1    1    2    0    0  0.39667611009E+02  0.12337934679E+03 -0.74121487834E+03  0.79290319614E+03  0.25000000000E+03 0.  0.
    5000001    1    1    2    0    0 -0.39667611009E+02 -0.12337934679E+03 -0.23384654930E+03  0.36603304659E+03  0.25000000000E+03 0.  0.
<mgrwt>
<rscale>  0 0.62640915E+03</rscale>
<asrwt>0</asrwt>
<pdfrwt beam="1">  1        2 0.16415366E+00 0.62640915E+03</pdfrwt>
<pdfrwt beam="2">  1       -2 0.14144217E-01 0.62640915E+03</pdfrwt>
<totfact> 0.89152914E+02</totfact>
</mgrwt>
</event>
<event>
 4    1  0.1751735E-005  0.6501138E+03  0.7818608E-02  0.9806566E-01
         -2   -1    0    0    0  501 -0.00000000000E+00  0.00000000000E+00  0.69186325485E+02  0.69186325532E+02  0.25500000000E-02 0.  1.
          2   -1    0    0  501    0  0.00000000000E+00 -0.00000000000E+00 -0.15272093237E+04  0.15272093237E+04  0.25500000000E-02 0. -1.
   -5000001    1    1    2    0    0 -0.35245734981E+02  0.18991343807E+03 -0.91686811516E+03  0.96977137326E+03  0.25000000000E+03 0.  0.
    5000001    1    1    2    0    0  0.35245734981E+02 -0.18991343807E+03 -0.54115488310E+03  0.62662427602E+03  0.25000000000E+03 0.  0.
<mgrwt>
<rscale>  0 0.65011384E+03</rscale>
<asrwt>0</asrwt>
<pdfrwt beam="1">  1        2 0.23495526E+00 0.65011384E+03</pdfrwt>
<pdfrwt beam="2">  1       -2 0.10644051E-01 0.65011384E+03</pdfrwt>
<totfact> 0.77302645E+02</totfact>
</mgrwt>
</event>
<event>
 4    1  0.1751735E-005  0.9997096E+03  0.7818608E-02  0.9308863E-01
          2   -1    0    0  501    0  0.00000000000E+00  0.00000000000E+00  0.19310543919E+04  0.19310543919E+04  0.25500000000E-02 0.  1.
         -2   -1    0    0    0  501 -0.00000000000E+00 -0.00000000000E+00 -0.12938776171E+03  0.12938776173E+03  0.25500000000E-02 0. -1.
   -5000001    1    1    2    0    0 -0.30345518204E+03 -0.22108023689E+02  0.15353560759E+04  0.15850527095E+04  0.25000000000E+03 0.  0.
    5000001    1    1    2    0    0  0.30345518204E+03  0.22108023689E+02  0.26631055427E+03  0.47538944407E+03  0.25000000000E+03 0.  0.
<mgrwt>
<rscale>  0 0.99970957E+03</rscale>
<asrwt>0</asrwt>
<pdfrwt beam="1">  1        2 0.29708530E+00 0.99970957E+03</pdfrwt>
<pdfrwt beam="2">  1       -2 0.19905809E-01 0.99970957E+03</pdfrwt>
<totfact> 0.15748262E+02</totfact>
</mgrwt>
</event>
<event>
 4    1  0.1751735E-005  0.6586772E+03  0.7818608E-02  0.9790632E-01
          2   -1    0    0  501    0  0.00000000000E+00  0.00000000000E+00  0.88685000044E+02  0.88685000081E+02  0.25500000000E-02 0.  1.
         -2   -1    0    0    0  501 -0.00000000000E+00 -0.00000000000E+00 -0.12230243512E+04  0.12230243512E+04  0.25500000000E-02 0. -1.
   -5000001    1    1    2    0    0  0.16023469634E+03  0.10797350722E+03 -0.75217422957E+03  0.81584282052E+03  0.25000000000E+03 0.  0.
    5000001    1    1    2    0    0 -0.16023469634E+03 -0.10797350722E+03 -0.38216512160E+03  0.49586653077E+03  0.25000000000E+03 0.  0.
<mgrwt>
<rscale>  0 0.65867720E+03</rscale>
<asrwt>0</asrwt>
<pdfrwt beam="1">  1        2 0.13643847E-01 0.65867720E+03</pdfrwt>
<pdfrwt beam="2">  1       -2 0.18815758E+00 0.65867720E+03</pdfrwt>
<totfact> 0.73290030E+01</totfact>
</mgrwt>
</event>
<event>
 4    1  0.1751735E-005  0.6822487E+03  0.7818608E-02  0.9748080E-01
          2   -1    0    0  501    0  0.00000000000E+00  0.00000000000E+00  0.32742124093E+04  0.32742124093E+04  0.25500000000E-02 0. -1.
         -2   -1    0    0    0  501 -0.00000000000E+00 -0.00000000000E+00 -0.35540091164E+02  0.35540091256E+02  0.25500000000E-02 0.  1.
   -5000001    1    1    2    0    0 -0.20349340308E+03  0.53557880989E+02  0.11443158032E+04  0.11900574227E+04  0.25000000000E+03 0.  0.
    5000001    1    1    2    0    0  0.20349340308E+03 -0.53557880989E+02  0.20943565149E+04  0.21196950779E+04  0.25000000000E+03 0.  0.
<mgrwt>
<rscale>  0 0.68224866E+03</rscale>
<asrwt>0</asrwt>
<pdfrwt beam="1">  1        2 0.50372506E+00 0.68224866E+03</pdfrwt>
<pdfrwt beam="2">  1       -2 0.54677055E-02 0.68224866E+03</pdfrwt>
<totfact> 0.22378542E+02</totfact>
</mgrwt>
</event>
<event>
 4    1  0.1751735E-005  0.7134872E+03  0.7818608E-02  0.9694441E-01
          2   -1    0    0  501    0  0.00000000000E+00  0.00000000000E+00  0.27043068884E+03  0.27043068885E+03  0.25500000000E-02 0.  1.
         -2   -1    0    0    0  501 -0.00000000000E+00 -0.00000000000E+00 -0.47060480071E+03  0.47060480072E+03  0.25500000000E-02 0. -1.
   -5000001    1    1    2    0    0  0.24925058658E+03 -0.50480323254E+02 -0.11004161307E+03  0.37320674506E+03  0.25000000000E+03 0.  0.
    5000001    1    1    2    0    0 -0.24925058658E+03  0.50480323254E+02 -0.90132498804E+02  0.36782874451E+03  0.25000000000E+03 0.  0.
<mgrwt>
<rscale>  0 0.71348716E+03</rscale>
<asrwt>0</asrwt>
<pdfrwt beam="1">  1        2 0.41604722E-01 0.71348716E+03</pdfrwt>
<pdfrwt beam="2">  1       -2 0.72400738E-01 0.71348716E+03</pdfrwt>
<totfact> 0.21486349E+02</totfact>
</mgrwt>
</event>
<event>
 4    1  0.1751735E-005  0.8074397E+03  0.7818608E-02  0.9549310E-01
          2   -1    0    0  501    0  0.00000000000E+00  0.00000000000E+00  0.24761285422E+04  0.24761285422E+04  0.25500000000E-02 0.  1.
         -2   -1    0    0    0  501 -0.00000000000E+00 -0.00000000000E+00 -0.65824414255E+02  0.65824414305E+02  0.25500000000E-02 0. -1.
   -5000001    1    1    2    0    0 -0.25561125734E+03  0.72549385628E+02  0.17494221163E+04  0.17870585523E+04  0.25000000000E+03 0.  0.
    5000001    1    1    2    0    0  0.25561125734E+03 -0.72549385628E+02  0.66088201164E+03  0.75489440423E+03  0.25000000000E+03 0.  0.
<mgrwt>
<rscale>  0 0.80743968E+03</rscale>
<asrwt>0</asrwt>
<pdfrwt beam="1">  1        2 0.38094280E+00 0.80743968E+03</pdfrwt>
<pdfrwt beam="2">  1       -2 0.10126834E-01 0.80743968E+03</pdfrwt>
<totfact> 0.24930822E+02</totfact>
</mgrwt>
</event>
<event>
 4    1  0.1751735E-005  0.6795023E+03  0.7818608E-02  0.9752943E-01
         -2   -1    0    0    0  501 -0.00000000000E+00  0.00000000000E+00  0.27622245379E+03  0.27622245380E+03  0.25500000000E-02 0. -1.
          2   -1    0    0  501    0  0.00000000000E+00 -0.00000000000E+00 -0.41789085286E+03  0.41789085287E+03  0.25500000000E-02 0.  1.
   -5000001    1    1    2    0    0 -0.67790943192E+01 -0.19782813453E+03  0.48942842854E+02  0.32261018087E+03  0.25000000000E+03 0.  0.
    5000001    1    1    2    0    0  0.67790943192E+01  0.19782813453E+03 -0.19061124193E+03  0.37150312581E+03  0.25000000000E+03 0.  0.
<mgrwt>
<rscale>  0 0.67950228E+03</rscale>
<asrwt>0</asrwt>
<pdfrwt beam="1">  1        2 0.64290901E-01 0.67950228E+03</pdfrwt>
<pdfrwt beam="2">  1       -2 0.42495762E-01 0.67950228E+03</pdfrwt>
<totfact> 0.40059627E+02</totfact>
</mgrwt>
</event>
<event>
 4    1  0.1751735E-005  0.6124430E+03  0.7818608E-02  0.9879922E-01
          2   -1    0    0  501    0  0.00000000000E+00  0.00000000000E+00  0.35204198841E+03  0.35204198842E+03  0.25500000000E-02 0.  1.
         -2   -1    0    0    0  501 -0.00000000000E+00 -0.00000000000E+00 -0.26636480082E+03  0.26636480084E+03  0.25500000000E-02 0. -1.
   -5000001    1    1    2    0    0  0.41307080861E+02  0.15830034542E+03  0.11062141023E+03  0.31859436701E+03  0.25000000000E+03 0.  0.
    5000001    1    1    2    0    0 -0.41307080861E+02 -0.15830034542E+03 -0.24944222641E+02  0.29981242225E+03  0.25000000000E+03 0.  0.
<mgrwt>
<rscale>  0 0.61244296E+03</rscale>
<asrwt>0</asrwt>
<pdfrwt beam="1">  1        2 0.54160306E-01 0.61244296E+03</pdfrwt>
<pdfrwt beam="2">  1       -2 0.40979200E-01 0.61244296E+03</pdfrwt>
<totfact> 0.52188816E+02</totfact>
</mgrwt>
</event>
<event>
 4    1  0.1751735E-005  0.7480833E+03  0.7818608E-02  0.9638362E-01
          2   -1    0    0  501    0  0.00000000000E+00  0.00000000000E+00  0.85763154511E+03  0.85763154512E+03  0.25500000000E-02 0.  1.
         -2   -1    0    0    0  501 -0.00000000000E+00 -0.00000000000E+00 -0.16313201136E+03  0.16313201138E+03  0.25500000000E-02 0. -1.
   -5000001    1    1    2    0    0  0.93463403323E+02  0.15834443755E+03  0.63216286264E+03  0.70422883608E+03  0.25000000000E+03 0.  0.
    5000001    1    1    2    0    0 -0.93463403323E+02 -0.15834443755E+03  0.62336671108E+02  0.31653472042E+03  0.25000000000E+03 0.  0.
<mgrwt>
<rscale>  0 0.74808331E+03</rscale>
<asrwt>0</asrwt>
<pdfrwt beam="1">  1        2 0.13194331E+00 0.74808331E+03</pdfrwt>
<pdfrwt beam="2">  1       -2 0.25097232E-01 0.74808331E+03</pdfrwt>
<totfact> 0.44869263E+02</totfact>
</mgrwt>
</event>
<event>
 4    1  0.1751735E-005  0.8182950E+03  0.7818608E-02  0.9533907E-01
         -2   -1    0    0    0  501 -0.00000000000E+00  0.00000000000E+00  0.54442594096E+03  0.54442594097E+03  0.25500000000E-02 0. -1.
          2   -1    0    0  501    0  0.00000000000E+00 -0.00000000000E+00 -0.30748293880E+03  0.30748293881E+03  0.25500000000E-02 0.  1.
   -5000001    1    1    2    0    0 -0.14870386947E+03  0.28763882041E+03  0.11090977093E+03  0.42385128181E+03  0.25000000000E+03 0.  0.
    5000001    1    1    2    0    0  0.14870386947E+03 -0.28763882041E+03  0.12603323123E+03  0.42805759797E+03  0.25000000000E+03 0.  0.
<mgrwt>
<rscale>  0 0.81829503E+03</rscale>
<asrwt>0</asrwt>
<pdfrwt beam="1">  1        2 0.47305067E-01 0.81829503E+03</pdfrwt>
<pdfrwt beam="2">  1       -2 0.83757837E-01 0.81829503E+03</pdfrwt>
<totfact> 0.13400816E+02</totfact>
</mgrwt>
</event>
<event>
 4    1  0.1751735E-005  0.6171075E+03  0.7818608E-02  0.9870536E-01
          2   -1    0    0  501    0  0.00000000000E+00  0.00000000000E+00  0.15335988335E+04  0.15335988335E+04  0.25500000000E-02 0.  1.
         -2   -1    0    0    0  501 -0.00000000000E+00 -0.00000000000E+00 -0.62079734873E+02  0.62079734925E+02  0.25500000000E-02 0. -1.
   -5000001    1    1    2    0    0  0.43643145362E+02 -0.17469313941E+03  0.77925778388E+03  0.83795292877E+03  0.25000000000E+03 0.  0.
    5000001    1    1    2    0    0 -0.43643145362E+02  0.17469313941E+03  0.69226131472E+03  0.75772563963E+03  0.25000000000E+03 0.  0.
<mgrwt>
<rscale>  0 0.61710748E+03</rscale>
<asrwt>0</asrwt>
<pdfrwt beam="1">  1        2 0.23593828E+00 0.61710748E+03</pdfrwt>
<pdfrwt beam="2">  1       -2 0.95507287E-02 0.61710748E+03</pdfrwt>
<totfact> 0.91591157E+02</totfact>
</mgrwt>
</event>
<event>
 4    1  0.1751735E-005  0.1068639E+04  0.7818608E-02  0.9236310E-01
          2   -1    0    0  501    0  0.00000000000E+00  0.00000000000E+00  0.96055293806E+03  0.96055293806E+03  0.25500000000E-02 0.  1.
         -2   -1    0    0    0  501 -0.00000000000E+00 -0.00000000000E+00 -0.29722157933E+03  0.29722157935E+03  0.25500000000E-02 0. -1.
   -5000001    1    1    2    0    0  0.41557521711E+03 -0.21121794661E+03  0.24295109074E+03  0.58210051927E+03  0.25000000000E+03 0.  0.
    5000001    1    1    2    0    0 -0.41557521711E+03  0.21121794661E+03  0.42038026798E+03  0.67567399813E+03  0.25000000000E+03 0.  0.
<mgrwt>
<rscale>  0 0.10686385E+04</rscale>
<asrwt>0</asrwt>
<pdfrwt beam="1">  1        2 0.14777738E+00 0.10686385E+04</pdfrwt>
<pdfrwt beam="2">  1       -2 0.45726396E-01 0.10686385E+04</pdfrwt>
<totfact> 0.12048192E+02</totfact>
</mgrwt>
</event>
<event>
 4    1  0.1751735E-005  0.6131910E+03  0.7818608E-02  0.9878411E-01
          2   -1    0    0  501    0  0.00000000000E+00  0.00000000000E+00  0.61311710082E+03  0.61311710082E+03  0.25500000000E-02 0.  1.
         -2   -1    0    0    0  501 -0.00000000000E+00 -0.00000000000E+00 -0.15331620457E+03  0.15331620459E+03  0.25500000000E-02 0. -1.
   -5000001    1    1    2    0    0 -0.33936771496E+02 -0.12508019732E+03  0.78336200126E+02  0.29228978852E+03  0.25000000000E+03 0.  0.
    5000001    1    1    2    0    0  0.33936771496E+02  0.12508019732E+03  0.38146469612E+03  0.47414351689E+03  0.25000000000E+03 0.  0.
<mgrwt>
<rscale>  0 0.61319096E+03</rscale>
<asrwt>0</asrwt>
<pdfrwt beam="1">  1        2 0.94325707E-01 0.61319096E+03</pdfrwt>
<pdfrwt beam="2">  1       -2 0.23587109E-01 0.61319096E+03</pdfrwt>
<totfact> 0.77296483E+02</totfact>
</mgrwt>
</event>
<event>
 4    1  0.1751735E-005  0.1503206E+04  0.7818608E-02  0.8882324E-01
         -2   -1    0    0    0  501 -0.00000000000E+00  0.00000000000E+00  0.13566818037E+03  0.13566818039E+03  0.25500000000E-02 0. -1.
          2   -1    0    0  501    0  0.00000000000E+00 -0.00000000000E+00 -0.41638869422E+04  0.41638869422E+04  0.25500000000E-02 0.  1.
   -5000001    1    1    2    0    0  0.14995727402E+03 -0.61016146228E+03 -0.10757760461E+04  0.12706605744E+04  0.25000000000E+03 0.  0.
    5000001    1    1    2    0    0 -0.14995727402E+03  0.61016146228E+03 -0.29524427157E+04  0.30288945481E+04  0.25000000000E+03 0.  0.
<mgrwt>
<rscale>  0 0.15032059E+04</rscale>
<asrwt>0</asrwt>
<pdfrwt beam="1">  1        2 0.64059790E+00 0.15032059E+04</pdfrwt>
<pdfrwt beam="2">  1       -2 0.20872031E-01 0.15032059E+04</pdfrwt>
<totfact> 0.49162972E+00</totfact>
</mgrwt>
</event>
<event>
 4    1  0.1751735E-005  0.7283099E+03  0.7818608E-02  0.9670007E-01
         -2   -1    0    0    0  501 -0.00000000000E+00  0.00000000000E+00  0.12029178014E+03  0.12029178017E+03  0.25500000000E-02 0. -1.
          2   -1    0    0  501    0  0.00000000000E+00 -0.00000000000E+00 -0.11023929703E+04  0.11023929703E+04  0.25500000000E-02 0.  1.
   -5000001    1    1    2    0    0 -0.10013932133E+03 -0.21734020194E+03 -0.68131224453E+03  0.76416688073E+03  0.25000000000E+03 0.  0.
    5000001    1    1    2    0    0  0.10013932133E+03  0.21734020194E+03 -0.30078894560E+03  0.45851786971E+03  0.25000000000E+03 0.  0.
<mgrwt>
<rscale>  0 0.72830986E+03</rscale>
<asrwt>0</asrwt>
<pdfrwt beam="1">  1        2 0.16959891E+00 0.72830986E+03</pdfrwt>
<pdfrwt beam="2">  1       -2 0.18506428E-01 0.72830986E+03</pdfrwt>
<totfact> 0.53452897E+02</totfact>
</mgrwt>
</event>
<event>
 4    1  0.1751735E-005  0.3309164E+04  0.7818608E-02  0.8160567E-01
         -2   -1    0    0    0  501 -0.00000000000E+00  0.00000000000E+00  0.23005942410E+04  0.23005942410E+04  0.25500000000E-02 0. -1.
          2   -1    0    0  501    0  0.00000000000E+00 -0.00000000000E+00 -0.11899716370E+04  0.11899716370E+04  0.25500000000E-02 0.  1.
   -5000001    1    1    2    0    0  0.41104289665E+03  0.14560006493E+04  0.12108683644E+04  0.19538670245E+04  0.25000000000E+03 0.  0.
    5000001    1    1    2    0    0 -0.41104289665E+03 -0.14560006493E+04 -0.10024576039E+03  0.15366988534E+04  0.25000000000E+03 0.  0.
<mgrwt>
<rscale>  0 0.33091642E+04</rscale>
<asrwt>0</asrwt>
<pdfrwt beam="1">  1        2 0.18307256E+00 0.33091642E+04</pdfrwt>
<pdfrwt beam="2">  1       -2 0.35393757E+00 0.33091642E+04</pdfrwt>
<totfact> 0.23537956E-01</totfact>
</mgrwt>
</event>
<event>
 4    1  0.1751735E-005  0.7675737E+03  0.7818608E-02  0.9608176E-01
          2   -1    0    0  501    0  0.00000000000E+00  0.00000000000E+00  0.45828512177E+03  0.45828512178E+03  0.25500000000E-02 0.  1.
         -2   -1    0    0    0  501 -0.00000000000E+00 -0.00000000000E+00 -0.32139894782E+03  0.32139894783E+03  0.25500000000E-02 0. -1.
   -5000001    1    1    2    0    0 -0.23941758305E+03 -0.16561573944E+03  0.61781900460E+02  0.38867255556E+03  0.25000000000E+03 0.  0.
    5000001    1    1    2    0    0  0.23941758305E+03  0.16561573944E+03  0.75104273495E+02  0.39101151405E+03  0.25000000000E+03 0.  0.
<mgrwt>
<rscale>  0 0.76757373E+03</rscale>
<asrwt>0</asrwt>
<pdfrwt beam="1">  1        2 0.70505403E-01 0.76757373E+03</pdfrwt>
<pdfrwt beam="2">  1       -2 0.49445992E-01 0.76757373E+03</pdfrwt>
<totfact> 0.26575623E+02</totfact>
</mgrwt>
</event>
<event>
 4    1  0.1751735E-005  0.6600584E+03  0.7818608E-02  0.9788086E-01
         -2   -1    0    0    0  501 -0.00000000000E+00  0.00000000000E+00  0.19438618607E+03  0.19438618608E+03  0.25500000000E-02 0. -1.
          2   -1    0    0  501    0  0.00000000000E+00 -0.00000000000E+00 -0.56032420534E+03  0.56032420535E+03  0.25500000000E-02 0.  1.
   -5000001    1    1    2    0    0 -0.20828481123E+03 -0.35441359965E+02 -0.13472036587E+03  0.35396077405E+03  0.25000000000E+03 0.  0.
    5000001    1    1    2    0    0  0.20828481123E+03  0.35441359965E+02 -0.23121765341E+03  0.40074961738E+03  0.25000000000E+03 0.  0.
<mgrwt>
<rscale>  0 0.66005844E+03</rscale>
<asrwt>0</asrwt>
<pdfrwt beam="1">  1        2 0.86203723E-01 0.66005844E+03</pdfrwt>
<pdfrwt beam="2">  1       -2 0.29905567E-01 0.66005844E+03</pdfrwt>
<totfact> 0.55877605E+02</totfact>
</mgrwt>
</event>
<event>
 4    1  0.1751735E-005  0.5797639E+03  0.7818608E-02  0.9948302E-01
         -2   -1    0    0    0  501 -0.00000000000E+00  0.00000000000E+00  0.81137551270E+02  0.81137551310E+02  0.25500000000E-02 0. -1.
          2   -1    0    0  501    0  0.00000000000E+00 -0.00000000000E+00 -0.10356676868E+04  0.10356676868E+04  0.25500000000E-02 0.  1.
   -5000001    1    1    2    0    0 -0.53311504599E+02  0.10059815545E+03 -0.29894411705E+03  0.40599222963E+03  0.25000000000E+03 0.  0.
    5000001    1    1    2    0    0  0.53311504599E+02 -0.10059815545E+03 -0.65558601850E+03  0.71081300850E+03  0.25000000000E+03 0.  0.
<mgrwt>
<rscale>  0 0.57976388E+03</rscale>
<asrwt>0</asrwt>
<pdfrwt beam="1">  1        2 0.15933348E+00 0.57976388E+03</pdfrwt>
<pdfrwt beam="2">  1       -2 0.12482701E-01 0.57976388E+03</pdfrwt>
<totfact> 0.11492723E+03</totfact>
</mgrwt>
</event>
<event>
 4    1  0.1751735E-005  0.9384889E+03  0.7818608E-02  0.9378707E-01
          2   -1    0    0  501    0  0.00000000000E+00  0.00000000000E+00  0.21727411920E+04  0.21727411920E+04  0.25500000000E-02 0.  1.
         -2   -1    0    0    0  501 -0.00000000000E+00 -0.00000000000E+00 -0.10134219788E+03  0.10134219791E+03  0.25500000000E-02 0. -1.
   -5000001    1    1    2    0    0 -0.17294336274E+03  0.34513484765E+03  0.81016715256E+03  0.93161058650E+03  0.25000000000E+03 0.  0.
    5000001    1    1    2    0    0  0.17294336274E+03 -0.34513484765E+03  0.12612318416E+04  0.13424728034E+04  0.25000000000E+03 0.  0.
<mgrwt>
<rscale>  0 0.93848893E+03</rscale>
<asrwt>0</asrwt>
<pdfrwt beam="1">  1        2 0.33426783E+00 0.93848893E+03</pdfrwt>
<pdfrwt beam="2">  1       -2 0.15591110E-01 0.93848893E+03</pdfrwt>
<totfact> 0.17761104E+02</totfact>
</mgrwt>
</event>
<event>
 4    1  0.1751735E-005  0.1162928E+04  0.7818608E-02  0.9145939E-01
         -2   -1    0    0    0  501 -0.00000000000E+00  0.00000000000E+00  0.10516090682E+04  0.10516090682E+04  0.25500000000E-02 0. -1.
          2   -1    0    0  501    0  0.00000000000E+00 -0.00000000000E+00 -0.32150754851E+03  0.32150754852E+03  0.25500000000E-02 0.  1.
   -5000001    1    1    2    0    0  0.42405479072E+03 -0.21455382212E+03  0.62839691100E+03  0.82658241324E+03  0.25000000000E+03 0.  0.
    5000001    1    1    2    0    0 -0.42405479072E+03  0.21455382212E+03  0.10170460865E+03  0.54653420345E+03  0.25000000000E+03 0.  0.
<mgrwt>
<rscale>  0 0.11629278E+04</rscale>
<asrwt>0</asrwt>
<pdfrwt beam="1">  1        2 0.49462699E-01 0.11629278E+04</pdfrwt>
<pdfrwt beam="2">  1       -2 0.16178601E+00 0.11629278E+04</pdfrwt>
<totfact> 0.24532992E+01</totfact>
</mgrwt>
</event>
<event>
 4    1  0.1751735E-005  0.7985175E+03  0.7818608E-02  0.9562165E-01
          2   -1    0    0  501    0  0.00000000000E+00  0.00000000000E+00  0.31596076568E+03  0.31596076569E+03  0.25500000000E-02 0.  1.
         -2   -1    0    0    0  501 -0.00000000000E+00 -0.00000000000E+00 -0.50451694262E+03  0.50451694262E+03  0.25500000000E-02 0. -1.
   -5000001    1    1    2    0    0  0.21631066637E+03  0.21841861573E+03 -0.43830360176E+02  0.39864532677E+03  0.25000000000E+03 0.  0.
    5000001    1    1    2    0    0 -0.21631066637E+03 -0.21841861573E+03 -0.14472581676E+03  0.42183238154E+03  0.25000000000E+03 0.  0.
<mgrwt>
<rscale>  0 0.79851753E+03</rscale>
<asrwt>0</asrwt>
<pdfrwt beam="1">  1        2 0.48609349E-01 0.79851753E+03</pdfrwt>
<pdfrwt beam="2">  1       -2 0.77617991E-01 0.79851753E+03</pdfrwt>
<totfact> 0.15445942E+02</totfact>
</mgrwt>
</event>
<event>
 4    1  0.1751735E-005  0.1089022E+04  0.7818608E-02  0.9215958E-01
          2   -1    0    0  501    0  0.00000000000E+00  0.00000000000E+00  0.86474163961E+03  0.86474163961E+03  0.25500000000E-02 0.  1.
         -2   -1    0    0    0  501 -0.00000000000E+00 -0.00000000000E+00 -0.34286829947E+03  0.34286829948E+03  0.25500000000E-02 0. -1.
   -5000001    1    1    2    0    0 -0.35818112573E+03 -0.27695120174E+03  0.44976403408E+03  0.68540745059E+03  0.25000000000E+03 0.  0.
    5000001    1    1    2    0    0  0.35818112573E+03  0.27695120174E+03  0.72109306057E+02  0.52220248850E+03  0.25000000000E+03 0.  0.
<mgrwt>
<rscale>  0 0.10890225E+04</rscale>
<asrwt>0</asrwt>
<pdfrwt beam="1">  1        2 0.13303717E+00 0.10890225E+04</pdfrwt>
<pdfrwt beam="2">  1       -2 0.52748969E-01 0.10890225E+04</pdfrwt>
<totfact> 0.10441538E+02</totfact>
</mgrwt>
</event>
<event>
 4    1  0.1751735E-005  0.1546931E+04  0.7818608E-02  0.8853830E-01
          2   -1    0    0  501    0  0.00000000000E+00  0.00000000000E+00  0.26715875574E+04  0.26715875574E+04  0.25500000000E-02 0.  1.
         -2   -1    0    0    0  501 -0.00000000000E+00 -0.00000000000E+00 -0.22393011832E+03  0.22393011834E+03  0.25500000000E-02 0. -1.
   -5000001    1    1    2    0    0 -0.37144023296E+02  0.68156461644E+03  0.17184855376E+04  0.18659052891E+04  0.25000000000E+03 0.  0.
    5000001    1    1    2    0    0  0.37144023296E+02 -0.68156461644E+03  0.72917190142E+03  0.10296123866E+04  0.25000000000E+03 0.  0.
<mgrwt>
<rscale>  0 0.15469310E+04</rscale>
<asrwt>0</asrwt>
<pdfrwt beam="1">  1        2 0.41101346E+00 0.15469310E+04</pdfrwt>
<pdfrwt beam="2">  1       -2 0.34450788E-01 0.15469310E+04</pdfrwt>
<totfact> 0.21066579E+01</totfact>
</mgrwt>
</event>
<event>
 4    1  0.1751735E-005  0.5854664E+03  0.7818608E-02  0.9936026E-01
          2   -1    0    0  501    0  0.00000000000E+00  0.00000000000E+00  0.15222334018E+04  0.15222334018E+04  0.25500000000E-02 0.  1.
         -2   -1    0    0    0  501 -0.00000000000E+00 -0.00000000000E+00 -0.56294068790E+02  0.56294068847E+02  0.25500000000E-02 0. -1.
   -5000001    1    1    2    0    0 -0.72585147307E+01 -0.94215900876E+02  0.10549739000E+04  0.10883010850E+04  0.25000000000E+03 0.  0.
    5000001    1    1    2    0    0  0.72585147307E+01  0.94215900876E+02  0.41096543297E+03  0.49022638557E+03  0.25000000000E+03 0.  0.
<mgrwt>
<rscale>  0 0.58546635E+03</rscale>
<asrwt>0</asrwt>
<pdfrwt beam="1">  1        2 0.23418976E+00 0.58546635E+03</pdfrwt>
<pdfrwt beam="2">  1       -2 0.86606257E-02 0.58546635E+03</pdfrwt>
<totfact> 0.10893101E+03</totfact>
</mgrwt>
</event>
<event>
 4    1  0.1751735E-005  0.5934854E+03  0.7818608E-02  0.9919015E-01
         -2   -1    0    0    0  501 -0.00000000000E+00  0.00000000000E+00  0.90859379832E+02  0.90859379867E+02  0.25500000000E-02 0. -1.
          2   -1    0    0  501    0  0.00000000000E+00 -0.00000000000E+00 -0.96914839792E+03  0.96914839792E+03  0.25500000000E-02 0.  1.
   -5000001    1    1    2    0    0 -0.48714542033E+02 -0.14262783600E+03 -0.34395479491E+03  0.45113269351E+03  0.25000000000E+03 0.  0.
    5000001    1    1    2    0    0  0.48714542033E+02  0.14262783600E+03 -0.53433422317E+03  0.60887508428E+03  0.25000000000E+03 0.  0.
<mgrwt>
<rscale>  0 0.59348537E+03</rscale>
<asrwt>0</asrwt>
<pdfrwt beam="1">  1        2 0.14909975E+00 0.59348537E+03</pdfrwt>
<pdfrwt beam="2">  1       -2 0.13978367E-01 0.59348537E+03</pdfrwt>
<totfact> 0.10486586E+03</totfact>
</mgrwt>
</event>
<event>
 4    1  0.1751735E-005  0.6799803E+03  0.7818608E-02  0.9752095E-01
         -2   -1    0    0    0  501 -0.00000000000E+00  0.00000000000E+00  0.42882300621E+03  0.42882300622E+03  0.25500000000E-02 0. -1.
          2   -1    0    0  501    0  0.00000000000E+00 -0.00000000000E+00 -0.26955945756E+03  0.26955945757E+03  0.25500000000E-02 0.  1.
   -5000001    1    1    2    0    0 -0.14164407731E+03 -0.14549815045E+03 -0.32221640051E+02  0.32368347271E+03  0.25000000000E+03 0.  0.
    5000001    1    1    2    0    0  0.14164407731E+03  0.14549815045E+03  0.19148518871E+03  0.37469899108E+03  0.25000000000E+03 0.  0.
<mgrwt>
<rscale>  0 0.67998028E+03</rscale>
<asrwt>0</asrwt>
<pdfrwt beam="1">  1        2 0.41470686E-01 0.67998028E+03</pdfrwt>
<pdfrwt beam="2">  1       -2 0.65972770E-01 0.67998028E+03</pdfrwt>
<totfact> 0.26419198E+02</totfact>
</mgrwt>
</event>
<event>
 4    1  0.1751735E-005  0.1142176E+04  0.7818608E-02  0.9165032E-01
          2   -1    0    0  501    0  0.00000000000E+00  0.00000000000E+00  0.10654234150E+04  0.10654234150E+04  0.25500000000E-02 0.  1.
         -2   -1    0    0    0  501 -0.00000000000E+00 -0.00000000000E+00 -0.30611420538E+03  0.30611420539E+03  0.25500000000E-02 0. -1.
   -5000001    1    1    2    0    0 -0.15562116419E+03 -0.48286251047E+03  0.28459240064E+03  0.63314057307E+03  0.25000000000E+03 0.  0.
    5000001    1    1    2    0    0  0.15562116419E+03  0.48286251047E+03  0.47471680895E+03  0.73839704730E+03  0.25000000000E+03 0.  0.
<mgrwt>
<rscale>  0 0.11421755E+04</rscale>
<asrwt>0</asrwt>
<pdfrwt beam="1">  1        2 0.16391130E+00 0.11421755E+04</pdfrwt>
<pdfrwt beam="2">  1       -2 0.47094493E-01 0.11421755E+04</pdfrwt>
<totfact> 0.96853536E+01</totfact>
</mgrwt>
</event>
<event>
 4    1  0.1751735E-005  0.9599156E+03  0.7818608E-02  0.9353635E-01
         -2   -1    0    0    0  501 -0.00000000000E+00  0.00000000000E+00  0.12224987544E+04  0.12224987544E+04  0.25500000000E-02 0. -1.
          2   -1    0    0  501    0  0.00000000000E+00 -0.00000000000E+00 -0.18843329826E+03  0.18843329828E+03  0.25500000000E-02 0.  1.
   -5000001    1    1    2    0    0 -0.33073284455E+03  0.72684113890E+02  0.17803455372E+03  0.45701586099E+03  0.25000000000E+03 0.  0.
    5000001    1    1    2    0    0  0.33073284455E+03 -0.72684113890E+02  0.85603090242E+03  0.95391619169E+03  0.25000000000E+03 0.  0.
<mgrwt>
<rscale>  0 0.95991556E+03</rscale>
<asrwt>0</asrwt>
<pdfrwt beam="1">  1        2 0.28989738E-01 0.95991556E+03</pdfrwt>
<pdfrwt beam="2">  1       -2 0.18807673E+00 0.95991556E+03</pdfrwt>
<totfact> 0.29598392E+01</totfact>
</mgrwt>
</event>
<event>
 4    1  0.1751735E-005  0.6589358E+03  0.7818608E-02  0.9790155E-01
          2   -1    0    0  501    0  0.00000000000E+00  0.00000000000E+00  0.12715168428E+04  0.12715168428E+04  0.25500000000E-02 0.  1.
         -2   -1    0    0    0  501 -0.00000000000E+00 -0.00000000000E+00 -0.85369764040E+02  0.85369764078E+02  0.25500000000E-02 0. -1.
   -5000001    1    1    2    0    0 -0.89582346749E+02  0.19388978841E+03  0.55033088601E+03  0.64107903647E+03  0.25000000000E+03 0.  0.
    5000001    1    1    2    0    0  0.89582346749E+02 -0.19388978841E+03  0.63581619272E+03  0.71580757038E+03  0.25000000000E+03 0.  0.
<mgrwt>
<rscale>  0 0.65893579E+03</rscale>
<asrwt>0</asrwt>
<pdfrwt beam="1">  1        2 0.19561798E+00 0.65893579E+03</pdfrwt>
<pdfrwt beam="2">  1       -2 0.13133810E-01 0.65893579E+03</pdfrwt>
<totfact> 0.76147922E+02</totfact>
</mgrwt>
</event>
<event>
 4    1  0.1751735E-005  0.8512235E+03  0.7818608E-02  0.9488696E-01
         -2   -1    0    0    0  501 -0.00000000000E+00  0.00000000000E+00  0.61943085366E+02  0.61943085418E+02  0.25500000000E-02 0. -1.
          2   -1    0    0  501    0  0.00000000000E+00 -0.00000000000E+00 -0.29243836841E+04  0.29243836841E+04  0.25500000000E-02 0.  1.
   -5000001    1    1    2    0    0 -0.25385555505E+03  0.17903269892E+02 -0.22455800697E+04  0.22737398751E+04  0.25000000000E+03 0.  0.
    5000001    1    1    2    0    0  0.25385555505E+03 -0.17903269892E+02 -0.61686052900E+03  0.71258689445E+03  0.25000000000E+03 0.  0.
<mgrwt>
<rscale>  0 0.85122347E+03</rscale>
<asrwt>0</asrwt>
<pdfrwt beam="1">  1        2 0.44990508E+00 0.85122347E+03</pdfrwt>
<pdfrwt beam="2">  1       -2 0.95297077E-02 0.85122347E+03</pdfrwt>
<totfact> 0.14990833E+02</totfact>
</mgrwt>
</event>
<event>
 4    1  0.1751735E-005  0.7489018E+03  0.7818608E-02  0.9637075E-01
          2   -1    0    0  501    0  0.00000000000E+00  0.00000000000E+00  0.66306989260E+03  0.66306989261E+03  0.25500000000E-02 0.  1.
         -2   -1    0    0    0  501 -0.00000000000E+00 -0.00000000000E+00 -0.21146105925E+03  0.21146105927E+03  0.25500000000E-02 0. -1.
   -5000001    1    1    2    0    0  0.77764901329E+02 -0.18446628798E+03 -0.74615539639E+00  0.32027448857E+03  0.25000000000E+03 0.  0.
    5000001    1    1    2    0    0 -0.77764901329E+02  0.18446628798E+03  0.45235498874E+03  0.55425646331E+03  0.25000000000E+03 0.  0.
<mgrwt>
<rscale>  0 0.74890176E+03</rscale>
<asrwt>0</asrwt>
<pdfrwt beam="1">  1        2 0.10201075E+00 0.74890176E+03</pdfrwt>
<pdfrwt beam="2">  1       -2 0.32532471E-01 0.74890176E+03</pdfrwt>
<totfact> 0.38849128E+02</totfact>
</mgrwt>
</event>
<event>
 4    1  0.1751735E-005  0.5414139E+03  0.7818608E-02  0.1003501E+00
         -2   -1    0    0    0  501 -0.00000000000E+00  0.00000000000E+00  0.12341531595E+03  0.12341531597E+03  0.25500000000E-02 0.  1.
          2   -1    0    0  501    0  0.00000000000E+00 -0.00000000000E+00 -0.59378568727E+03  0.59378568727E+03  0.25500000000E-02 0. -1.
   -5000001    1    1    2    0    0  0.26047117746E+02 -0.10016913137E+03 -0.24626359439E+03  0.36586618475E+03  0.25000000000E+03 0.  0.
    5000001    1    1    2    0    0 -0.26047117746E+02  0.10016913137E+03 -0.22410677693E+03  0.35133481850E+03  0.25000000000E+03 0.  0.
<mgrwt>
<rscale>  0 0.54141388E+03</rscale>
<asrwt>0</asrwt>
<pdfrwt beam="1">  1        2 0.91351642E-01 0.54141388E+03</pdfrwt>
<pdfrwt beam="2">  1       -2 0.18986972E-01 0.54141388E+03</pdfrwt>
<totfact> 0.11764734E+03</totfact>
</mgrwt>
</event>
<event>
 4    1  0.1751735E-005  0.6930722E+03  0.7818608E-02  0.9729154E-01
          2   -1    0    0  501    0  0.00000000000E+00  0.00000000000E+00  0.77089826858E+03  0.77089826858E+03  0.25500000000E-02 0.  1.
         -2   -1    0    0    0  501 -0.00000000000E+00 -0.00000000000E+00 -0.15577574489E+03  0.15577574491E+03  0.25500000000E-02 0. -1.
   -5000001    1    1    2    0    0 -0.11235845513E+03 -0.20876289336E+03  0.25787605225E+03  0.43035616227E+03  0.25000000000E+03 0.  0.
    5000001    1    1    2    0    0  0.11235845513E+03  0.20876289336E+03  0.35724647144E+03  0.49631785122E+03  0.25000000000E+03 0.  0.
<mgrwt>
<rscale>  0 0.69307215E+03</rscale>
<asrwt>0</asrwt>
<pdfrwt beam="1">  1        2 0.11859973E+00 0.69307215E+03</pdfrwt>
<pdfrwt beam="2">  1       -2 0.23965499E-01 0.69307215E+03</pdfrwt>
<totfact> 0.56298804E+02</totfact>
</mgrwt>
</event>
<event>
 4    1  0.1751735E-005  0.1001260E+04  0.7818608E-02  0.9307164E-01
         -2   -1    0    0    0  501 -0.00000000000E+00  0.00000000000E+00  0.26926003945E+03  0.26926003946E+03  0.25500000000E-02 0. -1.
          2   -1    0    0  501    0  0.00000000000E+00 -0.00000000000E+00 -0.93081211515E+03  0.93081211516E+03  0.25500000000E-02 0.  1.
   -5000001    1    1    2    0    0 -0.29791813584E+03  0.31289860498E+03 -0.28482633029E+03  0.57470583005E+03  0.25000000000E+03 0.  0.
    5000001    1    1    2    0    0  0.29791813584E+03 -0.31289860498E+03 -0.37672574541E+03  0.62536632457E+03  0.25000000000E+03 0.  0.
<mgrwt>
<rscale>  0 0.10012602E+04</rscale>
<asrwt>0</asrwt>
<pdfrwt beam="1">  1        2 0.14320186E+00 0.10012602E+04</pdfrwt>
<pdfrwt beam="2">  1       -2 0.41424622E-01 0.10012602E+04</pdfrwt>
<totfact> 0.15397510E+02</totfact>
</mgrwt>
</event>
<event>
 4    1  0.1751735E-005  0.5757484E+03  0.7818608E-02  0.9957038E-01
          2   -1    0    0  501    0  0.00000000000E+00  0.00000000000E+00  0.53940106815E+03  0.53940106815E+03  0.25500000000E-02 0.  1.
         -2   -1    0    0    0  501 -0.00000000000E+00 -0.00000000000E+00 -0.15363624802E+03  0.15363624804E+03  0.25500000000E-02 0. -1.
   -5000001    1    1    2    0    0  0.13468953995E+03 -0.39138790429E+02  0.16107061448E+03  0.32881128316E+03  0.25000000000E+03 0.  0.
    5000001    1    1    2    0    0 -0.13468953995E+03  0.39138790429E+02  0.22469420565E+03  0.36422603303E+03  0.25000000000E+03 0.  0.
<mgrwt>
<rscale>  0 0.57574840E+03</rscale>
<asrwt>0</asrwt>
<pdfrwt beam="1">  1        2 0.82984780E-01 0.57574840E+03</pdfrwt>
<pdfrwt beam="2">  1       -2 0.23636346E-01 0.57574840E+03</pdfrwt>
<totfact> 0.89701796E+02</totfact>
</mgrwt>
</event>
<event>
 4    1  0.1751735E-005  0.6377572E+03  0.7818608E-02  0.9830027E-01
         -2   -1    0    0    0  501 -0.00000000000E+00  0.00000000000E+00  0.17486774529E+03  0.17486774531E+03  0.25500000000E-02 0. -1.
          2   -1    0    0  501    0  0.00000000000E+00 -0.00000000000E+00 -0.58148829191E+03  0.58148829192E+03  0.25500000000E-02 0.  1.
   -5000001    1    1    2    0    0  0.29311298173E+02 -0.19544089854E+03 -0.18993203288E+03  0.37098581393E+03  0.25000000000E+03 0.  0.
    5000001    1    1    2    0    0 -0.29311298173E+02  0.19544089854E+03 -0.21668851374E+03  0.38537022331E+03  0.25000000000E+03 0.  0.
<mgrwt>
<rscale>  0 0.63775715E+03</rscale>
<asrwt>0</asrwt>
<pdfrwt beam="1">  1        2 0.89459736E-01 0.63775715E+03</pdfrwt>
<pdfrwt beam="2">  1       -2 0.26902730E-01 0.63775715E+03</pdfrwt>
<totfact> 0.64963967E+02</totfact>
</mgrwt>
</event>
<event>
 4    1  0.1751735E-005  0.9143857E+03  0.7818608E-02  0.9407775E-01
          2   -1    0    0  501    0  0.00000000000E+00  0.00000000000E+00  0.67663887386E+03  0.67663887387E+03  0.25500000000E-02 0.  1.
         -2   -1    0    0    0  501 -0.00000000000E+00 -0.00000000000E+00 -0.30891709608E+03  0.30891709610E+03  0.25500000000E-02 0. -1.
   -5000001    1    1    2    0    0 -0.92892893637E+02  0.28891295473E+03 -0.67590008638E+02  0.39895888807E+03  0.25000000000E+03 0.  0.
    5000001    1    1    2    0    0  0.92892893637E+02 -0.28891295473E+03  0.43531178642E+03  0.58659708190E+03  0.25000000000E+03 0.  0.
<mgrwt>
<rscale>  0 0.91438573E+03</rscale>
<asrwt>0</asrwt>
<pdfrwt beam="1">  1        2 0.10409829E+00 0.91438573E+03</pdfrwt>
<pdfrwt beam="2">  1       -2 0.47525708E-01 0.91438573E+03</pdfrwt>
<totfact> 0.17987083E+02</totfact>
</mgrwt>
</event>
<event>
 4    1  0.1751735E-005  0.8825511E+03  0.7818608E-02  0.9447660E-01
         -2   -1    0    0    0  501 -0.00000000000E+00  0.00000000000E+00  0.13229316432E+03  0.13229316435E+03  0.25500000000E-02 0. -1.
          2   -1    0    0  501    0  0.00000000000E+00 -0.00000000000E+00 -0.14719135088E+04  0.14719135088E+04  0.25500000000E-02 0.  1.
   -5000001    1    1    2    0    0  0.60549437598E+02  0.13119181270E+03 -0.63270941785E+02  0.29560233116E+03  0.25000000000E+03 0.  0.
    5000001    1    1    2    0    0 -0.60549437598E+02 -0.13119181270E+03 -0.12763494027E+04  0.13086043420E+04  0.25000000000E+03 0.  0.
<mgrwt>
<rscale>  0 0.88255107E+03</rscale>
<asrwt>0</asrwt>
<pdfrwt beam="1">  1        2 0.22644822E+00 0.88255107E+03</pdfrwt>
<pdfrwt beam="2">  1       -2 0.20352796E-01 0.88255107E+03</pdfrwt>
<totfact> 0.27379358E+02</totfact>
</mgrwt>
</event>
<event>
 4    1  0.1751735E-005  0.7567169E+03  0.7818608E-02  0.9624871E-01
          2   -1    0    0  501    0  0.00000000000E+00  0.00000000000E+00  0.31034253520E+03  0.31034253521E+03  0.25500000000E-02 0.  1.
         -2   -1    0    0    0  501 -0.00000000000E+00 -0.00000000000E+00 -0.46128098592E+03  0.46128098593E+03  0.25500000000E-02 0. -1.
   -5000001    1    1    2    0    0  0.31864034438E+02 -0.22151809554E+03 -0.25375487791E+03  0.42068648826E+03  0.25000000000E+03 0.  0.
    5000001    1    1    2    0    0 -0.31864034438E+02  0.22151809554E+03  0.10281642719E+03  0.35093703288E+03  0.25000000000E+03 0.  0.
<mgrwt>
<rscale>  0 0.75671688E+03</rscale>
<asrwt>0</asrwt>
<pdfrwt beam="1">  1        2 0.47745005E-01 0.75671688E+03</pdfrwt>
<pdfrwt beam="2">  1       -2 0.70966306E-01 0.75671688E+03</pdfrwt>
<totfact> 0.19239391E+02</totfact>
</mgrwt>
</event>
<event>
 4    1  0.1751735E-005  0.7118497E+03  0.7818608E-02  0.9697179E-01
         -2   -1    0    0    0  501 -0.00000000000E+00  0.00000000000E+00  0.15707216752E+03  0.15707216754E+03  0.25500000000E-02 0. -1.
          2   -1    0    0  501    0  0.00000000000E+00 -0.00000000000E+00 -0.80652419341E+03  0.80652419342E+03  0.25500000000E-02 0.  1.
   -5000001    1    1    2    0    0  0.20763848266E+03 -0.10796758411E+03 -0.45604948724E+03  0.57030857745E+03  0.25000000000E+03 0.  0.
    5000001    1    1    2    0    0 -0.20763848266E+03  0.10796758411E+03 -0.19340253865E+03  0.39328778351E+03  0.25000000000E+03 0.  0.
<mgrwt>
<rscale>  0 0.71184971E+03</rscale>
<asrwt>0</asrwt>
<pdfrwt beam="1">  1        2 0.12408064E+00 0.71184971E+03</pdfrwt>
<pdfrwt beam="2">  1       -2 0.24164949E-01 0.71184971E+03</pdfrwt>
<totfact> 0.52238256E+02</totfact>
</mgrwt>
</event>
<event>
 4    1  0.1751735E-005  0.7634896E+03  0.7818608E-02  0.9614422E-01
          2   -1    0    0  501    0  0.00000000000E+00  0.00000000000E+00  0.13911889425E+04  0.13911889425E+04  0.25500000000E-02 0.  1.
         -2   -1    0    0    0  501 -0.00000000000E+00 -0.00000000000E+00 -0.10475147990E+03  0.10475147993E+03  0.25500000000E-02 0. -1.
   -5000001    1    1    2    0    0  0.25786467772E+03  0.26866039194E+02  0.39527724532E+03  0.53475235086E+03  0.25000000000E+03 0.  0.
    5000001    1    1    2    0    0 -0.25786467772E+03 -0.26866039194E+02  0.89116021724E+03  0.96118807154E+03  0.25000000000E+03 0.  0.
<mgrwt>
<rscale>  0 0.76348962E+03</rscale>
<asrwt>0</asrwt>
<pdfrwt beam="1">  1        2 0.21402907E+00 0.76348962E+03</pdfrwt>
<pdfrwt beam="2">  1       -2 0.16115612E-01 0.76348962E+03</pdfrwt>
<totfact> 0.45850590E+02</totfact>
</mgrwt>
</event>
<event>
 4    1  0.1751735E-005  0.5519548E+03  0.7818608E-02  0.1001042E+00
         -2   -1    0    0    0  501 -0.00000000000E+00  0.00000000000E+00  0.54203718123E+02  0.54203718183E+02  0.25500000000E-02 0. -1.
          2   -1    0    0  501    0  0.00000000000E+00 -0.00000000000E+00 -0.14051348002E+04  0.14051348002E+04  0.25500000000E-02 0.  1.
   -5000001    1    1    2    0    0  0.11095456137E+03  0.45071798488E+01 -0.57895966781E+03  0.64033235614E+03  0.25000000000E+03 0.  0.
    5000001    1    1    2    0    0 -0.11095456137E+03 -0.45071798488E+01 -0.77197141424E+03  0.81900616223E+03  0.25000000000E+03 0.  0.
<mgrwt>
<rscale>  0 0.55195482E+03</rscale>
<asrwt>0</asrwt>
<pdfrwt beam="1">  1        2 0.21617456E+00 0.55195482E+03</pdfrwt>
<pdfrwt beam="2">  1       -2 0.83390346E-02 0.55195482E+03</pdfrwt>
<totfact> 0.13456808E+03</totfact>
</mgrwt>
</event>
<event>
 4    1  0.1751735E-005  0.7372275E+03  0.7818608E-02  0.9655604E-01
         -2   -1    0    0    0  501 -0.00000000000E+00  0.00000000000E+00  0.10164505255E+03  0.10164505258E+03  0.25500000000E-02 0. -1.
          2   -1    0    0  501    0  0.00000000000E+00 -0.00000000000E+00 -0.13367703027E+04  0.13367703027E+04  0.25500000000E-02 0.  1.
   -5000001    1    1    2    0    0  0.68822481818E+02 -0.18806314346E+03 -0.26166835399E+03  0.41361166257E+03  0.25000000000E+03 0.  0.
    5000001    1    1    2    0    0 -0.68822481818E+02  0.18806314346E+03 -0.97345689618E+03  0.10248036927E+04  0.25000000000E+03 0.  0.
<mgrwt>
<rscale>  0 0.73722748E+03</rscale>
<asrwt>0</asrwt>
<pdfrwt beam="1">  1        2 0.20565696E+00 0.73722748E+03</pdfrwt>
<pdfrwt beam="2">  1       -2 0.15637701E-01 0.73722748E+03</pdfrwt>
<totfact> 0.51897528E+02</totfact>
</mgrwt>
</event>
<event>
 4    1  0.1751735E-005  0.8868309E+03  0.7818608E-02  0.9442195E-01
         -2   -1    0    0    0  501 -0.00000000000E+00  0.00000000000E+00  0.36818362493E+03  0.36818362494E+03  0.25500000000E-02 0. -1.
          2   -1    0    0  501    0  0.00000000000E+00 -0.00000000000E+00 -0.53401959692E+03  0.53401959692E+03  0.25500000000E-02 0.  1.
   -5000001    1    1    2    0    0 -0.23965861699E+03 -0.16420877115E+03  0.14391896956E+03  0.40940620784E+03  0.25000000000E+03 0.  0.
    5000001    1    1    2    0    0  0.23965861699E+03  0.16420877115E+03 -0.30975494154E+03  0.49279701402E+03  0.25000000000E+03 0.  0.
<mgrwt>
<rscale>  0 0.88683092E+03</rscale>
<asrwt>0</asrwt>
<pdfrwt beam="1">  1        2 0.82156861E-01 0.88683092E+03</pdfrwt>
<pdfrwt beam="2">  1       -2 0.56643634E-01 0.88683092E+03</pdfrwt>
<totfact> 0.16738331E+02</totfact>
</mgrwt>
</event>
<event>
 4    1  0.1751735E-005  0.6056326E+03  0.7818608E-02  0.9893789E-01
          2   -1    0    0  501    0  0.00000000000E+00  0.00000000000E+00  0.20881843182E+03  0.20881843184E+03  0.25500000000E-02 0.  1.
         -2   -1    0    0    0  501 -0.00000000000E+00 -0.00000000000E+00 -0.43912645177E+03  0.43912645178E+03  0.25500000000E-02 0. -1.
   -5000001    1    1    2    0    0 -0.12763642476E+03  0.40932327350E+02 -0.17726558761E+01  0.28367173750E+03  0.25000000000E+03 0.  0.
    5000001    1    1    2    0    0  0.12763642476E+03 -0.40932327350E+02 -0.22853536407E+03  0.36427314611E+03  0.25000000000E+03 0.  0.
<mgrwt>
<rscale>  0 0.60563255E+03</rscale>
<asrwt>0</asrwt>
<pdfrwt beam="1">  1        2 0.32125913E-01 0.60563255E+03</pdfrwt>
<pdfrwt beam="2">  1       -2 0.67557916E-01 0.60563255E+03</pdfrwt>
<totfact> 0.33422510E+02</totfact>
</mgrwt>
</event>
<event>
 4    1  0.1751735E-005  0.5843570E+03  0.7818608E-02  0.9938403E-01
         -2   -1    0    0    0  501 -0.00000000000E+00  0.00000000000E+00  0.20842459100E+02  0.20842459256E+02  0.25500000000E-02 0. -1.
          2   -1    0    0  501    0  0.00000000000E+00 -0.00000000000E+00 -0.40958826670E+04  0.40958826670E+04  0.25500000000E-02 0.  1.
   -5000001    1    1    2    0    0  0.11610792352E+02  0.23029721319E+02 -0.98778350686E+03  0.10192553336E+04  0.25000000000E+03 0.  0.
    5000001    1    1    2    0    0 -0.11610792352E+02 -0.23029721319E+02 -0.30872567011E+04  0.30974697927E+04  0.25000000000E+03 0.  0.
<mgrwt>
<rscale>  0 0.58435697E+03</rscale>
<asrwt>0</asrwt>
<pdfrwt beam="1">  1        2 0.63013515E+00 0.58435697E+03</pdfrwt>
<pdfrwt beam="2">  1       -2 0.32065354E-02 0.58435697E+03</pdfrwt>
<totfact> 0.13289956E+02</totfact>
</mgrwt>
</event>
<event>
 4    1  0.1751735E-005  0.6831419E+03  0.7818608E-02  0.9746504E-01
         -2   -1    0    0    0  501 -0.00000000000E+00  0.00000000000E+00  0.13230083525E+03  0.13230083527E+03  0.25500000000E-02 0. -1.
          2   -1    0    0  501    0  0.00000000000E+00 -0.00000000000E+00 -0.88185917685E+03  0.88185917685E+03  0.25500000000E-02 0.  1.
   -5000001    1    1    2    0    0 -0.95783302918E+02 -0.19870938898E+03 -0.48498500984E+03  0.58853234589E+03  0.25000000000E+03 0.  0.
    5000001    1    1    2    0    0  0.95783302918E+02  0.19870938898E+03 -0.26457333176E+03  0.42562766624E+03  0.25000000000E+03 0.  0.
<mgrwt>
<rscale>  0 0.68314188E+03</rscale>
<asrwt>0</asrwt>
<pdfrwt beam="1">  1        2 0.13567064E+00 0.68314188E+03</pdfrwt>
<pdfrwt beam="2">  1       -2 0.20353975E-01 0.68314188E+03</pdfrwt>
<totfact> 0.62816450E+02</totfact>
</mgrwt>
</event>
<event>
 4    1  0.1751735E-005  0.7300287E+03  0.7818608E-02  0.9667214E-01
          2   -1    0    0  501    0  0.00000000000E+00  0.00000000000E+00  0.86238169971E+03  0.86238169971E+03  0.25500000000E-02 0.  1.
         -2   -1    0    0    0  501 -0.00000000000E+00 -0.00000000000E+00 -0.15449710667E+03  0.15449710669E+03  0.25500000000E-02 0. -1.
   -5000001    1    1    2    0    0  0.25594628143E+03  0.72297798583E+02  0.35382743034E+03  0.50835944087E+03  0.25000000000E+03 0.  0.
    5000001    1    1    2    0    0 -0.25594628143E+03 -0.72297798583E+02  0.35405716270E+03  0.50851936553E+03  0.25000000000E+03 0.  0.
<mgrwt>
<rscale>  0 0.73002870E+03</rscale>
<asrwt>0</asrwt>
<pdfrwt beam="1">  1        2 0.13267411E+00 0.73002870E+03</pdfrwt>
<pdfrwt beam="2">  1       -2 0.23768786E-01 0.73002870E+03</pdfrwt>
<totfact> 0.49138553E+02</totfact>
</mgrwt>
</event>
<event>
 4    1  0.1751735E-005  0.5711619E+03  0.7818608E-02  0.9967111E-01
          2   -1    0    0  501    0  0.00000000000E+00  0.00000000000E+00  0.41867492414E+03  0.41867492415E+03  0.25500000000E-02 0.  1.
         -2   -1    0    0    0  501 -0.00000000000E+00 -0.00000000000E+00 -0.19479667136E+03  0.19479667138E+03  0.25500000000E-02 0. -1.
   -5000001    1    1    2    0    0 -0.96094848450E+02 -0.73676965160E+02  0.40741814913E+02  0.28075329130E+03  0.25000000000E+03 0.  0.
    5000001    1    1    2    0    0  0.96094848450E+02  0.73676965160E+02  0.18313643787E+03  0.33271830423E+03  0.25000000000E+03 0.  0.
<mgrwt>
<rscale>  0 0.57116191E+03</rscale>
<asrwt>0</asrwt>
<pdfrwt beam="1">  1        2 0.64411526E-01 0.57116191E+03</pdfrwt>
<pdfrwt beam="2">  1       -2 0.29968719E-01 0.57116191E+03</pdfrwt>
<totfact> 0.77932404E+02</totfact>
</mgrwt>
</event>
<event>
 4    1  0.1751735E-005  0.6202235E+03  0.7818608E-02  0.9864315E-01
         -2   -1    0    0    0  501 -0.00000000000E+00  0.00000000000E+00  0.48564356040E+02  0.48564356107E+02  0.25500000000E-02 0. -1.
          2   -1    0    0  501    0  0.00000000000E+00 -0.00000000000E+00 -0.19802442916E+04  0.19802442916E+04  0.25500000000E-02 0.  1.
   -5000001    1    1    2    0    0 -0.31858064599E+02  0.14168510292E+03 -0.59895682375E+03  0.66508561959E+03  0.25000000000E+03 0.  0.
    5000001    1    1    2    0    0  0.31858064599E+02 -0.14168510292E+03 -0.13327231118E+04  0.13637230281E+04  0.25000000000E+03 0.  0.
<mgrwt>
<rscale>  0 0.62022347E+03</rscale>
<asrwt>0</asrwt>
<pdfrwt beam="1">  1        2 0.30465291E+00 0.62022347E+03</pdfrwt>
<pdfrwt beam="2">  1       -2 0.74714409E-02 0.62022347E+03</pdfrwt>
<totfact> 0.77572504E+02</totfact>
</mgrwt>
</event>
<event>
 4    1  0.1751735E-005  0.6783571E+03  0.7818608E-02  0.9754977E-01
          2   -1    0    0  501    0  0.00000000000E+00  0.00000000000E+00  0.11917794211E+04  0.11917794211E+04  0.25500000000E-02 0.  1.
         -2   -1    0    0    0  501 -0.00000000000E+00 -0.00000000000E+00 -0.96529685821E+02  0.96529685855E+02  0.25500000000E-02 0. -1.
   -5000001    1    1    2    0    0  0.49292065116E+02 -0.22225425677E+03  0.59842273771E+03  0.68734011620E+03  0.25000000000E+03 0.  0.
    5000001    1    1    2    0    0 -0.49292065116E+02  0.22225425677E+03  0.49682699759E+03  0.60096899077E+03  0.25000000000E+03 0.  0.
<mgrwt>
<rscale>  0 0.67835711E+03</rscale>
<asrwt>0</asrwt>
<pdfrwt beam="1">  1        2 0.18335067E+00 0.67835711E+03</pdfrwt>
<pdfrwt beam="2">  1       -2 0.14850722E-01 0.67835711E+03</pdfrwt>
<totfact> 0.68942461E+02</totfact>
</mgrwt>
</event>
<event>
 4    1  0.1751735E-005  0.5409014E+03  0.7818608E-02  0.1003622E+00
         -2   -1    0    0    0  501 -0.00000000000E+00  0.00000000000E+00  0.35280956194E+02  0.35280956286E+02  0.25500000000E-02 0.  1.
          2   -1    0    0  501    0  0.00000000000E+00 -0.00000000000E+00 -0.20731746322E+04  0.20731746322E+04  0.25500000000E-02 0. -1.
   -5000001    1    1    2    0    0 -0.67065117193E+02 -0.23025695452E+02 -0.13110573384E+04  0.13365624779E+04  0.25000000000E+03 0.  0.
    5000001    1    1    2    0    0  0.67065117193E+02  0.23025695452E+02 -0.72683633753E+03  0.77189311057E+03  0.25000000000E+03 0.  0.
<mgrwt>
<rscale>  0 0.54090141E+03</rscale>
<asrwt>0</asrwt>
<pdfrwt beam="1">  1        2 0.31894985E+00 0.54090141E+03</pdfrwt>
<pdfrwt beam="2">  1       -2 0.54278410E-02 0.54090141E+03</pdfrwt>
<totfact> 0.11472867E+03</totfact>
</mgrwt>
</event>
<event>
 4    1  0.1751735E-005  0.9244914E+03  0.7818608E-02  0.9395473E-01
          2   -1    0    0  501    0  0.00000000000E+00  0.00000000000E+00  0.20362024763E+03  0.20362024764E+03  0.25500000000E-02 0.  1.
         -2   -1    0    0    0  501 -0.00000000000E+00 -0.00000000000E+00 -0.10493605978E+04  0.10493605978E+04  0.25500000000E-02 0. -1.
   -5000001    1    1    2    0    0  0.33230610505E+03 -0.15757471997E+03 -0.59384423790E+03  0.74189495127E+03  0.25000000000E+03 0.  0.
    5000001    1    1    2    0    0 -0.33230610505E+03  0.15757471997E+03 -0.25189611224E+03  0.51108589414E+03  0.25000000000E+03 0.  0.
<mgrwt>
<rscale>  0 0.92449135E+03</rscale>
<asrwt>0</asrwt>
<pdfrwt beam="1">  1        2 0.31326193E-01 0.92449135E+03</pdfrwt>
<pdfrwt beam="2">  1       -2 0.16144009E+00 0.92449135E+03</pdfrwt>
<totfact> 0.41749443E+01</totfact>
</mgrwt>
</event>
<event>
 4    1  0.1751735E-005  0.1021045E+04  0.7818608E-02  0.9285759E-01
         -2   -1    0    0    0  501 -0.00000000000E+00  0.00000000000E+00  0.23406006505E+03  0.23406006506E+03  0.25500000000E-02 0. -1.
          2   -1    0    0  501    0  0.00000000000E+00 -0.00000000000E+00 -0.11135319284E+04  0.11135319284E+04  0.25500000000E-02 0.  1.
   -5000001    1    1    2    0    0 -0.56445267096E+02 -0.21528559748E+03 -0.94850647063E+03  0.10058322333E+04  0.25000000000E+03 0.  0.
    5000001    1    1    2    0    0  0.56445267096E+02  0.21528559748E+03  0.69034607310E+02  0.34175976016E+03  0.25000000000E+03 0.  0.
<mgrwt>
<rscale>  0 0.10210453E+04</rscale>
<asrwt>0</asrwt>
<pdfrwt beam="1">  1        2 0.17131260E+00 0.10210453E+04</pdfrwt>
<pdfrwt beam="2">  1       -2 0.36009241E-01 0.10210453E+04</pdfrwt>
<totfact> 0.15442532E+02</totfact>
</mgrwt>
</event>
<event>
 4    1  0.1751735E-005  0.6171828E+03  0.7818608E-02  0.9870385E-01
          2   -1    0    0  501    0  0.00000000000E+00  0.00000000000E+00  0.37467760526E+04  0.37467760526E+04  0.25500000000E-02 0.  1.
         -2   -1    0    0    0  501 -0.00000000000E+00 -0.00000000000E+00 -0.25416154472E+02  0.25416154600E+02  0.25500000000E-02 0. -1.
   -5000001    1    1    2    0    0  0.34161637610E+02  0.28185937705E+02  0.78860823691E+03  0.82847113160E+03  0.25000000000E+03 0.  0.
    5000001    1    1    2    0    0 -0.34161637610E+02 -0.28185937705E+02  0.29327516612E+04  0.29437210756E+04  0.25000000000E+03 0.  0.
<mgrwt>
<rscale>  0 0.61718276E+03</rscale>
<asrwt>0</asrwt>
<pdfrwt beam="1">  1        2 0.57642681E+00 0.61718276E+03</pdfrwt>
<pdfrwt beam="2">  1       -2 0.39101795E-02 0.61718276E+03</pdfrwt>
<totfact> 0.18054691E+02</totfact>
</mgrwt>
</event>
<event>
 4    1  0.1751735E-005  0.6706418E+03  0.7818608E-02  0.9768799E-01
          2   -1    0    0  501    0  0.00000000000E+00  0.00000000000E+00  0.64977569174E+03  0.64977569175E+03  0.25500000000E-02 0.  1.
         -2   -1    0    0    0  501 -0.00000000000E+00 -0.00000000000E+00 -0.17304449870E+03  0.17304449872E+03  0.25500000000E-02 0. -1.
   -5000001    1    1    2    0    0 -0.13941164194E+03  0.17283519137E+03  0.26922193808E+03  0.42928785358E+03  0.25000000000E+03 0.  0.
    5000001    1    1    2    0    0  0.13941164194E+03 -0.17283519137E+03  0.20750925496E+03  0.39353233689E+03  0.25000000000E+03 0.  0.
<mgrwt>
<rscale>  0 0.67064181E+03</rscale>
<asrwt>0</asrwt>
<pdfrwt beam="1">  1        2 0.99965492E-01 0.67064181E+03</pdfrwt>
<pdfrwt beam="2">  1       -2 0.26622230E-01 0.67064181E+03</pdfrwt>
<totfact> 0.57843238E+02</totfact>
</mgrwt>
</event>
<event>
 4    1  0.1751735E-005  0.6591641E+03  0.7818608E-02  0.9789734E-01
          2   -1    0    0  501    0  0.00000000000E+00  0.00000000000E+00  0.11102578219E+03  0.11102578222E+03  0.25500000000E-02 0.  1.
         -2   -1    0    0    0  501 -0.00000000000E+00 -0.00000000000E+00 -0.97837023903E+03  0.97837023903E+03  0.25500000000E-02 0. -1.
   -5000001    1    1    2    0    0  0.44474371326E+02 -0.20731380350E+03 -0.49013869473E+03  0.58965491849E+03  0.25000000000E+03 0.  0.
    5000001    1    1    2    0    0 -0.44474371326E+02  0.20731380350E+03 -0.37720576211E+03  0.49974110277E+03  0.25000000000E+03 0.  0.
<mgrwt>
<rscale>  0 0.65916408E+03</rscale>
<asrwt>0</asrwt>
<pdfrwt beam="1">  1        2 0.17080890E-01 0.65916408E+03</pdfrwt>
<pdfrwt beam="2">  1       -2 0.15051849E+00 0.65916408E+03</pdfrwt>
<totfact> 0.10326667E+02</totfact>
</mgrwt>
</event>
<event>
 4    1  0.1751735E-005  0.8187652E+03  0.7818608E-02  0.9533245E-01
         -2   -1    0    0    0  501 -0.00000000000E+00  0.00000000000E+00  0.75166928118E+03  0.75166928119E+03  0.25500000000E-02 0. -1.
          2   -1    0    0  501    0  0.00000000000E+00 -0.00000000000E+00 -0.22296258345E+03  0.22296258347E+03  0.25500000000E-02 0.  1.
   -5000001    1    1    2    0    0 -0.83350290217E+02  0.29768826694E+03  0.38055026901E+03  0.55034905505E+03  0.25000000000E+03 0.  0.
    5000001    1    1    2    0    0  0.83350290217E+02 -0.29768826694E+03  0.14815642873E+03  0.42428280961E+03  0.25000000000E+03 0.  0.
<mgrwt>
<rscale>  0 0.81876523E+03</rscale>
<asrwt>0</asrwt>
<pdfrwt beam="1">  1        2 0.34301936E-01 0.81876523E+03</pdfrwt>
<pdfrwt beam="2">  1       -2 0.11564143E+00 0.81876523E+03</pdfrwt>
<totfact> 0.89572795E+01</totfact>
</mgrwt>
</event>
<event>
 4    1  0.1751735E-005  0.9463635E+03  0.7818608E-02  0.9369411E-01
         -2   -1    0    0    0  501 -0.00000000000E+00  0.00000000000E+00  0.10996157214E+03  0.10996157217E+03  0.25500000000E-02 0. -1.
          2   -1    0    0  501    0  0.00000000000E+00 -0.00000000000E+00 -0.20361747421E+04  0.20361747421E+04  0.25500000000E-02 0.  1.
   -5000001    1    1    2    0    0 -0.18729129877E+03  0.24585468752E+03 -0.15451707930E+04  0.15954859252E+04  0.25000000000E+03 0.  0.
    5000001    1    1    2    0    0  0.18729129877E+03 -0.24585468752E+03 -0.38104237701E+03  0.55065038912E+03  0.25000000000E+03 0.  0.
<mgrwt>
<rscale>  0 0.94636352E+03</rscale>
<asrwt>0</asrwt>
<pdfrwt beam="1">  1        2 0.31325762E+00 0.94636352E+03</pdfrwt>
<pdfrwt beam="2">  1       -2 0.16917166E-01 0.94636352E+03</pdfrwt>
<totfact> 0.18360867E+02</totfact>
</mgrwt>
</event>
<event>
 4    1  0.1751735E-005  0.1126909E+04  0.7818608E-02  0.9179354E-01
         -2   -1    0    0    0  501 -0.00000000000E+00  0.00000000000E+00  0.10056747574E+03  0.10056747577E+03  0.25500000000E-02 0. -1.
          2   -1    0    0  501    0  0.00000000000E+00 -0.00000000000E+00 -0.31568957262E+04  0.31568957262E+04  0.25500000000E-02 0.  1.
   -5000001    1    1    2    0    0 -0.49806774328E+03  0.67628471166E+02 -0.16678724094E+04  0.17598134734E+04  0.25000000000E+03 0.  0.
    5000001    1    1    2    0    0  0.49806774328E+03 -0.67628471166E+02 -0.13884558411E+04  0.14976497286E+04  0.25000000000E+03 0.  0.
<mgrwt>
<rscale>  0 0.11269091E+04</rscale>
<asrwt>0</asrwt>
<pdfrwt beam="1">  1        2 0.48567619E+00 0.11269091E+04</pdfrwt>
<pdfrwt beam="2">  1       -2 0.15471922E-01 0.11269091E+04</pdfrwt>
<totfact> 0.46655985E+01</totfact>
</mgrwt>
</event>
<event>
 4    1  0.1751735E-005  0.5389130E+03  0.7818608E-02  0.1004093E+00
          2   -1    0    0  501    0  0.00000000000E+00  0.00000000000E+00  0.63037520119E+03  0.63037520119E+03  0.25500000000E-02 0.  1.
         -2   -1    0    0    0  501 -0.00000000000E+00 -0.00000000000E+00 -0.11518031980E+03  0.11518031983E+03  0.25500000000E-02 0. -1.
   -5000001    1    1    2    0    0  0.72039601783E+01 -0.10027249146E+03  0.25841319399E+03  0.37334146356E+03  0.25000000000E+03 0.  0.
    5000001    1    1    2    0    0 -0.72039601783E+01  0.10027249146E+03  0.25678168740E+03  0.37221405746E+03  0.25000000000E+03 0.  0.
<mgrwt>
<rscale>  0 0.53891304E+03</rscale>
<asrwt>0</asrwt>
<pdfrwt beam="1">  1        2 0.96980802E-01 0.53891304E+03</pdfrwt>
<pdfrwt beam="2">  1       -2 0.17720049E-01 0.53891304E+03</pdfrwt>
<totfact> 0.12330923E+03</totfact>
</mgrwt>
</event>
<event>
 4    1  0.1751735E-005  0.5795030E+03  0.7818608E-02  0.9948868E-01
          2   -1    0    0  501    0  0.00000000000E+00  0.00000000000E+00  0.20019007966E+03  0.20019007967E+03  0.25500000000E-02 0.  1.
         -2   -1    0    0    0  501 -0.00000000000E+00 -0.00000000000E+00 -0.41938102938E+03  0.41938102939E+03  0.25500000000E-02 0. -1.
   -5000001    1    1    2    0    0  0.10680735566E+03  0.81301754669E+02 -0.46905662797E+02  0.28760724563E+03  0.25000000000E+03 0.  0.
    5000001    1    1    2    0    0 -0.10680735566E+03 -0.81301754669E+02 -0.17228528693E+03  0.33196386344E+03  0.25000000000E+03 0.  0.
<mgrwt>
<rscale>  0 0.57950297E+03</rscale>
<asrwt>0</asrwt>
<pdfrwt beam="1">  1        2 0.30798474E-01 0.57950297E+03</pdfrwt>
<pdfrwt beam="2">  1       -2 0.64520158E-01 0.57950297E+03</pdfrwt>
<totfact> 0.38698857E+02</totfact>
</mgrwt>
</event>
<event>
 4    1  0.1751735E-005  0.5848142E+03  0.7818608E-02  0.9937422E-01
          2   -1    0    0  501    0  0.00000000000E+00  0.00000000000E+00  0.10220924406E+04  0.10220924406E+04  0.25500000000E-02 0.  1.
         -2   -1    0    0    0  501 -0.00000000000E+00 -0.00000000000E+00 -0.83653785012E+02  0.83653785051E+02  0.25500000000E-02 0. -1.
   -5000001    1    1    2    0    0 -0.20697338331E+02 -0.14208946713E+03  0.37689837938E+03  0.47452100571E+03  0.25000000000E+03 0.  0.
    5000001    1    1    2    0    0  0.20697338331E+02  0.14208946713E+03  0.56154027618E+03  0.63122521992E+03  0.25000000000E+03 0.  0.
<mgrwt>
<rscale>  0 0.58481416E+03</rscale>
<asrwt>0</asrwt>
<pdfrwt beam="1">  1        2 0.15724499E+00 0.58481416E+03</pdfrwt>
<pdfrwt beam="2">  1       -2 0.12869813E-01 0.58481416E+03</pdfrwt>
<totfact> 0.11140258E+03</totfact>
</mgrwt>
</event>
<event>
 4    1  0.1751735E-005  0.7998233E+03  0.7818608E-02  0.9560273E-01
          2   -1    0    0  501    0  0.00000000000E+00  0.00000000000E+00  0.14991000887E+04  0.14991000887E+04  0.25500000000E-02 0.  1.
         -2   -1    0    0    0  501 -0.00000000000E+00 -0.00000000000E+00 -0.10668356805E+03  0.10668356808E+03  0.25500000000E-02 0. -1.
   -5000001    1    1    2    0    0 -0.28725554420E+03 -0.10902589481E+03  0.80666590825E+03  0.89867251040E+03  0.25000000000E+03 0.  0.
    5000001    1    1    2    0    0  0.28725554420E+03  0.10902589481E+03  0.58575061237E+03  0.70711114636E+03  0.25000000000E+03 0.  0.
<mgrwt>
<rscale>  0 0.79982335E+03</rscale>
<asrwt>0</asrwt>
<pdfrwt beam="1">  1        2 0.23063077E+00 0.79982335E+03</pdfrwt>
<pdfrwt beam="2">  1       -2 0.16412858E-01 0.79982335E+03</pdfrwt>
<totfact> 0.38571709E+02</totfact>
</mgrwt>
</event>
<event>
 4    1  0.1751735E-005  0.8567148E+03  0.7818608E-02  0.9481369E-01
          2   -1    0    0  501    0  0.00000000000E+00  0.00000000000E+00  0.15569245532E+04  0.15569245532E+04  0.25500000000E-02 0.  1.
         -2   -1    0    0    0  501 -0.00000000000E+00 -0.00000000000E+00 -0.11785417875E+03  0.11785417878E+03  0.25500000000E-02 0. -1.
   -5000001    1    1    2    0    0 -0.10907738589E+03  0.32499378030E+03  0.60435893588E+03  0.73842302018E+03  0.25000000000E+03 0.  0.
    5000001    1    1    2    0    0  0.10907738589E+03 -0.32499378030E+03  0.83471143860E+03  0.93635571183E+03  0.25000000000E+03 0.  0.
<mgrwt>
<rscale>  0 0.85671481E+03</rscale>
<asrwt>0</asrwt>
<pdfrwt beam="1">  1        2 0.23952685E+00 0.85671481E+03</pdfrwt>
<pdfrwt beam="2">  1       -2 0.18131413E-01 0.85671481E+03</pdfrwt>
<totfact> 0.30073803E+02</totfact>
</mgrwt>
</event>
<event>
 4    1  0.1751735E-005  0.5209657E+03  0.7818608E-02  0.1008447E+00
         -2   -1    0    0    0  501 -0.00000000000E+00  0.00000000000E+00  0.51645186383E+02  0.51645186446E+02  0.25500000000E-02 0. -1.
          2   -1    0    0  501    0  0.00000000000E+00 -0.00000000000E+00 -0.13137976221E+04  0.13137976221E+04  0.25500000000E-02 0.  1.
   -5000001    1    1    2    0    0 -0.65286015671E+02 -0.32914192007E+02 -0.63734208599E+03  0.68851328415E+03  0.25000000000E+03 0.  0.
    5000001    1    1    2    0    0  0.65286015671E+02  0.32914192007E+02 -0.62481034976E+03  0.67692952443E+03  0.25000000000E+03 0.  0.
<mgrwt>
<rscale>  0 0.52096573E+03</rscale>
<asrwt>0</asrwt>
<pdfrwt beam="1">  1        2 0.20212269E+00 0.52096573E+03</pdfrwt>
<pdfrwt beam="2">  1       -2 0.79454143E-02 0.52096573E+03</pdfrwt>
<totfact> 0.16376338E+03</totfact>
</mgrwt>
</event>
<event>
 4    1  0.1751735E-005  0.7257023E+03  0.7818608E-02  0.9674260E-01
          2   -1    0    0  501    0  0.00000000000E+00  0.00000000000E+00  0.20537340590E+04  0.20537340590E+04  0.25500000000E-02 0.  1.
         -2   -1    0    0    0  501 -0.00000000000E+00 -0.00000000000E+00 -0.64108083992E+02  0.64108084043E+02  0.25500000000E-02 0. -1.
   -5000001    1    1    2    0    0 -0.23738086927E+03  0.86237448002E+02  0.78086937858E+03  0.85792981120E+03  0.25000000000E+03 0.  0.
    5000001    1    1    2    0    0  0.23738086927E+03 -0.86237448002E+02  0.12087565964E+04  0.12599123319E+04  0.25000000000E+03 0.  0.
<mgrwt>
<rscale>  0 0.72570230E+03</rscale>
<asrwt>0</asrwt>
<pdfrwt beam="1">  1        2 0.31595906E+00 0.72570230E+03</pdfrwt>
<pdfrwt beam="2">  1       -2 0.98627830E-02 0.72570230E+03</pdfrwt>
<totfact> 0.44950790E+02</totfact>
</mgrwt>
</event>
<event>
 4    1  0.1751735E-005  0.7626092E+03  0.7818608E-02  0.9615774E-01
         -2   -1    0    0    0  501 -0.00000000000E+00  0.00000000000E+00  0.11243548968E+03  0.11243548971E+03  0.25500000000E-02 0. -1.
          2   -1    0    0  501    0  0.00000000000E+00 -0.00000000000E+00 -0.12931256325E+04  0.12931256325E+04  0.25500000000E-02 0.  1.
   -5000001    1    1    2    0    0  0.11377576433E+03  0.18131165153E+03 -0.23546256898E+03  0.40467451232E+03  0.25000000000E+03 0.  0.
    5000001    1    1    2    0    0 -0.11377576433E+03 -0.18131165153E+03 -0.94522757385E+03  0.10008866099E+04  0.25000000000E+03 0.  0.
<mgrwt>
<rscale>  0 0.76260924E+03</rscale>
<asrwt>0</asrwt>
<pdfrwt beam="1">  1        2 0.19894239E+00 0.76260924E+03</pdfrwt>
<pdfrwt beam="2">  1       -2 0.17297769E-01 0.76260924E+03</pdfrwt>
<totfact> 0.46218323E+02</totfact>
</mgrwt>
</event>
<event>
 4    1  0.1751735E-005  0.6462400E+03  0.7818608E-02  0.9813860E-01
          2   -1    0    0  501    0  0.00000000000E+00  0.00000000000E+00  0.49046057275E+03  0.49046057276E+03  0.25500000000E-02 0.  1.
         -2   -1    0    0    0  501 -0.00000000000E+00 -0.00000000000E+00 -0.21287444913E+03  0.21287444914E+03  0.25500000000E-02 0. -1.
   -5000001    1    1    2    0    0  0.17112790169E+03  0.57377338940E+02  0.33669494109E+02  0.31017825938E+03  0.25000000000E+03 0.  0.
    5000001    1    1    2    0    0 -0.17112790169E+03 -0.57377338940E+02  0.24391662951E+03  0.39315676252E+03  0.25000000000E+03 0.  0.
<mgrwt>
<rscale>  0 0.64623997E+03</rscale>
<asrwt>0</asrwt>
<pdfrwt beam="1">  1        2 0.75455472E-01 0.64623997E+03</pdfrwt>
<pdfrwt beam="2">  1       -2 0.32749916E-01 0.64623997E+03</pdfrwt>
<totfact> 0.55117972E+02</totfact>
</mgrwt>
</event>
<event>
 4    1  0.1751735E-005  0.1003614E+04  0.7818608E-02  0.9304590E-01
          2   -1    0    0  501    0  0.00000000000E+00  0.00000000000E+00  0.18585462409E+04  0.18585462409E+04  0.25500000000E-02 0.  1.
         -2   -1    0    0    0  501 -0.00000000000E+00 -0.00000000000E+00 -0.13548769470E+03  0.13548769472E+03  0.25500000000E-02 0. -1.
   -5000001    1    1    2    0    0  0.33703891704E+03 -0.26946487242E+03  0.75084177466E+03  0.90137113313E+03  0.25000000000E+03 0.  0.
    5000001    1    1    2    0    0 -0.33703891704E+03  0.26946487242E+03  0.97221677154E+03  0.10926628025E+04  0.25000000000E+03 0.  0.
<mgrwt>
<rscale>  0 0.10036138E+04</rscale>
<asrwt>0</asrwt>
<pdfrwt beam="1">  1        2 0.28593018E+00 0.10036138E+04</pdfrwt>
<pdfrwt beam="2">  1       -2 0.20844261E-01 0.10036138E+04</pdfrwt>
<totfact> 0.15912209E+02</totfact>
</mgrwt>
</event>
<event>
 4    1  0.1751735E-005  0.1200717E+04  0.7818608E-02  0.9112229E-01
          2   -1    0    0  501    0  0.00000000000E+00  0.00000000000E+00  0.21972339605E+04  0.21972339605E+04  0.25500000000E-02 0.  1.
         -2   -1    0    0    0  501 -0.00000000000E+00 -0.00000000000E+00 -0.16403833820E+03  0.16403833822E+03  0.25500000000E-02 0. -1.
   -5000001    1    1    2    0    0 -0.34292255582E+03  0.40095987134E+03  0.12916754376E+04  0.14174943152E+04  0.25000000000E+03 0.  0.
    5000001    1    1    2    0    0  0.34292255582E+03 -0.40095987134E+03  0.74152018470E+03  0.94377798344E+03  0.25000000000E+03 0.  0.
<mgrwt>
<rscale>  0 0.12007175E+04</rscale>
<asrwt>0</asrwt>
<pdfrwt beam="1">  1        2 0.33803599E+00 0.12007175E+04</pdfrwt>
<pdfrwt beam="2">  1       -2 0.25236668E-01 0.12007175E+04</pdfrwt>
<totfact> 0.72326093E+01</totfact>
</mgrwt>
</event>
<event>
 4    1  0.1751735E-005  0.1026915E+04  0.7818608E-02  0.9279507E-01
          2   -1    0    0  501    0  0.00000000000E+00  0.00000000000E+00  0.81447529645E+03  0.81447529645E+03  0.25500000000E-02 0.  1.
         -2   -1    0    0    0  501 -0.00000000000E+00 -0.00000000000E+00 -0.32369162528E+03  0.32369162529E+03  0.25500000000E-02 0. -1.
   -5000001    1    1    2    0    0 -0.43650552214E+03 -0.69450186183E+02  0.32964308005E+03  0.60541304862E+03  0.25000000000E+03 0.  0.
    5000001    1    1    2    0    0  0.43650552214E+03  0.69450186183E+02  0.16114059112E+03  0.53275387312E+03  0.25000000000E+03 0.  0.
<mgrwt>
<rscale>  0 0.10269154E+04</rscale>
<asrwt>0</asrwt>
<pdfrwt beam="1">  1        2 0.12530389E+00 0.10269154E+04</pdfrwt>
<pdfrwt beam="2">  1       -2 0.49798712E-01 0.10269154E+04</pdfrwt>
<totfact> 0.12792134E+02</totfact>
</mgrwt>
</event>
<event>
 4    1  0.1751735E-005  0.7544557E+03  0.7818608E-02  0.9628386E-01
         -2   -1    0    0    0  501 -0.00000000000E+00  0.00000000000E+00  0.12251847552E+03  0.12251847554E+03  0.25500000000E-02 0. -1.
          2   -1    0    0  501    0  0.00000000000E+00 -0.00000000000E+00 -0.11614643006E+04  0.11614643006E+04  0.25500000000E-02 0.  1.
   -5000001    1    1    2    0    0  0.21751016876E+03 -0.33222246927E+02 -0.82097931338E+03  0.88595791334E+03  0.25000000000E+03 0.  0.
    5000001    1    1    2    0    0 -0.21751016876E+03  0.33222246927E+02 -0.21796651175E+03  0.39802486285E+03  0.25000000000E+03 0.  0.
<mgrwt>
<rscale>  0 0.75445566E+03</rscale>
<asrwt>0</asrwt>
<pdfrwt beam="1">  1        2 0.17868681E+00 0.75445566E+03</pdfrwt>
<pdfrwt beam="2">  1       -2 0.18848997E-01 0.75445566E+03</pdfrwt>
<totfact> 0.47636218E+02</totfact>
</mgrwt>
</event>
<event>
 4    1  0.1751735E-005  0.1062108E+04  0.7818608E-02  0.9242931E-01
          2   -1    0    0  501    0  0.00000000000E+00  0.00000000000E+00  0.16089905718E+04  0.16089905718E+04  0.25500000000E-02 0.  1.
         -2   -1    0    0    0  501 -0.00000000000E+00 -0.00000000000E+00 -0.17527669808E+03  0.17527669810E+03  0.25500000000E-02 0. -1.
   -5000001    1    1    2    0    0 -0.10041554591E+03  0.24118574431E+03  0.63485896762E+02  0.36712981928E+03  0.25000000000E+03 0.  0.
    5000001    1    1    2    0    0  0.10041554591E+03 -0.24118574431E+03  0.13702279770E+04  0.14171374506E+04  0.25000000000E+03 0.  0.
<mgrwt>
<rscale>  0 0.10621084E+04</rscale>
<asrwt>0</asrwt>
<pdfrwt beam="1">  1        2 0.24753702E+00 0.10621084E+04</pdfrwt>
<pdfrwt beam="2">  1       -2 0.26965645E-01 0.10621084E+04</pdfrwt>
<totfact> 0.13698891E+02</totfact>
</mgrwt>
</event>
<event>
 4    1  0.1751735E-005  0.1017711E+04  0.7818608E-02  0.9289330E-01
         -2   -1    0    0    0  501 -0.00000000000E+00  0.00000000000E+00  0.14513392576E+03  0.14513392578E+03  0.25500000000E-02 0.  1.
          2   -1    0    0  501    0  0.00000000000E+00 -0.00000000000E+00 -0.17841048442E+04  0.17841048442E+04  0.25500000000E-02 0. -1.
   -5000001    1    1    2    0    0 -0.18416211391E+03 -0.35455758196E+03 -0.45579763493E+03  0.65565101017E+03  0.25000000000E+03 0.  0.
    5000001    1    1    2    0    0  0.18416211391E+03  0.35455758196E+03 -0.11831732835E+04  0.12735877598E+04  0.25000000000E+03 0.  0.
<mgrwt>
<rscale>  0 0.10177114E+04</rscale>
<asrwt>0</asrwt>
<pdfrwt beam="1">  1        2 0.27447765E+00 0.10177114E+04</pdfrwt>
<pdfrwt beam="2">  1       -2 0.22328298E-01 0.10177114E+04</pdfrwt>
<totfact> 0.15461152E+02</totfact>
</mgrwt>
</event>
<event>
 4    1  0.1751735E-005  0.7390298E+03  0.7818608E-02  0.9652720E-01
          2   -1    0    0  501    0  0.00000000000E+00  0.00000000000E+00  0.18546720997E+04  0.18546720997E+04  0.25500000000E-02 0.  1.
         -2   -1    0    0    0  501 -0.00000000000E+00 -0.00000000000E+00 -0.73620156389E+02  0.73620156433E+02  0.25500000000E-02 0. -1.
   -5000001    1    1    2    0    0 -0.93737900931E+01 -0.21220589113E+03  0.44678922014E+03  0.55429217513E+03  0.25000000000E+03 0.  0.
    5000001    1    1    2    0    0  0.93737900931E+01  0.21220589113E+03  0.13342627231E+04  0.13740000810E+04  0.25000000000E+03 0.  0.
<mgrwt>
<rscale>  0 0.73902977E+03</rscale>
<asrwt>0</asrwt>
<pdfrwt beam="1">  1        2 0.28533417E+00 0.73902977E+03</pdfrwt>
<pdfrwt beam="2">  1       -2 0.11326178E-01 0.73902977E+03</pdfrwt>
<totfact> 0.45980515E+02</totfact>
</mgrwt>
</event>
<event>
 4    1  0.1751735E-005  0.9455815E+03  0.7818608E-02  0.9370330E-01
          2   -1    0    0  501    0  0.00000000000E+00  0.00000000000E+00  0.20160002998E+04  0.20160002998E+04  0.25500000000E-02 0.  1.
         -2   -1    0    0    0  501 -0.00000000000E+00 -0.00000000000E+00 -0.11087849534E+03  0.11087849537E+03  0.25500000000E-02 0. -1.
   -5000001    1    1    2    0    0 -0.29590909898E+03  0.34488132141E+02  0.15572765665E+04  0.16051049594E+04  0.25000000000E+03 0.  0.
    5000001    1    1    2    0    0  0.29590909898E+03 -0.34488132141E+02  0.34784523797E+03  0.52177383577E+03  0.25000000000E+03 0.  0.
<mgrwt>
<rscale>  0 0.94558147E+03</rscale>
<asrwt>0</asrwt>
<pdfrwt beam="1">  1        2 0.31015387E+00 0.94558147E+03</pdfrwt>
<pdfrwt beam="2">  1       -2 0.17058231E-01 0.94558147E+03</pdfrwt>
<totfact> 0.18569977E+02</totfact>
</mgrwt>
</event>
<event>
 4    1  0.1751735E-005  0.1066781E+04  0.7818608E-02  0.9238188E-01
          2   -1    0    0  501    0  0.00000000000E+00  0.00000000000E+00  0.13154302009E+04  0.13154302009E+04  0.25500000000E-02 0.  1.
         -2   -1    0    0    0  501 -0.00000000000E+00 -0.00000000000E+00 -0.21628306335E+03  0.21628306337E+03  0.25500000000E-02 0. -1.
   -5000001    1    1    2    0    0 -0.36932173593E+03 -0.24583175614E+03  0.32176297510E+03  0.60238128216E+03  0.25000000000E+03 0.  0.
    5000001    1    1    2    0    0  0.36932173593E+03  0.24583175614E+03  0.77738416247E+03  0.92933198213E+03  0.25000000000E+03 0.  0.
<mgrwt>
<rscale>  0 0.10667807E+04</rscale>
<asrwt>0</asrwt>
<pdfrwt beam="1">  1        2 0.20237388E+00 0.10667807E+04</pdfrwt>
<pdfrwt beam="2">  1       -2 0.33274317E-01 0.10667807E+04</pdfrwt>
<totfact> 0.13574601E+02</totfact>
</mgrwt>
</event>
<event>
 4    1  0.1751735E-005  0.8695890E+03  0.7818608E-02  0.9464416E-01
          2   -1    0    0  501    0  0.00000000000E+00  0.00000000000E+00  0.33737991039E+04  0.33737991039E+04  0.25500000000E-02 0.  1.
         -2   -1    0    0    0  501 -0.00000000000E+00 -0.00000000000E+00 -0.56033641225E+02  0.56033641283E+02  0.25500000000E-02 0. -1.
   -5000001    1    1    2    0    0 -0.27357086535E+03 -0.18805050175E+03  0.11546689700E+04  0.12271774280E+04  0.25000000000E+03 0.  0.
    5000001    1    1    2    0    0  0.27357086535E+03  0.18805050175E+03  0.21630964927E+04  0.22026553172E+04  0.25000000000E+03 0.  0.
<mgrwt>
<rscale>  0 0.86958898E+03</rscale>
<asrwt>0</asrwt>
<pdfrwt beam="1">  1        2 0.51904605E+00 0.86958898E+03</pdfrwt>
<pdfrwt beam="2">  1       -2 0.86205596E-02 0.86958898E+03</pdfrwt>
<totfact> 0.91391461E+01</totfact>
</mgrwt>
</event>
<event>
 4    1  0.1751735E-005  0.7921729E+03  0.7818608E-02  0.9571416E-01
          2   -1    0    0  501    0  0.00000000000E+00  0.00000000000E+00  0.89732931200E+03  0.89732931200E+03  0.25500000000E-02 0.  1.
         -2   -1    0    0    0  501 -0.00000000000E+00 -0.00000000000E+00 -0.17483490539E+03  0.17483490541E+03  0.25500000000E-02 0. -1.
   -5000001    1    1    2    0    0 -0.16653217592E+03  0.24916259538E+03  0.26975656759E+03  0.47442973168E+03  0.25000000000E+03 0.  0.
    5000001    1    1    2    0    0  0.16653217592E+03 -0.24916259538E+03  0.45273783902E+03  0.59773448573E+03  0.25000000000E+03 0.  0.
<mgrwt>
<rscale>  0 0.79217292E+03</rscale>
<asrwt>0</asrwt>
<pdfrwt beam="1">  1        2 0.13805066E+00 0.79217292E+03</pdfrwt>
<pdfrwt beam="2">  1       -2 0.26897678E-01 0.79217292E+03</pdfrwt>
<totfact> 0.37109108E+02</totfact>
</mgrwt>
</event>
<event>
 4    1  0.1751735E-005  0.8530313E+03  0.7818608E-02  0.9486277E-01
         -2   -1    0    0    0  501 -0.00000000000E+00  0.00000000000E+00  0.25193416412E+03  0.25193416414E+03  0.25500000000E-02 0. -1.
          2   -1    0    0  501    0  0.00000000000E+00 -0.00000000000E+00 -0.72207601907E+03  0.72207601907E+03  0.25500000000E-02 0.  1.
   -5000001    1    1    2    0    0  0.16142253868E+03  0.21047129614E+03  0.17837461705E+02  0.36492955146E+03  0.25000000000E+03 0.  0.
    5000001    1    1    2    0    0 -0.16142253868E+03 -0.21047129614E+03 -0.48797931665E+03  0.60908063175E+03  0.25000000000E+03 0.  0.
<mgrwt>
<rscale>  0 0.85303134E+03</rscale>
<asrwt>0</asrwt>
<pdfrwt beam="1">  1        2 0.11108862E+00 0.85303134E+03</pdfrwt>
<pdfrwt beam="2">  1       -2 0.38759102E-01 0.85303134E+03</pdfrwt>
<totfact> 0.24870513E+02</totfact>
</mgrwt>
</event>
<event>
 4    1  0.1751735E-005  0.5991829E+03  0.7818608E-02  0.9907103E-01
         -2   -1    0    0    0  501 -0.00000000000E+00  0.00000000000E+00  0.86709342051E+02  0.86709342088E+02  0.25500000000E-02 0. -1.
          2   -1    0    0  501    0  0.00000000000E+00 -0.00000000000E+00 -0.10351252728E+04  0.10351252728E+04  0.25500000000E-02 0.  1.
   -5000001    1    1    2    0    0 -0.92274767509E+02  0.13686663993E+03 -0.46893841231E+03  0.55646234768E+03  0.25000000000E+03 0.  0.
    5000001    1    1    2    0    0  0.92274767509E+02 -0.13686663993E+03 -0.47947751844E+03  0.56537226722E+03  0.25000000000E+03 0.  0.
<mgrwt>
<rscale>  0 0.59918288E+03</rscale>
<asrwt>0</asrwt>
<pdfrwt beam="1">  1        2 0.15925003E+00 0.59918288E+03</pdfrwt>
<pdfrwt beam="2">  1       -2 0.13339900E-01 0.59918288E+03</pdfrwt>
<totfact> 0.10296924E+03</totfact>
</mgrwt>
</event>
<event>
 4    1  0.1751735E-005  0.1037324E+04  0.7818608E-02  0.9268530E-01
          2   -1    0    0  501    0  0.00000000000E+00  0.00000000000E+00  0.23556344749E+04  0.23556344749E+04  0.25500000000E-02 0.  1.
         -2   -1    0    0    0  501 -0.00000000000E+00 -0.00000000000E+00 -0.11419860210E+03  0.11419860213E+03  0.25500000000E-02 0. -1.
   -5000001    1    1    2    0    0  0.44759231867E+03 -0.77659528867E+02  0.11489178655E+04  0.12605086861E+04  0.25000000000E+03 0.  0.
    5000001    1    1    2    0    0 -0.44759231867E+03  0.77659528867E+02  0.10925180073E+04  0.12093243909E+04  0.25000000000E+03 0.  0.
<mgrwt>
<rscale>  0 0.10373238E+04</rscale>
<asrwt>0</asrwt>
<pdfrwt beam="1">  1        2 0.36240529E+00 0.10373238E+04</pdfrwt>
<pdfrwt beam="2">  1       -2 0.17569017E-01 0.10373238E+04</pdfrwt>
<totfact> 0.11344730E+02</totfact>
</mgrwt>
</event>
<event>
 4    1  0.1751735E-005  0.6204076E+03  0.7818608E-02  0.9863948E-01
         -2   -1    0    0    0  501 -0.00000000000E+00  0.00000000000E+00  0.29589966044E+03  0.29589966045E+03  0.25500000000E-02 0.  1.
          2   -1    0    0  501    0  0.00000000000E+00 -0.00000000000E+00 -0.32519946421E+03  0.32519946422E+03  0.25500000000E-02 0. -1.
   -5000001    1    1    2    0    0 -0.59375336253E+02 -0.97411562939E+02 -0.15872683639E+03  0.31734626473E+03  0.25000000000E+03 0.  0.
    5000001    1    1    2    0    0  0.59375336253E+02  0.97411562939E+02  0.12942703262E+03  0.30375285994E+03  0.25000000000E+03 0.  0.
<mgrwt>
<rscale>  0 0.62040764E+03</rscale>
<asrwt>0</asrwt>
<pdfrwt beam="1">  1        2 0.50030687E-01 0.62040764E+03</pdfrwt>
<pdfrwt beam="2">  1       -2 0.45523025E-01 0.62040764E+03</pdfrwt>
<totfact> 0.46310317E+02</totfact>
</mgrwt>
</event>
<event>
 4    1  0.1751735E-005  0.6020664E+03  0.7818608E-02  0.9901128E-01
          2   -1    0    0  501    0  0.00000000000E+00  0.00000000000E+00  0.18360803834E+04  0.18360803834E+04  0.25500000000E-02 0.  1.
         -2   -1    0    0    0  501 -0.00000000000E+00 -0.00000000000E+00 -0.49355670445E+02  0.49355670511E+02  0.25500000000E-02 0. -1.
   -5000001    1    1    2    0    0 -0.16618608659E+03  0.22130130003E+02  0.90483462635E+03  0.95358967018E+03  0.25000000000E+03 0.  0.
    5000001    1    1    2    0    0  0.16618608659E+03 -0.22130130003E+02  0.88189008664E+03  0.93184638377E+03  0.25000000000E+03 0.  0.
<mgrwt>
<rscale>  0 0.60206637E+03</rscale>
<asrwt>0</asrwt>
<pdfrwt beam="1">  1        2 0.28247387E+00 0.60206637E+03</pdfrwt>
<pdfrwt beam="2">  1       -2 0.75931810E-02 0.60206637E+03</pdfrwt>
<totfact> 0.90592615E+02</totfact>
</mgrwt>
</event>
<event>
 4    1  0.1751735E-005  0.9138035E+03  0.7818608E-02  0.9408489E-01
         -2   -1    0    0    0  501 -0.00000000000E+00  0.00000000000E+00  0.19142761781E+03  0.19142761783E+03  0.25500000000E-02 0. -1.
          2   -1    0    0  501    0  0.00000000000E+00 -0.00000000000E+00 -0.10905386921E+04  0.10905386921E+04  0.25500000000E-02 0.  1.
   -5000001    1    1    2    0    0 -0.37832754760E+03  0.26488647008E+02 -0.38045919456E+03  0.59252221934E+03  0.25000000000E+03 0.  0.
    5000001    1    1    2    0    0  0.37832754760E+03 -0.26488647008E+02 -0.51865187972E+03  0.68944409058E+03  0.25000000000E+03 0.  0.
<mgrwt>
<rscale>  0 0.91380353E+03</rscale>
<asrwt>0</asrwt>
<pdfrwt beam="1">  1        2 0.16777518E+00 0.91380353E+03</pdfrwt>
<pdfrwt beam="2">  1       -2 0.29450403E-01 0.91380353E+03</pdfrwt>
<totfact> 0.23451748E+02</totfact>
</mgrwt>
</event>
<event>
 4    1  0.1751735E-005  0.6817201E+03  0.7818608E-02  0.9749014E-01
         -2   -1    0    0    0  501 -0.00000000000E+00  0.00000000000E+00  0.19070248281E+03  0.19070248283E+03  0.25500000000E-02 0. -1.
          2   -1    0    0  501    0  0.00000000000E+00 -0.00000000000E+00 -0.60925049749E+03  0.60925049750E+03  0.25500000000E-02 0.  1.
   -5000001    1    1    2    0    0 -0.23033544306E+03  0.24123457861E+02 -0.20104113947E+03  0.39566892386E+03  0.25000000000E+03 0.  0.
    5000001    1    1    2    0    0  0.23033544306E+03 -0.24123457861E+02 -0.21750687522E+03  0.40428405647E+03  0.25000000000E+03 0.  0.
<mgrwt>
<rscale>  0 0.68172013E+03</rscale>
<asrwt>0</asrwt>
<pdfrwt beam="1">  1        2 0.93730845E-01 0.68172013E+03</pdfrwt>
<pdfrwt beam="2">  1       -2 0.29338844E-01 0.68172013E+03</pdfrwt>
<totfact> 0.52348089E+02</totfact>
</mgrwt>
</event>
<event>
 4    1  0.1751735E-005  0.7507395E+03  0.7818608E-02  0.9634191E-01
          2   -1    0    0  501    0  0.00000000000E+00  0.00000000000E+00  0.88528751213E+03  0.88528751213E+03  0.25500000000E-02 0.  1.
         -2   -1    0    0    0  501 -0.00000000000E+00 -0.00000000000E+00 -0.15916008843E+03  0.15916008845E+03  0.25500000000E-02 0. -1.
   -5000001    1    1    2    0    0  0.22581411732E+03  0.16491375547E+03  0.34271772117E+03  0.50807873280E+03  0.25000000000E+03 0.  0.
    5000001    1    1    2    0    0 -0.22581411732E+03 -0.16491375547E+03  0.38340970253E+03  0.53636886778E+03  0.25000000000E+03 0.  0.
<mgrwt>
<rscale>  0 0.75073947E+03</rscale>
<asrwt>0</asrwt>
<pdfrwt beam="1">  1        2 0.13619808E+00 0.75073947E+03</pdfrwt>
<pdfrwt beam="2">  1       -2 0.24486168E-01 0.75073947E+03</pdfrwt>
<totfact> 0.44901266E+02</totfact>
</mgrwt>
</event>
<event>
 4    1  0.1751735E-005  0.7265647E+03  0.7818608E-02  0.9672851E-01
          2   -1    0    0  501    0  0.00000000000E+00  0.00000000000E+00  0.44460162198E+03  0.44460162199E+03  0.25500000000E-02 0.  1.
         -2   -1    0    0    0  501 -0.00000000000E+00 -0.00000000000E+00 -0.29683668648E+03  0.29683668650E+03  0.25500000000E-02 0. -1.
   -5000001    1    1    2    0    0  0.17471936043E+03 -0.15650152952E+03 -0.48805531075E+02  0.34626805153E+03  0.25000000000E+03 0.  0.
    5000001    1    1    2    0    0 -0.17471936043E+03  0.15650152952E+03  0.19657046657E+03  0.39517025695E+03  0.25000000000E+03 0.  0.
<mgrwt>
<rscale>  0 0.72656472E+03</rscale>
<asrwt>0</asrwt>
<pdfrwt beam="1">  1        2 0.68400249E-01 0.72656472E+03</pdfrwt>
<pdfrwt beam="2">  1       -2 0.45667183E-01 0.72656472E+03</pdfrwt>
<totfact> 0.32333055E+02</totfact>
</mgrwt>
</event>
<event>
 4    1  0.1751735E-005  0.7321619E+03  0.7818608E-02  0.9663759E-01
         -2   -1    0    0    0  501 -0.00000000000E+00  0.00000000000E+00  0.63139328927E+02  0.63139328979E+02  0.25500000000E-02 0. -1.
          2   -1    0    0  501    0  0.00000000000E+00 -0.00000000000E+00 -0.21225322110E+04  0.21225322110E+04  0.25500000000E-02 0.  1.
   -5000001    1    1    2    0    0  0.19575366642E+03 -0.16450305718E+03 -0.79588402763E+03  0.87253202759E+03  0.25000000000E+03 0.  0.
    5000001    1    1    2    0    0 -0.19575366642E+03  0.16450305718E+03 -0.12635088544E+04  0.13131395124E+04  0.25000000000E+03 0.  0.
<mgrwt>
<rscale>  0 0.73216189E+03</rscale>
<asrwt>0</asrwt>
<pdfrwt beam="1">  1        2 0.32654336E+00 0.73216189E+03</pdfrwt>
<pdfrwt beam="2">  1       -2 0.97137445E-02 0.73216189E+03</pdfrwt>
<totfact> 0.42230883E+02</totfact>
</mgrwt>
</event>
<event>
 4    1  0.1751735E-005  0.5796994E+03  0.7818608E-02  0.9948442E-01
          2   -1    0    0  501    0  0.00000000000E+00  0.00000000000E+00  0.13968916251E+04  0.13968916251E+04  0.25500000000E-02 0.  1.
         -2   -1    0    0    0  501 -0.00000000000E+00 -0.00000000000E+00 -0.60142716713E+02  0.60142716767E+02  0.25500000000E-02 0. -1.
   -5000001    1    1    2    0    0 -0.11536801443E+03  0.24123842520E+02  0.44895441905E+03  0.52721135128E+03  0.25000000000E+03 0.  0.
    5000001    1    1    2    0    0  0.11536801443E+03 -0.24123842520E+02  0.88779448932E+03  0.92982299058E+03  0.25000000000E+03 0.  0.
<mgrwt>
<rscale>  0 0.57969943E+03</rscale>
<asrwt>0</asrwt>
<pdfrwt beam="1">  1        2 0.21490640E+00 0.57969943E+03</pdfrwt>
<pdfrwt beam="2">  1       -2 0.92527260E-02 0.57969943E+03</pdfrwt>
<totfact> 0.11500109E+03</totfact>
</mgrwt>
</event>
<event>
 4    1  0.1751735E-005  0.7954598E+03  0.7818608E-02  0.9566612E-01
         -2   -1    0    0    0  501 -0.00000000000E+00  0.00000000000E+00  0.10811192822E+03  0.10811192825E+03  0.25500000000E-02 0. -1.
          2   -1    0    0  501    0  0.00000000000E+00 -0.00000000000E+00 -0.14631972867E+04  0.14631972867E+04  0.25500000000E-02 0.  1.
   -5000001    1    1    2    0    0 -0.32156874833E+02  0.30088270362E+02 -0.12823657953E+04  0.13072495560E+04  0.25000000000E+03 0.  0.
    5000001    1    1    2    0    0  0.32156874833E+02 -0.30088270362E+02 -0.72719563117E+02  0.26405965893E+03  0.25000000000E+03 0.  0.
<mgrwt>
<rscale>  0 0.79545982E+03</rscale>
<asrwt>0</asrwt>
<pdfrwt beam="1">  1        2 0.22510726E+00 0.79545982E+03</pdfrwt>
<pdfrwt beam="2">  1       -2 0.16632605E-01 0.79545982E+03</pdfrwt>
<totfact> 0.39498271E+02</totfact>
</mgrwt>
</event>
<event>
 4    1  0.1751735E-005  0.7155593E+03  0.7818608E-02  0.9690988E-01
         -2   -1    0    0    0  501 -0.00000000000E+00  0.00000000000E+00  0.22176333937E+03  0.22176333939E+03  0.25500000000E-02 0. -1.
          2   -1    0    0  501    0  0.00000000000E+00 -0.00000000000E+00 -0.57722014259E+03  0.57722014260E+03  0.25500000000E-02 0.  1.
   -5000001    1    1    2    0    0 -0.67170775549E+02 -0.22094409771E+03 -0.54508395351E+02  0.34467284861E+03  0.25000000000E+03 0.  0.
    5000001    1    1    2    0    0  0.67170775549E+02  0.22094409771E+03 -0.30094840787E+03  0.45431063338E+03  0.25000000000E+03 0.  0.
<mgrwt>
<rscale>  0 0.71555927E+03</rscale>
<asrwt>0</asrwt>
<pdfrwt beam="1">  1        2 0.88803098E-01 0.71555927E+03</pdfrwt>
<pdfrwt beam="2">  1       -2 0.34117437E-01 0.71555927E+03</pdfrwt>
<totfact> 0.42083488E+02</totfact>
</mgrwt>
</event>
<event>
 4    1  0.1751735E-005  0.1893655E+04  0.7818608E-02  0.8658021E-01
         -2   -1    0    0    0  501 -0.00000000000E+00  0.00000000000E+00  0.46877539146E+03  0.46877539147E+03  0.25500000000E-02 0. -1.
          2   -1    0    0  501    0  0.00000000000E+00 -0.00000000000E+00 -0.19123918421E+04  0.19123918421E+04  0.25500000000E-02 0.  1.
   -5000001    1    1    2    0    0 -0.90840573888E+03 -0.51998149176E+02 -0.81983606124E+03  0.12500143844E+04  0.25000000000E+03 0.  0.
    5000001    1    1    2    0    0  0.90840573888E+03  0.51998149176E+02 -0.62378038938E+03  0.11311528491E+04  0.25000000000E+03 0.  0.
<mgrwt>
<rscale>  0 0.18936549E+04</rscale>
<asrwt>0</asrwt>
<pdfrwt beam="1">  1        2 0.29421412E+00 0.18936549E+04</pdfrwt>
<pdfrwt beam="2">  1       -2 0.72119292E-01 0.18936549E+04</pdfrwt>
<totfact> 0.12193302E+01</totfact>
</mgrwt>
</event>
<event>
 4    1  0.1751735E-005  0.7964030E+03  0.7818608E-02  0.9565238E-01
          2   -1    0    0  501    0  0.00000000000E+00  0.00000000000E+00  0.58147500498E+03  0.58147500499E+03  0.25500000000E-02 0.  1.
         -2   -1    0    0    0  501 -0.00000000000E+00 -0.00000000000E+00 -0.27269349414E+03  0.27269349415E+03  0.25500000000E-02 0. -1.
   -5000001    1    1    2    0    0  0.27337931393E+03  0.13768701591E+03  0.20660986376E+03  0.44596143268E+03  0.25000000000E+03 0.  0.
    5000001    1    1    2    0    0 -0.27337931393E+03 -0.13768701591E+03  0.10217164708E+03  0.40820706645E+03  0.25000000000E+03 0.  0.
<mgrwt>
<rscale>  0 0.79640304E+03</rscale>
<asrwt>0</asrwt>
<pdfrwt beam="1">  1        2 0.89457692E-01 0.79640304E+03</pdfrwt>
<pdfrwt beam="2">  1       -2 0.41952846E-01 0.79640304E+03</pdfrwt>
<totfact> 0.27910279E+02</totfact>
</mgrwt>
</event>
<event>
 4    1  0.1751735E-005  0.7368268E+03  0.7818608E-02  0.9656247E-01
         -2   -1    0    0    0  501 -0.00000000000E+00  0.00000000000E+00  0.12061488775E+03  0.12061488778E+03  0.25500000000E-02 0. -1.
          2   -1    0    0  501    0  0.00000000000E+00 -0.00000000000E+00 -0.11253042160E+04  0.11253042160E+04  0.25500000000E-02 0.  1.
   -5000001    1    1    2    0    0  0.19084625949E+03 -0.17417276742E+03 -0.36633293610E+03  0.51328185994E+03  0.25000000000E+03 0.  0.
    5000001    1    1    2    0    0 -0.19084625949E+03  0.17417276742E+03 -0.63835639217E+03  0.73263724387E+03  0.25000000000E+03 0.  0.
<mgrwt>
<rscale>  0 0.73682682E+03</rscale>
<asrwt>0</asrwt>
<pdfrwt beam="1">  1        2 0.17312372E+00 0.73682682E+03</pdfrwt>
<pdfrwt beam="2">  1       -2 0.18556137E-01 0.73682682E+03</pdfrwt>
<totfact> 0.51506032E+02</totfact>
</mgrwt>
</event>
<event>
 4    1  0.1751735E-005  0.6936457E+03  0.7818608E-02  0.9728161E-01
         -2   -1    0    0    0  501 -0.00000000000E+00  0.00000000000E+00  0.13238560233E+03  0.13238560236E+03  0.25500000000E-02 0. -1.
          2   -1    0    0  501    0  0.00000000000E+00 -0.00000000000E+00 -0.90860411448E+03  0.90860411448E+03  0.25500000000E-02 0.  1.
   -5000001    1    1    2    0    0  0.18570512767E+03 -0.14879903773E+03 -0.43919115450E+03  0.55858429826E+03  0.25000000000E+03 0.  0.
    5000001    1    1    2    0    0 -0.18570512767E+03  0.14879903773E+03 -0.33702735765E+03  0.48240541858E+03  0.25000000000E+03 0.  0.
<mgrwt>
<rscale>  0 0.69364574E+03</rscale>
<asrwt>0</asrwt>
<pdfrwt beam="1">  1        2 0.13978524E+00 0.69364574E+03</pdfrwt>
<pdfrwt beam="2">  1       -2 0.20367016E-01 0.69364574E+03</pdfrwt>
<totfact> 0.60178234E+02</totfact>
</mgrwt>
</event>
<event>
 4    1  0.1751735E-005  0.1013582E+04  0.7818608E-02  0.9293773E-01
         -2   -1    0    0    0  501 -0.00000000000E+00  0.00000000000E+00  0.15646830146E+03  0.15646830148E+03  0.25500000000E-02 0.  1.
          2   -1    0    0  501    0  0.00000000000E+00 -0.00000000000E+00 -0.16414630715E+04  0.16414630715E+04  0.25500000000E-02 0. -1.
   -5000001    1    1    2    0    0 -0.34412634116E+03 -0.27320905866E+03 -0.67926279034E+03  0.84673730682E+03  0.25000000000E+03 0.  0.
    5000001    1    1    2    0    0  0.34412634116E+03  0.27320905866E+03 -0.80573197971E+03  0.95119406618E+03  0.25000000000E+03 0.  0.
<mgrwt>
<rscale>  0 0.10135816E+04</rscale>
<asrwt>0</asrwt>
<pdfrwt beam="1">  1        2 0.25253277E+00 0.10135816E+04</pdfrwt>
<pdfrwt beam="2">  1       -2 0.24072048E-01 0.10135816E+04</pdfrwt>
<totfact> 0.16203197E+02</totfact>
</mgrwt>
</event>
<event>
 4    1  0.1751735E-005  0.8054173E+03  0.7818608E-02  0.9552209E-01
          2   -1    0    0  501    0  0.00000000000E+00  0.00000000000E+00  0.12304734455E+03  0.12304734458E+03  0.25500000000E-02 0.  1.
         -2   -1    0    0    0  501 -0.00000000000E+00 -0.00000000000E+00 -0.13179824997E+04  0.13179824997E+04  0.25500000000E-02 0. -1.
   -5000001    1    1    2    0    0 -0.80005551172E+02  0.28453394546E+03 -0.39892760879E+03  0.55588100471E+03  0.25000000000E+03 0.  0.
    5000001    1    1    2    0    0  0.80005551172E+02 -0.28453394546E+03 -0.79600754638E+03  0.88514883959E+03  0.25000000000E+03 0.  0.
<mgrwt>
<rscale>  0 0.80541728E+03</rscale>
<asrwt>0</asrwt>
<pdfrwt beam="1">  1        2 0.18930362E-01 0.80541728E+03</pdfrwt>
<pdfrwt beam="2">  1       -2 0.20276653E+00 0.80541728E+03</pdfrwt>
<totfact> 0.39218519E+01</totfact>
</mgrwt>
</event>
<event>
 4    1  0.1751735E-005  0.1096514E+04  0.7818608E-02  0.9208596E-01
         -2   -1    0    0    0  501 -0.00000000000E+00  0.00000000000E+00  0.19155376294E+03  0.19155376296E+03  0.25500000000E-02 0. -1.
          2   -1    0    0  501    0  0.00000000000E+00 -0.00000000000E+00 -0.15691986619E+04  0.15691986619E+04  0.25500000000E-02 0.  1.
   -5000001    1    1    2    0    0 -0.23524460346E+03  0.13580037976E+03 -0.13397134200E+04  0.13896452116E+04  0.25000000000E+03 0.  0.
    5000001    1    1    2    0    0  0.23524460346E+03 -0.13580037976E+03 -0.37931478991E+02  0.37110721322E+03  0.25000000000E+03 0.  0.
<mgrwt>
<rscale>  0 0.10965143E+04</rscale>
<asrwt>0</asrwt>
<pdfrwt beam="1">  1        2 0.24141517E+00 0.10965143E+04</pdfrwt>
<pdfrwt beam="2">  1       -2 0.29469811E-01 0.10965143E+04</pdfrwt>
<totfact> 0.12209739E+02</totfact>
</mgrwt>
</event>
<event>
 4    1  0.1751735E-005  0.6334822E+03  0.7818608E-02  0.9838277E-01
          2   -1    0    0  501    0  0.00000000000E+00  0.00000000000E+00  0.29194557645E+04  0.29194557645E+04  0.25500000000E-02 0.  1.
         -2   -1    0    0    0  501 -0.00000000000E+00 -0.00000000000E+00 -0.34364257186E+02  0.34364257281E+02  0.25500000000E-02 0. -1.
   -5000001    1    1    2    0    0  0.39022093081E+02  0.18581084552E+03  0.16390791981E+04  0.16688705796E+04  0.25000000000E+03 0.  0.
    5000001    1    1    2    0    0 -0.39022093081E+02 -0.18581084552E+03  0.12460123093E+04  0.12849494422E+04  0.25000000000E+03 0.  0.
<mgrwt>
<rscale>  0 0.63348221E+03</rscale>
<asrwt>0</asrwt>
<pdfrwt beam="1">  1        2 0.44914724E+00 0.63348221E+03</pdfrwt>
<pdfrwt beam="2">  1       -2 0.52868065E-02 0.63348221E+03</pdfrwt>
<totfact> 0.39409069E+02</totfact>
</mgrwt>
</event>
<event>
 4    1  0.1751735E-005  0.9443587E+03  0.7818608E-02  0.9371769E-01
          2   -1    0    0  501    0  0.00000000000E+00  0.00000000000E+00  0.20360322910E+04  0.20360322910E+04  0.25500000000E-02 0.  1.
         -2   -1    0    0    0  501 -0.00000000000E+00 -0.00000000000E+00 -0.10950383470E+03  0.10950383473E+03  0.25500000000E-02 0. -1.
   -5000001    1    1    2    0    0 -0.77791184183E+02 -0.36301417900E+03  0.62154460654E+03  0.76592980123E+03  0.25000000000E+03 0.  0.
    5000001    1    1    2    0    0  0.77791184183E+02  0.36301417900E+03  0.13049838498E+04  0.13796063245E+04  0.25000000000E+03 0.  0.
<mgrwt>
<rscale>  0 0.94435871E+03</rscale>
<asrwt>0</asrwt>
<pdfrwt beam="1">  1        2 0.31323571E+00 0.94435871E+03</pdfrwt>
<pdfrwt beam="2">  1       -2 0.16846745E-01 0.94435871E+03</pdfrwt>
<totfact> 0.18499154E+02</totfact>
</mgrwt>
</event>
<event>
 4    1  0.1751735E-005  0.1161790E+04  0.7818608E-02  0.9146975E-01
          2   -1    0    0  501    0  0.00000000000E+00  0.00000000000E+00  0.13500628001E+04  0.13500628001E+04  0.25500000000E-02 0.  1.
         -2   -1    0    0    0  501 -0.00000000000E+00 -0.00000000000E+00 -0.24994310751E+03  0.24994310753E+03  0.25500000000E-02 0. -1.
   -5000001    1    1    2    0    0  0.30475202787E+03  0.42669067913E+03  0.55060632104E+03  0.80037869469E+03  0.25000000000E+03 0.  0.
    5000001    1    1    2    0    0 -0.30475202787E+03 -0.42669067913E+03  0.54951337152E+03  0.79962721291E+03  0.25000000000E+03 0.  0.
<mgrwt>
<rscale>  0 0.11617898E+04</rscale>
<asrwt>0</asrwt>
<pdfrwt beam="1">  1        2 0.20770197E+00 0.11617898E+04</pdfrwt>
<pdfrwt beam="2">  1       -2 0.38452786E-01 0.11617898E+04</pdfrwt>
<totfact> 0.97620950E+01</totfact>
</mgrwt>
</event>
<event>
 4    1  0.1751735E-005  0.7700255E+03  0.7818608E-02  0.9604447E-01
          2   -1    0    0  501    0  0.00000000000E+00  0.00000000000E+00  0.22644100079E+04  0.22644100079E+04  0.25500000000E-02 0.  1.
         -2   -1    0    0    0  501 -0.00000000000E+00 -0.00000000000E+00 -0.65462891169E+02  0.65462891219E+02  0.25500000000E-02 0. -1.
   -5000001    1    1    2    0    0  0.33469874048E+02  0.28876542731E+03  0.12055513615E+04  0.12650532755E+04  0.25000000000E+03 0.  0.
    5000001    1    1    2    0    0 -0.33469874048E+02 -0.28876542731E+03  0.99339575521E+03  0.10648196237E+04  0.25000000000E+03 0.  0.
<mgrwt>
<rscale>  0 0.77002552E+03</rscale>
<asrwt>0</asrwt>
<pdfrwt beam="1">  1        2 0.34837074E+00 0.77002552E+03</pdfrwt>
<pdfrwt beam="2">  1       -2 0.10071215E-01 0.77002552E+03</pdfrwt>
<totfact> 0.33160032E+02</totfact>
</mgrwt>
</event>
<event>
 4    1  0.1751735E-005  0.8684870E+03  0.7818608E-02  0.9465855E-01
          2   -1    0    0  501    0  0.00000000000E+00  0.00000000000E+00  0.97691191189E+03  0.97691191190E+03  0.25500000000E-02 0.  1.
         -2   -1    0    0    0  501 -0.00000000000E+00 -0.00000000000E+00 -0.19302397061E+03  0.19302397063E+03  0.25500000000E-02 0. -1.
   -5000001    1    1    2    0    0 -0.32274404754E+03 -0.75468444699E+02  0.22044312516E+03  0.47005784516E+03  0.25000000000E+03 0.  0.
    5000001    1    1    2    0    0  0.32274404754E+03  0.75468444699E+02  0.56344481613E+03  0.69987803737E+03  0.25000000000E+03 0.  0.
<mgrwt>
<rscale>  0 0.86848700E+03</rscale>
<asrwt>0</asrwt>
<pdfrwt beam="1">  1        2 0.15029414E+00 0.86848700E+03</pdfrwt>
<pdfrwt beam="2">  1       -2 0.29695995E-01 0.86848700E+03</pdfrwt>
<totfact> 0.27306834E+02</totfact>
</mgrwt>
</event>
<event>
 4    1  0.1751735E-005  0.9022576E+03  0.7818608E-02  0.9422764E-01
         -2   -1    0    0    0  501 -0.00000000000E+00  0.00000000000E+00  0.17264088165E+03  0.17264088167E+03  0.25500000000E-02 0. -1.
          2   -1    0    0  501    0  0.00000000000E+00 -0.00000000000E+00 -0.11788469630E+04  0.11788469631E+04  0.25500000000E-02 0.  1.
   -5000001    1    1    2    0    0  0.36613618128E+01 -0.37098079926E+03 -0.41605711834E+03  0.61093672726E+03  0.25000000000E+03 0.  0.
    5000001    1    1    2    0    0 -0.36613618128E+01  0.37098079926E+03 -0.59014896305E+03  0.74055111747E+03  0.25000000000E+03 0.  0.
<mgrwt>
<rscale>  0 0.90225757E+03</rscale>
<asrwt>0</asrwt>
<pdfrwt beam="1">  1        2 0.18136107E+00 0.90225757E+03</pdfrwt>
<pdfrwt beam="2">  1       -2 0.26560136E-01 0.90225757E+03</pdfrwt>
<totfact> 0.25078471E+02</totfact>
</mgrwt>
</event>
<event>
 4    1  0.1751735E-005  0.5906358E+03  0.7818608E-02  0.9925027E-01
         -2   -1    0    0    0  501 -0.00000000000E+00  0.00000000000E+00  0.37991963779E+03  0.37991963780E+03  0.25500000000E-02 0. -1.
          2   -1    0    0  501    0  0.00000000000E+00 -0.00000000000E+00 -0.22955552309E+03  0.22955552310E+03  0.25500000000E-02 0.  1.
   -5000001    1    1    2    0    0 -0.10110077935E+03 -0.63371175418E+02  0.18079596624E+03  0.33079367417E+03  0.25000000000E+03 0.  0.
    5000001    1    1    2    0    0  0.10110077935E+03  0.63371175418E+02 -0.30431851543E+02  0.27868148673E+03  0.25000000000E+03 0.  0.
<mgrwt>
<rscale>  0 0.59063576E+03</rscale>
<asrwt>0</asrwt>
<pdfrwt beam="1">  1        2 0.35316235E-01 0.59063576E+03</pdfrwt>
<pdfrwt beam="2">  1       -2 0.58449174E-01 0.59063576E+03</pdfrwt>
<totfact> 0.40915825E+02</totfact>
</mgrwt>
</event>
<event>
 4    1  0.1751735E-005  0.5797237E+03  0.7818608E-02  0.9948389E-01
         -2   -1    0    0    0  501 -0.00000000000E+00  0.00000000000E+00  0.48977107570E+02  0.48977107637E+02  0.25500000000E-02 0. -1.
          2   -1    0    0  501    0  0.00000000000E+00 -0.00000000000E+00 -0.17154930003E+04  0.17154930003E+04  0.25500000000E-02 0.  1.
   -5000001    1    1    2    0    0  0.10251271708E+03  0.70360484711E+02 -0.59631433796E+03  0.65844532395E+03  0.25000000000E+03 0.  0.
    5000001    1    1    2    0    0 -0.10251271708E+03 -0.70360484711E+02 -0.10702015548E+04  0.11060247840E+04  0.25000000000E+03 0.  0.
<mgrwt>
<rscale>  0 0.57972368E+03</rscale>
<asrwt>0</asrwt>
<pdfrwt beam="1">  1        2 0.26392195E+00 0.57972368E+03</pdfrwt>
<pdfrwt beam="2">  1       -2 0.75349410E-02 0.57972368E+03</pdfrwt>
<totfact> 0.10671698E+03</totfact>
</mgrwt>
</event>
<event>
 4    1  0.1751735E-005  0.7174415E+03  0.7818608E-02  0.9687861E-01
          2   -1    0    0  501    0  0.00000000000E+00  0.00000000000E+00  0.19994441586E+04  0.19994441586E+04  0.25500000000E-02 0.  1.
         -2   -1    0    0    0  501 -0.00000000000E+00 -0.00000000000E+00 -0.64358181147E+02  0.64358181198E+02  0.25500000000E-02 0. -1.
   -5000001    1    1    2    0    0  0.16605226594E+03 -0.61661818820E+02  0.15042073344E+04  0.15350945378E+04  0.25000000000E+03 0.  0.
    5000001    1    1    2    0    0 -0.16605226594E+03  0.61661818820E+02  0.43087864305E+03  0.52870780206E+03  0.25000000000E+03 0.  0.
<mgrwt>
<rscale>  0 0.71744154E+03</rscale>
<asrwt>0</asrwt>
<pdfrwt beam="1">  1        2 0.30760681E+00 0.71744154E+03</pdfrwt>
<pdfrwt beam="2">  1       -2 0.99012582E-02 0.71744154E+03</pdfrwt>
<totfact> 0.47848597E+02</totfact>
</mgrwt>
</event>
<event>
 4    1  0.1751735E-005  0.1390193E+04  0.7818608E-02  0.8960948E-01
         -2   -1    0    0    0  501 -0.00000000000E+00  0.00000000000E+00  0.21918817981E+04  0.21918817981E+04  0.25500000000E-02 0.  1.
          2   -1    0    0  501    0  0.00000000000E+00 -0.00000000000E+00 -0.22043128980E+03  0.22043128982E+03  0.25500000000E-02 0. -1.
   -5000001    1    1    2    0    0  0.16190795589E+03  0.62585522033E+03  0.89472228934E+03  0.11317848373E+04  0.25000000000E+03 0.  0.
    5000001    1    1    2    0    0 -0.16190795589E+03 -0.62585522033E+03  0.10767282189E+04  0.12805282505E+04  0.25000000000E+03 0.  0.
<mgrwt>
<rscale>  0 0.13901933E+04</rscale>
<asrwt>0</asrwt>
<pdfrwt beam="1">  1        2 0.33912507E-01 0.13901933E+04</pdfrwt>
<pdfrwt beam="2">  1       -2 0.33721258E+00 0.13901933E+04</pdfrwt>
<totfact> 0.28496083E+00</totfact>
</mgrwt>
</event>
<event>
 4    1  0.1751735E-005  0.6736738E+03  0.7818608E-02  0.9763344E-01
         -2   -1    0    0    0  501 -0.00000000000E+00  0.00000000000E+00  0.10654681468E+03  0.10654681471E+03  0.25500000000E-02 0. -1.
          2   -1    0    0  501    0  0.00000000000E+00 -0.00000000000E+00 -0.10648756551E+04  0.10648756551E+04  0.25500000000E-02 0.  1.
   -5000001    1    1    2    0    0 -0.16912965551E+03 -0.11293277269E+03 -0.30878786362E+03  0.44632790215E+03  0.25000000000E+03 0.  0.
    5000001    1    1    2    0    0  0.16912965551E+03  0.11293277269E+03 -0.64954097675E+03  0.72509456763E+03  0.25000000000E+03 0.  0.
<mgrwt>
<rscale>  0 0.67367384E+03</rscale>
<asrwt>0</asrwt>
<pdfrwt beam="1">  1        2 0.16382702E+00 0.67367384E+03</pdfrwt>
<pdfrwt beam="2">  1       -2 0.16391818E-01 0.67367384E+03</pdfrwt>
<totfact> 0.69580092E+02</totfact>
</mgrwt>
</event>
<event>
 4    1  0.1751735E-005  0.1329444E+04  0.7818608E-02  0.9006536E-01
          2   -1    0    0  501    0  0.00000000000E+00  0.00000000000E+00  0.20902947986E+04  0.20902947986E+04  0.25500000000E-02 0.  1.
         -2   -1    0    0    0  501 -0.00000000000E+00 -0.00000000000E+00 -0.21138417988E+03  0.21138417989E+03  0.25500000000E-02 0. -1.
   -5000001    1    1    2    0    0  0.59889074958E+03  0.99990940938E+02  0.11184339886E+04  0.12969436785E+04  0.25000000000E+03 0.  0.
    5000001    1    1    2    0    0 -0.59889074958E+03 -0.99990940938E+02  0.76047663012E+03  0.10047353000E+04  0.25000000000E+03 0.  0.
<mgrwt>
<rscale>  0 0.13294439E+04</rscale>
<asrwt>0</asrwt>
<pdfrwt beam="1">  1        2 0.32158380E+00 0.13294439E+04</pdfrwt>
<pdfrwt beam="2">  1       -2 0.32520644E-01 0.13294439E+04</pdfrwt>
<totfact> 0.51344693E+01</totfact>
</mgrwt>
</event>
<event>
 4    1  0.1751735E-005  0.5577786E+03  0.7818608E-02  0.9997094E-01
          2   -1    0    0  501    0  0.00000000000E+00  0.00000000000E+00  0.24286083886E+04  0.24286083886E+04  0.25500000000E-02 0.  1.
         -2   -1    0    0    0  501 -0.00000000000E+00 -0.00000000000E+00 -0.32026259900E+02  0.32026260002E+02  0.25500000000E-02 0. -1.
   -5000001    1    1    2    0    0  0.10523516528E+03 -0.20627016147E+02  0.92708919673E+03  0.96617508377E+03  0.25000000000E+03 0.  0.
    5000001    1    1    2    0    0 -0.10523516528E+03  0.20627016147E+02  0.14694929319E+04  0.14944595648E+04  0.25000000000E+03 0.  0.
<mgrwt>
<rscale>  0 0.55777861E+03</rscale>
<asrwt>0</asrwt>
<pdfrwt beam="1">  1        2 0.37363205E+00 0.55777861E+03</pdfrwt>
<pdfrwt beam="2">  1       -2 0.49271170E-02 0.55777861E+03</pdfrwt>
<totfact> 0.85008702E+02</totfact>
</mgrwt>
</event>
<event>
 4    1  0.1751735E-005  0.7301227E+03  0.7818608E-02  0.9667061E-01
          2   -1    0    0  501    0  0.00000000000E+00  0.00000000000E+00  0.11053438004E+04  0.11053438004E+04  0.25500000000E-02 0.  1.
         -2   -1    0    0    0  501 -0.00000000000E+00 -0.00000000000E+00 -0.12056863914E+03  0.12056863917E+03  0.25500000000E-02 0. -1.
   -5000001    1    1    2    0    0 -0.25344842481E+03  0.60022957574E+02  0.40148694333E+03  0.53993576020E+03  0.25000000000E+03 0.  0.
    5000001    1    1    2    0    0  0.25344842481E+03 -0.60022957574E+02  0.58328821794E+03  0.68597667939E+03  0.25000000000E+03 0.  0.
<mgrwt>
<rscale>  0 0.73012272E+03</rscale>
<asrwt>0</asrwt>
<pdfrwt beam="1">  1        2 0.17005289E+00 0.73012272E+03</pdfrwt>
<pdfrwt beam="2">  1       -2 0.18549022E-01 0.73012272E+03</pdfrwt>
<totfact> 0.53016078E+02</totfact>
</mgrwt>
</event>
<event>
 4    1  0.1751735E-005  0.8004543E+03  0.7818608E-02  0.9559360E-01
         -2   -1    0    0    0  501 -0.00000000000E+00  0.00000000000E+00  0.24568487168E+03  0.24568487169E+03  0.25500000000E-02 0. -1.
          2   -1    0    0  501    0  0.00000000000E+00 -0.00000000000E+00 -0.65198055699E+03  0.65198055700E+03  0.25500000000E-02 0.  1.
   -5000001    1    1    2    0    0 -0.14908458431E+03 -0.22404022993E+03 -0.24906794588E+02  0.36815837125E+03  0.25000000000E+03 0.  0.
    5000001    1    1    2    0    0  0.14908458431E+03  0.22404022993E+03 -0.38138889073E+03  0.52950705744E+03  0.25000000000E+03 0.  0.
<mgrwt>
<rscale>  0 0.80045427E+03</rscale>
<asrwt>0</asrwt>
<pdfrwt beam="1">  1        2 0.10030470E+00 0.80045427E+03</pdfrwt>
<pdfrwt beam="2">  1       -2 0.37797673E-01 0.80045427E+03</pdfrwt>
<totfact> 0.29751098E+02</totfact>
</mgrwt>
</event>
<event>
 4    1  0.1751735E-005  0.7297252E+03  0.7818608E-02  0.9667706E-01
          2   -1    0    0  501    0  0.00000000000E+00  0.00000000000E+00  0.14044002312E+04  0.14044002312E+04  0.25500000000E-02 0.  1.
         -2   -1    0    0    0  501 -0.00000000000E+00 -0.00000000000E+00 -0.94791162801E+02  0.94791162835E+02  0.25500000000E-02 0. -1.
   -5000001    1    1    2    0    0  0.15928754329E+03  0.18862303280E+03  0.85686944390E+03  0.92610820849E+03  0.25000000000E+03 0.  0.
    5000001    1    1    2    0    0 -0.15928754329E+03 -0.18862303280E+03  0.45273962446E+03  0.57308318551E+03  0.25000000000E+03 0.  0.
<mgrwt>
<rscale>  0 0.72972524E+03</rscale>
<asrwt>0</asrwt>
<pdfrwt beam="1">  1        2 0.21606155E+00 0.72972524E+03</pdfrwt>
<pdfrwt beam="2">  1       -2 0.14583257E-01 0.72972524E+03</pdfrwt>
<totfact> 0.53481995E+02</totfact>
</mgrwt>
</event>
<event>
 4    1  0.1751735E-005  0.6660653E+03  0.7818608E-02  0.9777092E-01
          2   -1    0    0  501    0  0.00000000000E+00  0.00000000000E+00  0.72334489216E+03  0.72334489217E+03  0.25500000000E-02 0.  1.
         -2   -1    0    0    0  501 -0.00000000000E+00 -0.00000000000E+00 -0.15333036137E+03  0.15333036139E+03  0.25500000000E-02 0. -1.
   -5000001    1    1    2    0    0 -0.20983781484E+03  0.94441669658E+01  0.19880235073E+03  0.38228716364E+03  0.25000000000E+03 0.  0.
    5000001    1    1    2    0    0  0.20983781484E+03 -0.94441669658E+01  0.37121218006E+03  0.49438808992E+03  0.25000000000E+03 0.  0.
<mgrwt>
<rscale>  0 0.66606526E+03</rscale>
<asrwt>0</asrwt>
<pdfrwt beam="1">  1        2 0.11128383E+00 0.66606526E+03</pdfrwt>
<pdfrwt beam="2">  1       -2 0.23589286E-01 0.66606526E+03</pdfrwt>
<totfact> 0.62908103E+02</totfact>
</mgrwt>
</event>
<event>
 4    1  0.1751735E-005  0.1210377E+04  0.7818608E-02  0.9103822E-01
         -2   -1    0    0    0  501 -0.00000000000E+00  0.00000000000E+00  0.51350975690E+03  0.51350975690E+03  0.25500000000E-02 0. -1.
          2   -1    0    0  501    0  0.00000000000E+00 -0.00000000000E+00 -0.71323448452E+03  0.71323448453E+03  0.25500000000E-02 0.  1.
   -5000001    1    1    2    0    0  0.13789480844E+03  0.40901004020E+03 -0.44720458554E+03  0.66992248247E+03  0.25000000000E+03 0.  0.
    5000001    1    1    2    0    0 -0.13789480844E+03 -0.40901004020E+03  0.24747985791E+03  0.55682175897E+03  0.25000000000E+03 0.  0.
<mgrwt>
<rscale>  0 0.12103766E+04</rscale>
<asrwt>0</asrwt>
<pdfrwt beam="1">  1        2 0.10972838E+00 0.12103766E+04</pdfrwt>
<pdfrwt beam="2">  1       -2 0.79001501E-01 0.12103766E+04</pdfrwt>
<totfact> 0.56123037E+01</totfact>
</mgrwt>
</event>
<event>
 4    1  0.1751735E-005  0.7909585E+03  0.7818608E-02  0.9573197E-01
          2   -1    0    0  501    0  0.00000000000E+00  0.00000000000E+00  0.25759953041E+03  0.25759953042E+03  0.25500000000E-02 0.  1.
         -2   -1    0    0    0  501 -0.00000000000E+00 -0.00000000000E+00 -0.60715881832E+03  0.60715881832E+03  0.25500000000E-02 0. -1.
   -5000001    1    1    2    0    0  0.22628959566E+03  0.16941118569E+03 -0.45433394930E+02  0.38009383620E+03  0.25000000000E+03 0.  0.
    5000001    1    1    2    0    0 -0.22628959566E+03 -0.16941118569E+03 -0.30412589298E+03  0.48466451255E+03  0.25000000000E+03 0.  0.
<mgrwt>
<rscale>  0 0.79095847E+03</rscale>
<asrwt>0</asrwt>
<pdfrwt beam="1">  1        2 0.39630697E-01 0.79095847E+03</pdfrwt>
<pdfrwt beam="2">  1       -2 0.93409049E-01 0.79095847E+03</pdfrwt>
<totfact> 0.12713135E+02</totfact>
</mgrwt>
</event>
<event>
 4    1  0.1751735E-005  0.6580208E+03  0.7818608E-02  0.9791844E-01
         -2   -1    0    0    0  501 -0.00000000000E+00  0.00000000000E+00  0.62746017703E+02  0.62746017755E+02  0.25500000000E-02 0.  1.
          2   -1    0    0  501    0  0.00000000000E+00 -0.00000000000E+00 -0.17251745647E+04  0.17251745647E+04  0.25500000000E-02 0. -1.
   -5000001    1    1    2    0    0 -0.10950541558E+03 -0.76033562833E+02 -0.37675396451E+03  0.47139801494E+03  0.25000000000E+03 0.  0.
    5000001    1    1    2    0    0  0.10950541558E+03  0.76033562833E+02 -0.12856745825E+04  0.13165225675E+04  0.25000000000E+03 0.  0.
<mgrwt>
<rscale>  0 0.65802077E+03</rscale>
<asrwt>0</asrwt>
<pdfrwt beam="1">  1        2 0.26541143E+00 0.65802077E+03</pdfrwt>
<pdfrwt beam="2">  1       -2 0.96532348E-02 0.65802077E+03</pdfrwt>
<totfact> 0.70565853E+02</totfact>
</mgrwt>
</event>
<event>
 4    1  0.1751735E-005  0.1004635E+04  0.7818608E-02  0.9303476E-01
          2   -1    0    0  501    0  0.00000000000E+00  0.00000000000E+00  0.85478935104E+03  0.85478935105E+03  0.25500000000E-02 0.  1.
         -2   -1    0    0    0  501 -0.00000000000E+00 -0.00000000000E+00 -0.29518694104E+03  0.29518694105E+03  0.25500000000E-02 0. -1.
   -5000001    1    1    2    0    0  0.20174179114E+03 -0.34964148575E+03  0.92152840268E+02  0.48367454431E+03  0.25000000000E+03 0.  0.
    5000001    1    1    2    0    0 -0.20174179114E+03  0.34964148575E+03  0.46744956974E+03  0.66630174778E+03  0.25000000000E+03 0.  0.
<mgrwt>
<rscale>  0 0.10046346E+04</rscale>
<asrwt>0</asrwt>
<pdfrwt beam="1">  1        2 0.13150605E+00 0.10046346E+04</pdfrwt>
<pdfrwt beam="2">  1       -2 0.45413376E-01 0.10046346E+04</pdfrwt>
<totfact> 0.14449935E+02</totfact>
</mgrwt>
</event>
<event>
 4    1  0.1751735E-005  0.7022416E+03  0.7818608E-02  0.9713406E-01
          2   -1    0    0  501    0  0.00000000000E+00  0.00000000000E+00  0.10523198307E+04  0.10523198307E+04  0.25500000000E-02 0.  1.
         -2   -1    0    0    0  501 -0.00000000000E+00 -0.00000000000E+00 -0.11715623852E+03  0.11715623855E+03  0.25500000000E-02 0. -1.
   -5000001    1    1    2    0    0 -0.13839834374E+03 -0.13980772516E+03  0.71507238240E+03  0.78264220026E+03  0.25000000000E+03 0.  0.
    5000001    1    1    2    0    0  0.13839834374E+03  0.13980772516E+03  0.22009120974E+03  0.38683386895E+03  0.25000000000E+03 0.  0.
<mgrwt>
<rscale>  0 0.70224165E+03</rscale>
<asrwt>0</asrwt>
<pdfrwt beam="1">  1        2 0.16189536E+00 0.70224165E+03</pdfrwt>
<pdfrwt beam="2">  1       -2 0.18024037E-01 0.70224165E+03</pdfrwt>
<totfact> 0.60132768E+02</totfact>
</mgrwt>
</event>
<event>
 4    1  0.1751735E-005  0.6365914E+03  0.7818608E-02  0.9832270E-01
         -2   -1    0    0    0  501 -0.00000000000E+00  0.00000000000E+00  0.17621455770E+03  0.17621455772E+03  0.25500000000E-02 0. -1.
          2   -1    0    0  501    0  0.00000000000E+00 -0.00000000000E+00 -0.57493631572E+03  0.57493631573E+03  0.25500000000E-02 0.  1.
   -5000001    1    1    2    0    0 -0.12509612859E+03  0.10221380572E+03 -0.33241618619E+03  0.44620312001E+03  0.25000000000E+03 0.  0.
    5000001    1    1    2    0    0  0.12509612859E+03 -0.10221380572E+03 -0.66305571831E+02  0.30494775343E+03  0.25000000000E+03 0.  0.
<mgrwt>
<rscale>  0 0.63659139E+03</rscale>
<asrwt>0</asrwt>
<pdfrwt beam="1">  1        2 0.88451740E-01 0.63659139E+03</pdfrwt>
<pdfrwt beam="2">  1       -2 0.27109932E-01 0.63659139E+03</pdfrwt>
<totfact> 0.64934848E+02</totfact>
</mgrwt>
</event>
<event>
 4    1  0.1751735E-005  0.6025294E+03  0.7818608E-02  0.9900172E-01
         -2   -1    0    0    0  501 -0.00000000000E+00  0.00000000000E+00  0.10205601727E+03  0.10205601730E+03  0.25500000000E-02 0. -1.
          2   -1    0    0  501    0  0.00000000000E+00 -0.00000000000E+00 -0.88931959487E+03  0.88931959487E+03  0.25500000000E-02 0.  1.
   -5000001    1    1    2    0    0  0.12735568059E+03  0.95517938643E+02 -0.30476319518E+03  0.42511616191E+03  0.25000000000E+03 0.  0.
    5000001    1    1    2    0    0 -0.12735568059E+03 -0.95517938643E+02 -0.48250038241E+03  0.56625945026E+03  0.25000000000E+03 0.  0.
<mgrwt>
<rscale>  0 0.60252939E+03</rscale>
<asrwt>0</asrwt>
<pdfrwt beam="1">  1        2 0.13681839E+00 0.60252939E+03</pdfrwt>
<pdfrwt beam="2">  1       -2 0.15700926E-01 0.60252939E+03</pdfrwt>
<totfact> 0.97287207E+02</totfact>
</mgrwt>
</event>
<event>
 4    1  0.1751735E-005  0.6536304E+03  0.7818608E-02  0.9799991E-01
         -2   -1    0    0    0  501 -0.00000000000E+00  0.00000000000E+00  0.40498158701E+02  0.40498158782E+02  0.25500000000E-02 0.  1.
          2   -1    0    0  501    0  0.00000000000E+00 -0.00000000000E+00 -0.26373586849E+04  0.26373586849E+04  0.25500000000E-02 0. -1.
   -5000001    1    1    2    0    0  0.14657667735E+03  0.14883892753E+03 -0.11923513045E+04  0.12360580011E+04  0.25000000000E+03 0.  0.
    5000001    1    1    2    0    0 -0.14657667735E+03 -0.14883892753E+03 -0.14045092216E+04  0.14417988425E+04  0.25000000000E+03 0.  0.
<mgrwt>
<rscale>  0 0.65363039E+03</rscale>
<asrwt>0</asrwt>
<pdfrwt beam="1">  1        2 0.40574736E+00 0.65363039E+03</pdfrwt>
<pdfrwt beam="2">  1       -2 0.62304880E-02 0.65363039E+03</pdfrwt>
<totfact> 0.44524892E+02</totfact>
</mgrwt>
</event>
<event>
 4    1  0.1751735E-005  0.7696521E+03  0.7818608E-02  0.9605014E-01
         -2   -1    0    0    0  501 -0.00000000000E+00  0.00000000000E+00  0.43143169606E+03  0.43143169607E+03  0.25500000000E-02 0. -1.
          2   -1    0    0  501    0  0.00000000000E+00 -0.00000000000E+00 -0.34325498621E+03  0.34325498622E+03  0.25500000000E-02 0.  1.
   -5000001    1    1    2    0    0 -0.27872980789E+03 -0.39733879413E+02 -0.35942725419E+02  0.37823401022E+03  0.25000000000E+03 0.  0.
    5000001    1    1    2    0    0  0.27872980789E+03  0.39733879413E+02  0.12411943527E+03  0.39645267207E+03  0.25000000000E+03 0.  0.
<mgrwt>
<rscale>  0 0.76965208E+03</rscale>
<asrwt>0</asrwt>
<pdfrwt beam="1">  1        2 0.52808459E-01 0.76965208E+03</pdfrwt>
<pdfrwt beam="2">  1       -2 0.66374107E-01 0.76965208E+03</pdfrwt>
<totfact> 0.19878251E+02</totfact>
</mgrwt>
</event>
<event>
 4    1  0.1751735E-005  0.8196731E+03  0.7818608E-02  0.9531970E-01
         -2   -1    0    0    0  501 -0.00000000000E+00  0.00000000000E+00  0.41930334651E+03  0.41930334652E+03  0.25500000000E-02 0.  1.
          2   -1    0    0  501    0  0.00000000000E+00 -0.00000000000E+00 -0.40058347599E+03  0.40058347600E+03  0.25500000000E-02 0. -1.
   -5000001    1    1    2    0    0 -0.21289053555E+03 -0.12562950475E+02 -0.23562388425E+03  0.40434987657E+03  0.25000000000E+03 0.  0.
    5000001    1    1    2    0    0  0.21289053555E+03  0.12562950475E+02  0.25434375478E+03  0.41553694595E+03  0.25000000000E+03 0.  0.
<mgrwt>
<rscale>  0 0.81967309E+03</rscale>
<asrwt>0</asrwt>
<pdfrwt beam="1">  1        2 0.61628227E-01 0.81967309E+03</pdfrwt>
<pdfrwt beam="2">  1       -2 0.64508207E-01 0.81967309E+03</pdfrwt>
<totfact> 0.17742220E+02</totfact>
</mgrwt>
</event>
<event>
 4    1  0.1751735E-005  0.5727805E+03  0.7818608E-02  0.9963544E-01
         -2   -1    0    0    0  501 -0.00000000000E+00  0.00000000000E+00  0.13023080165E+03  0.13023080168E+03  0.25500000000E-02 0. -1.
          2   -1    0    0  501    0  0.00000000000E+00 -0.00000000000E+00 -0.62980023477E+03  0.62980023477E+03  0.25500000000E-02 0.  1.
   -5000001    1    1    2    0    0 -0.68560816750E+02 -0.11426908655E+03 -0.19409569818E+03  0.34341105076E+03  0.25000000000E+03 0.  0.
    5000001    1    1    2    0    0  0.68560816750E+02  0.11426908655E+03 -0.30547373494E+03  0.41661998568E+03  0.25000000000E+03 0.  0.
<mgrwt>
<rscale>  0 0.57278055E+03</rscale>
<asrwt>0</asrwt>
<pdfrwt beam="1">  1        2 0.96892342E-01 0.57278055E+03</pdfrwt>
<pdfrwt beam="2">  1       -2 0.20035508E-01 0.57278055E+03</pdfrwt>
<totfact> 0.99820580E+02</totfact>
</mgrwt>
</event>
<event>
 4    1  0.1751735E-005  0.1181974E+04  0.7818608E-02  0.9128783E-01
         -2   -1    0    0    0  501 -0.00000000000E+00  0.00000000000E+00  0.50266797286E+03  0.50266797287E+03  0.25500000000E-02 0. -1.
          2   -1    0    0  501    0  0.00000000000E+00 -0.00000000000E+00 -0.69482333278E+03  0.69482333278E+03  0.25500000000E-02 0.  1.
   -5000001    1    1    2    0    0  0.15035256574E+03 -0.41337080216E+03  0.21335660611E+03  0.54909230141E+03  0.25000000000E+03 0.  0.
    5000001    1    1    2    0    0 -0.15035256574E+03  0.41337080216E+03 -0.40551196603E+03  0.64839900423E+03  0.25000000000E+03 0.  0.
<mgrwt>
<rscale>  0 0.11819737E+04</rscale>
<asrwt>0</asrwt>
<pdfrwt beam="1">  1        2 0.10689590E+00 0.11819737E+04</pdfrwt>
<pdfrwt beam="2">  1       -2 0.77333534E-01 0.11819737E+04</pdfrwt>
<totfact> 0.60973622E+01</totfact>
</mgrwt>
</event>
<event>
 4    1  0.1751735E-005  0.6302705E+03  0.7818608E-02  0.9844521E-01
          2   -1    0    0  501    0  0.00000000000E+00  0.00000000000E+00  0.38432050544E+04  0.38432050544E+04  0.25500000000E-02 0.  1.
         -2   -1    0    0    0  501 -0.00000000000E+00 -0.00000000000E+00 -0.25840467258E+02  0.25840467384E+02  0.25500000000E-02 0. -1.
   -5000001    1    1    2    0    0 -0.17499383855E+03 -0.61755828229E+02  0.16096076300E+04  0.16394429994E+04  0.25000000000E+03 0.  0.
    5000001    1    1    2    0    0  0.17499383855E+03  0.61755828229E+02  0.22077569571E+04  0.22296025223E+04  0.25000000000E+03 0.  0.
<mgrwt>
<rscale>  0 0.63027046E+03</rscale>
<asrwt>0</asrwt>
<pdfrwt beam="1">  1        2 0.59126223E+00 0.63027046E+03</pdfrwt>
<pdfrwt beam="2">  1       -2 0.39754571E-02 0.63027046E+03</pdfrwt>
<totfact> 0.14917484E+02</totfact>
</mgrwt>
</event>
<event>
 4    1  0.1751735E-005  0.9780488E+03  0.7818608E-02  0.9332954E-01
         -2   -1    0    0    0  501 -0.00000000000E+00  0.00000000000E+00  0.16085379012E+03  0.16085379014E+03  0.25500000000E-02 0. -1.
          2   -1    0    0  501    0  0.00000000000E+00 -0.00000000000E+00 -0.14867218587E+04  0.14867218587E+04  0.25500000000E-02 0.  1.
   -5000001    1    1    2    0    0  0.24649254894E+03 -0.32166673716E+03 -0.47522320069E+03  0.67272963140E+03  0.25000000000E+03 0.  0.
    5000001    1    1    2    0    0 -0.24649254894E+03  0.32166673716E+03 -0.85064486792E+03  0.97484601748E+03  0.25000000000E+03 0.  0.
<mgrwt>
<rscale>  0 0.97804876E+03</rscale>
<asrwt>0</asrwt>
<pdfrwt beam="1">  1        2 0.22872643E+00 0.97804876E+03</pdfrwt>
<pdfrwt beam="2">  1       -2 0.24746738E-01 0.97804876E+03</pdfrwt>
<totfact> 0.18847828E+02</totfact>
</mgrwt>
</event>
<event>
 4    1  0.1751735E-005  0.1682863E+04  0.7818608E-02  0.8771199E-01
         -2   -1    0    0    0  501 -0.00000000000E+00  0.00000000000E+00  0.30963497855E+03  0.30963497856E+03  0.25500000000E-02 0. -1.
          2   -1    0    0  501    0  0.00000000000E+00 -0.00000000000E+00 -0.22865867870E+04  0.22865867870E+04  0.25500000000E-02 0.  1.
   -5000001    1    1    2    0    0 -0.31225585142E+03 -0.71959367876E+03 -0.12565244777E+04  0.15022225342E+04  0.25000000000E+03 0.  0.
    5000001    1    1    2    0    0  0.31225585142E+03  0.71959367876E+03 -0.72042733073E+03  0.10939992313E+04  0.25000000000E+03 0.  0.
<mgrwt>
<rscale>  0 0.16828633E+04</rscale>
<asrwt>0</asrwt>
<pdfrwt beam="1">  1        2 0.35178257E+00 0.16828633E+04</pdfrwt>
<pdfrwt beam="2">  1       -2 0.47636152E-01 0.16828633E+04</pdfrwt>
<totfact> 0.18373134E+01</totfact>
</mgrwt>
</event>
<event>
 4    1  0.1751735E-005  0.5771600E+03  0.7818608E-02  0.9953959E-01
         -2   -1    0    0    0  501 -0.00000000000E+00  0.00000000000E+00  0.69540459637E+02  0.69540459684E+02  0.25500000000E-02 0.  1.
          2   -1    0    0  501    0  0.00000000000E+00 -0.00000000000E+00 -0.11975535433E+04  0.11975535433E+04  0.25500000000E-02 0. -1.
   -5000001    1    1    2    0    0 -0.12294750209E+03 -0.38977770155E+02 -0.70531679548E+03  0.75934651960E+03  0.25000000000E+03 0.  0.
    5000001    1    1    2    0    0  0.12294750209E+03  0.38977770155E+02 -0.42269628813E+03  0.50774748334E+03  0.25000000000E+03 0.  0.
<mgrwt>
<rscale>  0 0.57716003E+03</rscale>
<asrwt>0</asrwt>
<pdfrwt beam="1">  1        2 0.18423899E+00 0.57716003E+03</pdfrwt>
<pdfrwt beam="2">  1       -2 0.10698533E-01 0.57716003E+03</pdfrwt>
<totfact> 0.11822011E+03</totfact>
</mgrwt>
</event>
<event>
 4    1  0.1751735E-005  0.1404188E+04  0.7818608E-02  0.8950793E-01
         -2   -1    0    0    0  501 -0.00000000000E+00  0.00000000000E+00  0.54266990676E+03  0.54266990677E+03  0.25500000000E-02 0. -1.
          2   -1    0    0  501    0  0.00000000000E+00 -0.00000000000E+00 -0.90835278215E+03  0.90835278215E+03  0.25500000000E-02 0.  1.
   -5000001    1    1    2    0    0 -0.36041919408E+03  0.53000660732E+03 -0.38073319224E+02  0.68902726862E+03  0.25000000000E+03 0.  0.
    5000001    1    1    2    0    0  0.36041919408E+03 -0.53000660732E+03 -0.32760955616E+03  0.76199542030E+03  0.25000000000E+03 0.  0.
<mgrwt>
<rscale>  0 0.14041876E+04</rscale>
<asrwt>0</asrwt>
<pdfrwt beam="1">  1        2 0.13974658E+00 0.14041876E+04</pdfrwt>
<pdfrwt beam="2">  1       -2 0.83487678E-01 0.14041876E+04</pdfrwt>
<totfact> 0.35357812E+01</totfact>
</mgrwt>
</event>
<event>
 4    1  0.1751735E-005  0.1046067E+04  0.7818608E-02  0.9259414E-01
         -2   -1    0    0    0  501 -0.00000000000E+00  0.00000000000E+00  0.21404834324E+04  0.21404834324E+04  0.25500000000E-02 0. -1.
          2   -1    0    0  501    0  0.00000000000E+00 -0.00000000000E+00 -0.12780489031E+03  0.12780489034E+03  0.25500000000E-02 0.  1.
   -5000001    1    1    2    0    0  0.32461140165E+03  0.91618855896E+02  0.16827178079E+04  0.17343026835E+04  0.25000000000E+03 0.  0.
    5000001    1    1    2    0    0 -0.32461140165E+03 -0.91618855896E+02  0.32996073414E+03  0.53398563924E+03  0.25000000000E+03 0.  0.
<mgrwt>
<rscale>  0 0.10460674E+04</rscale>
<asrwt>0</asrwt>
<pdfrwt beam="1">  1        2 0.19662291E-01 0.10460674E+04</pdfrwt>
<pdfrwt beam="2">  1       -2 0.32930514E+00 0.10460674E+04</pdfrwt>
<totfact> 0.61720908E+00</totfact>
</mgrwt>
</event>
<event>
 4    1  0.1751735E-005  0.7775309E+03  0.7818608E-02  0.9593122E-01
          2   -1    0    0  501    0  0.00000000000E+00  0.00000000000E+00  0.23690336657E+04  0.23690336657E+04  0.25500000000E-02 0.  1.
         -2   -1    0    0    0  501 -0.00000000000E+00 -0.00000000000E+00 -0.63797555838E+02  0.63797555889E+02  0.25500000000E-02 0. -1.
   -5000001    1    1    2    0    0  0.28545881718E+03  0.33493420255E+02  0.13955884956E+04  0.14466429395E+04  0.25000000000E+03 0.  0.
    5000001    1    1    2    0    0 -0.28545881718E+03 -0.33493420255E+02  0.90964761430E+03  0.98618828207E+03  0.25000000000E+03 0.  0.
<mgrwt>
<rscale>  0 0.77753086E+03</rscale>
<asrwt>0</asrwt>
<pdfrwt beam="1">  1        2 0.36446666E+00 0.77753086E+03</pdfrwt>
<pdfrwt beam="2">  1       -2 0.98150101E-02 0.77753086E+03</pdfrwt>
<totfact> 0.30220849E+02</totfact>
</mgrwt>
</event>
<event>
 4    1  0.1751735E-005  0.8721404E+03  0.7818608E-02  0.9461093E-01
         -2   -1    0    0    0  501 -0.00000000000E+00  0.00000000000E+00  0.71719275432E+03  0.71719275432E+03  0.25500000000E-02 0. -1.
          2   -1    0    0  501    0  0.00000000000E+00 -0.00000000000E+00 -0.26514100669E+03  0.26514100670E+03  0.25500000000E-02 0.  1.
   -5000001    1    1    2    0    0  0.13520114479E+03 -0.23286512937E+03 -0.38490215466E+02  0.36944149025E+03  0.25000000000E+03 0.  0.
    5000001    1    1    2    0    0 -0.13520114479E+03  0.23286512937E+03  0.49054196309E+03  0.61289227078E+03  0.25000000000E+03 0.  0.
<mgrwt>
<rscale>  0 0.87214038E+03</rscale>
<asrwt>0</asrwt>
<pdfrwt beam="1">  1        2 0.40790924E-01 0.87214038E+03</pdfrwt>
<pdfrwt beam="2">  1       -2 0.11033735E+00 0.87214038E+03</pdfrwt>
<totfact> 0.82534680E+01</totfact>
</mgrwt>
</event>
<event>
 4    1  0.1751735E-005  0.5623270E+03  0.7818608E-02  0.9986803E-01
          2   -1    0    0  501    0  0.00000000000E+00  0.00000000000E+00  0.61673013736E+03  0.61673013737E+03  0.25500000000E-02 0.  1.
         -2   -1    0    0    0  501 -0.00000000000E+00 -0.00000000000E+00 -0.12818071332E+03  0.12818071335E+03  0.25500000000E-02 0. -1.
   -5000001    1    1    2    0    0 -0.84891289427E+02 -0.95411791206E+02  0.26492328001E+03  0.38599777877E+03  0.25000000000E+03 0.  0.
    5000001    1    1    2    0    0  0.84891289427E+02  0.95411791206E+02  0.22362614403E+03  0.35891307195E+03  0.25000000000E+03 0.  0.
<mgrwt>
<rscale>  0 0.56232698E+03</rscale>
<asrwt>0</asrwt>
<pdfrwt beam="1">  1        2 0.94881560E-01 0.56232698E+03</pdfrwt>
<pdfrwt beam="2">  1       -2 0.19720110E-01 0.56232698E+03</pdfrwt>
<totfact> 0.10526092E+03</totfact>
</mgrwt>
</event>
<event>
 4    1  0.1751735E-005  0.1002161E+04  0.7818608E-02  0.9306178E-01
          2   -1    0    0  501    0  0.00000000000E+00  0.00000000000E+00  0.20509113569E+03  0.20509113571E+03  0.25500000000E-02 0.  1.
         -2   -1    0    0    0  501 -0.00000000000E+00 -0.00000000000E+00 -0.12242432479E+04  0.12242432479E+04  0.25500000000E-02 0. -1.
   -5000001    1    1    2    0    0  0.66616560497E+02 -0.41127963936E+03 -0.68421331439E+03  0.83918804059E+03  0.25000000000E+03 0.  0.
    5000001    1    1    2    0    0 -0.66616560497E+02  0.41127963936E+03 -0.33493879779E+03  0.59014634299E+03  0.25000000000E+03 0.  0.
<mgrwt>
<rscale>  0 0.10021605E+04</rscale>
<asrwt>0</asrwt>
<pdfrwt beam="1">  1        2 0.31552483E-01 0.10021605E+04</pdfrwt>
<pdfrwt beam="2">  1       -2 0.18834511E+00 0.10021605E+04</pdfrwt>
<totfact> 0.26704690E+01</totfact>
</mgrwt>
</event>
<event>
 4    1  0.1751735E-005  0.6022866E+03  0.7818608E-02  0.9900673E-01
          2   -1    0    0  501    0  0.00000000000E+00  0.00000000000E+00  0.10921737132E+04  0.10921737132E+04  0.25500000000E-02 0.  1.
         -2   -1    0    0    0  501 -0.00000000000E+00 -0.00000000000E+00 -0.83033768358E+02  0.83033768397E+02  0.25500000000E-02 0. -1.
   -5000001    1    1    2    0    0 -0.52852098417E+02 -0.15258041702E+03  0.41487281985E+03  0.51058161406E+03  0.25000000000E+03 0.  0.
    5000001    1    1    2    0    0  0.52852098417E+02  0.15258041702E+03  0.59426712503E+03  0.66462586758E+03  0.25000000000E+03 0.  0.
<mgrwt>
<rscale>  0 0.60228664E+03</rscale>
<asrwt>0</asrwt>
<pdfrwt beam="1">  1        2 0.16802671E+00 0.60228664E+03</pdfrwt>
<pdfrwt beam="2">  1       -2 0.12774427E-01 0.60228664E+03</pdfrwt>
<totfact> 0.10204152E+03</totfact>
</mgrwt>
</event>
<event>
 4    1  0.1751735E-005  0.1201634E+04  0.7818608E-02  0.9111427E-01
          2   -1    0    0  501    0  0.00000000000E+00  0.00000000000E+00  0.49884719279E+03  0.49884719280E+03  0.25500000000E-02 0.  1.
         -2   -1    0    0    0  501 -0.00000000000E+00 -0.00000000000E+00 -0.72363074686E+03  0.72363074686E+03  0.25500000000E-02 0. -1.
   -5000001    1    1    2    0    0  0.30401203143E+03  0.10526267080E+03 -0.56161391161E+03  0.69383984523E+03  0.25000000000E+03 0.  0.
    5000001    1    1    2    0    0 -0.30401203143E+03 -0.10526267080E+03  0.33683035754E+03  0.52863809443E+03  0.25000000000E+03 0.  0.
<mgrwt>
<rscale>  0 0.12016342E+04</rscale>
<asrwt>0</asrwt>
<pdfrwt beam="1">  1        2 0.76745722E-01 0.12016342E+04</pdfrwt>
<pdfrwt beam="2">  1       -2 0.11132781E+00 0.12016342E+04</pdfrwt>
<totfact> 0.38875134E+01</totfact>
</mgrwt>
</event>
<event>
 4    1  0.1751735E-005  0.6115188E+03  0.7818608E-02  0.9881792E-01
         -2   -1    0    0    0  501 -0.00000000000E+00  0.00000000000E+00  0.12116576279E+03  0.12116576281E+03  0.25500000000E-02 0. -1.
          2   -1    0    0  501    0  0.00000000000E+00 -0.00000000000E+00 -0.77157769533E+03  0.77157769534E+03  0.25500000000E-02 0.  1.
   -5000001    1    1    2    0    0 -0.13596022697E+03  0.88675827509E+02 -0.42465164309E+03  0.51882328753E+03  0.25000000000E+03 0.  0.
    5000001    1    1    2    0    0  0.13596022697E+03 -0.88675827509E+02 -0.22576028946E+03  0.37392017062E+03  0.25000000000E+03 0.  0.
<mgrwt>
<rscale>  0 0.61151877E+03</rscale>
<asrwt>0</asrwt>
<pdfrwt beam="1">  1        2 0.11870426E+00 0.61151877E+03</pdfrwt>
<pdfrwt beam="2">  1       -2 0.18640887E-01 0.61151877E+03</pdfrwt>
<totfact> 0.87673946E+02</totfact>
</mgrwt>
</event>
<event>
 4    1  0.1751735E-005  0.6421100E+03  0.7818608E-02  0.9821698E-01
          2   -1    0    0  501    0  0.00000000000E+00  0.00000000000E+00  0.17985083527E+04  0.17985083527E+04  0.25500000000E-02 0.  1.
         -2   -1    0    0    0  501 -0.00000000000E+00 -0.00000000000E+00 -0.57312116781E+02  0.57312116837E+02  0.25500000000E-02 0. -1.
   -5000001    1    1    2    0    0 -0.13800953079E+03  0.14266969911E+03  0.96967085485E+03  0.10208637717E+04  0.25000000000E+03 0.  0.
    5000001    1    1    2    0    0  0.13800953079E+03 -0.14266969911E+03  0.77152538110E+03  0.83495669787E+03  0.25000000000E+03 0.  0.
<mgrwt>
<rscale>  0 0.64211002E+03</rscale>
<asrwt>0</asrwt>
<pdfrwt beam="1">  1        2 0.27669354E+00 0.64211002E+03</pdfrwt>
<pdfrwt beam="2">  1       -2 0.88172505E-02 0.64211002E+03</pdfrwt>
<totfact> 0.74587082E+02</totfact>
</mgrwt>
</event>
<event>
 4    1  0.1751735E-005  0.7469444E+03  0.7818608E-02  0.9640156E-01
          2   -1    0    0  501    0  0.00000000000E+00  0.00000000000E+00  0.96727493437E+02  0.96727493471E+02  0.25500000000E-02 0.  1.
         -2   -1    0    0    0  501 -0.00000000000E+00 -0.00000000000E+00 -0.14420045232E+04  0.14420045232E+04  0.25500000000E-02 0. -1.
   -5000001    1    1    2    0    0 -0.51908934770E+02 -0.26828465333E+03 -0.77165511261E+03  0.85593387918E+03  0.25000000000E+03 0.  0.
    5000001    1    1    2    0    0  0.51908934770E+02  0.26828465333E+03 -0.57362191716E+03  0.68279813749E+03  0.25000000000E+03 0.  0.
<mgrwt>
<rscale>  0 0.74694440E+03</rscale>
<asrwt>0</asrwt>
<pdfrwt beam="1">  1        2 0.14881154E-01 0.74694440E+03</pdfrwt>
<pdfrwt beam="2">  1       -2 0.22184683E+00 0.74694440E+03</pdfrwt>
<totfact> 0.39796772E+01</totfact>
</mgrwt>
</event>
<event>
 4    1  0.1751735E-005  0.6268579E+03  0.7818608E-02  0.9851200E-01
         -2   -1    0    0    0  501 -0.00000000000E+00  0.00000000000E+00  0.38215558480E+02  0.38215558565E+02  0.25500000000E-02 0.  1.
          2   -1    0    0  501    0  0.00000000000E+00 -0.00000000000E+00 -0.25706203452E+04  0.25706203452E+04  0.25500000000E-02 0. -1.
   -5000001    1    1    2    0    0  0.16703621249E+03  0.41090565407E+02 -0.15925273742E+04  0.16211825833E+04  0.25000000000E+03 0.  0.
    5000001    1    1    2    0    0 -0.16703621249E+03 -0.41090565407E+02 -0.93987741258E+03  0.98765332052E+03  0.25000000000E+03 0.  0.
<mgrwt>
<rscale>  0 0.62685785E+03</rscale>
<asrwt>0</asrwt>
<pdfrwt beam="1">  1        2 0.39547992E+00 0.62685785E+03</pdfrwt>
<pdfrwt beam="2">  1       -2 0.58793187E-02 0.62685785E+03</pdfrwt>
<totfact> 0.53380849E+02</totfact>
</mgrwt>
</event>
<event>
 4    1  0.1751735E-005  0.1263821E+04  0.7818608E-02  0.9058758E-01
          2   -1    0    0  501    0  0.00000000000E+00  0.00000000000E+00  0.26731551949E+04  0.26731551949E+04  0.25500000000E-02 0.  1.
         -2   -1    0    0    0  501 -0.00000000000E+00 -0.00000000000E+00 -0.14937813399E+03  0.14937813401E+03  0.25500000000E-02 0. -1.
   -5000001    1    1    2    0    0  0.14817362626E+03 -0.38886306976E+03  0.21653290737E+04  0.22190808701E+04  0.25000000000E+03 0.  0.
    5000001    1    1    2    0    0 -0.14817362626E+03  0.38886306976E+03  0.35844798720E+03  0.60345245883E+03  0.25000000000E+03 0.  0.
<mgrwt>
<rscale>  0 0.12638211E+04</rscale>
<asrwt>0</asrwt>
<pdfrwt beam="1">  1        2 0.41125462E+00 0.12638211E+04</pdfrwt>
<pdfrwt beam="2">  1       -2 0.22981253E-01 0.12638211E+04</pdfrwt>
<totfact> 0.45544504E+01</totfact>
</mgrwt>
</event>
<event>
 4    1  0.1751735E-005  0.7152055E+03  0.7818608E-02  0.9691576E-01
          2   -1    0    0  501    0  0.00000000000E+00  0.00000000000E+00  0.18093891951E+04  0.18093891951E+04  0.25500000000E-02 0. -1.
         -2   -1    0    0    0  501 -0.00000000000E+00 -0.00000000000E+00 -0.70675638851E+02  0.70675638897E+02  0.25500000000E-02 0.  1.
   -5000001    1    1    2    0    0 -0.23623407681E+03 -0.14059828637E+02  0.61482639353E+03  0.70463871027E+03  0.25000000000E+03 0.  0.
    5000001    1    1    2    0    0  0.23623407681E+03  0.14059828637E+02  0.11238871627E+04  0.11754261237E+04  0.25000000000E+03 0.  0.
<mgrwt>
<rscale>  0 0.71520553E+03</rscale>
<asrwt>0</asrwt>
<pdfrwt beam="1">  1        2 0.27836754E+00 0.71520553E+03</pdfrwt>
<pdfrwt beam="2">  1       -2 0.10873176E-01 0.71520553E+03</pdfrwt>
<totfact> 0.52121070E+02</totfact>
</mgrwt>
</event>
<event>
 4    1  0.1751735E-005  0.7094407E+03  0.7818608E-02  0.9701222E-01
          2   -1    0    0  501    0  0.00000000000E+00  0.00000000000E+00  0.18176511905E+03  0.18176511906E+03  0.25500000000E-02 0.  1.
         -2   -1    0    0    0  501 -0.00000000000E+00 -0.00000000000E+00 -0.69224792734E+03  0.69224792734E+03  0.25500000000E-02 0. -1.
   -5000001    1    1    2    0    0 -0.19043032975E+03  0.15903627368E+03 -0.30707636898E+03  0.46728165299E+03  0.25000000000E+03 0.  0.
    5000001    1    1    2    0    0  0.19043032975E+03 -0.15903627368E+03 -0.20340643931E+03  0.40673139342E+03  0.25000000000E+03 0.  0.
<mgrwt>
<rscale>  0 0.70944070E+03</rscale>
<asrwt>0</asrwt>
<pdfrwt beam="1">  1        2 0.27963865E-01 0.70944070E+03</pdfrwt>
<pdfrwt beam="2">  1       -2 0.10649968E+00 0.70944070E+03</pdfrwt>
<totfact> 0.13834756E+02</totfact>
</mgrwt>
</event>
<event>
 4    1  0.1751735E-005  0.1002752E+04  0.7818608E-02  0.9305531E-01
         -2   -1    0    0    0  501 -0.00000000000E+00  0.00000000000E+00  0.29568282006E+03  0.29568282007E+03  0.25500000000E-02 0. -1.
          2   -1    0    0  501    0  0.00000000000E+00 -0.00000000000E+00 -0.85016118049E+03  0.85016118049E+03  0.25500000000E-02 0.  1.
   -5000001    1    1    2    0    0 -0.77828031581E+02  0.42485209516E+03 -0.33229723303E+03  0.59956480579E+03  0.25000000000E+03 0.  0.
    5000001    1    1    2    0    0  0.77828031581E+02 -0.42485209516E+03 -0.22218112741E+03  0.54627919477E+03  0.25000000000E+03 0.  0.
<mgrwt>
<rscale>  0 0.10027523E+04</rscale>
<asrwt>0</asrwt>
<pdfrwt beam="1">  1        2 0.13079403E+00 0.10027523E+04</pdfrwt>
<pdfrwt beam="2">  1       -2 0.45489665E-01 0.10027523E+04</pdfrwt>
<totfact> 0.14510395E+02</totfact>
</mgrwt>
</event>
<event>
 4    1  0.1751735E-005  0.6263569E+03  0.7818608E-02  0.9852184E-01
          2   -1    0    0  501    0  0.00000000000E+00  0.00000000000E+00  0.17565639951E+04  0.17565639951E+04  0.25500000000E-02 0.  1.
         -2   -1    0    0    0  501 -0.00000000000E+00 -0.00000000000E+00 -0.55836700245E+02  0.55836700303E+02  0.25500000000E-02 0. -1.
   -5000001    1    1    2    0    0  0.10272652852E+02 -0.18704574332E+03  0.91435644742E+03  0.96625014900E+03  0.25000000000E+03 0.  0.
    5000001    1    1    2    0    0 -0.10272652852E+02  0.18704574332E+03  0.78637084740E+03  0.84615054638E+03  0.25000000000E+03 0.  0.
<mgrwt>
<rscale>  0 0.62635689E+03</rscale>
<asrwt>0</asrwt>
<pdfrwt beam="1">  1        2 0.27024067E+00 0.62635689E+03</pdfrwt>
<pdfrwt beam="2">  1       -2 0.85902600E-02 0.62635689E+03</pdfrwt>
<totfact> 0.82038166E+02</totfact>
</mgrwt>
</event>
<event>
 4    1  0.1751735E-005  0.8731508E+03  0.7818608E-02  0.9459781E-01
         -2   -1    0    0    0  501 -0.00000000000E+00  0.00000000000E+00  0.17169348055E+03  0.17169348057E+03  0.25500000000E-02 0. -1.
          2   -1    0    0  501    0  0.00000000000E+00 -0.00000000000E+00 -0.11101067553E+04  0.11101067554E+04  0.25500000000E-02 0.  1.
   -5000001    1    1    2    0    0  0.29619211619E+03  0.18705461755E+03 -0.36154089780E+03  0.56207741497E+03  0.25000000000E+03 0.  0.
    5000001    1    1    2    0    0 -0.29619211619E+03 -0.18705461755E+03 -0.57687237701E+03  0.71972282095E+03  0.25000000000E+03 0.  0.
<mgrwt>
<rscale>  0 0.87315083E+03</rscale>
<asrwt>0</asrwt>
<pdfrwt beam="1">  1        2 0.17078565E+00 0.87315083E+03</pdfrwt>
<pdfrwt beam="2">  1       -2 0.26414382E-01 0.87315083E+03</pdfrwt>
<totfact> 0.27921081E+02</totfact>
</mgrwt>
</event>
<event>
 4    1  0.1751735E-005  0.7039016E+03  0.7818608E-02  0.9710583E-01
          2   -1    0    0  501    0  0.00000000000E+00  0.00000000000E+00  0.85281502957E+03  0.85281502957E+03  0.25500000000E-02 0.  1.
         -2   -1    0    0    0  501 -0.00000000000E+00 -0.00000000000E+00 -0.14524764832E+03  0.14524764834E+03  0.25500000000E-02 0. -1.
   -5000001    1    1    2    0    0 -0.13320533007E+03  0.13449061217E+03  0.58037289914E+03  0.65966968005E+03  0.25000000000E+03 0.  0.
    5000001    1    1    2    0    0  0.13320533007E+03 -0.13449061217E+03  0.12719448211E+03  0.33839299786E+03  0.25000000000E+03 0.  0.
<mgrwt>
<rscale>  0 0.70390163E+03</rscale>
<asrwt>0</asrwt>
<pdfrwt beam="1">  1        2 0.13120231E+00 0.70390163E+03</pdfrwt>
<pdfrwt beam="2">  1       -2 0.22345792E-01 0.70390163E+03</pdfrwt>
<totfact> 0.55744079E+02</totfact>
</mgrwt>
</event>
<event>
 4    1  0.1751735E-005  0.7174621E+03  0.7818608E-02  0.9687827E-01
          2   -1    0    0  501    0  0.00000000000E+00  0.00000000000E+00  0.90057097199E+03  0.90057097200E+03  0.25500000000E-02 0.  1.
         -2   -1    0    0    0  501 -0.00000000000E+00 -0.00000000000E+00 -0.14289597836E+03  0.14289597838E+03  0.25500000000E-02 0. -1.
   -5000001    1    1    2    0    0 -0.31782819251E+02 -0.22743303233E+03  0.21015354157E+03  0.39924985013E+03  0.25000000000E+03 0.  0.
    5000001    1    1    2    0    0  0.31782819251E+02  0.22743303233E+03  0.54752145206E+03  0.64421710025E+03  0.25000000000E+03 0.  0.
<mgrwt>
<rscale>  0 0.71746211E+03</rscale>
<asrwt>0</asrwt>
<pdfrwt beam="1">  1        2 0.13854938E+00 0.71746211E+03</pdfrwt>
<pdfrwt beam="2">  1       -2 0.21983997E-01 0.71746211E+03</pdfrwt>
<totfact> 0.53213462E+02</totfact>
</mgrwt>
</event>
<event>
 4    1  0.1751735E-005  0.8784667E+03  0.7818608E-02  0.9452907E-01
         -2   -1    0    0    0  501 -0.00000000000E+00  0.00000000000E+00  0.88125461768E+02  0.88125461804E+02  0.25500000000E-02 0. -1.
          2   -1    0    0  501    0  0.00000000000E+00 -0.00000000000E+00 -0.21892187789E+04  0.21892187789E+04  0.25500000000E-02 0.  1.
   -5000001    1    1    2    0    0  0.35070679812E+03 -0.84133726796E+02 -0.10018967748E+04  0.10937874061E+04  0.25000000000E+03 0.  0.
    5000001    1    1    2    0    0 -0.35070679812E+03  0.84133726796E+02 -0.10991965423E+04  0.11835568347E+04  0.25000000000E+03 0.  0.
<mgrwt>
<rscale>  0 0.87846665E+03</rscale>
<asrwt>0</asrwt>
<pdfrwt beam="1">  1        2 0.33680285E+00 0.87846665E+03</pdfrwt>
<pdfrwt beam="2">  1       -2 0.13557765E-01 0.87846665E+03</pdfrwt>
<totfact> 0.22132114E+02</totfact>
</mgrwt>
</event>
<event>
 4    1  0.1751735E-005  0.9871756E+03  0.7818608E-02  0.9322723E-01
         -2   -1    0    0    0  501 -0.00000000000E+00  0.00000000000E+00  0.30646141340E+03  0.30646141341E+03  0.25500000000E-02 0. -1.
          2   -1    0    0  501    0  0.00000000000E+00 -0.00000000000E+00 -0.79497425449E+03  0.79497425450E+03  0.25500000000E-02 0.  1.
   -5000001    1    1    2    0    0  0.41380260596E+03 -0.93135656700E+02 -0.20525183513E+03  0.53341837527E+03  0.25000000000E+03 0.  0.
    5000001    1    1    2    0    0 -0.41380260596E+03  0.93135656700E+02 -0.28326100596E+03  0.56801729265E+03  0.25000000000E+03 0.  0.
<mgrwt>
<rscale>  0 0.98717564E+03</rscale>
<asrwt>0</asrwt>
<pdfrwt beam="1">  1        2 0.12230373E+00 0.98717564E+03</pdfrwt>
<pdfrwt beam="2">  1       -2 0.47147910E-01 0.98717564E+03</pdfrwt>
<totfact> 0.14794314E+02</totfact>
</mgrwt>
</event>
<event>
 4    1  0.1751735E-005  0.5562690E+03  0.7818608E-02  0.1000053E+00
         -2   -1    0    0    0  501 -0.00000000000E+00  0.00000000000E+00  0.40798986264E+03  0.40798986265E+03  0.25500000000E-02 0. -1.
          2   -1    0    0  501    0  0.00000000000E+00 -0.00000000000E+00 -0.18960963966E+03  0.18960963968E+03  0.25500000000E-02 0.  1.
   -5000001    1    1    2    0    0 -0.95223207707E+02  0.31636910335E+02  0.18354573729E+03  0.32597145743E+03  0.25000000000E+03 0.  0.
    5000001    1    1    2    0    0  0.95223207707E+02 -0.31636910335E+02  0.34834485687E+02  0.27162804490E+03  0.25000000000E+03 0.  0.
<mgrwt>
<rscale>  0 0.55626904E+03</rscale>
<asrwt>0</asrwt>
<pdfrwt beam="1">  1        2 0.29170714E-01 0.55626904E+03</pdfrwt>
<pdfrwt beam="2">  1       -2 0.62767670E-01 0.55626904E+03</pdfrwt>
<totfact> 0.43632614E+02</totfact>
</mgrwt>
</event>
<event>
 4    1  0.1751735E-005  0.1118102E+04  0.7818608E-02  0.9187725E-01
         -2   -1    0    0    0  501 -0.00000000000E+00  0.00000000000E+00  0.50460387561E+03  0.50460387561E+03  0.25500000000E-02 0. -1.
          2   -1    0    0  501    0  0.00000000000E+00 -0.00000000000E+00 -0.61937352791E+03  0.61937352792E+03  0.25500000000E-02 0.  1.
   -5000001    1    1    2    0    0 -0.19188822992E+03  0.38217650574E+03  0.20312604301E+03  0.53538786283E+03  0.25000000000E+03 0.  0.
    5000001    1    1    2    0    0  0.19188822992E+03 -0.38217650574E+03 -0.31789569532E+03  0.58858954070E+03  0.25000000000E+03 0.  0.
<mgrwt>
<rscale>  0 0.11181025E+04</rscale>
<asrwt>0</asrwt>
<pdfrwt beam="1">  1        2 0.95288235E-01 0.11181025E+04</pdfrwt>
<pdfrwt beam="2">  1       -2 0.77631366E-01 0.11181025E+04</pdfrwt>
<totfact> 0.70021015E+01</totfact>
</mgrwt>
</event>
<event>
 4    1  0.1751735E-005  0.8196407E+03  0.7818608E-02  0.9532015E-01
         -2   -1    0    0    0  501 -0.00000000000E+00  0.00000000000E+00  0.98841577966E+02  0.98841577999E+02  0.25500000000E-02 0. -1.
          2   -1    0    0  501    0  0.00000000000E+00 -0.00000000000E+00 -0.16992113471E+04  0.16992113471E+04  0.25500000000E-02 0.  1.
   -5000001    1    1    2    0    0  0.18743039558E+03  0.22789639429E+03 -0.10976392438E+04  0.11637778264E+04  0.25000000000E+03 0.  0.
    5000001    1    1    2    0    0 -0.18743039558E+03 -0.22789639429E+03 -0.50273052535E+03  0.63427509870E+03  0.25000000000E+03 0.  0.
<mgrwt>
<rscale>  0 0.81964073E+03</rscale>
<asrwt>0</asrwt>
<pdfrwt beam="1">  1        2 0.26141711E+00 0.81964073E+03</pdfrwt>
<pdfrwt beam="2">  1       -2 0.15206398E-01 0.81964073E+03</pdfrwt>
<totfact> 0.34008443E+02</totfact>
</mgrwt>
</event>
<event>
 4    1  0.1751735E-005  0.5758138E+03  0.7818608E-02  0.9956895E-01
         -2   -1    0    0    0  501 -0.00000000000E+00  0.00000000000E+00  0.11749495750E+03  0.11749495753E+03  0.25500000000E-02 0. -1.
          2   -1    0    0  501    0  0.00000000000E+00 -0.00000000000E+00 -0.70548028628E+03  0.70548028629E+03  0.25500000000E-02 0.  1.
   -5000001    1    1    2    0    0  0.94120604203E+02  0.40143720155E+02 -0.43634489422E+03  0.51319301741E+03  0.25000000000E+03 0.  0.
    5000001    1    1    2    0    0 -0.94120604203E+02 -0.40143720155E+02 -0.15164043457E+03  0.30978222641E+03  0.25000000000E+03 0.  0.
<mgrwt>
<rscale>  0 0.57581378E+03</rscale>
<asrwt>0</asrwt>
<pdfrwt beam="1">  1        2 0.10853543E+00 0.57581378E+03</pdfrwt>
<pdfrwt beam="2">  1       -2 0.18076148E-01 0.57581378E+03</pdfrwt>
<totfact> 0.10370279E+03</totfact>
</mgrwt>
</event>
<event>
 4    1  0.1751735E-005  0.8348226E+03  0.7818608E-02  0.9510937E-01
         -2   -1    0    0    0  501 -0.00000000000E+00  0.00000000000E+00  0.19400144550E+03  0.19400144552E+03  0.25500000000E-02 0. -1.
          2   -1    0    0  501    0  0.00000000000E+00 -0.00000000000E+00 -0.89809746663E+03  0.89809746664E+03  0.25500000000E-02 0.  1.
   -5000001    1    1    2    0    0 -0.32302762299E+03 -0.18018298343E+01 -0.23965011976E+03  0.47358449268E+03  0.25000000000E+03 0.  0.
    5000001    1    1    2    0    0  0.32302762299E+03  0.18018298343E+01 -0.46444590137E+03  0.61851441948E+03  0.25000000000E+03 0.  0.
<mgrwt>
<rscale>  0 0.83482263E+03</rscale>
<asrwt>0</asrwt>
<pdfrwt beam="1">  1        2 0.13816884E+00 0.83482263E+03</pdfrwt>
<pdfrwt beam="2">  1       -2 0.29846377E-01 0.83482263E+03</pdfrwt>
<totfact> 0.30548241E+02</totfact>
</mgrwt>
</event>
<event>
 4    1  0.1751735E-005  0.1028931E+04  0.7818608E-02  0.9277371E-01
          2   -1    0    0  501    0  0.00000000000E+00  0.00000000000E+00  0.14301854097E+04  0.14301854097E+04  0.25500000000E-02 0.  1.
         -2   -1    0    0    0  501 -0.00000000000E+00 -0.00000000000E+00 -0.18506310550E+03  0.18506310552E+03  0.25500000000E-02 0. -1.
   -5000001    1    1    2    0    0 -0.27441816079E+03  0.35186507787E+03  0.70940272814E+03  0.87456651588E+03  0.25000000000E+03 0.  0.
    5000001    1    1    2    0    0  0.27441816079E+03 -0.35186507787E+03  0.53571957606E+03  0.74068199935E+03  0.25000000000E+03 0.  0.
<mgrwt>
<rscale>  0 0.10289306E+04</rscale>
<asrwt>0</asrwt>
<pdfrwt beam="1">  1        2 0.22002852E+00 0.10289306E+04</pdfrwt>
<pdfrwt beam="2">  1       -2 0.28471247E-01 0.10289306E+04</pdfrwt>
<totfact> 0.15652133E+02</totfact>
</mgrwt>
</event>
<event>
 4    1  0.1751735E-005  0.8427410E+03  0.7818608E-02  0.9500132E-01
          2   -1    0    0  501    0  0.00000000000E+00  0.00000000000E+00  0.13108739208E+04  0.13108739208E+04  0.25500000000E-02 0.  1.
         -2   -1    0    0    0  501 -0.00000000000E+00 -0.00000000000E+00 -0.13544637341E+03  0.13544637344E+03  0.25500000000E-02 0. -1.
   -5000001    1    1    2    0    0 -0.22421396955E+03 -0.20499333765E+03  0.32880521654E+03  0.51274461777E+03  0.25000000000E+03 0.  0.
    5000001    1    1    2    0    0  0.22421396955E+03  0.20499333765E+03  0.84662233087E+03  0.93357567650E+03  0.25000000000E+03 0.  0.
<mgrwt>
<rscale>  0 0.84274105E+03</rscale>
<asrwt>0</asrwt>
<pdfrwt beam="1">  1        2 0.20167291E+00 0.84274105E+03</pdfrwt>
<pdfrwt beam="2">  1       -2 0.20837904E-01 0.84274105E+03</pdfrwt>
<totfact> 0.32510505E+02</totfact>
</mgrwt>
</event>
<event>
 4    1  0.1751735E-005  0.5730741E+03  0.7818608E-02  0.9962899E-01
          2   -1    0    0  501    0  0.00000000000E+00  0.00000000000E+00  0.12734821350E+03  0.12734821353E+03  0.25500000000E-02 0.  1.
         -2   -1    0    0    0  501 -0.00000000000E+00 -0.00000000000E+00 -0.64471633686E+03  0.64471633686E+03  0.25500000000E-02 0. -1.
   -5000001    1    1    2    0    0  0.72187204580E+02 -0.11040712212E+03 -0.19545375063E+03  0.34366101576E+03  0.25000000000E+03 0.  0.
    5000001    1    1    2    0    0 -0.72187204580E+02  0.11040712212E+03 -0.32191437272E+03  0.42840353463E+03  0.25000000000E+03 0.  0.
<mgrwt>
<rscale>  0 0.57307407E+03</rscale>
<asrwt>0</asrwt>
<pdfrwt beam="1">  1        2 0.19592033E-01 0.57307407E+03</pdfrwt>
<pdfrwt beam="2">  1       -2 0.99187127E-01 0.57307407E+03</pdfrwt>
<totfact> 0.24816968E+02</totfact>
</mgrwt>
</event>
<event>
 4    1  0.1751735E-005  0.8413843E+03  0.7818608E-02  0.9501974E-01
          2   -1    0    0  501    0  0.00000000000E+00  0.00000000000E+00  0.43593675539E+04  0.43593675539E+04  0.25500000000E-02 0.  1.
         -2   -1    0    0    0  501 -0.00000000000E+00 -0.00000000000E+00 -0.40598067246E+02  0.40598067326E+02  0.25500000000E-02 0. -1.
   -5000001    1    1    2    0    0 -0.33033426013E+03  0.12784078276E+02  0.25364028345E+04  0.25700434812E+04  0.25000000000E+03 0.  0.
    5000001    1    1    2    0    0  0.33033426013E+03 -0.12784078276E+02  0.17823666521E+04  0.18299221400E+04  0.25000000000E+03 0.  0.
<mgrwt>
<rscale>  0 0.84138433E+03</rscale>
<asrwt>0</asrwt>
<pdfrwt beam="1">  1        2 0.67067131E+00 0.84138433E+03</pdfrwt>
<pdfrwt beam="2">  1       -2 0.62458623E-02 0.84138433E+03</pdfrwt>
<totfact> 0.26968395E+01</totfact>
</mgrwt>
</event>
<event>
 4    1  0.1751735E-005  0.7289124E+03  0.7818608E-02  0.9669027E-01
          2   -1    0    0  501    0  0.00000000000E+00  0.00000000000E+00  0.19434426537E+04  0.19434426537E+04  0.25500000000E-02 0.  1.
         -2   -1    0    0    0  501 -0.00000000000E+00 -0.00000000000E+00 -0.68346914864E+02  0.68346914911E+02  0.25500000000E-02 0. -1.
   -5000001    1    1    2    0    0  0.20282531555E+03 -0.16536669404E+03  0.10560686397E+04  0.11163624966E+04  0.25000000000E+03 0.  0.
    5000001    1    1    2    0    0 -0.20282531555E+03  0.16536669404E+03  0.81902709918E+03  0.89542707202E+03  0.25000000000E+03 0.  0.
<mgrwt>
<rscale>  0 0.72891237E+03</rscale>
<asrwt>0</asrwt>
<pdfrwt beam="1">  1        2 0.29899119E+00 0.72891237E+03</pdfrwt>
<pdfrwt beam="2">  1       -2 0.10514909E-01 0.72891237E+03</pdfrwt>
<totfact> 0.46500434E+02</totfact>
</mgrwt>
</event>
<event>
 4    1  0.1751735E-005  0.7167913E+03  0.7818608E-02  0.9688940E-01
         -2   -1    0    0    0  501 -0.00000000000E+00  0.00000000000E+00  0.44210759961E+02  0.44210760035E+02  0.25500000000E-02 0. -1.
          2   -1    0    0  501    0  0.00000000000E+00 -0.00000000000E+00 -0.29053433238E+04  0.29053433238E+04  0.25500000000E-02 0.  1.
   -5000001    1    1    2    0    0 -0.13637157455E+03  0.21448530302E+03 -0.12795818648E+04  0.13283188248E+04  0.25000000000E+03 0.  0.
    5000001    1    1    2    0    0  0.13637157455E+03 -0.21448530302E+03 -0.15815506990E+04  0.16212352590E+04  0.25000000000E+03 0.  0.
<mgrwt>
<rscale>  0 0.71679128E+03</rscale>
<asrwt>0</asrwt>
<pdfrwt beam="1">  1        2 0.44697575E+00 0.71679128E+03</pdfrwt>
<pdfrwt beam="2">  1       -2 0.68016577E-02 0.71679128E+03</pdfrwt>
<totfact> 0.26811596E+02</totfact>
</mgrwt>
</event>
<event>
 4    1  0.1751735E-005  0.6796421E+03  0.7818608E-02  0.9752694E-01
         -2   -1    0    0    0  501 -0.00000000000E+00  0.00000000000E+00  0.19634390144E+03  0.19634390146E+03  0.25500000000E-02 0. -1.
          2   -1    0    0  501    0  0.00000000000E+00 -0.00000000000E+00 -0.58814335162E+03  0.58814335162E+03  0.25500000000E-02 0.  1.
   -5000001    1    1    2    0    0  0.51254312302E+02  0.14819967888E+03 -0.39037957156E+03  0.48937343537E+03  0.25000000000E+03 0.  0.
    5000001    1    1    2    0    0 -0.51254312302E+02 -0.14819967888E+03 -0.14198786145E+01  0.29511381771E+03  0.25000000000E+03 0.  0.
<mgrwt>
<rscale>  0 0.67964214E+03</rscale>
<asrwt>0</asrwt>
<pdfrwt beam="1">  1        2 0.90483592E-01 0.67964214E+03</pdfrwt>
<pdfrwt beam="2">  1       -2 0.30206754E-01 0.67964214E+03</pdfrwt>
<totfact> 0.51750410E+02</totfact>
</mgrwt>
</event>
<event>
 4    1  0.1751735E-005  0.6310167E+03  0.7818608E-02  0.9843067E-01
          2   -1    0    0  501    0  0.00000000000E+00  0.00000000000E+00  0.14558093335E+04  0.14558093335E+04  0.25500000000E-02 0.  1.
         -2   -1    0    0    0  501 -0.00000000000E+00 -0.00000000000E+00 -0.68378124767E+02  0.68378124815E+02  0.25500000000E-02 0. -1.
   -5000001    1    1    2    0    0 -0.54184773125E+02 -0.18143094386E+03  0.77712149746E+03  0.83801610894E+03  0.25000000000E+03 0.  0.
    5000001    1    1    2    0    0  0.54184773125E+02  0.18143094386E+03  0.61030971124E+03  0.68617134934E+03  0.25000000000E+03 0.  0.
<mgrwt>
<rscale>  0 0.63101668E+03</rscale>
<asrwt>0</asrwt>
<pdfrwt beam="1">  1        2 0.22397065E+00 0.63101668E+03</pdfrwt>
<pdfrwt beam="2">  1       -2 0.10519712E-01 0.63101668E+03</pdfrwt>
<totfact> 0.86401157E+02</totfact>
</mgrwt>
</event>
<event>
 4    1  0.1751735E-005  0.8096072E+03  0.7818608E-02  0.9546214E-01
         -2   -1    0    0    0  501 -0.00000000000E+00  0.00000000000E+00  0.44385484926E+02  0.44385484999E+02  0.25500000000E-02 0. -1.
          2   -1    0    0  501    0  0.00000000000E+00 -0.00000000000E+00 -0.36918812898E+04  0.36918812898E+04  0.25500000000E-02 0.  1.
   -5000001    1    1    2    0    0 -0.21008221621E+03  0.20673390938E+03 -0.12681826088E+04  0.13257679194E+04  0.25000000000E+03 0.  0.
    5000001    1    1    2    0    0  0.21008221621E+03 -0.20673390938E+03 -0.23793131960E+04  0.24104988554E+04  0.25000000000E+03 0.  0.
<mgrwt>
<rscale>  0 0.80960717E+03</rscale>
<asrwt>0</asrwt>
<pdfrwt beam="1">  1        2 0.56798150E+00 0.80960717E+03</pdfrwt>
<pdfrwt beam="2">  1       -2 0.68285390E-02 0.80960717E+03</pdfrwt>
<totfact> 0.80633551E+01</totfact>
</mgrwt>
</event>
<event>
 4    1  0.1751735E-005  0.8486109E+03  0.7818608E-02  0.9492203E-01
          2   -1    0    0  501    0  0.00000000000E+00  0.00000000000E+00  0.80742851598E+03  0.80742851598E+03  0.25500000000E-02 0.  1.
         -2   -1    0    0    0  501 -0.00000000000E+00 -0.00000000000E+00 -0.22297346408E+03  0.22297346409E+03  0.25500000000E-02 0. -1.
   -5000001    1    1    2    0    0 -0.32570533393E+03 -0.51306027001E+02  0.40625363029E+03  0.57987781910E+03  0.25000000000E+03 0.  0.
    5000001    1    1    2    0    0  0.32570533393E+03  0.51306027001E+02  0.17820142161E+03  0.45052416098E+03  0.25000000000E+03 0.  0.
<mgrwt>
<rscale>  0 0.84861094E+03</rscale>
<asrwt>0</asrwt>
<pdfrwt beam="1">  1        2 0.12421977E+00 0.84861094E+03</pdfrwt>
<pdfrwt beam="2">  1       -2 0.34303610E-01 0.84861094E+03</pdfrwt>
<totfact> 0.27180489E+02</totfact>
</mgrwt>
</event>
<event>
 4    1  0.1751735E-005  0.1074119E+04  0.7818608E-02  0.9230790E-01
          2   -1    0    0  501    0  0.00000000000E+00  0.00000000000E+00  0.57118735949E+03  0.57118735949E+03  0.25500000000E-02 0.  1.
         -2   -1    0    0    0  501 -0.00000000000E+00 -0.00000000000E+00 -0.50497115586E+03  0.50497115586E+03  0.25500000000E-02 0. -1.
   -5000001    1    1    2    0    0  0.19482272439E+03 -0.27719460063E+03  0.36711824061E+03  0.55863095434E+03  0.25000000000E+03 0.  0.
    5000001    1    1    2    0    0 -0.19482272439E+03  0.27719460063E+03 -0.30090203697E+03  0.51752756102E+03  0.25000000000E+03 0.  0.
<mgrwt>
<rscale>  0 0.10741194E+04</rscale>
<asrwt>0</asrwt>
<pdfrwt beam="1">  1        2 0.87874979E-01 0.10741194E+04</pdfrwt>
<pdfrwt beam="2">  1       -2 0.77687870E-01 0.10741194E+04</pdfrwt>
<totfact> 0.77306369E+01</totfact>
</mgrwt>
</event>
<event>
 4    1  0.1751735E-005  0.5623057E+03  0.7818608E-02  0.9986851E-01
         -2   -1    0    0    0  501 -0.00000000000E+00  0.00000000000E+00  0.58410416728E+02  0.58410416784E+02  0.25500000000E-02 0. -1.
          2   -1    0    0  501    0  0.00000000000E+00 -0.00000000000E+00 -0.13533020831E+04  0.13533020831E+04  0.25500000000E-02 0.  1.
   -5000001    1    1    2    0    0  0.75896294169E+02  0.10019447383E+03 -0.71609803184E+03  0.76882740018E+03  0.25000000000E+03 0.  0.
    5000001    1    1    2    0    0 -0.75896294169E+02 -0.10019447383E+03 -0.57879363453E+03  0.64288509971E+03  0.25000000000E+03 0.  0.
<mgrwt>
<rscale>  0 0.56230575E+03</rscale>
<asrwt>0</asrwt>
<pdfrwt beam="1">  1        2 0.20820030E+00 0.56230575E+03</pdfrwt>
<pdfrwt beam="2">  1       -2 0.89862190E-02 0.56230575E+03</pdfrwt>
<totfact> 0.12761804E+03</totfact>
</mgrwt>
</event>
<event>
 4    1  0.1751735E-005  0.7293531E+03  0.7818608E-02  0.9668311E-01
          2   -1    0    0  501    0  0.00000000000E+00  0.00000000000E+00  0.27840905268E+03  0.27840905269E+03  0.25500000000E-02 0.  1.
         -2   -1    0    0    0  501 -0.00000000000E+00 -0.00000000000E+00 -0.47767483470E+03  0.47767483471E+03  0.25500000000E-02 0. -1.
   -5000001    1    1    2    0    0 -0.15531972365E+03 -0.17419552916E+03 -0.23084468231E+03  0.41262278934E+03  0.25000000000E+03 0.  0.
    5000001    1    1    2    0    0  0.15531972365E+03  0.17419552916E+03  0.31578900293E+02  0.34346109805E+03  0.25000000000E+03 0.  0.
<mgrwt>
<rscale>  0 0.72935313E+03</rscale>
<asrwt>0</asrwt>
<pdfrwt beam="1">  1        2 0.42832162E-01 0.72935313E+03</pdfrwt>
<pdfrwt beam="2">  1       -2 0.73488436E-01 0.72935313E+03</pdfrwt>
<totfact> 0.20121780E+02</totfact>
</mgrwt>
</event>
<event>
 4    1  0.1751735E-005  0.9388661E+03  0.7818608E-02  0.9378260E-01
          2   -1    0    0  501    0  0.00000000000E+00  0.00000000000E+00  0.17158531525E+04  0.17158531525E+04  0.25500000000E-02 0.  1.
         -2   -1    0    0    0  501 -0.00000000000E+00 -0.00000000000E+00 -0.12843021495E+03  0.12843021497E+03  0.25500000000E-02 0. -1.
   -5000001    1    1    2    0    0 -0.38311275118E+03  0.88224875934E+02  0.68072362812E+03  0.82489009372E+03  0.25000000000E+03 0.  0.
    5000001    1    1    2    0    0  0.38311275118E+03 -0.88224875934E+02  0.90669930948E+03  0.10193932738E+04  0.25000000000E+03 0.  0.
<mgrwt>
<rscale>  0 0.93886610E+03</rscale>
<asrwt>0</asrwt>
<pdfrwt beam="1">  1        2 0.26397741E+00 0.93886610E+03</pdfrwt>
<pdfrwt beam="2">  1       -2 0.19758495E-01 0.93886610E+03</pdfrwt>
<totfact> 0.21039176E+02</totfact>
</mgrwt>
</event>
<event>
 4    1  0.1751735E-005  0.5764099E+03  0.7818608E-02  0.9955594E-01
          2   -1    0    0  501    0  0.00000000000E+00  0.00000000000E+00  0.11211858031E+04  0.11211858031E+04  0.25500000000E-02 0.  1.
         -2   -1    0    0    0  501 -0.00000000000E+00 -0.00000000000E+00 -0.74084154217E+02  0.74084154261E+02  0.25500000000E-02 0. -1.
   -5000001    1    1    2    0    0  0.87468448250E+01 -0.14051165216E+03  0.58003893783E+03  0.64712070056E+03  0.25000000000E+03 0.  0.
    5000001    1    1    2    0    0 -0.87468448250E+01  0.14051165216E+03  0.46706271107E+03  0.54814925683E+03  0.25000000000E+03 0.  0.
<mgrwt>
<rscale>  0 0.57640993E+03</rscale>
<asrwt>0</asrwt>
<pdfrwt beam="1">  1        2 0.17249011E+00 0.57640993E+03</pdfrwt>
<pdfrwt beam="2">  1       -2 0.11397563E-01 0.57640993E+03</pdfrwt>
<totfact> 0.11834351E+03</totfact>
</mgrwt>
</event>
<event>
 4    1  0.1751735E-005  0.7922492E+03  0.7818608E-02  0.9571304E-01
         -2   -1    0    0    0  501 -0.00000000000E+00  0.00000000000E+00  0.59458480755E+02  0.59458480810E+02  0.25500000000E-02 0. -1.
          2   -1    0    0  501    0  0.00000000000E+00 -0.00000000000E+00 -0.26390631120E+04  0.26390631120E+04  0.25500000000E-02 0.  1.
   -5000001    1    1    2    0    0  0.30055685601E+03  0.61006352404E+02 -0.12253112780E+04  0.12876117142E+04  0.25000000000E+03 0.  0.
    5000001    1    1    2    0    0 -0.30055685601E+03 -0.61006352404E+02 -0.13542933533E+04  0.14109098786E+04  0.25000000000E+03 0.  0.
<mgrwt>
<rscale>  0 0.79224916E+03</rscale>
<asrwt>0</asrwt>
<pdfrwt beam="1">  1        2 0.40600962E+00 0.79224916E+03</pdfrwt>
<pdfrwt beam="2">  1       -2 0.91474606E-02 0.79224916E+03</pdfrwt>
<totfact> 0.23764202E+02</totfact>
</mgrwt>
</event>
<event>
 4    1  0.1751735E-005  0.8652921E+03  0.7818608E-02  0.9470039E-01
         -2   -1    0    0    0  501 -0.00000000000E+00  0.00000000000E+00  0.31415403214E+03  0.31415403215E+03  0.25500000000E-02 0. -1.
          2   -1    0    0  501    0  0.00000000000E+00 -0.00000000000E+00 -0.59583071968E+03  0.59583071969E+03  0.25500000000E-02 0.  1.
   -5000001    1    1    2    0    0  0.15128856540E+03  0.30806238528E+03 -0.22814406885E+03  0.48201699078E+03  0.25000000000E+03 0.  0.
    5000001    1    1    2    0    0 -0.15128856540E+03 -0.30806238528E+03 -0.53532618686E+02  0.42796776106E+03  0.25000000000E+03 0.  0.
<mgrwt>
<rscale>  0 0.86529214E+03</rscale>
<asrwt>0</asrwt>
<pdfrwt beam="1">  1        2 0.91666264E-01 0.86529214E+03</pdfrwt>
<pdfrwt beam="2">  1       -2 0.48331390E-01 0.86529214E+03</pdfrwt>
<totfact> 0.20376408E+02</totfact>
</mgrwt>
</event>
<event>
 4    1  0.1751735E-005  0.6169193E+03  0.7818608E-02  0.9870913E-01
          2   -1    0    0  501    0  0.00000000000E+00  0.00000000000E+00  0.86245529336E+03  0.86245529336E+03  0.25500000000E-02 0.  1.
         -2   -1    0    0    0  501 -0.00000000000E+00 -0.00000000000E+00 -0.11032150201E+03  0.11032150203E+03  0.25500000000E-02 0. -1.
   -5000001    1    1    2    0    0 -0.11294563454E+03  0.14000378701E+03  0.34923359493E+03  0.46564136475E+03  0.25000000000E+03 0.  0.
    5000001    1    1    2    0    0  0.11294563454E+03 -0.14000378701E+03  0.40290019642E+03  0.50713543065E+03  0.25000000000E+03 0.  0.
<mgrwt>
<rscale>  0 0.61691933E+03</rscale>
<asrwt>0</asrwt>
<pdfrwt beam="1">  1        2 0.13268543E+00 0.61691933E+03</pdfrwt>
<pdfrwt beam="2">  1       -2 0.16972539E-01 0.61691933E+03</pdfrwt>
<totfact> 0.88836044E+02</totfact>
</mgrwt>
</event>
<event>
 4    1  0.1751735E-005  0.1174340E+04  0.7818608E-02  0.9135618E-01
         -2   -1    0    0    0  501 -0.00000000000E+00  0.00000000000E+00  0.18648397956E+03  0.18648397958E+03  0.25500000000E-02 0. -1.
          2   -1    0    0  501    0  0.00000000000E+00 -0.00000000000E+00 -0.18487827536E+04  0.18487827536E+04  0.25500000000E-02 0.  1.
   -5000001    1    1    2    0    0  0.40195229544E+03  0.27795714767E+03 -0.46991819362E+03  0.72259873543E+03  0.25000000000E+03 0.  0.
    5000001    1    1    2    0    0 -0.40195229544E+03 -0.27795714767E+03 -0.11923805804E+04  0.13126679977E+04  0.25000000000E+03 0.  0.
<mgrwt>
<rscale>  0 0.11743396E+04</rscale>
<asrwt>0</asrwt>
<pdfrwt beam="1">  1        2 0.28442810E+00 0.11743396E+04</pdfrwt>
<pdfrwt beam="2">  1       -2 0.28689844E-01 0.11743396E+04</pdfrwt>
<totfact> 0.89338998E+01</totfact>
</mgrwt>
</event>
<event>
 4    1  0.1751735E-005  0.8441194E+03  0.7818608E-02  0.9498264E-01
         -2   -1    0    0    0  501 -0.00000000000E+00  0.00000000000E+00  0.13785000835E+03  0.13785000837E+03  0.25500000000E-02 0. -1.
          2   -1    0    0  501    0  0.00000000000E+00 -0.00000000000E+00 -0.12922334876E+04  0.12922334876E+04  0.25500000000E-02 0.  1.
   -5000001    1    1    2    0    0 -0.30362717814E+03 -0.11654919490E+02 -0.83584635130E+03  0.92383138257E+03  0.25000000000E+03 0.  0.
    5000001    1    1    2    0    0  0.30362717814E+03  0.11654919490E+02 -0.31853712799E+03  0.50625211344E+03  0.25000000000E+03 0.  0.
<mgrwt>
<rscale>  0 0.84411942E+03</rscale>
<asrwt>0</asrwt>
<pdfrwt beam="1">  1        2 0.19880514E+00 0.84411942E+03</pdfrwt>
<pdfrwt beam="2">  1       -2 0.21207694E-01 0.84411942E+03</pdfrwt>
<totfact> 0.32307032E+02</totfact>
</mgrwt>
</event>
<event>
 4    1  0.1751735E-005  0.8327337E+03  0.7818608E-02  0.9513809E-01
         -2   -1    0    0    0  501 -0.00000000000E+00  0.00000000000E+00  0.27238675822E+03  0.27238675823E+03  0.25500000000E-02 0. -1.
          2   -1    0    0  501    0  0.00000000000E+00 -0.00000000000E+00 -0.63645293954E+03  0.63645293954E+03  0.25500000000E-02 0.  1.
   -5000001    1    1    2    0    0 -0.15607672421E+03  0.22358982741E+03 -0.39056912344E+03  0.53795594146E+03  0.25000000000E+03 0.  0.
    5000001    1    1    2    0    0  0.15607672421E+03 -0.22358982741E+03  0.26502942127E+02  0.37088375632E+03  0.25000000000E+03 0.  0.
<mgrwt>
<rscale>  0 0.83273370E+03</rscale>
<asrwt>0</asrwt>
<pdfrwt beam="1">  1        2 0.97915837E-01 0.83273370E+03</pdfrwt>
<pdfrwt beam="2">  1       -2 0.41905655E-01 0.83273370E+03</pdfrwt>
<totfact> 0.25031434E+02</totfact>
</mgrwt>
</event>
<event>
 4    1  0.1751735E-005  0.9972626E+03  0.7818608E-02  0.9311552E-01
         -2   -1    0    0    0  501 -0.00000000000E+00  0.00000000000E+00  0.24014682715E+03  0.24014682716E+03  0.25500000000E-02 0. -1.
          2   -1    0    0  501    0  0.00000000000E+00 -0.00000000000E+00 -0.10353382410E+04  0.10353382410E+04  0.25500000000E-02 0.  1.
   -5000001    1    1    2    0    0  0.41734861128E+03 -0.42038796104E+01 -0.25786591703E+03  0.55062906490E+03  0.25000000000E+03 0.  0.
    5000001    1    1    2    0    0 -0.41734861128E+03  0.42038796104E+01 -0.53732549683E+03  0.72485600328E+03  0.25000000000E+03 0.  0.
<mgrwt>
<rscale>  0 0.99726264E+03</rscale>
<asrwt>0</asrwt>
<pdfrwt beam="1">  1        2 0.15928280E+00 0.99726264E+03</pdfrwt>
<pdfrwt beam="2">  1       -2 0.36945666E-01 0.99726264E+03</pdfrwt>
<totfact> 0.16464902E+02</totfact>
</mgrwt>
</event>
<event>
 4    1  0.1751735E-005  0.8042143E+03  0.7818608E-02  0.9553937E-01
         -2   -1    0    0    0  501 -0.00000000000E+00  0.00000000000E+00  0.12231223455E+03  0.12231223458E+03  0.25500000000E-02 0. -1.
          2   -1    0    0  501    0  0.00000000000E+00 -0.00000000000E+00 -0.13219458462E+04  0.13219458462E+04  0.25500000000E-02 0.  1.
   -5000001    1    1    2    0    0 -0.24956843705E+03 -0.17684330443E+03 -0.73459254660E+03  0.83407683616E+03  0.25000000000E+03 0.  0.
    5000001    1    1    2    0    0  0.24956843705E+03  0.17684330443E+03 -0.46504106500E+03  0.61018124457E+03  0.25000000000E+03 0.  0.
<mgrwt>
<rscale>  0 0.80421428E+03</rscale>
<asrwt>0</asrwt>
<pdfrwt beam="1">  1        2 0.20337627E+00 0.80421428E+03</pdfrwt>
<pdfrwt beam="2">  1       -2 0.18817268E-01 0.80421428E+03</pdfrwt>
<totfact> 0.38377475E+02</totfact>
</mgrwt>
</event>
<event>
 4    1  0.1751735E-005  0.1144934E+04  0.7818608E-02  0.9162469E-01
          2   -1    0    0  501    0  0.00000000000E+00  0.00000000000E+00  0.22109057437E+03  0.22109057438E+03  0.25500000000E-02 0.  1.
         -2   -1    0    0    0  501 -0.00000000000E+00 -0.00000000000E+00 -0.14822826652E+04  0.14822826652E+04  0.25500000000E-02 0. -1.
   -5000001    1    1    2    0    0 -0.33563602839E+03  0.38836286269E+03 -0.56851098749E+03  0.80571831279E+03  0.25000000000E+03 0.  0.
    5000001    1    1    2    0    0  0.33563602839E+03 -0.38836286269E+03 -0.69268110333E+03  0.89765492678E+03  0.25000000000E+03 0.  0.
<mgrwt>
<rscale>  0 0.11449345E+04</rscale>
<asrwt>0</asrwt>
<pdfrwt beam="1">  1        2 0.34013935E-01 0.11449345E+04</pdfrwt>
<pdfrwt beam="2">  1       -2 0.22804348E+00 0.11449345E+04</pdfrwt>
<totfact> 0.13476280E+01</totfact>
</mgrwt>
</event>
<event>
 4    1  0.1751735E-005  0.7147270E+03  0.7818608E-02  0.9692373E-01
         -2   -1    0    0    0  501 -0.00000000000E+00  0.00000000000E+00  0.19659174275E+03  0.19659174277E+03  0.25500000000E-02 0. -1.
          2   -1    0    0  501    0  0.00000000000E+00 -0.00000000000E+00 -0.64961363070E+03  0.64961363070E+03  0.25500000000E-02 0.  1.
   -5000001    1    1    2    0    0 -0.24529030010E+03 -0.60090223341E+02 -0.27129062113E+03  0.44707579601E+03  0.25000000000E+03 0.  0.
    5000001    1    1    2    0    0  0.24529030010E+03  0.60090223341E+02 -0.18173126681E+03  0.39912957746E+03  0.25000000000E+03 0.  0.
<mgrwt>
<rscale>  0 0.71472701E+03</rscale>
<asrwt>0</asrwt>
<pdfrwt beam="1">  1        2 0.99940558E-01 0.71472701E+03</pdfrwt>
<pdfrwt beam="2">  1       -2 0.30244884E-01 0.71472701E+03</pdfrwt>
<totfact> 0.45713808E+02</totfact>
</mgrwt>
</event>
<event>
 4    1  0.1751735E-005  0.9080181E+03  0.7818608E-02  0.9415614E-01
         -2   -1    0    0    0  501 -0.00000000000E+00  0.00000000000E+00  0.18376667287E+03  0.18376667289E+03  0.25500000000E-02 0. -1.
          2   -1    0    0  501    0  0.00000000000E+00 -0.00000000000E+00 -0.11216625811E+04  0.11216625811E+04  0.25500000000E-02 0.  1.
   -5000001    1    1    2    0    0  0.85038085857E+02 -0.35067204502E+03 -0.30239018141E+03  0.53304988605E+03  0.25000000000E+03 0.  0.
    5000001    1    1    2    0    0 -0.85038085857E+02  0.35067204502E+03 -0.63550572685E+03  0.77237936797E+03  0.25000000000E+03 0.  0.
<mgrwt>
<rscale>  0 0.90801806E+03</rscale>
<asrwt>0</asrwt>
<pdfrwt beam="1">  1        2 0.17256347E+00 0.90801806E+03</pdfrwt>
<pdfrwt beam="2">  1       -2 0.28271796E-01 0.90801806E+03</pdfrwt>
<totfact> 0.24210091E+02</totfact>
</mgrwt>
</event>
<event>
 4    1  0.1751735E-005  0.7472317E+03  0.7818608E-02  0.9639703E-01
          2   -1    0    0  501    0  0.00000000000E+00  0.00000000000E+00  0.21813600834E+04  0.21813600834E+04  0.25500000000E-02 0.  1.
         -2   -1    0    0    0  501 -0.00000000000E+00 -0.00000000000E+00 -0.63991636052E+02  0.63991636103E+02  0.25500000000E-02 0. -1.
   -5000001    1    1    2    0    0  0.14172602790E+03 -0.20348816091E+03  0.68343205889E+03  0.76881277157E+03  0.25000000000E+03 0.  0.
    5000001    1    1    2    0    0 -0.14172602790E+03  0.20348816091E+03  0.14339363885E+04  0.14765389480E+04  0.25000000000E+03 0.  0.
<mgrwt>
<rscale>  0 0.74723169E+03</rscale>
<asrwt>0</asrwt>
<pdfrwt beam="1">  1        2 0.33559382E+00 0.74723169E+03</pdfrwt>
<pdfrwt beam="2">  1       -2 0.98448683E-02 0.74723169E+03</pdfrwt>
<totfact> 0.38313272E+02</totfact>
</mgrwt>
</event>
<event>
 4    1  0.1751735E-005  0.1045505E+04  0.7818608E-02  0.9259997E-01
          2   -1    0    0  501    0  0.00000000000E+00  0.00000000000E+00  0.61370418904E+03  0.61370418904E+03  0.25500000000E-02 0.  1.
         -2   -1    0    0    0  501 -0.00000000000E+00 -0.00000000000E+00 -0.44527979163E+03  0.44527979164E+03  0.25500000000E-02 0. -1.
   -5000001    1    1    2    0    0 -0.38209299723E+03 -0.24323193814E+03  0.16009967870E+03  0.54156139207E+03  0.25000000000E+03 0.  0.
    5000001    1    1    2    0    0  0.38209299723E+03  0.24323193814E+03  0.83247187021E+01  0.51742258861E+03  0.25000000000E+03 0.  0.
<mgrwt>
<rscale>  0 0.10455048E+04</rscale>
<asrwt>0</asrwt>
<pdfrwt beam="1">  1        2 0.94416029E-01 0.10455048E+04</pdfrwt>
<pdfrwt beam="2">  1       -2 0.68504583E-01 0.10455048E+04</pdfrwt>
<totfact> 0.93710732E+01</totfact>
</mgrwt>
</event>
<event>
 4    1  0.1751735E-005  0.9972122E+03  0.7818608E-02  0.9311608E-01
         -2   -1    0    0    0  501 -0.00000000000E+00  0.00000000000E+00  0.30420703833E+03  0.30420703834E+03  0.25500000000E-02 0. -1.
          2   -1    0    0  501    0  0.00000000000E+00 -0.00000000000E+00 -0.81723299103E+03  0.81723299104E+03  0.25500000000E-02 0.  1.
   -5000001    1    1    2    0    0 -0.31148796773E+03 -0.11612795181E+03  0.52689105632E+02  0.41926912251E+03  0.25000000000E+03 0.  0.
    5000001    1    1    2    0    0  0.31148796773E+03  0.11612795181E+03 -0.56571505833E+03  0.70217090687E+03  0.25000000000E+03 0.  0.
<mgrwt>
<rscale>  0 0.99721217E+03</rscale>
<asrwt>0</asrwt>
<pdfrwt beam="1">  1        2 0.12572815E+00 0.99721217E+03</pdfrwt>
<pdfrwt beam="2">  1       -2 0.46801083E-01 0.99721217E+03</pdfrwt>
<totfact> 0.14464002E+02</totfact>
</mgrwt>
</event>
<event>
 4    1  0.1751735E-005  0.7552981E+03  0.7818608E-02  0.9627075E-01
         -2   -1    0    0    0  501 -0.00000000000E+00  0.00000000000E+00  0.53868986961E+03  0.53868986961E+03  0.25500000000E-02 0. -1.
          2   -1    0    0  501    0  0.00000000000E+00 -0.00000000000E+00 -0.26475125417E+03  0.26475125418E+03  0.25500000000E-02 0.  1.
   -5000001    1    1    2    0    0  0.15525758150E+03 -0.22768835963E+03  0.68261948117E+02  0.37829432891E+03  0.25000000000E+03 0.  0.
    5000001    1    1    2    0    0 -0.15525758150E+03  0.22768835963E+03  0.20567666732E+03  0.42514679489E+03  0.25000000000E+03 0.  0.
<mgrwt>
<rscale>  0 0.75529814E+03</rscale>
<asrwt>0</asrwt>
<pdfrwt beam="1">  1        2 0.40730962E-01 0.75529814E+03</pdfrwt>
<pdfrwt beam="2">  1       -2 0.82875365E-01 0.75529814E+03</pdfrwt>
<totfact> 0.16250679E+02</totfact>
</mgrwt>
</event>
<event>
 4    1  0.1751735E-005  0.5944851E+03  0.7818608E-02  0.9916914E-01
         -2   -1    0    0    0  501 -0.00000000000E+00  0.00000000000E+00  0.73464914163E+02  0.73464914208E+02  0.25500000000E-02 0. -1.
          2   -1    0    0  501    0  0.00000000000E+00 -0.00000000000E+00 -0.12026576985E+04  0.12026576985E+04  0.25500000000E-02 0.  1.
   -5000001    1    1    2    0    0  0.15856159543E+03 -0.80577281222E+01 -0.51001873697E+03  0.58976759710E+03  0.25000000000E+03 0.  0.
    5000001    1    1    2    0    0 -0.15856159543E+03  0.80577281222E+01 -0.61917404741E+03  0.68635501566E+03  0.25000000000E+03 0.  0.
<mgrwt>
<rscale>  0 0.59448514E+03</rscale>
<asrwt>0</asrwt>
<pdfrwt beam="1">  1        2 0.18502425E+00 0.59448514E+03</pdfrwt>
<pdfrwt beam="2">  1       -2 0.11302295E-01 0.59448514E+03</pdfrwt>
<totfact> 0.10727619E+03</totfact>
</mgrwt>
</event>
<event>
 4    1  0.1751735E-005  0.1081326E+04  0.7818608E-02  0.9223587E-01
          2   -1    0    0  501    0  0.00000000000E+00  0.00000000000E+00  0.66207700877E+03  0.66207700878E+03  0.25500000000E-02 0.  1.
         -2   -1    0    0    0  501 -0.00000000000E+00 -0.00000000000E+00 -0.44151392906E+03  0.44151392906E+03  0.25500000000E-02 0. -1.
   -5000001    1    1    2    0    0  0.99174353151E+02 -0.46896904014E+03  0.11740439807E+03  0.55321903946E+03  0.25000000000E+03 0.  0.
    5000001    1    1    2    0    0 -0.99174353151E+02  0.46896904014E+03  0.10315868165E+03  0.55037189838E+03  0.25000000000E+03 0.  0.
<mgrwt>
<rscale>  0 0.10813255E+04</rscale>
<asrwt>0</asrwt>
<pdfrwt beam="1">  1        2 0.10185800E+00 0.10813255E+04</pdfrwt>
<pdfrwt beam="2">  1       -2 0.67925220E-01 0.10813255E+04</pdfrwt>
<totfact> 0.86753456E+01</totfact>
</mgrwt>
</event>
<event>
 4    1  0.1751735E-005  0.6445383E+03  0.7818608E-02  0.9817082E-01
          2   -1    0    0  501    0  0.00000000000E+00  0.00000000000E+00  0.93046212533E+03  0.93046212533E+03  0.25500000000E-02 0.  1.
         -2   -1    0    0    0  501 -0.00000000000E+00 -0.00000000000E+00 -0.11161917900E+03  0.11161917903E+03  0.25500000000E-02 0. -1.
   -5000001    1    1    2    0    0 -0.29050683354E+02 -0.19485438511E+03  0.32785388171E+03  0.45694675986E+03  0.25000000000E+03 0.  0.
    5000001    1    1    2    0    0  0.29050683354E+02  0.19485438511E+03  0.49098906462E+03  0.58513454450E+03  0.25000000000E+03 0.  0.
<mgrwt>
<rscale>  0 0.64453834E+03</rscale>
<asrwt>0</asrwt>
<pdfrwt beam="1">  1        2 0.14314803E+00 0.64453834E+03</pdfrwt>
<pdfrwt beam="2">  1       -2 0.17172181E-01 0.64453834E+03</pdfrwt>
<totfact> 0.78337322E+02</totfact>
</mgrwt>
</event>
<event>
 4    1  0.1751735E-005  0.1109977E+04  0.7818608E-02  0.9195521E-01
         -2   -1    0    0    0  501 -0.00000000000E+00  0.00000000000E+00  0.19591606175E+03  0.19591606177E+03  0.25500000000E-02 0. -1.
          2   -1    0    0  501    0  0.00000000000E+00 -0.00000000000E+00 -0.15721654762E+04  0.15721654762E+04  0.25500000000E-02 0.  1.
   -5000001    1    1    2    0    0 -0.30329261163E+03  0.36904781279E+03 -0.47843139903E+03  0.72081849308E+03  0.25000000000E+03 0.  0.
    5000001    1    1    2    0    0  0.30329261163E+03 -0.36904781279E+03 -0.89781801545E+03  0.10472630449E+04  0.25000000000E+03 0.  0.
<mgrwt>
<rscale>  0 0.11099774E+04</rscale>
<asrwt>0</asrwt>
<pdfrwt beam="1">  1        2 0.24187160E+00 0.11099774E+04</pdfrwt>
<pdfrwt beam="2">  1       -2 0.30140934E-01 0.11099774E+04</pdfrwt>
<totfact> 0.11653389E+02</totfact>
</mgrwt>
</event>
<event>
 4    1  0.1751735E-005  0.7187594E+03  0.7818608E-02  0.9685678E-01
         -2   -1    0    0    0  501 -0.00000000000E+00  0.00000000000E+00  0.34052851099E+03  0.34052851100E+03  0.25500000000E-02 0. -1.
          2   -1    0    0  501    0  0.00000000000E+00 -0.00000000000E+00 -0.37927447740E+03  0.37927447741E+03  0.25500000000E-02 0.  1.
   -5000001    1    1    2    0    0  0.83899342236E+02 -0.21272361697E+03 -0.13939412771E+03  0.36636206093E+03  0.25000000000E+03 0.  0.
    5000001    1    1    2    0    0 -0.83899342236E+02  0.21272361697E+03  0.10064816130E+03  0.35344092748E+03  0.25000000000E+03 0.  0.
<mgrwt>
<rscale>  0 0.71875941E+03</rscale>
<asrwt>0</asrwt>
<pdfrwt beam="1">  1        2 0.58349919E-01 0.71875941E+03</pdfrwt>
<pdfrwt beam="2">  1       -2 0.52389002E-01 0.71875941E+03</pdfrwt>
<totfact> 0.29299298E+02</totfact>
</mgrwt>
</event>
<event>
 4    1  0.1751735E-005  0.5712445E+03  0.7818608E-02  0.9966928E-01
          2   -1    0    0  501    0  0.00000000000E+00  0.00000000000E+00  0.99656816370E+03  0.99656816370E+03  0.25500000000E-02 0.  1.
         -2   -1    0    0    0  501 -0.00000000000E+00 -0.00000000000E+00 -0.81861002584E+02  0.81861002624E+02  0.25500000000E-02 0. -1.
   -5000001    1    1    2    0    0  0.12977402416E+03 -0.38280349736E+02  0.50985461921E+03  0.58374516294E+03  0.25000000000E+03 0.  0.
    5000001    1    1    2    0    0 -0.12977402416E+03  0.38280349736E+02  0.40485254190E+03  0.49468400338E+03  0.25000000000E+03 0.  0.
<mgrwt>
<rscale>  0 0.57124450E+03</rscale>
<asrwt>0</asrwt>
<pdfrwt beam="1">  1        2 0.15331817E+00 0.57124450E+03</pdfrwt>
<pdfrwt beam="2">  1       -2 0.12594001E-01 0.57124450E+03</pdfrwt>
<totfact> 0.11986060E+03</totfact>
</mgrwt>
</event>
<event>
 4    1  0.1751735E-005  0.9225915E+03  0.7818608E-02  0.9397773E-01
          2   -1    0    0  501    0  0.00000000000E+00  0.00000000000E+00  0.45283469700E+03  0.45283469701E+03  0.25500000000E-02 0.  1.
         -2   -1    0    0    0  501 -0.00000000000E+00 -0.00000000000E+00 -0.46991490351E+03  0.46991490352E+03  0.25500000000E-02 0. -1.
   -5000001    1    1    2    0    0 -0.25804205029E+03 -0.26057173855E+03  0.11722102431E+03  0.45904694661E+03  0.25000000000E+03 0.  0.
    5000001    1    1    2    0    0  0.25804205029E+03  0.26057173855E+03 -0.13430123082E+03  0.46370265392E+03  0.25000000000E+03 0.  0.
<mgrwt>
<rscale>  0 0.92259151E+03</rscale>
<asrwt>0</asrwt>
<pdfrwt beam="1">  1        2 0.69666876E-01 0.92259151E+03</pdfrwt>
<pdfrwt beam="2">  1       -2 0.72294601E-01 0.92259151E+03</pdfrwt>
<totfact> 0.11994909E+02</totfact>
</mgrwt>
</event>
<event>
 4    1  0.1751735E-005  0.5268688E+03  0.7818608E-02  0.1006994E+00
          2   -1    0    0  501    0  0.00000000000E+00  0.00000000000E+00  0.10140362736E+04  0.10140362736E+04  0.25500000000E-02 0.  1.
         -2   -1    0    0    0  501 -0.00000000000E+00 -0.00000000000E+00 -0.68437080127E+02  0.68437080175E+02  0.25500000000E-02 0. -1.
   -5000001    1    1    2    0    0 -0.47854269054E+01  0.81042524197E+02  0.50879164782E+03  0.57267768590E+03  0.25000000000E+03 0.  0.
    5000001    1    1    2    0    0  0.47854269054E+01 -0.81042524197E+02  0.43680754561E+03  0.50979566783E+03  0.25000000000E+03 0.  0.
<mgrwt>
<rscale>  0 0.52686879E+03</rscale>
<asrwt>0</asrwt>
<pdfrwt beam="1">  1        2 0.15600557E+00 0.52686879E+03</pdfrwt>
<pdfrwt beam="2">  1       -2 0.10528782E-01 0.52686879E+03</pdfrwt>
<totfact> 0.15684981E+03</totfact>
</mgrwt>
</event>
<event>
 4    1  0.1751735E-005  0.7477325E+03  0.7818608E-02  0.9638914E-01
         -2   -1    0    0    0  501 -0.00000000000E+00  0.00000000000E+00  0.60490927299E+02  0.60490927353E+02  0.25500000000E-02 0. -1.
          2   -1    0    0  501    0  0.00000000000E+00 -0.00000000000E+00 -0.23106934387E+04  0.23106934387E+04  0.25500000000E-02 0.  1.
   -5000001    1    1    2    0    0  0.19041805855E+03  0.16213698717E+03 -0.15099579331E+04  0.15508128189E+04  0.25000000000E+03 0.  0.
    5000001    1    1    2    0    0 -0.19041805855E+03 -0.16213698717E+03 -0.74024457833E+03  0.82037154715E+03  0.25000000000E+03 0.  0.
<mgrwt>
<rscale>  0 0.74773254E+03</rscale>
<asrwt>0</asrwt>
<pdfrwt beam="1">  1        2 0.35549123E+00 0.74773254E+03</pdfrwt>
<pdfrwt beam="2">  1       -2 0.93062983E-02 0.74773254E+03</pdfrwt>
<totfact> 0.35600173E+02</totfact>
</mgrwt>
</event>
<event>
 4    1  0.1751735E-005  0.6798621E+03  0.7818608E-02  0.9752304E-01
          2   -1    0    0  501    0  0.00000000000E+00  0.00000000000E+00  0.30187643215E+03  0.30187643216E+03  0.25500000000E-02 0.  1.
         -2   -1    0    0    0  501 -0.00000000000E+00 -0.00000000000E+00 -0.38278279269E+03  0.38278279270E+03  0.25500000000E-02 0. -1.
   -5000001    1    1    2    0    0  0.12659076457E+03  0.18721321665E+03 -0.85254089391E+02  0.34762374763E+03  0.25000000000E+03 0.  0.
    5000001    1    1    2    0    0 -0.12659076457E+03 -0.18721321665E+03  0.43477288482E+01  0.33703547722E+03  0.25000000000E+03 0.  0.
<mgrwt>
<rscale>  0 0.67986206E+03</rscale>
<asrwt>0</asrwt>
<pdfrwt beam="1">  1        2 0.46442528E-01 0.67986206E+03</pdfrwt>
<pdfrwt beam="2">  1       -2 0.58889661E-01 0.67986206E+03</pdfrwt>
<totfact> 0.29663929E+02</totfact>
</mgrwt>
</event>
<event>
 4    1  0.1751735E-005  0.1065658E+04  0.7818608E-02  0.9239326E-01
          2   -1    0    0  501    0  0.00000000000E+00  0.00000000000E+00  0.54091600794E+03  0.54091600795E+03  0.25500000000E-02 0.  1.
         -2   -1    0    0    0  501 -0.00000000000E+00 -0.00000000000E+00 -0.52486271075E+03  0.52486271075E+03  0.25500000000E-02 0. -1.
   -5000001    1    1    2    0    0 -0.33352413773E+03  0.29384392401E+03 -0.14634124474E+03  0.53056419220E+03  0.25000000000E+03 0.  0.
    5000001    1    1    2    0    0  0.33352413773E+03 -0.29384392401E+03  0.16239454194E+03  0.53521452650E+03  0.25000000000E+03 0.  0.
<mgrwt>
<rscale>  0 0.10656578E+04</rscale>
<asrwt>0</asrwt>
<pdfrwt beam="1">  1        2 0.83217847E-01 0.10656578E+04</pdfrwt>
<pdfrwt beam="2">  1       -2 0.80748109E-01 0.10656578E+04</pdfrwt>
<totfact> 0.75661048E+01</totfact>
</mgrwt>
</event>
<event>
 4    1  0.1751735E-005  0.1295911E+04  0.7818608E-02  0.9032814E-01
         -2   -1    0    0    0  501 -0.00000000000E+00  0.00000000000E+00  0.60720982552E+03  0.60720982552E+03  0.25500000000E-02 0. -1.
          2   -1    0    0  501    0  0.00000000000E+00 -0.00000000000E+00 -0.69143579274E+03  0.69143579275E+03  0.25500000000E-02 0.  1.
   -5000001    1    1    2    0    0 -0.61710416049E+02  0.51296377719E+03  0.25919829684E+03  0.62978073108E+03  0.25000000000E+03 0.  0.
    5000001    1    1    2    0    0  0.61710416049E+02 -0.51296377719E+03 -0.34342426407E+03  0.66886488718E+03  0.25000000000E+03 0.  0.
<mgrwt>
<rscale>  0 0.12959114E+04</rscale>
<asrwt>0</asrwt>
<pdfrwt beam="1">  1        2 0.10637474E+00 0.12959114E+04</pdfrwt>
<pdfrwt beam="2">  1       -2 0.93416897E-01 0.12959114E+04</pdfrwt>
<totfact> 0.39564017E+01</totfact>
</mgrwt>
</event>
<event>
 4    1  0.1751735E-005  0.8706090E+03  0.7818608E-02  0.9463086E-01
          2   -1    0    0  501    0  0.00000000000E+00  0.00000000000E+00  0.11976625732E+04  0.11976625732E+04  0.25500000000E-02 0.  1.
         -2   -1    0    0    0  501 -0.00000000000E+00 -0.00000000000E+00 -0.15821652978E+03  0.15821652980E+03  0.25500000000E-02 0. -1.
   -5000001    1    1    2    0    0  0.83035811600E+02 -0.16330894148E+03  0.43697801711E+02  0.31300839326E+03  0.25000000000E+03 0.  0.
    5000001    1    1    2    0    0 -0.83035811600E+02  0.16330894148E+03  0.99574824168E+03  0.10428707097E+04  0.25000000000E+03 0.  0.
<mgrwt>
<rscale>  0 0.87060902E+03</rscale>
<asrwt>0</asrwt>
<pdfrwt beam="1">  1        2 0.18425577E+00 0.87060902E+03</pdfrwt>
<pdfrwt beam="2">  1       -2 0.24341006E-01 0.87060902E+03</pdfrwt>
<totfact> 0.28673381E+02</totfact>
</mgrwt>
</event>
<event>
 4    1  0.1751735E-005  0.9063659E+03  0.7818608E-02  0.9417659E-01
          2   -1    0    0  501    0  0.00000000000E+00  0.00000000000E+00  0.16984866504E+04  0.16984866504E+04  0.25500000000E-02 0.  1.
         -2   -1    0    0    0  501 -0.00000000000E+00 -0.00000000000E+00 -0.12091633673E+03  0.12091633676E+03  0.25500000000E-02 0. -1.
   -5000001    1    1    2    0    0  0.35948866894E+03 -0.16858779257E+00  0.55432192190E+03  0.70640280621E+03  0.25000000000E+03 0.  0.
    5000001    1    1    2    0    0 -0.35948866894E+03  0.16858779257E+00  0.10232483917E+04  0.11130001809E+04  0.25000000000E+03 0.  0.
<mgrwt>
<rscale>  0 0.90636589E+03</rscale>
<asrwt>0</asrwt>
<pdfrwt beam="1">  1        2 0.26130562E+00 0.90636589E+03</pdfrwt>
<pdfrwt beam="2">  1       -2 0.18602514E-01 0.90636589E+03</pdfrwt>
<totfact> 0.23946244E+02</totfact>
</mgrwt>
</event>
<event>
 4    1  0.1751735E-005  0.1108157E+04  0.7818608E-02  0.9197277E-01
          2   -1    0    0  501    0  0.00000000000E+00  0.00000000000E+00  0.17725098453E+04  0.17725098453E+04  0.25500000000E-02 0.  1.
         -2   -1    0    0    0  501 -0.00000000000E+00 -0.00000000000E+00 -0.17320252539E+03  0.17320252541E+03  0.25500000000E-02 0. -1.
   -5000001    1    1    2    0    0  0.35924958097E+03 -0.39008054805E+02  0.13922782348E+04  0.14599727986E+04  0.25000000000E+03 0.  0.
    5000001    1    1    2    0    0 -0.35924958097E+03  0.39008054805E+02  0.20702908512E+03  0.48573957205E+03  0.25000000000E+03 0.  0.
<mgrwt>
<rscale>  0 0.11081574E+04</rscale>
<asrwt>0</asrwt>
<pdfrwt beam="1">  1        2 0.27269383E+00 0.11081574E+04</pdfrwt>
<pdfrwt beam="2">  1       -2 0.26646542E-01 0.11081574E+04</pdfrwt>
<totfact> 0.11330394E+02</totfact>
</mgrwt>
</event>
<event>
 4    1  0.1751735E-005  0.7358016E+03  0.7818608E-02  0.9657892E-01
          2   -1    0    0  501    0  0.00000000000E+00  0.00000000000E+00  0.19964162795E+04  0.19964162795E+04  0.25500000000E-02 0.  1.
         -2   -1    0    0    0  501 -0.00000000000E+00 -0.00000000000E+00 -0.67796990046E+02  0.67796990094E+02  0.25500000000E-02 0. -1.
   -5000001    1    1    2    0    0 -0.14923728610E+03 -0.22260278625E+03  0.10542244447E+04  0.11161151140E+04  0.25000000000E+03 0.  0.
    5000001    1    1    2    0    0  0.14923728610E+03  0.22260278625E+03  0.87439484474E+03  0.94809815553E+03  0.25000000000E+03 0.  0.
<mgrwt>
<rscale>  0 0.73580164E+03</rscale>
<asrwt>0</asrwt>
<pdfrwt beam="1">  1        2 0.30714096E+00 0.73580164E+03</pdfrwt>
<pdfrwt beam="2">  1       -2 0.10430306E-01 0.73580164E+03</pdfrwt>
<totfact> 0.44066511E+02</totfact>
</mgrwt>
</event>
<event>
 4    1  0.1751735E-005  0.6195472E+03  0.7818608E-02  0.9865662E-01
          2   -1    0    0  501    0  0.00000000000E+00  0.00000000000E+00  0.30910435445E+04  0.30910435445E+04  0.25500000000E-02 0.  1.
         -2   -1    0    0    0  501 -0.00000000000E+00 -0.00000000000E+00 -0.31044429995E+02  0.31044430100E+02  0.25500000000E-02 0. -1.
   -5000001    1    1    2    0    0  0.15676374405E+03  0.85478845179E+02  0.13298064623E+04  0.13648321258E+04  0.25000000000E+03 0.  0.
    5000001    1    1    2    0    0 -0.15676374405E+03 -0.85478845179E+02  0.17301926523E+04  0.17572558489E+04  0.25000000000E+03 0.  0.
<mgrwt>
<rscale>  0 0.61954721E+03</rscale>
<asrwt>0</asrwt>
<pdfrwt beam="1">  1        2 0.47554506E+00 0.61954721E+03</pdfrwt>
<pdfrwt beam="2">  1       -2 0.47760671E-02 0.61954721E+03</pdfrwt>
<totfact> 0.36329222E+02</totfact>
</mgrwt>
</event>
<event>
 4    1  0.1751735E-005  0.5349174E+03  0.7818608E-02  0.1005047E+00
          2   -1    0    0  501    0  0.00000000000E+00  0.00000000000E+00  0.10035505164E+04  0.10035505164E+04  0.25500000000E-02 0.  1.
         -2   -1    0    0    0  501 -0.00000000000E+00 -0.00000000000E+00 -0.71281069924E+02  0.71281069970E+02  0.25500000000E-02 0. -1.
   -5000001    1    1    2    0    0  0.81472553501E+01 -0.90797852226E+02  0.52018289610E+03  0.58429519348E+03  0.25000000000E+03 0.  0.
    5000001    1    1    2    0    0 -0.81472553501E+01  0.90797852226E+02  0.41208655035E+03  0.49053639285E+03  0.25000000000E+03 0.  0.
<mgrwt>
<rscale>  0 0.53491739E+03</rscale>
<asrwt>0</asrwt>
<pdfrwt beam="1">  1        2 0.15439237E+00 0.53491739E+03</pdfrwt>
<pdfrwt beam="2">  1       -2 0.10966319E-01 0.53491739E+03</pdfrwt>
<totfact> 0.14901674E+03</totfact>
</mgrwt>
</event>
<event>
 4    1  0.1751735E-005  0.1183981E+04  0.7818608E-02  0.9126994E-01
          2   -1    0    0  501    0  0.00000000000E+00  0.00000000000E+00  0.14215604858E+04  0.14215604858E+04  0.25500000000E-02 0.  1.
         -2   -1    0    0    0  501 -0.00000000000E+00 -0.00000000000E+00 -0.24652692496E+03  0.24652692497E+03  0.25500000000E-02 0. -1.
   -5000001    1    1    2    0    0  0.23868183634E+03  0.47591082220E+03  0.68195173344E+03  0.90056554255E+03  0.25000000000E+03 0.  0.
    5000001    1    1    2    0    0 -0.23868183634E+03 -0.47591082220E+03  0.49308182739E+03  0.76752186822E+03  0.25000000000E+03 0.  0.
<mgrwt>
<rscale>  0 0.11839813E+04</rscale>
<asrwt>0</asrwt>
<pdfrwt beam="1">  1        2 0.21870161E+00 0.11839813E+04</pdfrwt>
<pdfrwt beam="2">  1       -2 0.37927220E-01 0.11839813E+04</pdfrwt>
<totfact> 0.91098524E+01</totfact>
</mgrwt>
</event>
<event>
 4    1  0.1751735E-005  0.7250279E+03  0.7818608E-02  0.9675363E-01
          2   -1    0    0  501    0  0.00000000000E+00  0.00000000000E+00  0.99684270830E+03  0.99684270830E+03  0.25500000000E-02 0.  1.
         -2   -1    0    0    0  501 -0.00000000000E+00 -0.00000000000E+00 -0.13183260464E+03  0.13183260466E+03  0.25500000000E-02 0. -1.
   -5000001    1    1    2    0    0 -0.21856733517E+03 -0.13061628516E+03  0.33301921867E+03  0.48809230065E+03  0.25000000000E+03 0.  0.
    5000001    1    1    2    0    0  0.21856733517E+03  0.13061628516E+03  0.53199088499E+03  0.64058301232E+03  0.25000000000E+03 0.  0.
<mgrwt>
<rscale>  0 0.72502792E+03</rscale>
<asrwt>0</asrwt>
<pdfrwt beam="1">  1        2 0.15336042E+00 0.72502792E+03</pdfrwt>
<pdfrwt beam="2">  1       -2 0.20281938E-01 0.72502792E+03</pdfrwt>
<totfact> 0.53034861E+02</totfact>
</mgrwt>
</event>
<event>
 4    1  0.1751735E-005  0.6624124E+03  0.7818608E-02  0.9783763E-01
          2   -1    0    0  501    0  0.00000000000E+00  0.00000000000E+00  0.10714323427E+03  0.10714323430E+03  0.25500000000E-02 0.  1.
         -2   -1    0    0    0  501 -0.00000000000E+00 -0.00000000000E+00 -0.10238401085E+04  0.10238401085E+04  0.25500000000E-02 0. -1.
   -5000001    1    1    2    0    0  0.13344248390E+03 -0.10348976583E+03 -0.22499072363E+03  0.37634804883E+03  0.25000000000E+03 0.  0.
    5000001    1    1    2    0    0 -0.13344248390E+03  0.10348976583E+03 -0.69170615064E+03  0.75463529402E+03  0.25000000000E+03 0.  0.
<mgrwt>
<rscale>  0 0.66241238E+03</rscale>
<asrwt>0</asrwt>
<pdfrwt beam="1">  1        2 0.16483575E-01 0.66241238E+03</pdfrwt>
<pdfrwt beam="2">  1       -2 0.15751386E+00 0.66241238E+03</pdfrwt>
<totfact> 0.95487835E+01</totfact>
</mgrwt>
</event>
<event>
 4    1  0.1751735E-005  0.1134493E+04  0.7818608E-02  0.9172210E-01
         -2   -1    0    0    0  501 -0.00000000000E+00  0.00000000000E+00  0.56872571508E+03  0.56872571508E+03  0.25500000000E-02 0. -1.
          2   -1    0    0  501    0  0.00000000000E+00 -0.00000000000E+00 -0.56577139939E+03  0.56577139939E+03  0.25500000000E-02 0.  1.
   -5000001    1    1    2    0    0  0.47994132730E+03  0.16601494333E+03  0.38411070175E+02  0.56734473592E+03  0.25000000000E+03 0.  0.
    5000001    1    1    2    0    0 -0.47994132730E+03 -0.16601494333E+03 -0.35456754482E+02  0.56715237856E+03  0.25000000000E+03 0.  0.
<mgrwt>
<rscale>  0 0.11344933E+04</rscale>
<asrwt>0</asrwt>
<pdfrwt beam="1">  1        2 0.87041754E-01 0.11344933E+04</pdfrwt>
<pdfrwt beam="2">  1       -2 0.87496264E-01 0.11344933E+04</pdfrwt>
<totfact> 0.59506444E+01</totfact>
</mgrwt>
</event>
<event>
 4    1  0.1751735E-005  0.6837796E+03  0.7818608E-02  0.9745380E-01
          2   -1    0    0  501    0  0.00000000000E+00  0.00000000000E+00  0.13284155998E+03  0.13284156000E+03  0.25500000000E-02 0.  1.
         -2   -1    0    0    0  501 -0.00000000000E+00 -0.00000000000E+00 -0.87991019043E+03  0.87991019043E+03  0.25500000000E-02 0. -1.
   -5000001    1    1    2    0    0  0.21054081566E+03 -0.95240318620E+02 -0.42014781153E+03  0.54076088697E+03  0.25000000000E+03 0.  0.
    5000001    1    1    2    0    0 -0.21054081566E+03  0.95240318620E+02 -0.32692081892E+03  0.47199086346E+03  0.25000000000E+03 0.  0.
<mgrwt>
<rscale>  0 0.68377962E+03</rscale>
<asrwt>0</asrwt>
<pdfrwt beam="1">  1        2 0.20437164E-01 0.68377962E+03</pdfrwt>
<pdfrwt beam="2">  1       -2 0.13537079E+00 0.68377962E+03</pdfrwt>
<totfact> 0.10987778E+02</totfact>
</mgrwt>
</event>
<event>
 4    1  0.1751735E-005  0.6801960E+03  0.7818608E-02  0.9751712E-01
          2   -1    0    0  501    0  0.00000000000E+00  0.00000000000E+00  0.27375923273E+04  0.27375923273E+04  0.25500000000E-02 0.  1.
         -2   -1    0    0    0  501 -0.00000000000E+00 -0.00000000000E+00 -0.42251236200E+02  0.42251236277E+02  0.25500000000E-02 0. -1.
   -5000001    1    1    2    0    0  0.12082015558E+03  0.16508701593E+03  0.17824026796E+04  0.18114388052E+04  0.25000000000E+03 0.  0.
    5000001    1    1    2    0    0 -0.12082015558E+03 -0.16508701593E+03  0.91293841158E+03  0.96840475844E+03  0.25000000000E+03 0.  0.
<mgrwt>
<rscale>  0 0.68019603E+03</rscale>
<asrwt>0</asrwt>
<pdfrwt beam="1">  1        2 0.42116789E+00 0.68019603E+03</pdfrwt>
<pdfrwt beam="2">  1       -2 0.65001927E-02 0.68019603E+03</pdfrwt>
<totfact> 0.36343672E+02</totfact>
</mgrwt>
</event>
<event>
 4    1  0.1751735E-005  0.8538810E+03  0.7818608E-02  0.9485143E-01
         -2   -1    0    0    0  501 -0.00000000000E+00  0.00000000000E+00  0.12926822596E+03  0.12926822599E+03  0.25500000000E-02 0. -1.
          2   -1    0    0  501    0  0.00000000000E+00 -0.00000000000E+00 -0.14100772177E+04  0.14100772177E+04  0.25500000000E-02 0.  1.
   -5000001    1    1    2    0    0  0.12059667263E+03 -0.15667577865E+03 -0.11524887322E+04  0.11957512848E+04  0.25000000000E+03 0.  0.
    5000001    1    1    2    0    0 -0.12059667263E+03  0.15667577865E+03 -0.12832025953E+03  0.34359415896E+03  0.25000000000E+03 0.  0.
<mgrwt>
<rscale>  0 0.85388098E+03</rscale>
<asrwt>0</asrwt>
<pdfrwt beam="1">  1        2 0.21693495E+00 0.85388098E+03</pdfrwt>
<pdfrwt beam="2">  1       -2 0.19887420E-01 0.85388098E+03</pdfrwt>
<totfact> 0.30950460E+02</totfact>
</mgrwt>
</event>
<event>
 4    1  0.1751735E-005  0.6364273E+03  0.7818608E-02  0.9832586E-01
         -2   -1    0    0    0  501 -0.00000000000E+00  0.00000000000E+00  0.35206316209E+03  0.35206316210E+03  0.25500000000E-02 0.  1.
          2   -1    0    0  501    0  0.00000000000E+00 -0.00000000000E+00 -0.28761861952E+03  0.28761861953E+03  0.25500000000E-02 0. -1.
   -5000001    1    1    2    0    0  0.47725657830E+02 -0.18814829833E+03  0.65290360838E+02  0.32317232524E+03  0.25000000000E+03 0.  0.
    5000001    1    1    2    0    0 -0.47725657830E+02  0.18814829833E+03 -0.84581826454E+00  0.31650945640E+03  0.25000000000E+03 0.  0.
<mgrwt>
<rscale>  0 0.63642728E+03</rscale>
<asrwt>0</asrwt>
<pdfrwt beam="1">  1        2 0.44249019E-01 0.63642728E+03</pdfrwt>
<pdfrwt beam="2">  1       -2 0.54163563E-01 0.63642728E+03</pdfrwt>
<totfact> 0.37289972E+02</totfact>
</mgrwt>
</event>
<event>
 4    1  0.1751735E-005  0.5990346E+03  0.7818608E-02  0.9907411E-01
         -2   -1    0    0    0  501 -0.00000000000E+00  0.00000000000E+00  0.41876610639E+02  0.41876610717E+02  0.25500000000E-02 0. -1.
          2   -1    0    0  501    0  0.00000000000E+00 -0.00000000000E+00 -0.21422608506E+04  0.21422608506E+04  0.25500000000E-02 0.  1.
   -5000001    1    1    2    0    0  0.10297878974E+03 -0.62394555951E+02 -0.14612950312E+04  0.14874074358E+04  0.25000000000E+03 0.  0.
    5000001    1    1    2    0    0 -0.10297878974E+03  0.62394555951E+02 -0.63908920867E+03  0.69673002547E+03  0.25000000000E+03 0.  0.
<mgrwt>
<rscale>  0 0.59903464E+03</rscale>
<asrwt>0</asrwt>
<pdfrwt beam="1">  1        2 0.32957851E+00 0.59903464E+03</pdfrwt>
<pdfrwt beam="2">  1       -2 0.64425572E-02 0.59903464E+03</pdfrwt>
<totfact> 0.80168534E+02</totfact>
</mgrwt>
</event>
<event>
 4    1  0.1751735E-005  0.6510791E+03  0.7818608E-02  0.9804756E-01
          2   -1    0    0  501    0  0.00000000000E+00  0.00000000000E+00  0.76716159378E+03  0.76716159378E+03  0.25500000000E-02 0.  1.
         -2   -1    0    0    0  501 -0.00000000000E+00 -0.00000000000E+00 -0.13814038978E+03  0.13814038981E+03  0.25500000000E-02 0. -1.
   -5000001    1    1    2    0    0 -0.11420468398E+03  0.15920038458E+03  0.41369785249E+03  0.52156819827E+03  0.25000000000E+03 0.  0.
    5000001    1    1    2    0    0  0.11420468398E+03 -0.15920038458E+03  0.21532335150E+03  0.38373378532E+03  0.25000000000E+03 0.  0.
<mgrwt>
<rscale>  0 0.65107911E+03</rscale>
<asrwt>0</asrwt>
<pdfrwt beam="1">  1        2 0.11802486E+00 0.65107911E+03</pdfrwt>
<pdfrwt beam="2">  1       -2 0.21252367E-01 0.65107911E+03</pdfrwt>
<totfact> 0.70208196E+02</totfact>
</mgrwt>
</event>
<event>
 4    1  0.1751735E-005  0.8689092E+03  0.7818608E-02  0.9465303E-01
         -2   -1    0    0    0  501 -0.00000000000E+00  0.00000000000E+00  0.11150325680E+04  0.11150325680E+04  0.25500000000E-02 0. -1.
          2   -1    0    0  501    0  0.00000000000E+00 -0.00000000000E+00 -0.16927830293E+03  0.16927830295E+03  0.25500000000E-02 0.  1.
   -5000001    1    1    2    0    0  0.25503511404E+03  0.12945438233E+03  0.78449980889E+03  0.87163139953E+03  0.25000000000E+03 0.  0.
    5000001    1    1    2    0    0 -0.25503511404E+03 -0.12945438233E+03  0.16125445619E+03  0.41267947143E+03  0.25000000000E+03 0.  0.
<mgrwt>
<rscale>  0 0.86890925E+03</rscale>
<asrwt>0</asrwt>
<pdfrwt beam="1">  1        2 0.26042816E-01 0.86890925E+03</pdfrwt>
<pdfrwt beam="2">  1       -2 0.17154347E+00 0.86890925E+03</pdfrwt>
<totfact> 0.43722985E+01</totfact>
</mgrwt>
</event>
<event>
 4    1  0.1751735E-005  0.7621232E+03  0.7818608E-02  0.9616521E-01
         -2   -1    0    0    0  501 -0.00000000000E+00  0.00000000000E+00  0.17362465394E+03  0.17362465396E+03  0.25500000000E-02 0. -1.
          2   -1    0    0  501    0  0.00000000000E+00 -0.00000000000E+00 -0.83633257079E+03  0.83633257079E+03  0.25500000000E-02 0.  1.
   -5000001    1    1    2    0    0  0.19190056368E+02 -0.15677740536E+03 -0.64984220179E+03  0.71396239419E+03  0.25000000000E+03 0.  0.
    5000001    1    1    2    0    0 -0.19190056368E+02  0.15677740536E+03 -0.12865715063E+02  0.29599483056E+03  0.25000000000E+03 0.  0.
<mgrwt>
<rscale>  0 0.76212323E+03</rscale>
<asrwt>0</asrwt>
<pdfrwt beam="1">  1        2 0.12866655E+00 0.76212323E+03</pdfrwt>
<pdfrwt beam="2">  1       -2 0.26711486E-01 0.76212323E+03</pdfrwt>
<totfact> 0.41442206E+02</totfact>
</mgrwt>
</event>
<event>
 4    1  0.1751735E-005  0.6206973E+03  0.7818608E-02  0.9863372E-01
         -2   -1    0    0    0  501 -0.00000000000E+00  0.00000000000E+00  0.23945220777E+02  0.23945220913E+02  0.25500000000E-02 0. -1.
          2   -1    0    0  501    0  0.00000000000E+00 -0.00000000000E+00 -0.40223595072E+04  0.40223595072E+04  0.25500000000E-02 0.  1.
   -5000001    1    1    2    0    0  0.15168789543E+03  0.10212027865E+02 -0.26736219511E+04  0.26895850684E+04  0.25000000000E+03 0.  0.
    5000001    1    1    2    0    0 -0.15168789543E+03 -0.10212027865E+02 -0.13247923354E+04  0.13567196597E+04  0.25000000000E+03 0.  0.
<mgrwt>
<rscale>  0 0.62069731E+03</rscale>
<asrwt>0</asrwt>
<pdfrwt beam="1">  1        2 0.61882400E+00 0.62069731E+03</pdfrwt>
<pdfrwt beam="2">  1       -2 0.36838833E-02 0.62069731E+03</pdfrwt>
<totfact> 0.12232857E+02</totfact>
</mgrwt>
</event>
<event>
 4    1  0.1751735E-005  0.6321544E+03  0.7818608E-02  0.9840854E-01
          2   -1    0    0  501    0  0.00000000000E+00  0.00000000000E+00  0.17575525960E+04  0.17575525960E+04  0.25500000000E-02 0.  1.
         -2   -1    0    0    0  501 -0.00000000000E+00 -0.00000000000E+00 -0.56843136344E+02  0.56843136401E+02  0.25500000000E-02 0. -1.
   -5000001    1    1    2    0    0 -0.19134188456E+03 -0.28139274445E+02  0.84712486066E+03  0.90417037393E+03  0.25000000000E+03 0.  0.
    5000001    1    1    2    0    0  0.19134188456E+03  0.28139274445E+02  0.85358459897E+03  0.91022535844E+03  0.25000000000E+03 0.  0.
<mgrwt>
<rscale>  0 0.63215442E+03</rscale>
<asrwt>0</asrwt>
<pdfrwt beam="1">  1        2 0.27039278E+00 0.63215442E+03</pdfrwt>
<pdfrwt beam="2">  1       -2 0.87450956E-02 0.63215442E+03</pdfrwt>
<totfact> 0.79594016E+02</totfact>
</mgrwt>
</event>
<event>
 4    1  0.1751735E-005  0.1034148E+04  0.7818608E-02  0.9271865E-01
         -2   -1    0    0    0  501 -0.00000000000E+00  0.00000000000E+00  0.16762836692E+03  0.16762836694E+03  0.25500000000E-02 0.  1.
          2   -1    0    0  501    0  0.00000000000E+00 -0.00000000000E+00 -0.15949885196E+04  0.15949885196E+04  0.25500000000E-02 0. -1.
   -5000001    1    1    2    0    0 -0.28845065940E+02  0.45068210581E+03 -0.66201288749E+03  0.83946855899E+03  0.25000000000E+03 0.  0.
    5000001    1    1    2    0    0  0.28845065940E+02 -0.45068210581E+03 -0.76534726521E+03  0.92314832757E+03  0.25000000000E+03 0.  0.
<mgrwt>
<rscale>  0 0.10341476E+04</rscale>
<asrwt>0</asrwt>
<pdfrwt beam="1">  1        2 0.24538284E+00 0.10341476E+04</pdfrwt>
<pdfrwt beam="2">  1       -2 0.25788981E-01 0.10341476E+04</pdfrwt>
<totfact> 0.15158460E+02</totfact>
</mgrwt>
</event>
<event>
 4    1  0.1751735E-005  0.9193131E+03  0.7818608E-02  0.9401756E-01
         -2   -1    0    0    0  501 -0.00000000000E+00  0.00000000000E+00  0.16262792459E+03  0.16262792461E+03  0.25500000000E-02 0. -1.
          2   -1    0    0  501    0  0.00000000000E+00 -0.00000000000E+00 -0.12991872692E+04  0.12991872692E+04  0.25500000000E-02 0.  1.
   -5000001    1    1    2    0    0  0.18292272632E+03  0.32070020694E+03 -0.74588072381E+03  0.86899217527E+03  0.25000000000E+03 0.  0.
    5000001    1    1    2    0    0 -0.18292272632E+03 -0.32070020694E+03 -0.39067862078E+03  0.59282301850E+03  0.25000000000E+03 0.  0.
<mgrwt>
<rscale>  0 0.91931307E+03</rscale>
<asrwt>0</asrwt>
<pdfrwt beam="1">  1        2 0.19987496E+00 0.91931307E+03</pdfrwt>
<pdfrwt beam="2">  1       -2 0.25019682E-01 0.91931307E+03</pdfrwt>
<totfact> 0.23721626E+02</totfact>
</mgrwt>
</event>
<event>
 4    1  0.1751735E-005  0.6149449E+03  0.7818608E-02  0.9874876E-01
         -2   -1    0    0    0  501 -0.00000000000E+00  0.00000000000E+00  0.39633356224E+03  0.39633356224E+03  0.25500000000E-02 0. -1.
          2   -1    0    0  501    0  0.00000000000E+00 -0.00000000000E+00 -0.23853466659E+03  0.23853466661E+03  0.25500000000E-02 0.  1.
   -5000001    1    1    2    0    0  0.14774312579E+03 -0.72427765508E+02  0.15164862964E+03  0.33551619828E+03  0.25000000000E+03 0.  0.
    5000001    1    1    2    0    0 -0.14774312579E+03  0.72427765508E+02  0.61502660012E+01  0.29935203057E+03  0.25000000000E+03 0.  0.
<mgrwt>
<rscale>  0 0.61494486E+03</rscale>
<asrwt>0</asrwt>
<pdfrwt beam="1">  1        2 0.36697641E-01 0.61494486E+03</pdfrwt>
<pdfrwt beam="2">  1       -2 0.60974394E-01 0.61494486E+03</pdfrwt>
<totfact> 0.35853360E+02</totfact>
</mgrwt>
</event>
<event>
 4    1  0.1751735E-005  0.8871397E+03  0.7818608E-02  0.9441802E-01
         -2   -1    0    0    0  501 -0.00000000000E+00  0.00000000000E+00  0.92449645235E+02  0.92449645270E+02  0.25500000000E-02 0. -1.
          2   -1    0    0  501    0  0.00000000000E+00 -0.00000000000E+00 -0.21282311132E+04  0.21282311132E+04  0.25500000000E-02 0.  1.
   -5000001    1    1    2    0    0 -0.29010268586E+03  0.21077782957E+03 -0.12063355172E+04  0.12830947907E+04  0.25000000000E+03 0.  0.
    5000001    1    1    2    0    0  0.29010268586E+03 -0.21077782957E+03 -0.82944595074E+03  0.93758596778E+03  0.25000000000E+03 0.  0.
<mgrwt>
<rscale>  0 0.88713970E+03</rscale>
<asrwt>0</asrwt>
<pdfrwt beam="1">  1        2 0.32742013E+00 0.88713970E+03</pdfrwt>
<pdfrwt beam="2">  1       -2 0.14223024E-01 0.88713970E+03</pdfrwt>
<totfact> 0.22050846E+02</totfact>
</mgrwt>
</event>
<event>
 4    1  0.1751735E-005  0.6186070E+03  0.7818608E-02  0.9867537E-01
         -2   -1    0    0    0  501 -0.00000000000E+00  0.00000000000E+00  0.72343968311E+02  0.72343968356E+02  0.25500000000E-02 0. -1.
          2   -1    0    0  501    0  0.00000000000E+00 -0.00000000000E+00 -0.13224134992E+04  0.13224134992E+04  0.25500000000E-02 0.  1.
   -5000001    1    1    2    0    0 -0.16940907775E+03 -0.66842593600E+02 -0.62249150454E+03  0.69509930310E+03  0.25000000000E+03 0.  0.
    5000001    1    1    2    0    0  0.16940907775E+03  0.66842593600E+02 -0.62757802639E+03  0.69965816450E+03  0.25000000000E+03 0.  0.
<mgrwt>
<rscale>  0 0.61860695E+03</rscale>
<asrwt>0</asrwt>
<pdfrwt beam="1">  1        2 0.20344821E+00 0.61860695E+03</pdfrwt>
<pdfrwt beam="2">  1       -2 0.11129842E-01 0.61860695E+03</pdfrwt>
<totfact> 0.93725070E+02</totfact>
</mgrwt>
</event>
<event>
 4    1  0.1751735E-005  0.6800507E+03  0.7818608E-02  0.9751970E-01
         -2   -1    0    0    0  501 -0.00000000000E+00  0.00000000000E+00  0.48541165131E+02  0.48541165198E+02  0.25500000000E-02 0. -1.
          2   -1    0    0  501    0  0.00000000000E+00 -0.00000000000E+00 -0.23818389578E+04  0.23818389578E+04  0.25500000000E-02 0.  1.
   -5000001    1    1    2    0    0  0.18780583577E+03 -0.10795571227E+03 -0.14478650982E+04  0.14851729901E+04  0.25000000000E+03 0.  0.
    5000001    1    1    2    0    0 -0.18780583577E+03  0.10795571227E+03 -0.88543269444E+03  0.94520713293E+03  0.25000000000E+03 0.  0.
<mgrwt>
<rscale>  0 0.68005070E+03</rscale>
<asrwt>0</asrwt>
<pdfrwt beam="1">  1        2 0.36643667E+00 0.68005070E+03</pdfrwt>
<pdfrwt beam="2">  1       -2 0.74678734E-02 0.68005070E+03</pdfrwt>
<totfact> 0.46525823E+02</totfact>
</mgrwt>
</event>
<event>
 4    1  0.1751735E-005  0.7284800E+03  0.7818608E-02  0.9669730E-01
          2   -1    0    0  501    0  0.00000000000E+00  0.00000000000E+00  0.97212192789E+03  0.97212192789E+03  0.25500000000E-02 0.  1.
         -2   -1    0    0    0  501 -0.00000000000E+00 -0.00000000000E+00 -0.13647545247E+03  0.13647545249E+03  0.25500000000E-02 0. -1.
   -5000001    1    1    2    0    0  0.10871381722E+03 -0.22670207005E+03  0.29088091079E+03  0.45861119358E+03  0.25000000000E+03 0.  0.
    5000001    1    1    2    0    0 -0.10871381722E+03  0.22670207005E+03  0.54476556464E+03  0.64998618680E+03  0.25000000000E+03 0.  0.
<mgrwt>
<rscale>  0 0.72848001E+03</rscale>
<asrwt>0</asrwt>
<pdfrwt beam="1">  1        2 0.14955722E+00 0.72848001E+03</pdfrwt>
<pdfrwt beam="2">  1       -2 0.20996224E-01 0.72848001E+03</pdfrwt>
<totfact> 0.51758032E+02</totfact>
</mgrwt>
</event>
<event>
 4    1  0.1751735E-005  0.7441119E+03  0.7818608E-02  0.9644633E-01
         -2   -1    0    0    0  501 -0.00000000000E+00  0.00000000000E+00  0.19697804443E+03  0.19697804445E+03  0.25500000000E-02 0. -1.
          2   -1    0    0  501    0  0.00000000000E+00 -0.00000000000E+00 -0.70274646733E+03  0.70274646734E+03  0.25500000000E-02 0.  1.
   -5000001    1    1    2    0    0 -0.23673083384E+03 -0.83661901104E+02 -0.11563478218E+03  0.37270927576E+03  0.25000000000E+03 0.  0.
    5000001    1    1    2    0    0  0.23673083384E+03  0.83661901104E+02 -0.39013364072E+03  0.52701523603E+03  0.25000000000E+03 0.  0.
<mgrwt>
<rscale>  0 0.74411189E+03</rscale>
<asrwt>0</asrwt>
<pdfrwt beam="1">  1        2 0.10811484E+00 0.74411189E+03</pdfrwt>
<pdfrwt beam="2">  1       -2 0.30304315E-01 0.74411189E+03</pdfrwt>
<totfact> 0.41252837E+02</totfact>
</mgrwt>
</event>
<event>
 4    1  0.1751735E-005  0.5530579E+03  0.7818608E-02  0.1000789E+00
          2   -1    0    0  501    0  0.00000000000E+00  0.00000000000E+00  0.11678478387E+03  0.11678478390E+03  0.25500000000E-02 0.  1.
         -2   -1    0    0    0  501 -0.00000000000E+00 -0.00000000000E+00 -0.65477935459E+03  0.65477935460E+03  0.25500000000E-02 0. -1.
   -5000001    1    1    2    0    0  0.11752654010E+03  0.63925894551E+01 -0.25404232622E+03  0.37535430774E+03  0.25000000000E+03 0.  0.
    5000001    1    1    2    0    0 -0.11752654010E+03 -0.63925894551E+01 -0.28395224451E+03  0.39620983076E+03  0.25000000000E+03 0.  0.
<mgrwt>
<rscale>  0 0.55305792E+03</rscale>
<asrwt>0</asrwt>
<pdfrwt beam="1">  1        2 0.17966890E-01 0.55305792E+03</pdfrwt>
<pdfrwt beam="2">  1       -2 0.10073528E+00 0.55305792E+03</pdfrwt>
<totfact> 0.26511981E+02</totfact>
</mgrwt>
</event>
<event>
 4    1  0.1751735E-005  0.6820481E+03  0.7818608E-02  0.9748435E-01
          2   -1    0    0  501    0  0.00000000000E+00  0.00000000000E+00  0.34364023015E+03  0.34364023016E+03  0.25500000000E-02 0.  1.
         -2   -1    0    0    0  501 -0.00000000000E+00 -0.00000000000E+00 -0.33842774078E+03  0.33842774079E+03  0.25500000000E-02 0. -1.
   -5000001    1    1    2    0    0  0.17691576558E+03 -0.14166244536E+03 -0.46689719912E+02  0.34065725661E+03  0.25000000000E+03 0.  0.
    5000001    1    1    2    0    0 -0.17691576558E+03  0.14166244536E+03  0.51902209277E+02  0.34141071434E+03  0.25000000000E+03 0.  0.
<mgrwt>
<rscale>  0 0.68204805E+03</rscale>
<asrwt>0</asrwt>
<pdfrwt beam="1">  1        2 0.52867727E-01 0.68204805E+03</pdfrwt>
<pdfrwt beam="2">  1       -2 0.52065807E-01 0.68204805E+03</pdfrwt>
<totfact> 0.33163145E+02</totfact>
</mgrwt>
</event>
<event>
 4    1  0.1751735E-005  0.7861284E+03  0.7818608E-02  0.9580316E-01
         -2   -1    0    0    0  501 -0.00000000000E+00  0.00000000000E+00  0.50795166756E+02  0.50795166820E+02  0.25500000000E-02 0. -1.
          2   -1    0    0  501    0  0.00000000000E+00 -0.00000000000E+00 -0.30416175692E+04  0.30416175692E+04  0.25500000000E-02 0.  1.
   -5000001    1    1    2    0    0  0.15212151208E+03  0.25230104102E+03 -0.12116725933E+04  0.12717889931E+04  0.25000000000E+03 0.  0.
    5000001    1    1    2    0    0 -0.15212151208E+03 -0.25230104102E+03 -0.17791498091E+04  0.18206237429E+04  0.25000000000E+03 0.  0.
<mgrwt>
<rscale>  0 0.78612842E+03</rscale>
<asrwt>0</asrwt>
<pdfrwt beam="1">  1        2 0.46794102E+00 0.78612842E+03</pdfrwt>
<pdfrwt beam="2">  1       -2 0.78146434E-02 0.78612842E+03</pdfrwt>
<totfact> 0.17625172E+02</totfact>
</mgrwt>
</event>
<event>
 4    1  0.1751735E-005  0.7588368E+03  0.7818608E-02  0.9621588E-01
          2   -1    0    0  501    0  0.00000000000E+00  0.00000000000E+00  0.49622276779E+03  0.49622276779E+03  0.25500000000E-02 0.  1.
         -2   -1    0    0    0  501 -0.00000000000E+00 -0.00000000000E+00 -0.29010822485E+03  0.29010822486E+03  0.25500000000E-02 0. -1.
   -5000001    1    1    2    0    0 -0.21150804468E+03  0.96488716772E+01 -0.95265617711E+02  0.34118073159E+03  0.25000000000E+03 0.  0.
    5000001    1    1    2    0    0  0.21150804468E+03 -0.96488716772E+01  0.30138016065E+03  0.44515026106E+03  0.25000000000E+03 0.  0.
<mgrwt>
<rscale>  0 0.75883676E+03</rscale>
<asrwt>0</asrwt>
<pdfrwt beam="1">  1        2 0.76341963E-01 0.75883676E+03</pdfrwt>
<pdfrwt beam="2">  1       -2 0.44632035E-01 0.75883676E+03</pdfrwt>
<totfact> 0.29802618E+02</totfact>
</mgrwt>
</event>
<event>
 4    1  0.1751735E-005  0.8430340E+03  0.7818608E-02  0.9499735E-01
         -2   -1    0    0    0  501 -0.00000000000E+00  0.00000000000E+00  0.20770092947E+03  0.20770092949E+03  0.25500000000E-02 0. -1.
          2   -1    0    0  501    0  0.00000000000E+00 -0.00000000000E+00 -0.85544423269E+03  0.85544423270E+03  0.25500000000E-02 0.  1.
   -5000001    1    1    2    0    0 -0.10960627790E+03  0.12203156150E+03  0.50805595660E+02  0.30329267500E+03  0.25000000000E+03 0.  0.
    5000001    1    1    2    0    0  0.10960627790E+03 -0.12203156150E+03 -0.69854889888E+03  0.75985248718E+03  0.25000000000E+03 0.  0.
<mgrwt>
<rscale>  0 0.84303395E+03</rscale>
<asrwt>0</asrwt>
<pdfrwt beam="1">  1        2 0.13160680E+00 0.84303395E+03</pdfrwt>
<pdfrwt beam="2">  1       -2 0.31953990E-01 0.84303395E+03</pdfrwt>
<totfact> 0.28753676E+02</totfact>
</mgrwt>
</event>
<event>
 4    1  0.1751735E-005  0.8697497E+03  0.7818608E-02  0.9464206E-01
         -2   -1    0    0    0  501 -0.00000000000E+00  0.00000000000E+00  0.78745246800E+02  0.78745246842E+02  0.25500000000E-02 0. -1.
          2   -1    0    0  501    0  0.00000000000E+00 -0.00000000000E+00 -0.24016198024E+04  0.24016198024E+04  0.25500000000E-02 0.  1.
   -5000001    1    1    2    0    0 -0.16784272551E+03  0.20126627730E+03 -0.18478712071E+04  0.18830314105E+04  0.25000000000E+03 0.  0.
    5000001    1    1    2    0    0  0.16784272551E+03 -0.20126627730E+03 -0.47500334847E+03  0.59733363872E+03  0.25000000000E+03 0.  0.
<mgrwt>
<rscale>  0 0.86974972E+03</rscale>
<asrwt>0</asrwt>
<pdfrwt beam="1">  1        2 0.36947991E+00 0.86974972E+03</pdfrwt>
<pdfrwt beam="2">  1       -2 0.12114655E-01 0.86974972E+03</pdfrwt>
<totfact> 0.20340502E+02</totfact>
</mgrwt>
</event>
<event>
 4    1  0.1751735E-005  0.7843980E+03  0.7818608E-02  0.9582879E-01
          2   -1    0    0  501    0  0.00000000000E+00  0.00000000000E+00  0.13671745520E+04  0.13671745520E+04  0.25500000000E-02 0.  1.
         -2   -1    0    0    0  501 -0.00000000000E+00 -0.00000000000E+00 -0.11250943477E+03  0.11250943480E+03  0.25500000000E-02 0. -1.
   -5000001    1    1    2    0    0  0.18210235007E+03 -0.10853709555E+03  0.10335800837E+04  0.10843105443E+04  0.25000000000E+03 0.  0.
    5000001    1    1    2    0    0 -0.18210235007E+03  0.10853709555E+03  0.22108503356E+03  0.39537344255E+03  0.25000000000E+03 0.  0.
<mgrwt>
<rscale>  0 0.78439795E+03</rscale>
<asrwt>0</asrwt>
<pdfrwt beam="1">  1        2 0.21033453E+00 0.78439795E+03</pdfrwt>
<pdfrwt beam="2">  1       -2 0.17309145E-01 0.78439795E+03</pdfrwt>
<totfact> 0.41818405E+02</totfact>
</mgrwt>
</event>
<event>
 4    1  0.1751735E-005  0.1204100E+04  0.7818608E-02  0.9109276E-01
          2   -1    0    0  501    0  0.00000000000E+00  0.00000000000E+00  0.43665239745E+04  0.43665239745E+04  0.25500000000E-02 0.  1.
         -2   -1    0    0    0  501 -0.00000000000E+00 -0.00000000000E+00 -0.83009722105E+02  0.83009722144E+02  0.25500000000E-02 0. -1.
   -5000001    1    1    2    0    0  0.22133871666E+03  0.49628714672E+03  0.18891695480E+04  0.19816037294E+04  0.25000000000E+03 0.  0.
    5000001    1    1    2    0    0 -0.22133871666E+03 -0.49628714672E+03  0.23943447044E+04  0.24679299672E+04  0.25000000000E+03 0.  0.
<mgrwt>
<rscale>  0 0.12040996E+04</rscale>
<asrwt>0</asrwt>
<pdfrwt beam="1">  1        2 0.67177309E+00 0.12040996E+04</pdfrwt>
<pdfrwt beam="2">  1       -2 0.12770723E-01 0.12040996E+04</pdfrwt>
<totfact> 0.78862438E+00</totfact>
</mgrwt>
</event>
<event>
 4    1  0.1751735E-005  0.5671051E+03  0.7818608E-02  0.9976105E-01
         -2   -1    0    0    0  501 -0.00000000000E+00  0.00000000000E+00  0.12301022715E+03  0.12301022718E+03  0.25500000000E-02 0. -1.
          2   -1    0    0  501    0  0.00000000000E+00 -0.00000000000E+00 -0.65362083215E+03  0.65362083215E+03  0.25500000000E-02 0.  1.
   -5000001    1    1    2    0    0  0.90860417393E+02  0.65680649613E+02 -0.16530162262E+03  0.31999092116E+03  0.25000000000E+03 0.  0.
    5000001    1    1    2    0    0 -0.90860417393E+02 -0.65680649613E+02 -0.36530898237E+03  0.45664013817E+03  0.25000000000E+03 0.  0.
<mgrwt>
<rscale>  0 0.56710509E+03</rscale>
<asrwt>0</asrwt>
<pdfrwt beam="1">  1        2 0.10055705E+00 0.56710509E+03</pdfrwt>
<pdfrwt beam="2">  1       -2 0.18924651E-01 0.56710509E+03</pdfrwt>
<totfact> 0.10534069E+03</totfact>
</mgrwt>
</event>
<event>
 4    1  0.1751735E-005  0.6518278E+03  0.7818608E-02  0.9803355E-01
          2   -1    0    0  501    0  0.00000000000E+00  0.00000000000E+00  0.56934512409E+03  0.56934512409E+03  0.25500000000E-02 0.  1.
         -2   -1    0    0    0  501 -0.00000000000E+00 -0.00000000000E+00 -0.18656502269E+03  0.18656502270E+03  0.25500000000E-02 0. -1.
   -5000001    1    1    2    0    0 -0.20029908586E+03  0.48893696584E+02  0.15105779400E+03  0.35753150140E+03  0.25000000000E+03 0.  0.
    5000001    1    1    2    0    0  0.20029908586E+03 -0.48893696584E+02  0.23172230741E+03  0.39837864540E+03  0.25000000000E+03 0.  0.
<mgrwt>
<rscale>  0 0.65182785E+03</rscale>
<asrwt>0</asrwt>
<pdfrwt beam="1">  1        2 0.87591557E-01 0.65182785E+03</pdfrwt>
<pdfrwt beam="2">  1       -2 0.28702311E-01 0.65182785E+03</pdfrwt>
<totfact> 0.59156988E+02</totfact>
</mgrwt>
</event>
<event>
 4    1  0.1751735E-005  0.7685186E+03  0.7818608E-02  0.9606737E-01
         -2   -1    0    0    0  501 -0.00000000000E+00  0.00000000000E+00  0.55678885801E+02  0.55678885860E+02  0.25500000000E-02 0. -1.
          2   -1    0    0  501    0  0.00000000000E+00 -0.00000000000E+00 -0.26519064337E+04  0.26519064337E+04  0.25500000000E-02 0.  1.
   -5000001    1    1    2    0    0 -0.19767860603E+02  0.29073332482E+03 -0.12436976521E+04  0.13016145683E+04  0.25000000000E+03 0.  0.
    5000001    1    1    2    0    0  0.19767860603E+02 -0.29073332482E+03 -0.13525298957E+04  0.14059707512E+04  0.25000000000E+03 0.  0.
<mgrwt>
<rscale>  0 0.76851856E+03</rscale>
<asrwt>0</asrwt>
<pdfrwt beam="1">  1        2 0.40798551E+00 0.76851856E+03</pdfrwt>
<pdfrwt beam="2">  1       -2 0.85659845E-02 0.76851856E+03</pdfrwt>
<totfact> 0.26032480E+02</totfact>
</mgrwt>
</event>
<event>
 4    1  0.1751735E-005  0.5834168E+03  0.7818608E-02  0.9940421E-01
          2   -1    0    0  501    0  0.00000000000E+00  0.00000000000E+00  0.20400816365E+04  0.20400816365E+04  0.25500000000E-02 0.  1.
         -2   -1    0    0    0  501 -0.00000000000E+00 -0.00000000000E+00 -0.41710970107E+02  0.41710970185E+02  0.25500000000E-02 0. -1.
   -5000001    1    1    2    0    0 -0.53258767971E+02 -0.43491143494E+02  0.14761320706E+04  0.14987307516E+04  0.25000000000E+03 0.  0.
    5000001    1    1    2    0    0  0.53258767971E+02  0.43491143494E+02  0.52223859582E+03  0.58306185512E+03  0.25000000000E+03 0.  0.
<mgrwt>
<rscale>  0 0.58341678E+03</rscale>
<asrwt>0</asrwt>
<pdfrwt beam="1">  1        2 0.31385869E+00 0.58341678E+03</pdfrwt>
<pdfrwt beam="2">  1       -2 0.64170728E-02 0.58341678E+03</pdfrwt>
<totfact> 0.91775871E+02</totfact>
</mgrwt>
</event>
<event>
 4    1  0.1751735E-005  0.6699392E+03  0.7818608E-02  0.9770068E-01
          2   -1    0    0  501    0  0.00000000000E+00  0.00000000000E+00  0.57663928315E+02  0.57663928371E+02  0.25500000000E-02 0.  1.
         -2   -1    0    0    0  501 -0.00000000000E+00 -0.00000000000E+00 -0.19458373290E+04  0.19458373290E+04  0.25500000000E-02 0. -1.
   -5000001    1    1    2    0    0  0.19507895508E+03 -0.10199191678E+03 -0.10496701738E+04  0.11012563842E+04  0.25000000000E+03 0.  0.
    5000001    1    1    2    0    0 -0.19507895508E+03  0.10199191678E+03 -0.83850322682E+03  0.90224487319E+03  0.25000000000E+03 0.  0.
<mgrwt>
<rscale>  0 0.66993917E+03</rscale>
<asrwt>0</asrwt>
<pdfrwt beam="1">  1        2 0.88713751E-02 0.66993917E+03</pdfrwt>
<pdfrwt beam="2">  1       -2 0.29935954E+00 0.66993917E+03</pdfrwt>
<totfact> 0.26067711E+01</totfact>
</mgrwt>
</event>
<event>
 4    1  0.1751735E-005  0.6594772E+03  0.7818608E-02  0.9789157E-01
          2   -1    0    0  501    0  0.00000000000E+00  0.00000000000E+00  0.10991738643E+04  0.10991738643E+04  0.25500000000E-02 0.  1.
         -2   -1    0    0    0  501 -0.00000000000E+00 -0.00000000000E+00 -0.98917501884E+02  0.98917501917E+02  0.25500000000E-02 0. -1.
   -5000001    1    1    2    0    0 -0.11025769516E+03  0.10823890557E+03  0.77175872864E+03  0.82582319854E+03  0.25000000000E+03 0.  0.
    5000001    1    1    2    0    0  0.11025769516E+03 -0.10823890557E+03  0.22849763376E+03  0.37226816766E+03  0.25000000000E+03 0.  0.
<mgrwt>
<rscale>  0 0.65947717E+03</rscale>
<asrwt>0</asrwt>
<pdfrwt beam="1">  1        2 0.16910367E+00 0.65947717E+03</pdfrwt>
<pdfrwt beam="2">  1       -2 0.15218077E-01 0.65947717E+03</pdfrwt>
<totfact> 0.75238565E+02</totfact>
</mgrwt>
</event>
<event>
 4    1  0.1751735E-005  0.5540031E+03  0.7818608E-02  0.1000572E+00
          2   -1    0    0  501    0  0.00000000000E+00  0.00000000000E+00  0.38028467953E+04  0.38028467953E+04  0.25500000000E-02 0.  1.
         -2   -1    0    0    0  501 -0.00000000000E+00 -0.00000000000E+00 -0.20176949314E+02  0.20176949475E+02  0.25500000000E-02 0. -1.
   -5000001    1    1    2    0    0 -0.81882846395E+02 -0.34505279738E+02  0.24405578881E+04  0.24549375186E+04  0.25000000000E+03 0.  0.
    5000001    1    1    2    0    0  0.81882846395E+02  0.34505279738E+02  0.13421119579E+04  0.13680862262E+04  0.25000000000E+03 0.  0.
<mgrwt>
<rscale>  0 0.55400306E+03</rscale>
<asrwt>0</asrwt>
<pdfrwt beam="1">  1        2 0.58505340E+00 0.55400306E+03</pdfrwt>
<pdfrwt beam="2">  1       -2 0.31041458E-02 0.55400306E+03</pdfrwt>
<totfact> 0.23611734E+02</totfact>
</mgrwt>
</event>
<event>
 4    1  0.1751735E-005  0.1052694E+04  0.7818608E-02  0.9252567E-01
          2   -1    0    0  501    0  0.00000000000E+00  0.00000000000E+00  0.61850803925E+03  0.61850803926E+03  0.25500000000E-02 0.  1.
         -2   -1    0    0    0  501 -0.00000000000E+00 -0.00000000000E+00 -0.44791880207E+03  0.44791880207E+03  0.25500000000E-02 0. -1.
   -5000001    1    1    2    0    0  0.26190653738E+03 -0.36963111302E+03 -0.12500626698E+02  0.51756976313E+03  0.25000000000E+03 0.  0.
    5000001    1    1    2    0    0 -0.26190653738E+03  0.36963111302E+03  0.18308986388E+03  0.54885707820E+03  0.25000000000E+03 0.  0.
<mgrwt>
<rscale>  0 0.10526944E+04</rscale>
<asrwt>0</asrwt>
<pdfrwt beam="1">  1        2 0.95155082E-01 0.10526944E+04</pdfrwt>
<pdfrwt beam="2">  1       -2 0.68910585E-01 0.10526944E+04</pdfrwt>
<totfact> 0.91598792E+01</totfact>
</mgrwt>
</event>
<event>
 4    1  0.1751735E-005  0.6230400E+03  0.7818608E-02  0.9858726E-01
          2   -1    0    0  501    0  0.00000000000E+00  0.00000000000E+00  0.85260628700E+03  0.85260628700E+03  0.25500000000E-02 0.  1.
         -2   -1    0    0    0  501 -0.00000000000E+00 -0.00000000000E+00 -0.11382125229E+03  0.11382125232E+03  0.25500000000E-02 0. -1.
   -5000001    1    1    2    0    0 -0.12862777220E+03 -0.13269809903E+03  0.40005766828E+03  0.50665572849E+03  0.25000000000E+03 0.  0.
    5000001    1    1    2    0    0  0.12862777220E+03  0.13269809903E+03  0.33872736643E+03  0.45977181083E+03  0.25000000000E+03 0.  0.
<mgrwt>
<rscale>  0 0.62304002E+03</rscale>
<asrwt>0</asrwt>
<pdfrwt beam="1">  1        2 0.13117020E+00 0.62304002E+03</pdfrwt>
<pdfrwt beam="2">  1       -2 0.17510962E-01 0.62304002E+03</pdfrwt>
<totfact> 0.85518924E+02</totfact>
</mgrwt>
</event>
<event>
 4    1  0.1751735E-005  0.7811875E+03  0.7818608E-02  0.9587654E-01
         -2   -1    0    0    0  501 -0.00000000000E+00  0.00000000000E+00  0.80945828801E+02  0.80945828842E+02  0.25500000000E-02 0. -1.
          2   -1    0    0  501    0  0.00000000000E+00 -0.00000000000E+00 -0.18847604212E+04  0.18847604212E+04  0.25500000000E-02 0.  1.
   -5000001    1    1    2    0    0 -0.24744196582E+03 -0.16398795592E+02 -0.47660670403E+03  0.59257944385E+03  0.25000000000E+03 0.  0.
    5000001    1    1    2    0    0  0.24744196582E+03  0.16398795592E+02 -0.13272078884E+04  0.13731268062E+04  0.25000000000E+03 0.  0.
<mgrwt>
<rscale>  0 0.78118754E+03</rscale>
<asrwt>0</asrwt>
<pdfrwt beam="1">  1        2 0.28996311E+00 0.78118754E+03</pdfrwt>
<pdfrwt beam="2">  1       -2 0.12453206E-01 0.78118754E+03</pdfrwt>
<totfact> 0.37743043E+02</totfact>
</mgrwt>
</event>
<event>
 4    1  0.1751735E-005  0.6320945E+03  0.7818608E-02  0.9840970E-01
         -2   -1    0    0    0  501 -0.00000000000E+00  0.00000000000E+00  0.27133973395E+02  0.27133973515E+02  0.25500000000E-02 0. -1.
          2   -1    0    0  501    0  0.00000000000E+00 -0.00000000000E+00 -0.36812108904E+04  0.36812108904E+04  0.25500000000E-02 0.  1.
   -5000001    1    1    2    0    0 -0.54056934206E+02 -0.14613482913E+03 -0.11553438057E+04  0.11923073638E+04  0.25000000000E+03 0.  0.
    5000001    1    1    2    0    0  0.54056934206E+02  0.14613482913E+03 -0.24987331113E+04  0.25160375001E+04  0.25000000000E+03 0.  0.
<mgrwt>
<rscale>  0 0.63209455E+03</rscale>
<asrwt>0</asrwt>
<pdfrwt beam="1">  1        2 0.56633974E+00 0.63209455E+03</pdfrwt>
<pdfrwt beam="2">  1       -2 0.41744604E-02 0.63209455E+03</pdfrwt>
<totfact> 0.18158487E+02</totfact>
</mgrwt>
</event>
<event>
 4    1  0.1751735E-005  0.9619503E+03  0.7818608E-02  0.9351291E-01
          2   -1    0    0  501    0  0.00000000000E+00  0.00000000000E+00  0.92046155086E+03  0.92046155086E+03  0.25500000000E-02 0.  1.
         -2   -1    0    0    0  501 -0.00000000000E+00 -0.00000000000E+00 -0.25132728788E+03  0.25132728790E+03  0.25500000000E-02 0. -1.
   -5000001    1    1    2    0    0 -0.35244332034E+03 -0.90219232353E+02  0.10190169408E+03  0.45303394927E+03  0.25000000000E+03 0.  0.
    5000001    1    1    2    0    0  0.35244332034E+03  0.90219232353E+02  0.56723256890E+03  0.71875488948E+03  0.25000000000E+03 0.  0.
<mgrwt>
<rscale>  0 0.96195032E+03</rscale>
<asrwt>0</asrwt>
<pdfrwt beam="1">  1        2 0.14160947E+00 0.96195032E+03</pdfrwt>
<pdfrwt beam="2">  1       -2 0.38665738E-01 0.96195032E+03</pdfrwt>
<totfact> 0.17938672E+02</totfact>
</mgrwt>
</event>
<event>
 4    1  0.1751735E-005  0.6264593E+03  0.7818608E-02  0.9851983E-01
          2   -1    0    0  501    0  0.00000000000E+00  0.00000000000E+00  0.28088363993E+04  0.28088363993E+04  0.25500000000E-02 0.  1.
         -2   -1    0    0    0  501 -0.00000000000E+00 -0.00000000000E+00 -0.34930055428E+02  0.34930055522E+02  0.25500000000E-02 0. -1.
   -5000001    1    1    2    0    0 -0.75096832228E+02 -0.17261050337E+03  0.14476681051E+04  0.14811066345E+04  0.25000000000E+03 0.  0.
    5000001    1    1    2    0    0  0.75096832228E+02  0.17261050337E+03  0.13262382388E+04  0.13626598204E+04  0.25000000000E+03 0.  0.
<mgrwt>
<rscale>  0 0.62645929E+03</rscale>
<asrwt>0</asrwt>
<pdfrwt beam="1">  1        2 0.43212871E+00 0.62645929E+03</pdfrwt>
<pdfrwt beam="2">  1       -2 0.53738543E-02 0.62645929E+03</pdfrwt>
<totfact> 0.44731490E+02</totfact>
</mgrwt>
</event>
<event>
 4    1  0.1751735E-005  0.8684298E+03  0.7818608E-02  0.9465930E-01
         -2   -1    0    0    0  501 -0.00000000000E+00  0.00000000000E+00  0.79569852535E+02  0.79569852576E+02  0.25500000000E-02 0. -1.
          2   -1    0    0  501    0  0.00000000000E+00 -0.00000000000E+00 -0.23695230174E+04  0.23695230174E+04  0.25500000000E-02 0.  1.
   -5000001    1    1    2    0    0 -0.25273691298E+03 -0.24487242182E+03 -0.12773774379E+04  0.13483440099E+04  0.25000000000E+03 0.  0.
    5000001    1    1    2    0    0  0.25273691298E+03  0.24487242182E+03 -0.10125757270E+04  0.11007488602E+04  0.25000000000E+03 0.  0.
<mgrwt>
<rscale>  0 0.86842984E+03</rscale>
<asrwt>0</asrwt>
<pdfrwt beam="1">  1        2 0.36454195E+00 0.86842984E+03</pdfrwt>
<pdfrwt beam="2">  1       -2 0.12241518E-01 0.86842984E+03</pdfrwt>
<totfact> 0.20842576E+02</totfact>
</mgrwt>
</event>
<event>
 4    1  0.1751735E-005  0.6490826E+03  0.7818608E-02  0.9808502E-01
          2   -1    0    0  501    0  0.00000000000E+00  0.00000000000E+00  0.27051104187E+03  0.27051104188E+03  0.25500000000E-02 0.  1.
         -2   -1    0    0    0  501 -0.00000000000E+00 -0.00000000000E+00 -0.38936319683E+03  0.38936319683E+03  0.25500000000E-02 0. -1.
   -5000001    1    1    2    0    0  0.66665119238E+02 -0.17290555519E+03 -0.15307976802E+03  0.34680539863E+03  0.25000000000E+03 0.  0.
    5000001    1    1    2    0    0 -0.66665119238E+02  0.17290555519E+03  0.34227613063E+02  0.31306884009E+03  0.25000000000E+03 0.  0.
<mgrwt>
<rscale>  0 0.64908256E+03</rscale>
<asrwt>0</asrwt>
<pdfrwt beam="1">  1        2 0.41617083E-01 0.64908256E+03</pdfrwt>
<pdfrwt beam="2">  1       -2 0.59902030E-01 0.64908256E+03</pdfrwt>
<totfact> 0.32344285E+02</totfact>
</mgrwt>
</event>
<event>
 4    1  0.1751735E-005  0.7743551E+03  0.7818608E-02  0.9597897E-01
          2   -1    0    0  501    0  0.00000000000E+00  0.00000000000E+00  0.15641565758E+04  0.15641565758E+04  0.25500000000E-02 0.  1.
         -2   -1    0    0    0  501 -0.00000000000E+00 -0.00000000000E+00 -0.95838529311E+02  0.95838529345E+02  0.25500000000E-02 0. -1.
   -5000001    1    1    2    0    0 -0.11368603486E+03  0.18351743421E+03  0.11671853366E+04  0.12130229895E+04  0.25000000000E+03 0.  0.
    5000001    1    1    2    0    0  0.11368603486E+03 -0.18351743421E+03  0.30113270994E+03  0.44697211565E+03  0.25000000000E+03 0.  0.
<mgrwt>
<rscale>  0 0.77435513E+03</rscale>
<asrwt>0</asrwt>
<pdfrwt beam="1">  1        2 0.24063947E+00 0.77435513E+03</pdfrwt>
<pdfrwt beam="2">  1       -2 0.14744389E-01 0.77435513E+03</pdfrwt>
<totfact> 0.42646445E+02</totfact>
</mgrwt>
</event>
<event>
 4    1  0.1751735E-005  0.7409150E+03  0.7818608E-02  0.9649712E-01
          2   -1    0    0  501    0  0.00000000000E+00  0.00000000000E+00  0.48629293746E+03  0.48629293746E+03  0.25500000000E-02 0.  1.
         -2   -1    0    0    0  501 -0.00000000000E+00 -0.00000000000E+00 -0.28221415190E+03  0.28221415191E+03  0.25500000000E-02 0. -1.
   -5000001    1    1    2    0    0 -0.13093423235E+03 -0.23491469870E+02  0.34977085613E+03  0.45003919180E+03  0.25000000000E+03 0.  0.
    5000001    1    1    2    0    0  0.13093423235E+03  0.23491469870E+02 -0.14569207057E+03  0.31846789757E+03  0.25000000000E+03 0.  0.
<mgrwt>
<rscale>  0 0.74091497E+03</rscale>
<asrwt>0</asrwt>
<pdfrwt beam="1">  1        2 0.74814298E-01 0.74091497E+03</pdfrwt>
<pdfrwt beam="2">  1       -2 0.43417562E-01 0.74091497E+03</pdfrwt>
<totfact> 0.32244116E+02</totfact>
</mgrwt>
</event>
<event>
 4    1  0.1751735E-005  0.1178580E+04  0.7818608E-02  0.9131815E-01
          2   -1    0    0  501    0  0.00000000000E+00  0.00000000000E+00  0.11347003928E+04  0.11347003928E+04  0.25500000000E-02 0. -1.
         -2   -1    0    0    0  501 -0.00000000000E+00 -0.00000000000E+00 -0.30603921782E+03  0.30603921784E+03  0.25500000000E-02 0.  1.
   -5000001    1    1    2    0    0 -0.33526429542E+03  0.41509950559E+03  0.42323621731E+03  0.72549200062E+03  0.25000000000E+03 0.  0.
    5000001    1    1    2    0    0  0.33526429542E+03 -0.41509950559E+03  0.40542495765E+03  0.71524761000E+03  0.25000000000E+03 0.  0.
<mgrwt>
<rscale>  0 0.11785802E+04</rscale>
<asrwt>0</asrwt>
<pdfrwt beam="1">  1        2 0.17456929E+00 0.11785802E+04</pdfrwt>
<pdfrwt beam="2">  1       -2 0.47082957E-01 0.11785802E+04</pdfrwt>
<totfact> 0.87602677E+01</totfact>
</mgrwt>
</event>
<event>
 4    1  0.1751735E-005  0.1034320E+04  0.7818608E-02  0.9271684E-01
         -2   -1    0    0    0  501 -0.00000000000E+00  0.00000000000E+00  0.80022913912E+03  0.80022913913E+03  0.25500000000E-02 0. -1.
          2   -1    0    0  501    0  0.00000000000E+00 -0.00000000000E+00 -0.33422229231E+03  0.33422229232E+03  0.25500000000E-02 0.  1.
   -5000001    1    1    2    0    0 -0.34188240028E+03  0.48746327773E+02  0.55407942528E+03  0.69911643495E+03  0.25000000000E+03 0.  0.
    5000001    1    1    2    0    0  0.34188240028E+03 -0.48746327773E+02 -0.88072578472E+02  0.43533499650E+03  0.25000000000E+03 0.  0.
<mgrwt>
<rscale>  0 0.10343199E+04</rscale>
<asrwt>0</asrwt>
<pdfrwt beam="1">  1        2 0.51418815E-01 0.10343199E+04</pdfrwt>
<pdfrwt beam="2">  1       -2 0.12311217E+00 0.10343199E+04</pdfrwt>
<totfact> 0.48282161E+01</totfact>
</mgrwt>
</event>
<event>
 4    1  0.1751735E-005  0.6967738E+03  0.7818608E-02  0.9722765E-01
         -2   -1    0    0    0  501 -0.00000000000E+00  0.00000000000E+00  0.19295843886E+03  0.19295843887E+03  0.25500000000E-02 0.  1.
          2   -1    0    0  501    0  0.00000000000E+00 -0.00000000000E+00 -0.62901327382E+03  0.62901327383E+03  0.25500000000E-02 0. -1.
   -5000001    1    1    2    0    0  0.19010514667E+03  0.10834283265E+03 -0.94327818401E+02  0.34536339340E+03  0.25000000000E+03 0.  0.
    5000001    1    1    2    0    0 -0.19010514667E+03 -0.10834283265E+03 -0.34172701657E+03  0.47660831930E+03  0.25000000000E+03 0.  0.
<mgrwt>
<rscale>  0 0.69677376E+03</rscale>
<asrwt>0</asrwt>
<pdfrwt beam="1">  1        2 0.96771272E-01 0.69677376E+03</pdfrwt>
<pdfrwt beam="2">  1       -2 0.29685914E-01 0.69677376E+03</pdfrwt>
<totfact> 0.49254769E+02</totfact>
</mgrwt>
</event>
<event>
 4    1  0.1751735E-005  0.7097754E+03  0.7818608E-02  0.9700659E-01
         -2   -1    0    0    0  501 -0.00000000000E+00  0.00000000000E+00  0.23532737474E+03  0.23532737475E+03  0.25500000000E-02 0. -1.
          2   -1    0    0  501    0  0.00000000000E+00 -0.00000000000E+00 -0.53519185384E+03  0.53519185384E+03  0.25500000000E-02 0.  1.
   -5000001    1    1    2    0    0 -0.14174377785E+03  0.20009657004E+03 -0.21243910666E+03  0.40958553434E+03  0.25000000000E+03 0.  0.
    5000001    1    1    2    0    0  0.14174377785E+03 -0.20009657004E+03 -0.87425372443E+02  0.36093369426E+03  0.25000000000E+03 0.  0.
<mgrwt>
<rscale>  0 0.70977544E+03</rscale>
<asrwt>0</asrwt>
<pdfrwt beam="1">  1        2 0.82337208E-01 0.70977544E+03</pdfrwt>
<pdfrwt beam="2">  1       -2 0.36204212E-01 0.70977544E+03</pdfrwt>
<totfact> 0.41111406E+02</totfact>
</mgrwt>
</event>
<event>
 4    1  0.1751735E-005  0.6364555E+03  0.7818608E-02  0.9832532E-01
          2   -1    0    0  501    0  0.00000000000E+00  0.00000000000E+00  0.15654186583E+04  0.15654186583E+04  0.25500000000E-02 0.  1.
         -2   -1    0    0    0  501 -0.00000000000E+00 -0.00000000000E+00 -0.64691250397E+02  0.64691250447E+02  0.25500000000E-02 0. -1.
   -5000001    1    1    2    0    0 -0.38029426215E+02 -0.12694608247E+03  0.11233492652E+04  0.11584364966E+04  0.25000000000E+03 0.  0.
    5000001    1    1    2    0    0  0.38029426215E+02  0.12694608247E+03  0.37737814274E+03  0.47167341215E+03  0.25000000000E+03 0.  0.
<mgrwt>
<rscale>  0 0.63645547E+03</rscale>
<asrwt>0</asrwt>
<pdfrwt beam="1">  1        2 0.24083363E+00 0.63645547E+03</pdfrwt>
<pdfrwt beam="2">  1       -2 0.99525006E-02 0.63645547E+03</pdfrwt>
<totfact> 0.82211612E+02</totfact>
</mgrwt>
</event>
<event>
 4    1  0.1751735E-005  0.1090636E+04  0.7818608E-02  0.9214367E-01
         -2   -1    0    0    0  501 -0.00000000000E+00  0.00000000000E+00  0.14561581842E+03  0.14561581845E+03  0.25500000000E-02 0. -1.
          2   -1    0    0  501    0  0.00000000000E+00 -0.00000000000E+00 -0.20421654688E+04  0.20421654688E+04  0.25500000000E-02 0.  1.
   -5000001    1    1    2    0    0  0.42597969665E+03 -0.17894554982E+03 -0.65488597073E+03  0.83955693459E+03  0.25000000000E+03 0.  0.
    5000001    1    1    2    0    0 -0.42597969665E+03  0.17894554982E+03 -0.12416636796E+04  0.13482243526E+04  0.25000000000E+03 0.  0.
<mgrwt>
<rscale>  0 0.10906358E+04</rscale>
<asrwt>0</asrwt>
<pdfrwt beam="1">  1        2 0.31417928E+00 0.10906358E+04</pdfrwt>
<pdfrwt beam="2">  1       -2 0.22402435E-01 0.10906358E+04</pdfrwt>
<totfact> 0.11021282E+02</totfact>
</mgrwt>
</event>
<event>
 4    1  0.1751735E-005  0.1105132E+04  0.7818608E-02  0.9200204E-01
         -2   -1    0    0    0  501 -0.00000000000E+00  0.00000000000E+00  0.13089255263E+03  0.13089255266E+03  0.25500000000E-02 0. -1.
          2   -1    0    0  501    0  0.00000000000E+00 -0.00000000000E+00 -0.23326708271E+04  0.23326708271E+04  0.25500000000E-02 0.  1.
   -5000001    1    1    2    0    0  0.27953948429E+03  0.31902414316E+02 -0.20027363393E+04  0.20377960967E+04  0.25000000000E+03 0.  0.
    5000001    1    1    2    0    0 -0.27953948429E+03 -0.31902414316E+02 -0.19904193521E+03  0.42576728302E+03  0.25000000000E+03 0.  0.
<mgrwt>
<rscale>  0 0.11051321E+04</rscale>
<asrwt>0</asrwt>
<pdfrwt beam="1">  1        2 0.35887240E+00 0.11051321E+04</pdfrwt>
<pdfrwt beam="2">  1       -2 0.20137318E-01 0.11051321E+04</pdfrwt>
<totfact> 0.91609030E+01</totfact>
</mgrwt>
</event>
<event>
 4    1  0.1751735E-005  0.9180490E+03  0.7818608E-02  0.9403296E-01
         -2   -1    0    0    0  501 -0.00000000000E+00  0.00000000000E+00  0.17531095712E+03  0.17531095714E+03  0.25500000000E-02 0. -1.
          2   -1    0    0  501    0  0.00000000000E+00 -0.00000000000E+00 -0.12018842700E+04  0.12018842700E+04  0.25500000000E-02 0.  1.
   -5000001    1    1    2    0    0 -0.20711303367E+03 -0.18046233958E+03 -0.10869274628E+03  0.38700979033E+03  0.25000000000E+03 0.  0.
    5000001    1    1    2    0    0  0.20711303367E+03  0.18046233958E+03 -0.91788056655E+03  0.99018543676E+03  0.25000000000E+03 0.  0.
<mgrwt>
<rscale>  0 0.91804898E+03</rscale>
<asrwt>0</asrwt>
<pdfrwt beam="1">  1        2 0.18490527E+00 0.91804898E+03</pdfrwt>
<pdfrwt beam="2">  1       -2 0.26970917E-01 0.91804898E+03</pdfrwt>
<totfact> 0.23604869E+02</totfact>
</mgrwt>
</event>
<event>
 4    1  0.1751735E-005  0.5472779E+03  0.7818608E-02  0.1002126E+00
          2   -1    0    0  501    0  0.00000000000E+00  0.00000000000E+00  0.39599811889E+03  0.39599811890E+03  0.25500000000E-02 0.  1.
         -2   -1    0    0    0  501 -0.00000000000E+00 -0.00000000000E+00 -0.18908745979E+03  0.18908745981E+03  0.25500000000E-02 0. -1.
   -5000001    1    1    2    0    0  0.99165045142E+02  0.50406658994E+02  0.10138756072E+03  0.29181154007E+03  0.25000000000E+03 0.  0.
    5000001    1    1    2    0    0 -0.99165045142E+02 -0.50406658994E+02  0.10552309837E+03  0.29327403864E+03  0.25000000000E+03 0.  0.
<mgrwt>
<rscale>  0 0.54727791E+03</rscale>
<asrwt>0</asrwt>
<pdfrwt beam="1">  1        2 0.60922787E-01 0.54727791E+03</pdfrwt>
<pdfrwt beam="2">  1       -2 0.29090379E-01 0.54727791E+03</pdfrwt>
<totfact> 0.87629071E+02</totfact>
</mgrwt>
</event>
<event>
 4    1  0.1751735E-005  0.8355531E+03  0.7818608E-02  0.9509935E-01
          2   -1    0    0  501    0  0.00000000000E+00  0.00000000000E+00  0.10408849708E+04  0.10408849708E+04  0.25500000000E-02 0.  1.
         -2   -1    0    0    0  501 -0.00000000000E+00 -0.00000000000E+00 -0.16768158102E+03  0.16768158104E+03  0.25500000000E-02 0. -1.
   -5000001    1    1    2    0    0 -0.14971945297E+03 -0.24835675086E+03  0.19482655198E+03  0.42959792324E+03  0.25000000000E+03 0.  0.
    5000001    1    1    2    0    0  0.14971945297E+03  0.24835675086E+03  0.67837683775E+03  0.77896862857E+03  0.25000000000E+03 0.  0.
<mgrwt>
<rscale>  0 0.83555308E+03</rscale>
<asrwt>0</asrwt>
<pdfrwt beam="1">  1        2 0.16013615E+00 0.83555308E+03</pdfrwt>
<pdfrwt beam="2">  1       -2 0.25797166E-01 0.83555308E+03</pdfrwt>
<totfact> 0.32235565E+02</totfact>
</mgrwt>
</event>
<event>
 4    1  0.1751735E-005  0.6253106E+03  0.7818608E-02  0.9854243E-01
          2   -1    0    0  501    0  0.00000000000E+00  0.00000000000E+00  0.49449933103E+03  0.49449933103E+03  0.25500000000E-02 0.  1.
         -2   -1    0    0    0  501 -0.00000000000E+00 -0.00000000000E+00 -0.19768144616E+03  0.19768144617E+03  0.25500000000E-02 0. -1.
   -5000001    1    1    2    0    0 -0.16848191390E+03 -0.38337648966E+02  0.22973252916E+03  0.38096320767E+03  0.25000000000E+03 0.  0.
    5000001    1    1    2    0    0  0.16848191390E+03  0.38337648966E+02  0.67085355709E+02  0.31121756954E+03  0.25000000000E+03 0.  0.
<mgrwt>
<rscale>  0 0.62531062E+03</rscale>
<asrwt>0</asrwt>
<pdfrwt beam="1">  1        2 0.76076819E-01 0.62531062E+03</pdfrwt>
<pdfrwt beam="2">  1       -2 0.30412531E-01 0.62531062E+03</pdfrwt>
<totfact> 0.62717285E+02</totfact>
</mgrwt>
</event>
<event>
 4    1  0.1751735E-005  0.1263420E+04  0.7818608E-02  0.9059087E-01
         -2   -1    0    0    0  501 -0.00000000000E+00  0.00000000000E+00  0.18207103083E+04  0.18207103083E+04  0.25500000000E-02 0. -1.
          2   -1    0    0  501    0  0.00000000000E+00 -0.00000000000E+00 -0.21917693224E+03  0.21917693225E+03  0.25500000000E-02 0.  1.
   -5000001    1    1    2    0    0 -0.40089980899E+03  0.33308959015E+03  0.12120506210E+04  0.13428462457E+04  0.25000000000E+03 0.  0.
    5000001    1    1    2    0    0  0.40089980899E+03 -0.33308959015E+03  0.38948275508E+03  0.69704099479E+03  0.25000000000E+03 0.  0.
<mgrwt>
<rscale>  0 0.12634203E+04</rscale>
<asrwt>0</asrwt>
<pdfrwt beam="1">  1        2 0.33719529E-01 0.12634203E+04</pdfrwt>
<pdfrwt beam="2">  1       -2 0.28010927E+00 0.12634203E+04</pdfrwt>
<totfact> 0.64784688E+00</totfact>
</mgrwt>
</event>
<event>
 4    1  0.1751735E-005  0.1311432E+04  0.7818608E-02  0.9020549E-01
         -2   -1    0    0    0  501 -0.00000000000E+00  0.00000000000E+00  0.32273233810E+03  0.32273233811E+03  0.25500000000E-02 0. -1.
          2   -1    0    0  501    0  0.00000000000E+00 -0.00000000000E+00 -0.13322597175E+04  0.13322597175E+04  0.25500000000E-02 0.  1.
   -5000001    1    1    2    0    0 -0.54940342818E+03  0.44732177774E+01 -0.82798453108E+03  0.10246572697E+04  0.25000000000E+03 0.  0.
    5000001    1    1    2    0    0  0.54940342818E+03 -0.44732177774E+01 -0.18154284831E+03  0.63033478593E+03  0.25000000000E+03 0.  0.
<mgrwt>
<rscale>  0 0.13114317E+04</rscale>
<asrwt>0</asrwt>
<pdfrwt beam="1">  1        2 0.20496303E+00 0.13114317E+04</pdfrwt>
<pdfrwt beam="2">  1       -2 0.49651130E-01 0.13114317E+04</pdfrwt>
<totfact> 0.59506790E+01</totfact>
</mgrwt>
</event>
<event>
 4    1  0.1751735E-005  0.6044659E+03  0.7818608E-02  0.9896184E-01
         -2   -1    0    0    0  501 -0.00000000000E+00  0.00000000000E+00  0.18145014596E+03  0.18145014597E+03  0.25500000000E-02 0. -1.
          2   -1    0    0  501    0  0.00000000000E+00 -0.00000000000E+00 -0.50341511458E+03  0.50341511459E+03  0.25500000000E-02 0.  1.
   -5000001    1    1    2    0    0  0.10565927245E+03 -0.13260871610E+03 -0.14989330770E+03  0.33721944952E+03  0.25000000000E+03 0.  0.
    5000001    1    1    2    0    0 -0.10565927245E+03  0.13260871610E+03 -0.17207166093E+03  0.34764581104E+03  0.25000000000E+03 0.  0.
<mgrwt>
<rscale>  0 0.60446587E+03</rscale>
<asrwt>0</asrwt>
<pdfrwt beam="1">  1        2 0.77448479E-01 0.60446587E+03</pdfrwt>
<pdfrwt beam="2">  1       -2 0.27915407E-01 0.60446587E+03</pdfrwt>
<totfact> 0.71962263E+02</totfact>
</mgrwt>
</event>
<event>
 4    1  0.1751735E-005  0.9423814E+03  0.7818608E-02  0.9374100E-01
          2   -1    0    0  501    0  0.00000000000E+00  0.00000000000E+00  0.71182362055E+03  0.71182362055E+03  0.25500000000E-02 0.  1.
         -2   -1    0    0    0  501 -0.00000000000E+00 -0.00000000000E+00 -0.31190409028E+03  0.31190409029E+03  0.25500000000E-02 0. -1.
   -5000001    1    1    2    0    0 -0.28719905477E+03 -0.17147247745E+03 -0.37133355136E+02  0.41924335850E+03  0.25000000000E+03 0.  0.
    5000001    1    1    2    0    0  0.28719905477E+03  0.17147247745E+03  0.43705288541E+03  0.60448435234E+03  0.25000000000E+03 0.  0.
<mgrwt>
<rscale>  0 0.94238145E+03</rscale>
<asrwt>0</asrwt>
<pdfrwt beam="1">  1        2 0.10951132E+00 0.94238145E+03</pdfrwt>
<pdfrwt beam="2">  1       -2 0.47985245E-01 0.94238145E+03</pdfrwt>
<totfact> 0.16523098E+02</totfact>
</mgrwt>
</event>
<event>
 4    1  0.1751735E-005  0.1157122E+04  0.7818608E-02  0.9151238E-01
         -2   -1    0    0    0  501 -0.00000000000E+00  0.00000000000E+00  0.44253353673E+03  0.44253353674E+03  0.25500000000E-02 0. -1.
          2   -1    0    0  501    0  0.00000000000E+00 -0.00000000000E+00 -0.75640090047E+03  0.75640090048E+03  0.25500000000E-02 0.  1.
   -5000001    1    1    2    0    0 -0.51399437852E+03 -0.88170185085E+02 -0.13995361455E+03  0.59502203062E+03  0.25000000000E+03 0.  0.
    5000001    1    1    2    0    0  0.51399437852E+03  0.88170185085E+02 -0.17391374919E+03  0.60391240660E+03  0.25000000000E+03 0.  0.
<mgrwt>
<rscale>  0 0.11571219E+04</rscale>
<asrwt>0</asrwt>
<pdfrwt beam="1">  1        2 0.11636937E+00 0.11571219E+04</pdfrwt>
<pdfrwt beam="2">  1       -2 0.68082083E-01 0.11571219E+04</pdfrwt>
<totfact> 0.72508404E+01</totfact>
</mgrwt>
</event>
<event>
 4    1  0.1751735E-005  0.9110074E+03  0.7818608E-02  0.9411925E-01
         -2   -1    0    0    0  501 -0.00000000000E+00  0.00000000000E+00  0.91428805581E+02  0.91428805617E+02  0.25500000000E-02 0. -1.
          2   -1    0    0  501    0  0.00000000000E+00 -0.00000000000E+00 -0.22693460857E+04  0.22693460857E+04  0.25500000000E-02 0.  1.
   -5000001    1    1    2    0    0  0.19021306613E+03  0.26675620272E+03 -0.15917397575E+04  0.16442248440E+04  0.25000000000E+03 0.  0.
    5000001    1    1    2    0    0 -0.19021306613E+03 -0.26675620272E+03 -0.58617752267E+03  0.71655004731E+03  0.25000000000E+03 0.  0.
<mgrwt>
<rscale>  0 0.91100736E+03</rscale>
<asrwt>0</asrwt>
<pdfrwt beam="1">  1        2 0.34913012E+00 0.91100736E+03</pdfrwt>
<pdfrwt beam="2">  1       -2 0.14065972E-01 0.91100736E+03</pdfrwt>
<totfact> 0.18729252E+02</totfact>
</mgrwt>
</event>
<event>
 4    1  0.1751735E-005  0.7131433E+03  0.7818608E-02  0.9695016E-01
         -2   -1    0    0    0  501 -0.00000000000E+00  0.00000000000E+00  0.16268359281E+03  0.16268359283E+03  0.25500000000E-02 0. -1.
          2   -1    0    0  501    0  0.00000000000E+00 -0.00000000000E+00 -0.78153759670E+03  0.78153759671E+03  0.25500000000E-02 0.  1.
   -5000001    1    1    2    0    0  0.17570848941E+03  0.12372826981E+03 -0.48932516652E+03  0.59001803073E+03  0.25000000000E+03 0.  0.
    5000001    1    1    2    0    0 -0.17570848941E+03 -0.12372826981E+03 -0.12952883737E+03  0.35420315881E+03  0.25000000000E+03 0.  0.
<mgrwt>
<rscale>  0 0.71314331E+03</rscale>
<asrwt>0</asrwt>
<pdfrwt beam="1">  1        2 0.12023655E+00 0.71314331E+03</pdfrwt>
<pdfrwt beam="2">  1       -2 0.25028245E-01 0.71314331E+03</pdfrwt>
<totfact> 0.51119245E+02</totfact>
</mgrwt>
</event>
<event>
 4    1  0.1751735E-005  0.6094041E+03  0.7818608E-02  0.9886085E-01
         -2   -1    0    0    0  501 -0.00000000000E+00  0.00000000000E+00  0.28533230347E+02  0.28533230461E+02  0.25500000000E-02 0.  1.
          2   -1    0    0  501    0  0.00000000000E+00 -0.00000000000E+00 -0.32538669560E+04  0.32538669560E+04  0.25500000000E-02 0. -1.
   -5000001    1    1    2    0    0  0.11280419510E+03  0.12638093908E+03 -0.13941148474E+04  0.14264477333E+04  0.25000000000E+03 0.  0.
    5000001    1    1    2    0    0 -0.11280419510E+03 -0.12638093908E+03 -0.18312188783E+04  0.18559524531E+04  0.25000000000E+03 0.  0.
<mgrwt>
<rscale>  0 0.60940409E+03</rscale>
<asrwt>0</asrwt>
<pdfrwt beam="1">  1        2 0.50059462E+00 0.60940409E+03</pdfrwt>
<pdfrwt beam="2">  1       -2 0.43897303E-02 0.60940409E+03</pdfrwt>
<totfact> 0.32728723E+02</totfact>
</mgrwt>
</event>
<event>
 4    1  0.1751735E-005  0.1961234E+04  0.7818608E-02  0.8624962E-01
          2   -1    0    0  501    0  0.00000000000E+00  0.00000000000E+00  0.87650438615E+03  0.87650438615E+03  0.25500000000E-02 0.  1.
         -2   -1    0    0    0  501 -0.00000000000E+00 -0.00000000000E+00 -0.10970965610E+04  0.10970965610E+04  0.25500000000E-02 0. -1.
   -5000001    1    1    2    0    0  0.32407522929E+03 -0.48540452105E+03 -0.86231520968E+03  0.10708547166E+04  0.25000000000E+03 0.  0.
    5000001    1    1    2    0    0 -0.32407522929E+03  0.48540452105E+03  0.64172303483E+03  0.90274623052E+03  0.25000000000E+03 0.  0.
<mgrwt>
<rscale>  0 0.19612343E+04</rscale>
<asrwt>0</asrwt>
<pdfrwt beam="1">  1        2 0.13484683E+00 0.19612343E+04</pdfrwt>
<pdfrwt beam="2">  1       -2 0.16878409E+00 0.19612343E+04</pdfrwt>
<totfact> 0.61630420E+00</totfact>
</mgrwt>
</event>
<event>
 4    1  0.1751735E-005  0.7044087E+03  0.7818608E-02  0.9709722E-01
         -2   -1    0    0    0  501 -0.00000000000E+00  0.00000000000E+00  0.15431098617E+03  0.15431098619E+03  0.25500000000E-02 0.  1.
          2   -1    0    0  501    0  0.00000000000E+00 -0.00000000000E+00 -0.80388257042E+03  0.80388257043E+03  0.25500000000E-02 0. -1.
   -5000001    1    1    2    0    0 -0.24180381199E+03  0.53587475689E+02 -0.34436680303E+03  0.49237099434E+03  0.25000000000E+03 0.  0.
    5000001    1    1    2    0    0  0.24180381199E+03 -0.53587475689E+02 -0.30520478122E+03  0.46582256228E+03  0.25000000000E+03 0.  0.
<mgrwt>
<rscale>  0 0.70440872E+03</rscale>
<asrwt>0</asrwt>
<pdfrwt beam="1">  1        2 0.12367424E+00 0.70440872E+03</pdfrwt>
<pdfrwt beam="2">  1       -2 0.23740152E-01 0.70440872E+03</pdfrwt>
<totfact> 0.54172810E+02</totfact>
</mgrwt>
</event>
<event>
 4    1  0.1751735E-005  0.7558890E+03  0.7818608E-02  0.9626156E-01
          2   -1    0    0  501    0  0.00000000000E+00  0.00000000000E+00  0.15571594930E+04  0.15571594930E+04  0.25500000000E-02 0.  1.
         -2   -1    0    0    0  501 -0.00000000000E+00 -0.00000000000E+00 -0.91732452252E+02  0.91732452287E+02  0.25500000000E-02 0. -1.
   -5000001    1    1    2    0    0  0.14335056886E+03 -0.51694738635E+01  0.12660006016E+04  0.12983965620E+04  0.25000000000E+03 0.  0.
    5000001    1    1    2    0    0 -0.14335056886E+03  0.51694738635E+01  0.19942643915E+03  0.35049538326E+03  0.25000000000E+03 0.  0.
<mgrwt>
<rscale>  0 0.75588904E+03</rscale>
<asrwt>0</asrwt>
<pdfrwt beam="1">  1        2 0.23956298E+00 0.75588904E+03</pdfrwt>
<pdfrwt beam="2">  1       -2 0.14112686E-01 0.75588904E+03</pdfrwt>
<totfact> 0.46373430E+02</totfact>
</mgrwt>
</event>
<event>
 4    1  0.1751735E-005  0.5514591E+03  0.7818608E-02  0.1001157E+00
          2   -1    0    0  501    0  0.00000000000E+00  0.00000000000E+00  0.19127576238E+04  0.19127576238E+04  0.25500000000E-02 0.  1.
         -2   -1    0    0    0  501 -0.00000000000E+00 -0.00000000000E+00 -0.39747214818E+02  0.39747214900E+02  0.25500000000E-02 0. -1.
   -5000001    1    1    2    0    0  0.18981410826E+02  0.11297902698E+03  0.86549544218E+03  0.90813375388E+03  0.25000000000E+03 0.  0.
    5000001    1    1    2    0    0 -0.18981410826E+02 -0.11297902698E+03  0.10075149668E+04  0.10443710848E+04  0.25000000000E+03 0.  0.
<mgrwt>
<rscale>  0 0.55145911E+03</rscale>
<asrwt>0</asrwt>
<pdfrwt beam="1">  1        2 0.29427041E+00 0.55145911E+03</pdfrwt>
<pdfrwt beam="2">  1       -2 0.61149560E-02 0.55145911E+03</pdfrwt>
<totfact> 0.11622057E+03</totfact>
</mgrwt>
</event>
<event>
 4    1  0.1751735E-005  0.8367953E+03  0.7818608E-02  0.9508233E-01
         -2   -1    0    0    0  501 -0.00000000000E+00  0.00000000000E+00  0.34147013456E+03  0.34147013457E+03  0.25500000000E-02 0. -1.
          2   -1    0    0  501    0  0.00000000000E+00 -0.00000000000E+00 -0.51265562781E+03  0.51265562782E+03  0.25500000000E-02 0.  1.
   -5000001    1    1    2    0    0  0.16675056161E+03  0.20328307337E+03 -0.29829968424E+03  0.46969400607E+03  0.25000000000E+03 0.  0.
    5000001    1    1    2    0    0 -0.16675056161E+03 -0.20328307337E+03  0.12711419098E+03  0.38443175632E+03  0.25000000000E+03 0.  0.
<mgrwt>
<rscale>  0 0.83679528E+03</rscale>
<asrwt>0</asrwt>
<pdfrwt beam="1">  1        2 0.78870097E-01 0.83679528E+03</pdfrwt>
<pdfrwt beam="2">  1       -2 0.52533866E-01 0.83679528E+03</pdfrwt>
<totfact> 0.20572334E+02</totfact>
</mgrwt>
</event>
<event>
 4    1  0.1751735E-005  0.7460355E+03  0.7818608E-02  0.9641591E-01
          2   -1    0    0  501    0  0.00000000000E+00  0.00000000000E+00  0.15708411076E+04  0.15708411076E+04  0.25500000000E-02 0.  1.
         -2   -1    0    0    0  501 -0.00000000000E+00 -0.00000000000E+00 -0.88578168981E+02  0.88578169018E+02  0.25500000000E-02 0. -1.
   -5000001    1    1    2    0    0  0.27359554499E+03 -0.17474665003E+02  0.82677035412E+03  0.90620588422E+03  0.25000000000E+03 0.  0.
    5000001    1    1    2    0    0 -0.27359554499E+03  0.17474665003E+02  0.65549258452E+03  0.75321339242E+03  0.25000000000E+03 0.  0.
<mgrwt>
<rscale>  0 0.74603547E+03</rscale>
<asrwt>0</asrwt>
<pdfrwt beam="1">  1        2 0.24166785E+00 0.74603547E+03</pdfrwt>
<pdfrwt beam="2">  1       -2 0.13627411E-01 0.74603547E+03</pdfrwt>
<totfact> 0.48355818E+02</totfact>
</mgrwt>
</event>
<event>
 4    1  0.1751735E-005  0.6375675E+03  0.7818608E-02  0.9830392E-01
         -2   -1    0    0    0  501 -0.00000000000E+00  0.00000000000E+00  0.10610022471E+03  0.10610022475E+03  0.25500000000E-02 0. -1.
          2   -1    0    0  501    0  0.00000000000E+00 -0.00000000000E+00 -0.95780265629E+03  0.95780265629E+03  0.25500000000E-02 0.  1.
   -5000001    1    1    2    0    0 -0.85535767672E+02 -0.91037284242E+02 -0.68175960811E+03  0.73681769654E+03  0.25000000000E+03 0.  0.
    5000001    1    1    2    0    0  0.85535767672E+02  0.91037284242E+02 -0.16994282346E+03  0.32708518450E+03  0.25000000000E+03 0.  0.
<mgrwt>
<rscale>  0 0.63756749E+03</rscale>
<asrwt>0</asrwt>
<pdfrwt beam="1">  1        2 0.14735425E+00 0.63756749E+03</pdfrwt>
<pdfrwt beam="2">  1       -2 0.16323112E-01 0.63756749E+03</pdfrwt>
<totfact> 0.81999631E+02</totfact>
</mgrwt>
</event>
<event>
 4    1  0.1751735E-005  0.1051343E+04  0.7818608E-02  0.9253959E-01
         -2   -1    0    0    0  501 -0.00000000000E+00  0.00000000000E+00  0.26964964530E+03  0.26964964531E+03  0.25500000000E-02 0. -1.
          2   -1    0    0  501    0  0.00000000000E+00 -0.00000000000E+00 -0.10247760623E+04  0.10247760623E+04  0.25500000000E-02 0.  1.
   -5000001    1    1    2    0    0 -0.43274255962E+03 -0.14527421925E+03 -0.46853783772E+03  0.70028453293E+03  0.25000000000E+03 0.  0.
    5000001    1    1    2    0    0  0.43274255962E+03  0.14527421925E+03 -0.28658857929E+03  0.59414117469E+03  0.25000000000E+03 0.  0.
<mgrwt>
<rscale>  0 0.10513430E+04</rscale>
<asrwt>0</asrwt>
<pdfrwt beam="1">  1        2 0.15765785E+00 0.10513430E+04</pdfrwt>
<pdfrwt beam="2">  1       -2 0.41484561E-01 0.10513430E+04</pdfrwt>
<totfact> 0.13301432E+02</totfact>
</mgrwt>
</event>
<event>
 4    1  0.1751735E-005  0.1724367E+04  0.7818608E-02  0.8747588E-01
          2   -1    0    0  501    0  0.00000000000E+00  0.00000000000E+00  0.24178622550E+04  0.24178622550E+04  0.25500000000E-02 0.  1.
         -2   -1    0    0    0  501 -0.00000000000E+00 -0.00000000000E+00 -0.30744527950E+03  0.30744527951E+03  0.25500000000E-02 0. -1.
   -5000001    1    1    2    0    0  0.47072958533E+03  0.65858459415E+03  0.13077885420E+04  0.15582460912E+04  0.25000000000E+03 0.  0.
    5000001    1    1    2    0    0 -0.47072958533E+03 -0.65858459415E+03  0.80262843346E+03  0.11670614433E+04  0.25000000000E+03 0.  0.
<mgrwt>
<rscale>  0 0.17243669E+04</rscale>
<asrwt>0</asrwt>
<pdfrwt beam="1">  1        2 0.37197879E+00 0.17243669E+04</pdfrwt>
<pdfrwt beam="2">  1       -2 0.47299277E-01 0.17243669E+04</pdfrwt>
<totfact> 0.15640121E+01</totfact>
</mgrwt>
</event>
<event>
 4    1  0.1751735E-005  0.6340046E+03  0.7818608E-02  0.9837265E-01
         -2   -1    0    0    0  501 -0.00000000000E+00  0.00000000000E+00  0.98378692247E+02  0.98378692280E+02  0.25500000000E-02 0.  1.
          2   -1    0    0  501    0  0.00000000000E+00 -0.00000000000E+00 -0.10214655402E+04  0.10214655402E+04  0.25500000000E-02 0. -1.
   -5000001    1    1    2    0    0  0.55215150452E+02 -0.14004397052E+03 -0.68023299158E+03  0.74018777979E+03  0.25000000000E+03 0.  0.
    5000001    1    1    2    0    0 -0.55215150452E+02  0.14004397052E+03 -0.24285385639E+03  0.37965645271E+03  0.25000000000E+03 0.  0.
<mgrwt>
<rscale>  0 0.63400456E+03</rscale>
<asrwt>0</asrwt>
<pdfrwt beam="1">  1        2 0.15714854E+00 0.63400456E+03</pdfrwt>
<pdfrwt beam="2">  1       -2 0.15135184E-01 0.63400456E+03</pdfrwt>
<totfact> 0.84895183E+02</totfact>
</mgrwt>
</event>
<event>
 4    1  0.1751735E-005  0.6110670E+03  0.7818608E-02  0.9882708E-01
         -2   -1    0    0    0  501 -0.00000000000E+00  0.00000000000E+00  0.98200859546E+02  0.98200859579E+02  0.25500000000E-02 0. -1.
          2   -1    0    0  501    0  0.00000000000E+00 -0.00000000000E+00 -0.95061002342E+03  0.95061002342E+03  0.25500000000E-02 0.  1.
   -5000001    1    1    2    0    0  0.62433976585E+02  0.13092801755E+03 -0.25620198188E+03  0.38623775415E+03  0.25000000000E+03 0.  0.
    5000001    1    1    2    0    0 -0.62433976585E+02 -0.13092801755E+03 -0.59620718200E+03  0.66257312885E+03  0.25000000000E+03 0.  0.
<mgrwt>
<rscale>  0 0.61106701E+03</rscale>
<asrwt>0</asrwt>
<pdfrwt beam="1">  1        2 0.14624769E+00 0.61106701E+03</pdfrwt>
<pdfrwt beam="2">  1       -2 0.15107825E-01 0.61106701E+03</pdfrwt>
<totfact> 0.94567339E+02</totfact>
</mgrwt>
</event>
<event>
 4    1  0.1751735E-005  0.6166143E+03  0.7818608E-02  0.9871524E-01
         -2   -1    0    0    0  501 -0.00000000000E+00  0.00000000000E+00  0.16974553850E+03  0.16974553852E+03  0.25500000000E-02 0. -1.
          2   -1    0    0  501    0  0.00000000000E+00 -0.00000000000E+00 -0.55997524162E+03  0.55997524163E+03  0.25500000000E-02 0.  1.
   -5000001    1    1    2    0    0  0.14986875201E+03 -0.55152070541E+02 -0.29448720143E+03  0.41800132239E+03  0.25000000000E+03 0.  0.
    5000001    1    1    2    0    0 -0.14986875201E+03  0.55152070541E+02 -0.95742501688E+02  0.31171945776E+03  0.25000000000E+03 0.  0.
<mgrwt>
<rscale>  0 0.61661430E+03</rscale>
<asrwt>0</asrwt>
<pdfrwt beam="1">  1        2 0.86150037E-01 0.61661430E+03</pdfrwt>
<pdfrwt beam="2">  1       -2 0.26114698E-01 0.61661430E+03</pdfrwt>
<totfact> 0.71730025E+02</totfact>
</mgrwt>
</event>
<event>
 4    1  0.1751735E-005  0.9946566E+03  0.7818608E-02  0.9314425E-01
         -2   -1    0    0    0  501 -0.00000000000E+00  0.00000000000E+00  0.36721233574E+03  0.36721233575E+03  0.25500000000E-02 0.  1.
          2   -1    0    0  501    0  0.00000000000E+00 -0.00000000000E+00 -0.67354884475E+03  0.67354884476E+03  0.25500000000E-02 0. -1.
   -5000001    1    1    2    0    0  0.11517376040E+02 -0.41737721232E+03 -0.45953868779E+02  0.48882322507E+03  0.25000000000E+03 0.  0.
    5000001    1    1    2    0    0 -0.11517376040E+02  0.41737721232E+03 -0.26038264023E+03  0.55193795543E+03  0.25000000000E+03 0.  0.
<mgrwt>
<rscale>  0 0.99465661E+03</rscale>
<asrwt>0</asrwt>
<pdfrwt beam="1">  1        2 0.10362290E+00 0.99465661E+03</pdfrwt>
<pdfrwt beam="2">  1       -2 0.56494205E-01 0.99465661E+03</pdfrwt>
<totfact> 0.12633331E+02</totfact>
</mgrwt>
</event>
<event>
 4    1  0.1751735E-005  0.6863337E+03  0.7818608E-02  0.9740893E-01
         -2   -1    0    0    0  501 -0.00000000000E+00  0.00000000000E+00  0.76929879260E+02  0.76929879303E+02  0.25500000000E-02 0. -1.
          2   -1    0    0  501    0  0.00000000000E+00 -0.00000000000E+00 -0.15307901581E+04  0.15307901581E+04  0.25500000000E-02 0.  1.
   -5000001    1    1    2    0    0  0.28688368059E+00  0.15745950655E+03 -0.31803612321E+03  0.43409740171E+03  0.25000000000E+03 0.  0.
    5000001    1    1    2    0    0 -0.28688368059E+00 -0.15745950655E+03 -0.11358241556E+04  0.11736226357E+04  0.25000000000E+03 0.  0.
<mgrwt>
<rscale>  0 0.68633374E+03</rscale>
<asrwt>0</asrwt>
<pdfrwt beam="1">  1        2 0.23550616E+00 0.68633374E+03</pdfrwt>
<pdfrwt beam="2">  1       -2 0.11835367E-01 0.68633374E+03</pdfrwt>
<totfact> 0.64533987E+02</totfact>
</mgrwt>
</event>
<event>
 4    1  0.1751735E-005  0.9390427E+03  0.7818608E-02  0.9378050E-01
          2   -1    0    0  501    0  0.00000000000E+00  0.00000000000E+00  0.11559716811E+04  0.11559716811E+04  0.25500000000E-02 0.  1.
         -2   -1    0    0    0  501 -0.00000000000E+00 -0.00000000000E+00 -0.19070560699E+03  0.19070560701E+03  0.25500000000E-02 0. -1.
   -5000001    1    1    2    0    0  0.33176655452E+02  0.39576910549E+03  0.50372964602E+03  0.68846018883E+03  0.25000000000E+03 0.  0.
    5000001    1    1    2    0    0 -0.33176655452E+02 -0.39576910549E+03  0.46153642811E+03  0.65821709930E+03  0.25000000000E+03 0.  0.
<mgrwt>
<rscale>  0 0.93904266E+03</rscale>
<asrwt>0</asrwt>
<pdfrwt beam="1">  1        2 0.17784179E+00 0.93904266E+03</pdfrwt>
<pdfrwt beam="2">  1       -2 0.29339325E-01 0.93904266E+03</pdfrwt>
<totfact> 0.21512370E+02</totfact>
</mgrwt>
</event>
<event>
 4    1  0.1751735E-005  0.7255677E+03  0.7818608E-02  0.9674480E-01
          2   -1    0    0  501    0  0.00000000000E+00  0.00000000000E+00  0.69518300519E+03  0.69518300519E+03  0.25500000000E-02 0.  1.
         -2   -1    0    0    0  501 -0.00000000000E+00 -0.00000000000E+00 -0.18932009002E+03  0.18932009004E+03  0.25500000000E-02 0. -1.
   -5000001    1    1    2    0    0  0.25920678019E+03 -0.39369220916E+02  0.22935556828E+03  0.42876808085E+03  0.25000000000E+03 0.  0.
    5000001    1    1    2    0    0 -0.25920678019E+03  0.39369220916E+02  0.27650734688E+03  0.45573501438E+03  0.25000000000E+03 0.  0.
<mgrwt>
<rscale>  0 0.72556767E+03</rscale>
<asrwt>0</asrwt>
<pdfrwt beam="1">  1        2 0.10695123E+00 0.72556767E+03</pdfrwt>
<pdfrwt beam="2">  1       -2 0.29126167E-01 0.72556767E+03</pdfrwt>
<totfact> 0.45035226E+02</totfact>
</mgrwt>
</event>
<event>
 4    1  0.1751735E-005  0.7095759E+03  0.7818608E-02  0.9700995E-01
          2   -1    0    0  501    0  0.00000000000E+00  0.00000000000E+00  0.50986377345E+03  0.50986377345E+03  0.25500000000E-02 0.  1.
         -2   -1    0    0    0  501 -0.00000000000E+00 -0.00000000000E+00 -0.24687868821E+03  0.24687868822E+03  0.25500000000E-02 0. -1.
   -5000001    1    1    2    0    0 -0.12525134547E+03  0.17715925338E+03 -0.46704234844E+01  0.33105152689E+03  0.25000000000E+03 0.  0.
    5000001    1    1    2    0    0  0.12525134547E+03 -0.17715925338E+03  0.26765550872E+03  0.42569093478E+03  0.25000000000E+03 0.  0.
<mgrwt>
<rscale>  0 0.70957593E+03</rscale>
<asrwt>0</asrwt>
<pdfrwt beam="1">  1        2 0.78440579E-01 0.70957593E+03</pdfrwt>
<pdfrwt beam="2">  1       -2 0.37981337E-01 0.70957593E+03</pdfrwt>
<totfact> 0.39680718E+02</totfact>
</mgrwt>
</event>
<event>
 4    1  0.1751735E-005  0.6420454E+03  0.7818608E-02  0.9821821E-01
         -2   -1    0    0    0  501 -0.00000000000E+00  0.00000000000E+00  0.10578909819E+03  0.10578909822E+03  0.25500000000E-02 0. -1.
          2   -1    0    0  501    0  0.00000000000E+00 -0.00000000000E+00 -0.97416077314E+03  0.97416077314E+03  0.25500000000E-02 0.  1.
   -5000001    1    1    2    0    0  0.12061607606E+03  0.15169062164E+03 -0.52627392505E+03  0.61402160115E+03  0.25000000000E+03 0.  0.
    5000001    1    1    2    0    0 -0.12061607606E+03 -0.15169062164E+03 -0.34209774990E+03  0.46592827021E+03  0.25000000000E+03 0.  0.
<mgrwt>
<rscale>  0 0.64204545E+03</rscale>
<asrwt>0</asrwt>
<pdfrwt beam="1">  1        2 0.14987088E+00 0.64204545E+03</pdfrwt>
<pdfrwt beam="2">  1       -2 0.16275247E-01 0.64204545E+03</pdfrwt>
<totfact> 0.80420495E+02</totfact>
</mgrwt>
</event>
<event>
 4    1  0.1751735E-005  0.6673876E+03  0.7818608E-02  0.9774689E-01
          2   -1    0    0  501    0  0.00000000000E+00  0.00000000000E+00  0.24455743876E+04  0.24455743876E+04  0.25500000000E-02 0.  1.
         -2   -1    0    0    0  501 -0.00000000000E+00 -0.00000000000E+00 -0.45531865024E+02  0.45531865095E+02  0.25500000000E-02 0. -1.
   -5000001    1    1    2    0    0  0.42636265160E+01  0.19022033127E+03  0.78021137028E+03  0.84108961190E+03  0.25000000000E+03 0.  0.
    5000001    1    1    2    0    0 -0.42636265160E+01 -0.19022033127E+03  0.16198311523E+04  0.16500166408E+04  0.25000000000E+03 0.  0.
<mgrwt>
<rscale>  0 0.66738763E+03</rscale>
<asrwt>0</asrwt>
<pdfrwt beam="1">  1        2 0.37624224E+00 0.66738763E+03</pdfrwt>
<pdfrwt beam="2">  1       -2 0.70049018E-02 0.66738763E+03</pdfrwt>
<totfact> 0.47492944E+02</totfact>
</mgrwt>
</event>
<event>
 4    1  0.1751735E-005  0.8778793E+03  0.7818608E-02  0.9453664E-01
          2   -1    0    0  501    0  0.00000000000E+00  0.00000000000E+00  0.34258766013E+03  0.34258766014E+03  0.25500000000E-02 0.  1.
         -2   -1    0    0    0  501 -0.00000000000E+00 -0.00000000000E+00 -0.56239043491E+03  0.56239043491E+03  0.25500000000E-02 0. -1.
   -5000001    1    1    2    0    0  0.76779733011E+02 -0.30012281250E+03 -0.30054013714E+03  0.49879174414E+03  0.25000000000E+03 0.  0.
    5000001    1    1    2    0    0 -0.76779733011E+02  0.30012281250E+03  0.80737362373E+02  0.40618635091E+03  0.25000000000E+03 0.  0.
<mgrwt>
<rscale>  0 0.87787932E+03</rscale>
<asrwt>0</asrwt>
<pdfrwt beam="1">  1        2 0.52705794E-01 0.87787932E+03</pdfrwt>
<pdfrwt beam="2">  1       -2 0.86521605E-01 0.87787932E+03</pdfrwt>
<totfact> 0.11003464E+02</totfact>
</mgrwt>
</event>
<event>
 4    1  0.1751735E-005  0.5177510E+03  0.7818608E-02  0.1009247E+00
         -2   -1    0    0    0  501 -0.00000000000E+00  0.00000000000E+00  0.99671946852E+02  0.99671946884E+02  0.25500000000E-02 0. -1.
          2   -1    0    0  501    0  0.00000000000E+00 -0.00000000000E+00 -0.67237095828E+03  0.67237095829E+03  0.25500000000E-02 0.  1.
   -5000001    1    1    2    0    0  0.57586392509E+02 -0.33949099741E+02 -0.29665768594E+03  0.39366802842E+03  0.25000000000E+03 0.  0.
    5000001    1    1    2    0    0 -0.57586392509E+02  0.33949099741E+02 -0.27604132549E+03  0.37837487675E+03  0.25000000000E+03 0.  0.
<mgrwt>
<rscale>  0 0.51775099E+03</rscale>
<asrwt>0</asrwt>
<pdfrwt beam="1">  1        2 0.10344168E+00 0.51775099E+03</pdfrwt>
<pdfrwt beam="2">  1       -2 0.15334146E-01 0.51775099E+03</pdfrwt>
<totfact> 0.14571005E+03</totfact>
</mgrwt>
</event>
<event>
 4    1  0.1751735E-005  0.9980885E+03  0.7818608E-02  0.9310644E-01
          2   -1    0    0  501    0  0.00000000000E+00  0.00000000000E+00  0.50020062905E+03  0.50020062905E+03  0.25500000000E-02 0.  1.
         -2   -1    0    0    0  501 -0.00000000000E+00 -0.00000000000E+00 -0.49789059402E+03  0.49789059402E+03  0.25500000000E-02 0. -1.
   -5000001    1    1    2    0    0 -0.42211406739E+03  0.91168551674E+02  0.84487074485E+01  0.49906249244E+03  0.25000000000E+03 0.  0.
    5000001    1    1    2    0    0  0.42211406739E+03 -0.91168551674E+02 -0.61386724168E+01  0.49902873064E+03  0.25000000000E+03 0.  0.
<mgrwt>
<rscale>  0 0.99808855E+03</rscale>
<asrwt>0</asrwt>
<pdfrwt beam="1">  1        2 0.76953943E-01 0.99808855E+03</pdfrwt>
<pdfrwt beam="2">  1       -2 0.76598553E-01 0.99808855E+03</pdfrwt>
<totfact> 0.93711395E+01</totfact>
</mgrwt>
</event>
<event>
 4    1  0.1751735E-005  0.6615037E+03  0.7818608E-02  0.9785430E-01
          2   -1    0    0  501    0  0.00000000000E+00  0.00000000000E+00  0.20303286160E+04  0.20303286160E+04  0.25500000000E-02 0.  1.
         -2   -1    0    0    0  501 -0.00000000000E+00 -0.00000000000E+00 -0.53881314475E+02  0.53881314536E+02  0.25500000000E-02 0. -1.
   -5000001    1    1    2    0    0 -0.39867621712E+02 -0.10114247767E+03  0.15783212009E+04  0.16016919308E+04  0.25000000000E+03 0.  0.
    5000001    1    1    2    0    0  0.39867621712E+02  0.10114247767E+03  0.39812610062E+03  0.48251799971E+03  0.25000000000E+03 0.  0.
<mgrwt>
<rscale>  0 0.66150367E+03</rscale>
<asrwt>0</asrwt>
<pdfrwt beam="1">  1        2 0.31235821E+00 0.66150367E+03</pdfrwt>
<pdfrwt beam="2">  1       -2 0.82894341E-02 0.66150367E+03</pdfrwt>
<totfact> 0.61561510E+02</totfact>
</mgrwt>
</event>
<event>
 4    1  0.1751735E-005  0.1334338E+04  0.7818608E-02  0.9002769E-01
         -2   -1    0    0    0  501 -0.00000000000E+00  0.00000000000E+00  0.42001956722E+03  0.42001956723E+03  0.25500000000E-02 0. -1.
          2   -1    0    0  501    0  0.00000000000E+00 -0.00000000000E+00 -0.10597471734E+04  0.10597471734E+04  0.25500000000E-02 0.  1.
   -5000001    1    1    2    0    0  0.25836005567E+03 -0.40151695747E+03 -0.75597837439E+03  0.92842290366E+03  0.25000000000E+03 0.  0.
    5000001    1    1    2    0    0 -0.25836005567E+03  0.40151695747E+03  0.11625076817E+03  0.55134383701E+03  0.25000000000E+03 0.  0.
<mgrwt>
<rscale>  0 0.13343381E+04</rscale>
<asrwt>0</asrwt>
<pdfrwt beam="1">  1        2 0.16303803E+00 0.13343381E+04</pdfrwt>
<pdfrwt beam="2">  1       -2 0.64618395E-01 0.13343381E+04</pdfrwt>
<totfact> 0.49907005E+01</totfact>
</mgrwt>
</event>
<event>
 4    1  0.1751735E-005  0.2242142E+04  0.7818608E-02  0.8501090E-01
          2   -1    0    0  501    0  0.00000000000E+00  0.00000000000E+00  0.47597634483E+04  0.47597634483E+04  0.25500000000E-02 0.  1.
         -2   -1    0    0    0  501 -0.00000000000E+00 -0.00000000000E+00 -0.26404668452E+03  0.26404668453E+03  0.25500000000E-02 0. -1.
   -5000001    1    1    2    0    0  0.72347936232E+03  0.76561346465E+03  0.15957103090E+04  0.19283095589E+04  0.25000000000E+03 0.  0.
    5000001    1    1    2    0    0 -0.72347936232E+03 -0.76561346465E+03  0.29000064548E+04  0.30955005739E+04  0.25000000000E+03 0.  0.
<mgrwt>
<rscale>  0 0.22421416E+04</rscale>
<asrwt>0</asrwt>
<pdfrwt beam="1">  1        2 0.73227124E+00 0.22421416E+04</pdfrwt>
<pdfrwt beam="2">  1       -2 0.40622570E-01 0.22421416E+04</pdfrwt>
<totfact> 0.34982191E-01</totfact>
</mgrwt>
</event>
<event>
 4    1  0.1751735E-005  0.7941396E+03  0.7818608E-02  0.9568539E-01
         -2   -1    0    0    0  501 -0.00000000000E+00  0.00000000000E+00  0.56738049309E+03  0.56738049310E+03  0.25500000000E-02 0. -1.
          2   -1    0    0  501    0  0.00000000000E+00 -0.00000000000E+00 -0.27788129493E+03  0.27788129494E+03  0.25500000000E-02 0.  1.
   -5000001    1    1    2    0    0 -0.18532844986E+03  0.12129048576E+03  0.37329634213E+03  0.50090735203E+03  0.25000000000E+03 0.  0.
    5000001    1    1    2    0    0  0.18532844986E+03 -0.12129048576E+03 -0.83797143970E+02  0.34435443601E+03  0.25000000000E+03 0.  0.
<mgrwt>
<rscale>  0 0.79413960E+03</rscale>
<asrwt>0</asrwt>
<pdfrwt beam="1">  1        2 0.42750968E-01 0.79413960E+03</pdfrwt>
<pdfrwt beam="2">  1       -2 0.87289307E-01 0.79413960E+03</pdfrwt>
<totfact> 0.13662769E+02</totfact>
</mgrwt>
</event>
<event>
 4    1  0.1751735E-005  0.6750324E+03  0.7818608E-02  0.9760909E-01
         -2   -1    0    0    0  501 -0.00000000000E+00  0.00000000000E+00  0.10284763225E+03  0.10284763228E+03  0.25500000000E-02 0. -1.
          2   -1    0    0  501    0  0.00000000000E+00 -0.00000000000E+00 -0.11076304778E+04  0.11076304778E+04  0.25500000000E-02 0.  1.
   -5000001    1    1    2    0    0 -0.37192706690E+02 -0.15737661092E+03 -0.21735215605E+03  0.36863620934E+03  0.25000000000E+03 0.  0.
    5000001    1    1    2    0    0  0.37192706690E+02  0.15737661092E+03 -0.78743068953E+03  0.84184190078E+03  0.25000000000E+03 0.  0.
<mgrwt>
<rscale>  0 0.67503236E+03</rscale>
<asrwt>0</asrwt>
<pdfrwt beam="1">  1        2 0.17040468E+00 0.67503236E+03</pdfrwt>
<pdfrwt beam="2">  1       -2 0.15822713E-01 0.67503236E+03</pdfrwt>
<totfact> 0.69561911E+02</totfact>
</mgrwt>
</event>
<event>
 4    1  0.1751735E-005  0.1175426E+04  0.7818608E-02  0.9134643E-01
         -2   -1    0    0    0  501 -0.00000000000E+00  0.00000000000E+00  0.21865396525E+03  0.21865396527E+03  0.25500000000E-02 0. -1.
          2   -1    0    0  501    0  0.00000000000E+00 -0.00000000000E+00 -0.15796940111E+04  0.15796940111E+04  0.25500000000E-02 0.  1.
   -5000001    1    1    2    0    0 -0.15191472192E+03  0.49384714127E+03 -0.48733770343E+03  0.75296820575E+03  0.25000000000E+03 0.  0.
    5000001    1    1    2    0    0  0.15191472192E+03 -0.49384714127E+03 -0.87370234238E+03  0.10453797706E+04  0.25000000000E+03 0.  0.
<mgrwt>
<rscale>  0 0.11754256E+04</rscale>
<asrwt>0</asrwt>
<pdfrwt beam="1">  1        2 0.24302984E+00 0.11754256E+04</pdfrwt>
<pdfrwt beam="2">  1       -2 0.33639072E-01 0.11754256E+04</pdfrwt>
<totfact> 0.93447547E+01</totfact>
</mgrwt>
</event>
<event>
 4    1  0.1751735E-005  0.7193229E+03  0.7818608E-02  0.9684746E-01
         -2   -1    0    0    0  501 -0.00000000000E+00  0.00000000000E+00  0.11263741251E+03  0.11263741254E+03  0.25500000000E-02 0.  1.
          2   -1    0    0  501    0  0.00000000000E+00 -0.00000000000E+00 -0.11484315287E+04  0.11484315287E+04  0.25500000000E-02 0. -1.
   -5000001    1    1    2    0    0  0.18631480070E+03 -0.26655712338E+02 -0.20707969921E+03  0.37524090100E+03  0.25000000000E+03 0.  0.
    5000001    1    1    2    0    0 -0.18631480070E+03  0.26655712338E+02 -0.82871441699E+03  0.88582804025E+03  0.25000000000E+03 0.  0.
<mgrwt>
<rscale>  0 0.71932289E+03</rscale>
<asrwt>0</asrwt>
<pdfrwt beam="1">  1        2 0.17668177E+00 0.71932289E+03</pdfrwt>
<pdfrwt beam="2">  1       -2 0.17328834E-01 0.71932289E+03</pdfrwt>
<totfact> 0.56169335E+02</totfact>
</mgrwt>
</event>
<event>
 4    1  0.1751735E-005  0.8933996E+03  0.7818608E-02  0.9433870E-01
          2   -1    0    0  501    0  0.00000000000E+00  0.00000000000E+00  0.86053972337E+03  0.86053972337E+03  0.25500000000E-02 0.  1.
         -2   -1    0    0    0  501 -0.00000000000E+00 -0.00000000000E+00 -0.23187857880E+03  0.23187857881E+03  0.25500000000E-02 0. -1.
   -5000001    1    1    2    0    0  0.14604540432E+03  0.33470564459E+03  0.38854347078E+03  0.58891693584E+03  0.25000000000E+03 0.  0.
    5000001    1    1    2    0    0 -0.14604540432E+03 -0.33470564459E+03  0.24011767379E+03  0.50350136634E+03  0.25000000000E+03 0.  0.
<mgrwt>
<rscale>  0 0.89339964E+03</rscale>
<asrwt>0</asrwt>
<pdfrwt beam="1">  1        2 0.13239073E+00 0.89339964E+03</pdfrwt>
<pdfrwt beam="2">  1       -2 0.35673627E-01 0.89339964E+03</pdfrwt>
<totfact> 0.23093971E+02</totfact>
</mgrwt>
</event>
<event>
 4    1  0.1751735E-005  0.7912347E+03  0.7818608E-02  0.9572792E-01
         -2   -1    0    0    0  501 -0.00000000000E+00  0.00000000000E+00  0.34589584729E+03  0.34589584730E+03  0.25500000000E-02 0.  1.
          2   -1    0    0  501    0  0.00000000000E+00 -0.00000000000E+00 -0.45248619069E+03  0.45248619070E+03  0.25500000000E-02 0. -1.
   -5000001    1    1    2    0    0 -0.14082515696E+03 -0.22503327514E+03  0.10152285097E+03  0.37852158330E+03  0.25000000000E+03 0.  0.
    5000001    1    1    2    0    0  0.14082515696E+03  0.22503327514E+03 -0.20811319437E+03  0.41986045470E+03  0.25000000000E+03 0.  0.
<mgrwt>
<rscale>  0 0.79123472E+03</rscale>
<asrwt>0</asrwt>
<pdfrwt beam="1">  1        2 0.69613260E-01 0.79123472E+03</pdfrwt>
<pdfrwt beam="2">  1       -2 0.53214746E-01 0.79123472E+03</pdfrwt>
<totfact> 0.23183200E+02</totfact>
</mgrwt>
</event>
<event>
 4    1  0.1751735E-005  0.6936381E+03  0.7818608E-02  0.9728174E-01
         -2   -1    0    0    0  501 -0.00000000000E+00  0.00000000000E+00  0.90708037553E+02  0.90708037589E+02  0.25500000000E-02 0. -1.
          2   -1    0    0  501    0  0.00000000000E+00 -0.00000000000E+00 -0.13260506332E+04  0.13260506332E+04  0.25500000000E-02 0.  1.
   -5000001    1    1    2    0    0 -0.46803812011E+02 -0.20554525654E+03 -0.38172890307E+03  0.50264938550E+03  0.25000000000E+03 0.  0.
    5000001    1    1    2    0    0  0.46803812011E+02  0.20554525654E+03 -0.85361369259E+03  0.91410928531E+03  0.25000000000E+03 0.  0.
<mgrwt>
<rscale>  0 0.69363809E+03</rscale>
<asrwt>0</asrwt>
<pdfrwt beam="1">  1        2 0.20400778E+00 0.69363809E+03</pdfrwt>
<pdfrwt beam="2">  1       -2 0.13955084E-01 0.69363809E+03</pdfrwt>
<totfact> 0.63918299E+02</totfact>
</mgrwt>
</event>
<event>
 4    1  0.1751735E-005  0.7240946E+03  0.7818608E-02  0.9676892E-01
         -2   -1    0    0    0  501 -0.00000000000E+00  0.00000000000E+00  0.14235374943E+03  0.14235374946E+03  0.25500000000E-02 0. -1.
          2   -1    0    0  501    0  0.00000000000E+00 -0.00000000000E+00 -0.92079225608E+03  0.92079225608E+03  0.25500000000E-02 0.  1.
   -5000001    1    1    2    0    0 -0.24705250209E+03  0.85811759681E+02 -0.40889770705E+03  0.54598162214E+03  0.25000000000E+03 0.  0.
    5000001    1    1    2    0    0  0.24705250209E+03 -0.85811759681E+02 -0.36954079959E+03  0.51716438339E+03  0.25000000000E+03 0.  0.
<mgrwt>
<rscale>  0 0.72409455E+03</rscale>
<asrwt>0</asrwt>
<pdfrwt beam="1">  1        2 0.14166034E+00 0.72409455E+03</pdfrwt>
<pdfrwt beam="2">  1       -2 0.21900577E-01 0.72409455E+03</pdfrwt>
<totfact> 0.51920146E+02</totfact>
</mgrwt>
</event>
<event>
 4    1  0.1751735E-005  0.8287251E+03  0.7818608E-02  0.9519345E-01
         -2   -1    0    0    0  501 -0.00000000000E+00  0.00000000000E+00  0.12967026558E+03  0.12967026561E+03  0.25500000000E-02 0. -1.
          2   -1    0    0  501    0  0.00000000000E+00 -0.00000000000E+00 -0.13240994789E+04  0.13240994789E+04  0.25500000000E-02 0.  1.
   -5000001    1    1    2    0    0 -0.22889702692E+03 -0.21150161297E+03 -0.78993632535E+03  0.88522662597E+03  0.25000000000E+03 0.  0.
    5000001    1    1    2    0    0  0.22889702692E+03  0.21150161297E+03 -0.40449288799E+03  0.56854311855E+03  0.25000000000E+03 0.  0.
<mgrwt>
<rscale>  0 0.82872512E+03</rscale>
<asrwt>0</asrwt>
<pdfrwt beam="1">  1        2 0.20370760E+00 0.82872512E+03</pdfrwt>
<pdfrwt beam="2">  1       -2 0.19949273E-01 0.82872512E+03</pdfrwt>
<totfact> 0.34513522E+02</totfact>
</mgrwt>
</event>
<event>
 4    1  0.1751735E-005  0.1102680E+04  0.7818608E-02  0.9202584E-01
          2   -1    0    0  501    0  0.00000000000E+00  0.00000000000E+00  0.65851205842E+03  0.65851205842E+03  0.25500000000E-02 0.  1.
         -2   -1    0    0    0  501 -0.00000000000E+00 -0.00000000000E+00 -0.46160972506E+03  0.46160972506E+03  0.25500000000E-02 0. -1.
   -5000001    1    1    2    0    0 -0.38145835777E+03  0.30548770030E+03  0.15066812993E+03  0.56923993107E+03  0.25000000000E+03 0.  0.
    5000001    1    1    2    0    0  0.38145835777E+03 -0.30548770030E+03  0.46234203436E+02  0.55088185241E+03  0.25000000000E+03 0.  0.
<mgrwt>
<rscale>  0 0.11026796E+04</rscale>
<asrwt>0</asrwt>
<pdfrwt beam="1">  1        2 0.10130955E+00 0.11026796E+04</pdfrwt>
<pdfrwt beam="2">  1       -2 0.71016881E-01 0.11026796E+04</pdfrwt>
<totfact> 0.79153103E+01</totfact>
</mgrwt>
</event>
<event>
 4    1  0.1751735E-005  0.1166908E+04  0.7818608E-02  0.9142325E-01
         -2   -1    0    0    0  501 -0.00000000000E+00  0.00000000000E+00  0.11002005984E+04  0.11002005984E+04  0.25500000000E-02 0. -1.
          2   -1    0    0  501    0  0.00000000000E+00 -0.00000000000E+00 -0.30941525283E+03  0.30941525284E+03  0.25500000000E-02 0.  1.
   -5000001    1    1    2    0    0  0.49262818722E+03  0.12987685721E+03  0.55911151670E+03  0.79665313467E+03  0.25000000000E+03 0.  0.
    5000001    1    1    2    0    0 -0.49262818722E+03 -0.12987685721E+03  0.23167382883E+03  0.61296271652E+03  0.25000000000E+03 0.  0.
<mgrwt>
<rscale>  0 0.11669085E+04</rscale>
<asrwt>0</asrwt>
<pdfrwt beam="1">  1        2 0.47602347E-01 0.11669085E+04</pdfrwt>
<pdfrwt beam="2">  1       -2 0.16926163E+00 0.11669085E+04</pdfrwt>
<totfact> 0.22600267E+01</totfact>
</mgrwt>
</event>
<event>
 4    1  0.1751735E-005  0.6388179E+03  0.7818608E-02  0.9827991E-01
          2   -1    0    0  501    0  0.00000000000E+00  0.00000000000E+00  0.28394288578E+04  0.28394288578E+04  0.25500000000E-02 0.  1.
         -2   -1    0    0    0  501 -0.00000000000E+00 -0.00000000000E+00 -0.35930488916E+02  0.35930489006E+02  0.25500000000E-02 0. -1.
   -5000001    1    1    2    0    0  0.17157930163E+02 -0.18757224601E+03  0.11155040540E+04  0.11585883810E+04  0.25000000000E+03 0.  0.
    5000001    1    1    2    0    0 -0.17157930163E+02  0.18757224601E+03  0.16879943149E+04  0.17167709658E+04  0.25000000000E+03 0.  0.
<mgrwt>
<rscale>  0 0.63881787E+03</rscale>
<asrwt>0</asrwt>
<pdfrwt beam="1">  1        2 0.43683532E+00 0.63881787E+03</pdfrwt>
<pdfrwt beam="2">  1       -2 0.55277661E-02 0.63881787E+03</pdfrwt>
<totfact> 0.41007401E+02</totfact>
</mgrwt>
</event>
<event>
 4    1  0.1751735E-005  0.6921898E+03  0.7818608E-02  0.9730683E-01
          2   -1    0    0  501    0  0.00000000000E+00  0.00000000000E+00  0.11877389654E+04  0.11877389654E+04  0.25500000000E-02 0.  1.
         -2   -1    0    0    0  501 -0.00000000000E+00 -0.00000000000E+00 -0.10084849432E+03  0.10084849435E+03  0.25500000000E-02 0. -1.
   -5000001    1    1    2    0    0 -0.14112709666E+03 -0.18327516822E+03  0.65782509691E+03  0.74077020919E+03  0.25000000000E+03 0.  0.
    5000001    1    1    2    0    0  0.14112709666E+03  0.18327516822E+03  0.42906537416E+03  0.54781725055E+03  0.25000000000E+03 0.  0.
<mgrwt>
<rscale>  0 0.69218982E+03</rscale>
<asrwt>0</asrwt>
<pdfrwt beam="1">  1        2 0.18272907E+00 0.69218982E+03</pdfrwt>
<pdfrwt beam="2">  1       -2 0.15515153E-01 0.69218982E+03</pdfrwt>
<totfact> 0.64340248E+02</totfact>
</mgrwt>
</event>
<event>
 4    1  0.1751735E-005  0.5111251E+03  0.7818608E-02  0.1010915E+00
         -2   -1    0    0    0  501 -0.00000000000E+00  0.00000000000E+00  0.50314508091E+02  0.50314508155E+02  0.25500000000E-02 0.  1.
          2   -1    0    0  501    0  0.00000000000E+00 -0.00000000000E+00 -0.12980789702E+04  0.12980789702E+04  0.25500000000E-02 0. -1.
   -5000001    1    1    2    0    0 -0.12953752706E+02  0.23146203073E+01 -0.48835920308E+03  0.54878763507E+03  0.25000000000E+03 0.  0.
    5000001    1    1    2    0    0  0.12953752706E+02 -0.23146203073E+01 -0.75940525906E+03  0.79960584332E+03  0.25000000000E+03 0.  0.
<mgrwt>
<rscale>  0 0.51112505E+03</rscale>
<asrwt>0</asrwt>
<pdfrwt beam="1">  1        2 0.19970443E+00 0.51112505E+03</pdfrwt>
<pdfrwt beam="2">  1       -2 0.77406945E-02 0.51112505E+03</pdfrwt>
<totfact> 0.17428220E+03</totfact>
</mgrwt>
</event>
<event>
 4    1  0.1751735E-005  0.1700108E+04  0.7818608E-02  0.8761303E-01
         -2   -1    0    0    0  501 -0.00000000000E+00  0.00000000000E+00  0.80270555678E+03  0.80270555678E+03  0.25500000000E-02 0. -1.
          2   -1    0    0  501    0  0.00000000000E+00 -0.00000000000E+00 -0.90019575111E+03  0.90019575111E+03  0.25500000000E-02 0.  1.
   -5000001    1    1    2    0    0 -0.78807082823E+03 -0.19381228577E+03 -0.10298461405E+02  0.84924960449E+03  0.25000000000E+03 0.  0.
    5000001    1    1    2    0    0  0.78807082823E+03  0.19381228577E+03 -0.87191732931E+02  0.85365170340E+03  0.25000000000E+03 0.  0.
<mgrwt>
<rscale>  0 0.17001084E+04</rscale>
<asrwt>0</asrwt>
<pdfrwt beam="1">  1        2 0.13849165E+00 0.17001084E+04</pdfrwt>
<pdfrwt beam="2">  1       -2 0.12349316E+00 0.17001084E+04</pdfrwt>
<totfact> 0.13786514E+01</totfact>
</mgrwt>
</event>
<event>
 4    1  0.1751735E-005  0.6322490E+03  0.7818608E-02  0.9840670E-01
          2   -1    0    0  501    0  0.00000000000E+00  0.00000000000E+00  0.27852614716E+04  0.27852614716E+04  0.25500000000E-02 0.  1.
         -2   -1    0    0    0  501 -0.00000000000E+00 -0.00000000000E+00 -0.35879826681E+02  0.35879826772E+02  0.25500000000E-02 0. -1.
   -5000001    1    1    2    0    0 -0.12001827769E+02 -0.18978522246E+03  0.12155364558E+04  0.12554645953E+04  0.25000000000E+03 0.  0.
    5000001    1    1    2    0    0  0.12001827769E+02  0.18978522246E+03  0.15338451891E+04  0.15656767031E+04  0.25000000000E+03 0.  0.
<mgrwt>
<rscale>  0 0.63224900E+03</rscale>
<asrwt>0</asrwt>
<pdfrwt beam="1">  1        2 0.42850174E+00 0.63224900E+03</pdfrwt>
<pdfrwt beam="2">  1       -2 0.55199737E-02 0.63224900E+03</pdfrwt>
<totfact> 0.44262888E+02</totfact>
</mgrwt>
</event>
<event>
 4    1  0.1751735E-005  0.5878390E+03  0.7818608E-02  0.9930962E-01
          2   -1    0    0  501    0  0.00000000000E+00  0.00000000000E+00  0.53190156410E+03  0.53190156410E+03  0.25500000000E-02 0.  1.
         -2   -1    0    0    0  501 -0.00000000000E+00 -0.00000000000E+00 -0.16241477013E+03  0.16241477015E+03  0.25500000000E-02 0. -1.
   -5000001    1    1    2    0    0 -0.25893009741E+02  0.12398264567E+03  0.28936893355E+03  0.40283560429E+03  0.25000000000E+03 0.  0.
    5000001    1    1    2    0    0  0.25893009741E+02 -0.12398264567E+03  0.80117860425E+02  0.29148072996E+03  0.25000000000E+03 0.  0.
<mgrwt>
<rscale>  0 0.58783899E+03</rscale>
<asrwt>0</asrwt>
<pdfrwt beam="1">  1        2 0.81831009E-01 0.58783899E+03</pdfrwt>
<pdfrwt beam="2">  1       -2 0.24986888E-01 0.58783899E+03</pdfrwt>
<totfact> 0.82541630E+02</totfact>
</mgrwt>
</event>
<event>
 4    1  0.1751735E-005  0.7080660E+03  0.7818608E-02  0.9703537E-01
          2   -1    0    0  501    0  0.00000000000E+00  0.00000000000E+00  0.97138090184E+03  0.97138090184E+03  0.25500000000E-02 0.  1.
         -2   -1    0    0    0  501 -0.00000000000E+00 -0.00000000000E+00 -0.12903214717E+03  0.12903214720E+03  0.25500000000E-02 0. -1.
   -5000001    1    1    2    0    0 -0.15979005334E+03  0.18645700055E+03  0.34284519674E+03  0.49024677778E+03  0.25000000000E+03 0.  0.
    5000001    1    1    2    0    0  0.15979005334E+03 -0.18645700055E+03  0.49950355792E+03  0.61016627125E+03  0.25000000000E+03 0.  0.
<mgrwt>
<rscale>  0 0.70806600E+03</rscale>
<asrwt>0</asrwt>
<pdfrwt beam="1">  1        2 0.14944321E+00 0.70806600E+03</pdfrwt>
<pdfrwt beam="2">  1       -2 0.19851100E-01 0.70806600E+03</pdfrwt>
<totfact> 0.57214089E+02</totfact>
</mgrwt>
</event>
<event>
 4    1  0.1751735E-005  0.7789929E+03  0.7818608E-02  0.9590932E-01
         -2   -1    0    0    0  501 -0.00000000000E+00  0.00000000000E+00  0.11060837615E+03  0.11060837618E+03  0.25500000000E-02 0. -1.
          2   -1    0    0  501    0  0.00000000000E+00 -0.00000000000E+00 -0.13715730646E+04  0.13715730646E+04  0.25500000000E-02 0.  1.
   -5000001    1    1    2    0    0 -0.27554836371E+03  0.14444820098E+02 -0.84802153848E+03  0.92616201785E+03  0.25000000000E+03 0.  0.
    5000001    1    1    2    0    0  0.27554836371E+03 -0.14444820098E+02 -0.41294314996E+03  0.55601942293E+03  0.25000000000E+03 0.  0.
<mgrwt>
<rscale>  0 0.77899286E+03</rscale>
<asrwt>0</asrwt>
<pdfrwt beam="1">  1        2 0.21101123E+00 0.77899286E+03</pdfrwt>
<pdfrwt beam="2">  1       -2 0.17016674E-01 0.77899286E+03</pdfrwt>
<totfact> 0.42825602E+02</totfact>
</mgrwt>
</event>
<event>
 4    1  0.1751735E-005  0.5320865E+03  0.7818608E-02  0.1005727E+00
          2   -1    0    0  501    0  0.00000000000E+00  0.00000000000E+00  0.77717613727E+03  0.77717613727E+03  0.25500000000E-02 0.  1.
         -2   -1    0    0    0  501 -0.00000000000E+00 -0.00000000000E+00 -0.91072030785E+02  0.91072030821E+02  0.25500000000E-02 0. -1.
   -5000001    1    1    2    0    0  0.41611479812E+02  0.74543987010E+02  0.39441265014E+03  0.47471007978E+03  0.25000000000E+03 0.  0.
    5000001    1    1    2    0    0 -0.41611479812E+02 -0.74543987010E+02  0.29169145634E+03  0.39353808831E+03  0.25000000000E+03 0.  0.
<mgrwt>
<rscale>  0 0.53208649E+03</rscale>
<asrwt>0</asrwt>
<pdfrwt beam="1">  1        2 0.11956556E+00 0.53208649E+03</pdfrwt>
<pdfrwt beam="2">  1       -2 0.14011081E-01 0.53208649E+03</pdfrwt>
<totfact> 0.14117919E+03</totfact>
</mgrwt>
</event>
<event>
 4    1  0.1751735E-005  0.1329711E+04  0.7818608E-02  0.9006330E-01
         -2   -1    0    0    0  501 -0.00000000000E+00  0.00000000000E+00  0.89440107101E+02  0.89440107137E+02  0.25500000000E-02 0. -1.
          2   -1    0    0  501    0  0.00000000000E+00 -0.00000000000E+00 -0.49422253101E+04  0.49422253101E+04  0.25500000000E-02 0.  1.
   -5000001    1    1    2    0    0  0.51561424811E+03  0.17843478382E+03 -0.13438951269E+04  0.14718189892E+04  0.25000000000E+03 0.  0.
    5000001    1    1    2    0    0 -0.51561424811E+03 -0.17843478382E+03 -0.35088900761E+04  0.35598464280E+04  0.25000000000E+03 0.  0.
<mgrwt>
<rscale>  0 0.13297115E+04</rscale>
<asrwt>0</asrwt>
<pdfrwt beam="1">  1        2 0.76034214E+00 0.13297115E+04</pdfrwt>
<pdfrwt beam="2">  1       -2 0.13760020E-01 0.13297115E+04</pdfrwt>
<totfact> 0.17153728E+00</totfact>
</mgrwt>
</event>
<event>
 4    1  0.1751735E-005  0.6656710E+03  0.7818608E-02  0.9777810E-01
         -2   -1    0    0    0  501 -0.00000000000E+00  0.00000000000E+00  0.15405094832E+03  0.15405094835E+03  0.25500000000E-02 0. -1.
          2   -1    0    0  501    0  0.00000000000E+00 -0.00000000000E+00 -0.71910940100E+03  0.71910940101E+03  0.25500000000E-02 0.  1.
   -5000001    1    1    2    0    0  0.12943457279E+02 -0.20579152729E+03 -0.38209576412E+03  0.50101383090E+03  0.25000000000E+03 0.  0.
    5000001    1    1    2    0    0 -0.12943457279E+02  0.20579152729E+03 -0.18296268855E+03  0.37214651845E+03  0.25000000000E+03 0.  0.
<mgrwt>
<rscale>  0 0.66567105E+03</rscale>
<asrwt>0</asrwt>
<pdfrwt beam="1">  1        2 0.11063221E+00 0.66567105E+03</pdfrwt>
<pdfrwt beam="2">  1       -2 0.23700146E-01 0.66567105E+03</pdfrwt>
<totfact> 0.62851227E+02</totfact>
</mgrwt>
</event>
<event>
 4    1  0.1751735E-005  0.1077755E+04  0.7818608E-02  0.9227148E-01
         -2   -1    0    0    0  501 -0.00000000000E+00  0.00000000000E+00  0.17173042509E+03  0.17173042511E+03  0.25500000000E-02 0. -1.
          2   -1    0    0  501    0  0.00000000000E+00 -0.00000000000E+00 -0.16909592165E+04  0.16909592165E+04  0.25500000000E-02 0.  1.
   -5000001    1    1    2    0    0 -0.32997164801E+03  0.27702508526E+03 -0.40430185237E+03  0.64154826333E+03  0.25000000000E+03 0.  0.
    5000001    1    1    2    0    0  0.32997164801E+03 -0.27702508526E+03 -0.11149269390E+04  0.12211413782E+04  0.25000000000E+03 0.  0.
<mgrwt>
<rscale>  0 0.10777553E+04</rscale>
<asrwt>0</asrwt>
<pdfrwt beam="1">  1        2 0.26014756E+00 0.10777553E+04</pdfrwt>
<pdfrwt beam="2">  1       -2 0.26420067E-01 0.10777553E+04</pdfrwt>
<totfact> 0.12793684E+02</totfact>
</mgrwt>
</event>
<event>
 4    1  0.1751735E-005  0.7869002E+03  0.7818608E-02  0.9579174E-01
         -2   -1    0    0    0  501 -0.00000000000E+00  0.00000000000E+00  0.24408166660E+03  0.24408166662E+03  0.25500000000E-02 0. -1.
          2   -1    0    0  501    0  0.00000000000E+00 -0.00000000000E+00 -0.63422621515E+03  0.63422621516E+03  0.25500000000E-02 0.  1.
   -5000001    1    1    2    0    0 -0.16607390380E+03  0.20136814267E+03 -0.21534001311E+02  0.36206820300E+03  0.25000000000E+03 0.  0.
    5000001    1    1    2    0    0  0.16607390380E+03 -0.20136814267E+03 -0.36861054724E+03  0.51623967878E+03  0.25000000000E+03 0.  0.
<mgrwt>
<rscale>  0 0.78690023E+03</rscale>
<asrwt>0</asrwt>
<pdfrwt beam="1">  1        2 0.97573263E-01 0.78690023E+03</pdfrwt>
<pdfrwt beam="2">  1       -2 0.37551026E-01 0.78690023E+03</pdfrwt>
<totfact> 0.31187444E+02</totfact>
</mgrwt>
</event>
<event>
 4    1  0.1751735E-005  0.1262760E+04  0.7818608E-02  0.9059629E-01
          2   -1    0    0  501    0  0.00000000000E+00  0.00000000000E+00  0.52109335676E+03  0.52109335676E+03  0.25500000000E-02 0.  1.
         -2   -1    0    0    0  501 -0.00000000000E+00 -0.00000000000E+00 -0.76500831176E+03  0.76500831176E+03  0.25500000000E-02 0. -1.
   -5000001    1    1    2    0    0 -0.34010236031E+03 -0.46845271462E+03 -0.89378898452E+02  0.63687216049E+03  0.25000000000E+03 0.  0.
    5000001    1    1    2    0    0  0.34010236031E+03  0.46845271462E+03 -0.15453605655E+03  0.64922950803E+03  0.25000000000E+03 0.  0.
<mgrwt>
<rscale>  0 0.12627601E+04</rscale>
<asrwt>0</asrwt>
<pdfrwt beam="1">  1        2 0.80168208E-01 0.12627601E+04</pdfrwt>
<pdfrwt beam="2">  1       -2 0.11769359E+00 0.12627601E+04</pdfrwt>
<totfact> 0.32115937E+01</totfact>
</mgrwt>
</event>
<event>
 4    1  0.1751735E-005  0.1082328E+04  0.7818608E-02  0.9222589E-01
          2   -1    0    0  501    0  0.00000000000E+00  0.00000000000E+00  0.24114150085E+04  0.24114150085E+04  0.25500000000E-02 0.  1.
         -2   -1    0    0    0  501 -0.00000000000E+00 -0.00000000000E+00 -0.12144682841E+03  0.12144682844E+03  0.25500000000E-02 0. -1.
   -5000001    1    1    2    0    0  0.15315742129E+03  0.31711457318E+03  0.19081175068E+04  0.19563821886E+04  0.25000000000E+03 0.  0.
    5000001    1    1    2    0    0 -0.15315742129E+03 -0.31711457318E+03  0.38185067328E+03  0.57647964830E+03  0.25000000000E+03 0.  0.
<mgrwt>
<rscale>  0 0.10823284E+04</rscale>
<asrwt>0</asrwt>
<pdfrwt beam="1">  1        2 0.37098694E+00 0.10823284E+04</pdfrwt>
<pdfrwt beam="2">  1       -2 0.18684127E-01 0.10823284E+04</pdfrwt>
<totfact> 0.94457664E+01</totfact>
</mgrwt>
</event>
<event>
 4    1  0.1751735E-005  0.5557105E+03  0.7818608E-02  0.1000181E+00
         -2   -1    0    0    0  501 -0.00000000000E+00  0.00000000000E+00  0.39732831043E+02  0.39732831125E+02  0.25500000000E-02 0. -1.
          2   -1    0    0  501    0  0.00000000000E+00 -0.00000000000E+00 -0.19430668457E+04  0.19430668457E+04  0.25500000000E-02 0.  1.
   -5000001    1    1    2    0    0  0.44863453220E+02 -0.92475750616E+02 -0.72211520602E+03  0.77104790036E+03  0.25000000000E+03 0.  0.
    5000001    1    1    2    0    0 -0.44863453220E+02  0.92475750616E+02 -0.11812188086E+04  0.12117517765E+04  0.25000000000E+03 0.  0.
<mgrwt>
<rscale>  0 0.55571052E+03</rscale>
<asrwt>0</asrwt>
<pdfrwt beam="1">  1        2 0.29893329E+00 0.55571052E+03</pdfrwt>
<pdfrwt beam="2">  1       -2 0.61127447E-02 0.55571052E+03</pdfrwt>
<totfact> 0.11196113E+03</totfact>
</mgrwt>
</event>
<event>
 4    1  0.1751735E-005  0.6415173E+03  0.7818608E-02  0.9822828E-01
         -2   -1    0    0    0  501 -0.00000000000E+00  0.00000000000E+00  0.99540017434E+02  0.99540017466E+02  0.25500000000E-02 0. -1.
          2   -1    0    0  501    0  0.00000000000E+00 -0.00000000000E+00 -0.10336155885E+04  0.10336155885E+04  0.25500000000E-02 0.  1.
   -5000001    1    1    2    0    0 -0.19354781799E+03 -0.28797600717E+02 -0.38616872194E+03  0.49991633446E+03  0.25000000000E+03 0.  0.
    5000001    1    1    2    0    0  0.19354781799E+03  0.28797600717E+02 -0.54790684911E+03  0.63323927149E+03  0.25000000000E+03 0.  0.
<mgrwt>
<rscale>  0 0.64151731E+03</rscale>
<asrwt>0</asrwt>
<pdfrwt beam="1">  1        2 0.15901778E+00 0.64151731E+03</pdfrwt>
<pdfrwt beam="2">  1       -2 0.15313850E-01 0.64151731E+03</pdfrwt>
<totfact> 0.81762418E+02</totfact>
</mgrwt>
</event>
<event>
 4    1  0.1751735E-005  0.6911751E+03  0.7818608E-02  0.9732444E-01
         -2   -1    0    0    0  501 -0.00000000000E+00  0.00000000000E+00  0.11227841328E+03  0.11227841331E+03  0.25500000000E-02 0. -1.
          2   -1    0    0  501    0  0.00000000000E+00 -0.00000000000E+00 -0.10637018678E+04  0.10637018678E+04  0.25500000000E-02 0.  1.
   -5000001    1    1    2    0    0 -0.15773676384E+03  0.13176616793E+03 -0.26951270435E+03  0.42116541582E+03  0.25000000000E+03 0.  0.
    5000001    1    1    2    0    0  0.15773676384E+03 -0.13176616793E+03 -0.68191075021E+03  0.75481486534E+03  0.25000000000E+03 0.  0.
<mgrwt>
<rscale>  0 0.69117511E+03</rscale>
<asrwt>0</asrwt>
<pdfrwt beam="1">  1        2 0.16364643E+00 0.69117511E+03</pdfrwt>
<pdfrwt beam="2">  1       -2 0.17273603E-01 0.69117511E+03</pdfrwt>
<totfact> 0.63680593E+02</totfact>
</mgrwt>
</event>
<event>
 4    1  0.1751735E-005  0.6666195E+03  0.7818608E-02  0.9776084E-01
         -2   -1    0    0    0  501 -0.00000000000E+00  0.00000000000E+00  0.13418369065E+03  0.13418369067E+03  0.25500000000E-02 0. -1.
          2   -1    0    0  501    0  0.00000000000E+00 -0.00000000000E+00 -0.82793499927E+03  0.82793499927E+03  0.25500000000E-02 0.  1.
   -5000001    1    1    2    0    0 -0.11045516632E+03 -0.17087696054E+03 -0.22444248413E+03  0.39277691899E+03  0.25000000000E+03 0.  0.
    5000001    1    1    2    0    0  0.11045516632E+03  0.17087696054E+03 -0.46930882449E+03  0.56934177096E+03  0.25000000000E+03 0.  0.
<mgrwt>
<rscale>  0 0.66661945E+03</rscale>
<asrwt>0</asrwt>
<pdfrwt beam="1">  1        2 0.12737461E+00 0.66661945E+03</pdfrwt>
<pdfrwt beam="2">  1       -2 0.20643645E-01 0.66661945E+03</pdfrwt>
<totfact> 0.66794120E+02</totfact>
</mgrwt>
</event>
<event>
 4    1  0.1751735E-005  0.6538531E+03  0.7818608E-02  0.9799576E-01
         -2   -1    0    0    0  501 -0.00000000000E+00  0.00000000000E+00  0.35227999180E+03  0.35227999181E+03  0.25500000000E-02 0. -1.
          2   -1    0    0  501    0  0.00000000000E+00 -0.00000000000E+00 -0.30339777409E+03  0.30339777410E+03  0.25500000000E-02 0.  1.
   -5000001    1    1    2    0    0  0.13020151160E+03 -0.35922900782E+02  0.18656502791E+03  0.33992557724E+03  0.25000000000E+03 0.  0.
    5000001    1    1    2    0    0 -0.13020151160E+03  0.35922900782E+02 -0.13768281020E+03  0.31575218867E+03  0.25000000000E+03 0.  0.
<mgrwt>
<rscale>  0 0.65385309E+03</rscale>
<asrwt>0</asrwt>
<pdfrwt beam="1">  1        2 0.46676581E-01 0.65385309E+03</pdfrwt>
<pdfrwt beam="2">  1       -2 0.54196922E-01 0.65385309E+03</pdfrwt>
<totfact> 0.35089937E+02</totfact>
</mgrwt>
</event>
<event>
 4    1  0.1751735E-005  0.7484736E+03  0.7818608E-02  0.9637748E-01
          2   -1    0    0  501    0  0.00000000000E+00  0.00000000000E+00  0.44692243372E+03  0.44692243373E+03  0.25500000000E-02 0.  1.
         -2   -1    0    0    0  501 -0.00000000000E+00 -0.00000000000E+00 -0.31337245994E+03  0.31337245995E+03  0.25500000000E-02 0. -1.
   -5000001    1    1    2    0    0 -0.13657553855E+03  0.22969363101E+03 -0.12828136341E+02  0.36616472105E+03  0.25000000000E+03 0.  0.
    5000001    1    1    2    0    0  0.13657553855E+03 -0.22969363101E+03  0.14637811013E+03  0.39413017263E+03  0.25000000000E+03 0.  0.
<mgrwt>
<rscale>  0 0.74847360E+03</rscale>
<asrwt>0</asrwt>
<pdfrwt beam="1">  1        2 0.68757297E-01 0.74847360E+03</pdfrwt>
<pdfrwt beam="2">  1       -2 0.48211148E-01 0.74847360E+03</pdfrwt>
<totfact> 0.28805011E+02</totfact>
</mgrwt>
</event>
<event>
 4    1  0.1751735E-005  0.9050085E+03  0.7818608E-02  0.9419342E-01
          2   -1    0    0  501    0  0.00000000000E+00  0.00000000000E+00  0.25638857840E+04  0.25638857840E+04  0.25500000000E-02 0.  1.
         -2   -1    0    0    0  501 -0.00000000000E+00 -0.00000000000E+00 -0.79863190736E+02  0.79863190777E+02  0.25500000000E-02 0. -1.
   -5000001    1    1    2    0    0  0.11153218688E+03  0.35816811031E+03  0.13565104052E+04  0.14294559467E+04  0.25000000000E+03 0.  0.
    5000001    1    1    2    0    0 -0.11153218688E+03 -0.35816811031E+03  0.11275121880E+04  0.12142930281E+04  0.25000000000E+03 0.  0.
<mgrwt>
<rscale>  0 0.90500851E+03</rscale>
<asrwt>0</asrwt>
<pdfrwt beam="1">  1        2 0.39444397E+00 0.90500851E+03</pdfrwt>
<pdfrwt beam="2">  1       -2 0.12286645E-01 0.90500851E+03</pdfrwt>
<totfact> 0.16016610E+02</totfact>
</mgrwt>
</event>
<event>
 4    1  0.1751735E-005  0.6221605E+03  0.7818608E-02  0.9860467E-01
         -2   -1    0    0    0  501 -0.00000000000E+00  0.00000000000E+00  0.11706290920E+03  0.11706290923E+03  0.25500000000E-02 0. -1.
          2   -1    0    0  501    0  0.00000000000E+00 -0.00000000000E+00 -0.82665751530E+03  0.82665751530E+03  0.25500000000E-02 0.  1.
   -5000001    1    1    2    0    0 -0.16165660800E+03 -0.82259369279E+02 -0.29862345233E+03  0.42962242612E+03  0.25000000000E+03 0.  0.
    5000001    1    1    2    0    0  0.16165660800E+03  0.82259369279E+02 -0.41097115377E+03  0.51409799841E+03  0.25000000000E+03 0.  0.
<mgrwt>
<rscale>  0 0.62216054E+03</rscale>
<asrwt>0</asrwt>
<pdfrwt beam="1">  1        2 0.12717808E+00 0.62216054E+03</pdfrwt>
<pdfrwt beam="2">  1       -2 0.18009679E-01 0.62216054E+03</pdfrwt>
<totfact> 0.84947430E+02</totfact>
</mgrwt>
</event>
<event>
 4    1  0.1751735E-005  0.9680930E+03  0.7818608E-02  0.9344249E-01
          2   -1    0    0  501    0  0.00000000000E+00  0.00000000000E+00  0.11996759052E+04  0.11996759052E+04  0.25500000000E-02 0.  1.
         -2   -1    0    0    0  501 -0.00000000000E+00 -0.00000000000E+00 -0.19530357998E+03  0.19530358000E+03  0.25500000000E-02 0. -1.
   -5000001    1    1    2    0    0 -0.32229574160E+03 -0.24731774381E+03  0.38370847883E+03  0.61218690626E+03  0.25000000000E+03 0.  0.
    5000001    1    1    2    0    0  0.32229574160E+03  0.24731774381E+03  0.62066384642E+03  0.78279257899E+03  0.25000000000E+03 0.  0.
<mgrwt>
<rscale>  0 0.96809297E+03</rscale>
<asrwt>0</asrwt>
<pdfrwt beam="1">  1        2 0.18456552E+00 0.96809297E+03</pdfrwt>
<pdfrwt beam="2">  1       -2 0.30046705E-01 0.96809297E+03</pdfrwt>
<totfact> 0.19343728E+02</totfact>
</mgrwt>
</event>
<event>
 4    1  0.1751735E-005  0.8316628E+03  0.7818608E-02  0.9515284E-01
          2   -1    0    0  501    0  0.00000000000E+00  0.00000000000E+00  0.44701764449E+03  0.44701764449E+03  0.25500000000E-02 0.  1.
         -2   -1    0    0    0  501 -0.00000000000E+00 -0.00000000000E+00 -0.38682090994E+03  0.38682090995E+03  0.25500000000E-02 0. -1.
   -5000001    1    1    2    0    0  0.61540457480E+02  0.29913215524E+03 -0.10119648935E+03  0.40744079774E+03  0.25000000000E+03 0.  0.
    5000001    1    1    2    0    0 -0.61540457480E+02 -0.29913215524E+03  0.16139322390E+03  0.42639775670E+03  0.25000000000E+03 0.  0.
<mgrwt>
<rscale>  0 0.83166285E+03</rscale>
<asrwt>0</asrwt>
<pdfrwt beam="1">  1        2 0.68771945E-01 0.83166285E+03</pdfrwt>
<pdfrwt beam="2">  1       -2 0.59510909E-01 0.83166285E+03</pdfrwt>
<totfact> 0.18588849E+02</totfact>
</mgrwt>
</event>
<event>
 4    1  0.1751735E-005  0.6799190E+03  0.7818608E-02  0.9752203E-01
          2   -1    0    0  501    0  0.00000000000E+00  0.00000000000E+00  0.17347415301E+04  0.17347415301E+04  0.25500000000E-02 0.  1.
         -2   -1    0    0    0  501 -0.00000000000E+00 -0.00000000000E+00 -0.66622303958E+02  0.66622304007E+02  0.25500000000E-02 0. -1.
   -5000001    1    1    2    0    0  0.22139828724E+03  0.11165484589E+02  0.10001613194E+04  0.10544972899E+04  0.25000000000E+03 0.  0.
    5000001    1    1    2    0    0 -0.22139828724E+03 -0.11165484589E+02  0.66795790676E+03  0.74686654420E+03  0.25000000000E+03 0.  0.
<mgrwt>
<rscale>  0 0.67991905E+03</rscale>
<asrwt>0</asrwt>
<pdfrwt beam="1">  1        2 0.26688328E+00 0.67991905E+03</pdfrwt>
<pdfrwt beam="2">  1       -2 0.10249586E-01 0.67991905E+03</pdfrwt>
<totfact> 0.63172052E+02</totfact>
</mgrwt>
</event>
<event>
 4    1  0.1751735E-005  0.8672803E+03  0.7818608E-02  0.9467433E-01
          2   -1    0    0  501    0  0.00000000000E+00  0.00000000000E+00  0.27014362370E+04  0.27014362370E+04  0.25500000000E-02 0.  1.
         -2   -1    0    0    0  501 -0.00000000000E+00 -0.00000000000E+00 -0.69608820496E+02  0.69608820542E+02  0.25500000000E-02 0. -1.
   -5000001    1    1    2    0    0 -0.14835022938E+03  0.19520877715E+03  0.49863345871E+03  0.60930253846E+03  0.25000000000E+03 0.  0.
    5000001    1    1    2    0    0  0.14835022938E+03 -0.19520877715E+03  0.21331939578E+04  0.21617425191E+04  0.25000000000E+03 0.  0.
<mgrwt>
<rscale>  0 0.86728032E+03</rscale>
<asrwt>0</asrwt>
<pdfrwt beam="1">  1        2 0.41560551E+00 0.86728032E+03</pdfrwt>
<pdfrwt beam="2">  1       -2 0.10709051E-01 0.86728032E+03</pdfrwt>
<totfact> 0.16786266E+02</totfact>
</mgrwt>
</event>
<event>
 4    1  0.1751735E-005  0.7194743E+03  0.7818608E-02  0.9684496E-01
         -2   -1    0    0    0  501 -0.00000000000E+00  0.00000000000E+00  0.67229811984E+03  0.67229811984E+03  0.25500000000E-02 0. -1.
          2   -1    0    0  501    0  0.00000000000E+00 -0.00000000000E+00 -0.19249020515E+03  0.19249020517E+03  0.25500000000E-02 0.  1.
   -5000001    1    1    2    0    0  0.23923658877E+03  0.36578451955E+02  0.13014421825E+03  0.37149649540E+03  0.25000000000E+03 0.  0.
    5000001    1    1    2    0    0 -0.23923658877E+03 -0.36578451955E+02  0.34966369644E+03  0.49329182961E+03  0.25000000000E+03 0.  0.
<mgrwt>
<rscale>  0 0.71947426E+03</rscale>
<asrwt>0</asrwt>
<pdfrwt beam="1">  1        2 0.29613878E-01 0.71947426E+03</pdfrwt>
<pdfrwt beam="2">  1       -2 0.10343048E+00 0.71947426E+03</pdfrwt>
<totfact> 0.13900450E+02</totfact>
</mgrwt>
</event>
<event>
 4    1  0.1751735E-005  0.7303779E+03  0.7818608E-02  0.9666647E-01
          2   -1    0    0  501    0  0.00000000000E+00  0.00000000000E+00  0.14066324800E+04  0.14066324800E+04  0.25500000000E-02 0.  1.
         -2   -1    0    0    0  501 -0.00000000000E+00 -0.00000000000E+00 -0.94810097436E+02  0.94810097471E+02  0.25500000000E-02 0. -1.
   -5000001    1    1    2    0    0 -0.11594209409E+03 -0.16331315391E+03  0.10163886188E+04  0.10656732989E+04  0.25000000000E+03 0.  0.
    5000001    1    1    2    0    0  0.11594209409E+03  0.16331315391E+03  0.29543376371E+03  0.43576927859E+03  0.25000000000E+03 0.  0.
<mgrwt>
<rscale>  0 0.73037788E+03</rscale>
<asrwt>0</asrwt>
<pdfrwt beam="1">  1        2 0.21640497E+00 0.73037788E+03</pdfrwt>
<pdfrwt beam="2">  1       -2 0.14586171E-01 0.73037788E+03</pdfrwt>
<totfact> 0.53307374E+02</totfact>
</mgrwt>
</event>
<event>
 4    1  0.1751735E-005  0.6375590E+03  0.7818608E-02  0.9830408E-01
          2   -1    0    0  501    0  0.00000000000E+00  0.00000000000E+00  0.21057917828E+03  0.21057917829E+03  0.25500000000E-02 0.  1.
         -2   -1    0    0    0  501 -0.00000000000E+00 -0.00000000000E+00 -0.48257552296E+03  0.48257552297E+03  0.25500000000E-02 0. -1.
   -5000001    1    1    2    0    0  0.40439630625E+02  0.19290278367E+03 -0.15397843214E+03  0.35363286787E+03  0.25000000000E+03 0.  0.
    5000001    1    1    2    0    0 -0.40439630625E+02 -0.19290278367E+03 -0.11801791255E+03  0.33952183340E+03  0.25000000000E+03 0.  0.
<mgrwt>
<rscale>  0 0.63755896E+03</rscale>
<asrwt>0</asrwt>
<pdfrwt beam="1">  1        2 0.32396797E-01 0.63755896E+03</pdfrwt>
<pdfrwt beam="2">  1       -2 0.74242388E-01 0.63755896E+03</pdfrwt>
<totfact> 0.26929280E+02</totfact>
</mgrwt>
</event>
<event>
 4    1  0.1751735E-005  0.1009786E+04  0.7818608E-02  0.9297876E-01
          2   -1    0    0  501    0  0.00000000000E+00  0.00000000000E+00  0.17695148113E+03  0.17695148114E+03  0.25500000000E-02 0.  1.
         -2   -1    0    0    0  501 -0.00000000000E+00 -0.00000000000E+00 -0.14406048584E+04  0.14406048584E+04  0.25500000000E-02 0. -1.
   -5000001    1    1    2    0    0 -0.62835441173E+02  0.42625107822E+03 -0.49993751547E+03  0.70574485030E+03  0.25000000000E+03 0.  0.
    5000001    1    1    2    0    0  0.62835441173E+02 -0.42625107822E+03 -0.76371586180E+03  0.91181148924E+03  0.25000000000E+03 0.  0.
<mgrwt>
<rscale>  0 0.10097864E+04</rscale>
<asrwt>0</asrwt>
<pdfrwt beam="1">  1        2 0.27223306E-01 0.10097864E+04</pdfrwt>
<pdfrwt beam="2">  1       -2 0.22163151E+00 0.10097864E+04</pdfrwt>
<totfact> 0.19213117E+01</totfact>
</mgrwt>
</event>
<event>
 4    1  0.1751735E-005  0.5499824E+03  0.7818608E-02  0.1001498E+00
          2   -1    0    0  501    0  0.00000000000E+00  0.00000000000E+00  0.11907957416E+04  0.11907957416E+04  0.25500000000E-02 0.  1.
         -2   -1    0    0    0  501 -0.00000000000E+00 -0.00000000000E+00 -0.63503888167E+02  0.63503888218E+02  0.25500000000E-02 0. -1.
   -5000001    1    1    2    0    0  0.52191284049E+02 -0.47969382028E+02  0.35845155997E+03  0.44273300373E+03  0.25000000000E+03 0.  0.
    5000001    1    1    2    0    0 -0.52191284049E+02  0.47969382028E+02  0.76884029349E+03  0.81156662612E+03  0.25000000000E+03 0.  0.
<mgrwt>
<rscale>  0 0.54998240E+03</rscale>
<asrwt>0</asrwt>
<pdfrwt beam="1">  1        2 0.18319933E+00 0.54998240E+03</pdfrwt>
<pdfrwt beam="2">  1       -2 0.97698298E-02 0.54998240E+03</pdfrwt>
<totfact> 0.13835244E+03</totfact>
</mgrwt>
</event>
<event>
 4    1  0.1751735E-005  0.6969729E+03  0.7818608E-02  0.9722423E-01
         -2   -1    0    0    0  501 -0.00000000000E+00  0.00000000000E+00  0.14217779644E+03  0.14217779646E+03  0.25500000000E-02 0. -1.
          2   -1    0    0  501    0  0.00000000000E+00 -0.00000000000E+00 -0.85416156568E+03  0.85416156569E+03  0.25500000000E-02 0.  1.
   -5000001    1    1    2    0    0 -0.22295881750E+03 -0.13818773983E+02 -0.49191860000E+03  0.59530286565E+03  0.25000000000E+03 0.  0.
    5000001    1    1    2    0    0  0.22295881750E+03  0.13818773983E+02 -0.22006516924E+03  0.40103649651E+03  0.25000000000E+03 0.  0.
<mgrwt>
<rscale>  0 0.69697291E+03</rscale>
<asrwt>0</asrwt>
<pdfrwt beam="1">  1        2 0.13140947E+00 0.69697291E+03</pdfrwt>
<pdfrwt beam="2">  1       -2 0.21873508E-01 0.69697291E+03</pdfrwt>
<totfact> 0.57783119E+02</totfact>
</mgrwt>
</event>
<event>
 4    1  0.1751735E-005  0.1642797E+04  0.7818608E-02  0.8794679E-01
         -2   -1    0    0    0  501 -0.00000000000E+00  0.00000000000E+00  0.77422017642E+03  0.77422017643E+03  0.25500000000E-02 0. -1.
          2   -1    0    0  501    0  0.00000000000E+00 -0.00000000000E+00 -0.87145213272E+03  0.87145213273E+03  0.25500000000E-02 0.  1.
   -5000001    1    1    2    0    0  0.11578119704E+03 -0.77330760685E+03 -0.20533304537E+02  0.82117693404E+03  0.25000000000E+03 0.  0.
    5000001    1    1    2    0    0 -0.11578119704E+03  0.77330760685E+03 -0.76698651760E+02  0.82449537511E+03  0.25000000000E+03 0.  0.
<mgrwt>
<rscale>  0 0.16427974E+04</rscale>
<asrwt>0</asrwt>
<pdfrwt beam="1">  1        2 0.13406956E+00 0.16427974E+04</pdfrwt>
<pdfrwt beam="2">  1       -2 0.11911080E+00 0.16427974E+04</pdfrwt>
<totfact> 0.15855605E+01</totfact>
</mgrwt>
</event>
<event>
 4    1  0.1751735E-005  0.1128110E+04  0.7818608E-02  0.9178219E-01
          2   -1    0    0  501    0  0.00000000000E+00  0.00000000000E+00  0.13573286676E+04  0.13573286676E+04  0.25500000000E-02 0.  1.
         -2   -1    0    0    0  501 -0.00000000000E+00 -0.00000000000E+00 -0.23440014346E+03  0.23440014347E+03  0.25500000000E-02 0. -1.
   -5000001    1    1    2    0    0  0.44701639446E+03 -0.12285131792E+03  0.27666527546E+03  0.59494518897E+03  0.25000000000E+03 0.  0.
    5000001    1    1    2    0    0 -0.44701639446E+03  0.12285131792E+03  0.84626324864E+03  0.99678362207E+03  0.25000000000E+03 0.  0.
<mgrwt>
<rscale>  0 0.11281100E+04</rscale>
<asrwt>0</asrwt>
<pdfrwt beam="1">  1        2 0.20881980E+00 0.11281100E+04</pdfrwt>
<pdfrwt beam="2">  1       -2 0.36061560E-01 0.11281100E+04</pdfrwt>
<totfact> 0.10969231E+02</totfact>
</mgrwt>
</event>
<event>
 4    1  0.1751735E-005  0.1229939E+04  0.7818608E-02  0.9087048E-01
         -2   -1    0    0    0  501 -0.00000000000E+00  0.00000000000E+00  0.31728024121E+03  0.31728024122E+03  0.25500000000E-02 0. -1.
          2   -1    0    0  501    0  0.00000000000E+00 -0.00000000000E+00 -0.11919657968E+04  0.11919657968E+04  0.25500000000E-02 0.  1.
   -5000001    1    1    2    0    0  0.44684686444E+03  0.26759205168E+03 -0.17875087704E+03  0.60475573782E+03  0.25000000000E+03 0.  0.
    5000001    1    1    2    0    0 -0.44684686444E+03 -0.26759205168E+03 -0.69593467856E+03  0.90449030023E+03  0.25000000000E+03 0.  0.
<mgrwt>
<rscale>  0 0.12299385E+04</rscale>
<asrwt>0</asrwt>
<pdfrwt beam="1">  1        2 0.18337935E+00 0.12299385E+04</pdfrwt>
<pdfrwt beam="2">  1       -2 0.48812345E-01 0.12299385E+04</pdfrwt>
<totfact> 0.74937196E+01</totfact>
</mgrwt>
</event>
<event>
 4    1  0.1751735E-005  0.1088594E+04  0.7818608E-02  0.9216381E-01
          2   -1    0    0  501    0  0.00000000000E+00  0.00000000000E+00  0.28172548416E+03  0.28172548417E+03  0.25500000000E-02 0.  1.
         -2   -1    0    0    0  501 -0.00000000000E+00 -0.00000000000E+00 -0.10515880539E+04  0.10515880539E+04  0.25500000000E-02 0. -1.
   -5000001    1    1    2    0    0 -0.41448084300E+03 -0.18669674924E+03 -0.18326930807E+03  0.55021603454E+03  0.25000000000E+03 0.  0.
    5000001    1    1    2    0    0  0.41448084300E+03  0.18669674924E+03 -0.58659326164E+03  0.78309750350E+03  0.25000000000E+03 0.  0.
<mgrwt>
<rscale>  0 0.10885939E+04</rscale>
<asrwt>0</asrwt>
<pdfrwt beam="1">  1        2 0.43342383E-01 0.10885939E+04</pdfrwt>
<pdfrwt beam="2">  1       -2 0.16178278E+00 0.10885939E+04</pdfrwt>
<totfact> 0.28563041E+01</totfact>
</mgrwt>
</event>
<event>
 4    1  0.1751735E-005  0.9829810E+03  0.7818608E-02  0.9327410E-01
          2   -1    0    0  501    0  0.00000000000E+00  0.00000000000E+00  0.19958419587E+04  0.19958419587E+04  0.25500000000E-02 0.  1.
         -2   -1    0    0    0  501 -0.00000000000E+00 -0.00000000000E+00 -0.12103307637E+03  0.12103307639E+03  0.25500000000E-02 0. -1.
   -5000001    1    1    2    0    0  0.20733660525E+03  0.12949160417E+03  0.19356039257E+03  0.39965256035E+03  0.25000000000E+03 0.  0.
    5000001    1    1    2    0    0 -0.20733660525E+03 -0.12949160417E+03  0.16812484897E+04  0.17172224747E+04  0.25000000000E+03 0.  0.
<mgrwt>
<rscale>  0 0.98298096E+03</rscale>
<asrwt>0</asrwt>
<pdfrwt beam="1">  1        2 0.30705259E+00 0.98298096E+03</pdfrwt>
<pdfrwt beam="2">  1       -2 0.18620475E-01 0.98298096E+03</pdfrwt>
<totfact> 0.16323903E+02</totfact>
</mgrwt>
</event>
<event>
 4    1  0.1751735E-005  0.1548723E+04  0.7818608E-02  0.8852684E-01
         -2   -1    0    0    0  501 -0.00000000000E+00  0.00000000000E+00  0.24015111112E+03  0.24015111113E+03  0.25500000000E-02 0. -1.
          2   -1    0    0  501    0  0.00000000000E+00 -0.00000000000E+00 -0.24969089749E+04  0.24969089749E+04  0.25500000000E-02 0.  1.
   -5000001    1    1    2    0    0  0.64175253435E+03 -0.25968452370E+03 -0.15534621782E+04  0.17190192281E+04  0.25000000000E+03 0.  0.
    5000001    1    1    2    0    0 -0.64175253435E+03  0.25968452370E+03 -0.70329568552E+03  0.10180408580E+04  0.25000000000E+03 0.  0.
<mgrwt>
<rscale>  0 0.15487227E+04</rscale>
<asrwt>0</asrwt>
<pdfrwt beam="1">  1        2 0.38413982E+00 0.15487227E+04</pdfrwt>
<pdfrwt beam="2">  1       -2 0.36946327E-01 0.15487227E+04</pdfrwt>
<totfact> 0.23285566E+01</totfact>
</mgrwt>
</event>
<event>
 4    1  0.1751735E-005  0.6630467E+03  0.7818608E-02  0.9782601E-01
         -2   -1    0    0    0  501 -0.00000000000E+00  0.00000000000E+00  0.40974533333E+02  0.40974533412E+02  0.25500000000E-02 0. -1.
          2   -1    0    0  501    0  0.00000000000E+00 -0.00000000000E+00 -0.26823425006E+04  0.26823425006E+04  0.25500000000E-02 0.  1.
   -5000001    1    1    2    0    0 -0.99612350430E+02 -0.18312292365E+03 -0.10625094109E+04  0.11112528397E+04  0.25000000000E+03 0.  0.
    5000001    1    1    2    0    0  0.99612350430E+02  0.18312292365E+03 -0.15788585563E+04  0.16120641943E+04  0.25000000000E+03 0.  0.
<mgrwt>
<rscale>  0 0.66304670E+03</rscale>
<asrwt>0</asrwt>
<pdfrwt beam="1">  1        2 0.41266794E+00 0.66304670E+03</pdfrwt>
<pdfrwt beam="2">  1       -2 0.63037764E-02 0.66304670E+03</pdfrwt>
<totfact> 0.41141257E+02</totfact>
</mgrwt>
</event>
<event>
 4    1  0.1751735E-005  0.1618973E+04  0.7818608E-02  0.8808976E-01
         -2   -1    0    0    0  501 -0.00000000000E+00  0.00000000000E+00  0.44018737911E+03  0.44018737912E+03  0.25500000000E-02 0. -1.
          2   -1    0    0  501    0  0.00000000000E+00 -0.00000000000E+00 -0.14886129682E+04  0.14886129682E+04  0.25500000000E-02 0.  1.
   -5000001    1    1    2    0    0  0.37023581867E+03  0.43024515477E+03  0.95510742570E+02  0.62754103976E+03  0.25000000000E+03 0.  0.
    5000001    1    1    2    0    0 -0.37023581867E+03 -0.43024515477E+03 -0.11439363316E+04  0.13012593075E+04  0.25000000000E+03 0.  0.
<mgrwt>
<rscale>  0 0.16189733E+04</rscale>
<asrwt>0</asrwt>
<pdfrwt beam="1">  1        2 0.22901738E+00 0.16189733E+04</pdfrwt>
<pdfrwt beam="2">  1       -2 0.67721136E-01 0.16189733E+04</pdfrwt>
<totfact> 0.24645455E+01</totfact>
</mgrwt>
</event>
<event>
 4    1  0.1751735E-005  0.7159908E+03  0.7818608E-02  0.9690270E-01
         -2   -1    0    0    0  501 -0.00000000000E+00  0.00000000000E+00  0.12373133080E+03  0.12373133082E+03  0.25500000000E-02 0. -1.
          2   -1    0    0  501    0  0.00000000000E+00 -0.00000000000E+00 -0.10357983730E+04  0.10357983730E+04  0.25500000000E-02 0.  1.
   -5000001    1    1    2    0    0 -0.24551471254E+03  0.55076338655E+02 -0.53453774411E+03  0.64151498582E+03  0.25000000000E+03 0.  0.
    5000001    1    1    2    0    0  0.24551471254E+03 -0.55076338655E+02 -0.37752929809E+03  0.51801471800E+03  0.25000000000E+03 0.  0.
<mgrwt>
<rscale>  0 0.71599081E+03</rscale>
<asrwt>0</asrwt>
<pdfrwt beam="1">  1        2 0.15935359E+00 0.71599081E+03</pdfrwt>
<pdfrwt beam="2">  1       -2 0.19035590E-01 0.71599081E+03</pdfrwt>
<totfact> 0.55994054E+02</totfact>
</mgrwt>
</event>
<event>
 4    1  0.1751735E-005  0.1141150E+04  0.7818608E-02  0.9165987E-01
         -2   -1    0    0    0  501 -0.00000000000E+00  0.00000000000E+00  0.31253421076E+03  0.31253421077E+03  0.25500000000E-02 0. -1.
          2   -1    0    0  501    0  0.00000000000E+00 -0.00000000000E+00 -0.10416642706E+04  0.10416642706E+04  0.25500000000E-02 0.  1.
   -5000001    1    1    2    0    0  0.50340548164E+03 -0.40608368463E+02 -0.25849266823E+03  0.61998756283E+03  0.25000000000E+03 0.  0.
    5000001    1    1    2    0    0 -0.50340548164E+03  0.40608368463E+02 -0.47063739163E+03  0.73421091857E+03  0.25000000000E+03 0.  0.
<mgrwt>
<rscale>  0 0.11411498E+04</rscale>
<asrwt>0</asrwt>
<pdfrwt beam="1">  1        2 0.16025604E+00 0.11411498E+04</pdfrwt>
<pdfrwt beam="2">  1       -2 0.48082187E-01 0.11411498E+04</pdfrwt>
<totfact> 0.96132187E+01</totfact>
</mgrwt>
</event>
<event>
 4    1  0.1751735E-005  0.7489970E+03  0.7818608E-02  0.9636925E-01
         -2   -1    0    0    0  501 -0.00000000000E+00  0.00000000000E+00  0.21177825294E+03  0.21177825296E+03  0.25500000000E-02 0. -1.
          2   -1    0    0  501    0  0.00000000000E+00 -0.00000000000E+00 -0.66224514202E+03  0.66224514202E+03  0.25500000000E-02 0.  1.
   -5000001    1    1    2    0    0  0.17304438703E+03 -0.20344546115E+03 -0.13177225816E+03  0.38884231196E+03  0.25000000000E+03 0.  0.
    5000001    1    1    2    0    0 -0.17304438703E+03  0.20344546115E+03 -0.31869463092E+03  0.48518108302E+03  0.25000000000E+03 0.  0.
<mgrwt>
<rscale>  0 0.74899698E+03</rscale>
<asrwt>0</asrwt>
<pdfrwt beam="1">  1        2 0.10188387E+00 0.74899698E+03</pdfrwt>
<pdfrwt beam="2">  1       -2 0.32581270E-01 0.74899698E+03</pdfrwt>
<totfact> 0.38799513E+02</totfact>
</mgrwt>
</event>
<event>
 4    1  0.1751735E-005  0.9556577E+03  0.7818608E-02  0.9358562E-01
          2   -1    0    0  501    0  0.00000000000E+00  0.00000000000E+00  0.34034618829E+03  0.34034618830E+03  0.25500000000E-02 0.  1.
         -2   -1    0    0    0  501 -0.00000000000E+00 -0.00000000000E+00 -0.67084761149E+03  0.67084761149E+03  0.25500000000E-02 0. -1.
   -5000001    1    1    2    0    0  0.38729204090E+03 -0.10459809296E+02 -0.32602445831E+02  0.46224176794E+03  0.25000000000E+03 0.  0.
    5000001    1    1    2    0    0 -0.38729204090E+03  0.10459809296E+02 -0.29789897737E+03  0.54895203185E+03  0.25000000000E+03 0.  0.
<mgrwt>
<rscale>  0 0.95565774E+03</rscale>
<asrwt>0</asrwt>
<pdfrwt beam="1">  1        2 0.52360952E-01 0.95565774E+03</pdfrwt>
<pdfrwt beam="2">  1       -2 0.10320732E+00 0.95565774E+03</pdfrwt>
<totfact> 0.73102026E+01</totfact>
</mgrwt>
</event>
<event>
 4    1  0.1751735E-005  0.1372623E+04  0.7818608E-02  0.8973877E-01
          2   -1    0    0  501    0  0.00000000000E+00  0.00000000000E+00  0.19742030759E+04  0.19742030759E+04  0.25500000000E-02 0.  1.
         -2   -1    0    0    0  501 -0.00000000000E+00 -0.00000000000E+00 -0.23858923655E+03  0.23858923656E+03  0.25500000000E-02 0. -1.
   -5000001    1    1    2    0    0 -0.55904863573E+03 -0.71394000828E+02  0.38179148679E+03  0.72518771353E+03  0.25000000000E+03 0.  0.
    5000001    1    1    2    0    0  0.55904863573E+03  0.71394000828E+02  0.13538223526E+04  0.14876045989E+04  0.25000000000E+03 0.  0.
<mgrwt>
<rscale>  0 0.13726232E+04</rscale>
<asrwt>0</asrwt>
<pdfrwt beam="1">  1        2 0.30372354E+00 0.13726232E+04</pdfrwt>
<pdfrwt beam="2">  1       -2 0.36706037E-01 0.13726232E+04</pdfrwt>
<totfact> 0.47106237E+01</totfact>
</mgrwt>
</event>
<event>
 4    1  0.1751735E-005  0.6772119E+03  0.7818608E-02  0.9757017E-01
         -2   -1    0    0    0  501 -0.00000000000E+00  0.00000000000E+00  0.86757686757E+02  0.86757686795E+02  0.25500000000E-02 0. -1.
          2   -1    0    0  501    0  0.00000000000E+00 -0.00000000000E+00 -0.13215425534E+04  0.13215425534E+04  0.25500000000E-02 0.  1.
   -5000001    1    1    2    0    0 -0.14734723051E+03  0.16209783178E+03 -0.48315128602E+03  0.58644870073E+03  0.25000000000E+03 0.  0.
    5000001    1    1    2    0    0  0.14734723051E+03 -0.16209783178E+03 -0.75163358063E+03  0.82185153948E+03  0.25000000000E+03 0.  0.
<mgrwt>
<rscale>  0 0.67721186E+03</rscale>
<asrwt>0</asrwt>
<pdfrwt beam="1">  1        2 0.20331422E+00 0.67721186E+03</pdfrwt>
<pdfrwt beam="2">  1       -2 0.13347337E-01 0.67721186E+03</pdfrwt>
<totfact> 0.69323010E+02</totfact>
</mgrwt>
</event>
<event>
 4    1  0.1751735E-005  0.6314674E+03  0.7818608E-02  0.9842189E-01
          2   -1    0    0  501    0  0.00000000000E+00  0.00000000000E+00  0.28413870341E+03  0.28413870342E+03  0.25500000000E-02 0.  1.
         -2   -1    0    0    0  501 -0.00000000000E+00 -0.00000000000E+00 -0.35084190377E+03  0.35084190378E+03  0.25500000000E-02 0. -1.
   -5000001    1    1    2    0    0  0.19049069260E+03  0.56230861941E-01 -0.31669910735E+01  0.31431948231E+03  0.25000000000E+03 0.  0.
    5000001    1    1    2    0    0 -0.19049069260E+03 -0.56230861941E-01 -0.63536209288E+02  0.32066112489E+03  0.25000000000E+03 0.  0.
<mgrwt>
<rscale>  0 0.63146738E+03</rscale>
<asrwt>0</asrwt>
<pdfrwt beam="1">  1        2 0.43713647E-01 0.63146738E+03</pdfrwt>
<pdfrwt beam="2">  1       -2 0.53975677E-01 0.63146738E+03</pdfrwt>
<totfact> 0.38071685E+02</totfact>
</mgrwt>
</event>
<event>
 4    1  0.1751735E-005  0.5466113E+03  0.7818608E-02  0.1002281E+00
          2   -1    0    0  501    0  0.00000000000E+00  0.00000000000E+00  0.33410416996E+04  0.33410416996E+04  0.25500000000E-02 0.  1.
         -2   -1    0    0    0  501 -0.00000000000E+00 -0.00000000000E+00 -0.22357092073E+02  0.22357092219E+02  0.25500000000E-02 0. -1.
   -5000001    1    1    2    0    0 -0.91684285971E+02  0.19718177052E+02  0.20181927106E+04  0.20357791216E+04  0.25000000000E+03 0.  0.
    5000001    1    1    2    0    0  0.91684285971E+02 -0.19718177052E+02  0.13004918970E+04  0.13276196703E+04  0.25000000000E+03 0.  0.
<mgrwt>
<rscale>  0 0.54661130E+03</rscale>
<asrwt>0</asrwt>
<pdfrwt beam="1">  1        2 0.51400628E+00 0.54661130E+03</pdfrwt>
<pdfrwt beam="2">  1       -2 0.34395535E-02 0.54661130E+03</pdfrwt>
<totfact> 0.42137723E+02</totfact>
</mgrwt>
</event>
<event>
 4    1  0.1751735E-005  0.7309861E+03  0.7818608E-02  0.9665662E-01
         -2   -1    0    0    0  501 -0.00000000000E+00  0.00000000000E+00  0.10349587405E+03  0.10349587408E+03  0.25500000000E-02 0. -1.
          2   -1    0    0  501    0  0.00000000000E+00 -0.00000000000E+00 -0.12907293308E+04  0.12907293308E+04  0.25500000000E-02 0.  1.
   -5000001    1    1    2    0    0  0.21410030875E+03  0.44608526289E+02 -0.88448350147E+03  0.94479623581E+03  0.25000000000E+03 0.  0.
    5000001    1    1    2    0    0 -0.21410030875E+03 -0.44608526289E+02 -0.30274995528E+03  0.44942896908E+03  0.25000000000E+03 0.  0.
<mgrwt>
<rscale>  0 0.73098607E+03</rscale>
<asrwt>0</asrwt>
<pdfrwt beam="1">  1        2 0.19857373E+00 0.73098607E+03</pdfrwt>
<pdfrwt beam="2">  1       -2 0.15922443E-01 0.73098607E+03</pdfrwt>
<totfact> 0.53506473E+02</totfact>
</mgrwt>
</event>
<event>
 4    1  0.1751735E-005  0.8097510E+03  0.7818608E-02  0.9546009E-01
         -2   -1    0    0    0  501 -0.00000000000E+00  0.00000000000E+00  0.10910618237E+03  0.10910618240E+03  0.25500000000E-02 0. -1.
          2   -1    0    0  501    0  0.00000000000E+00 -0.00000000000E+00 -0.15024277236E+04  0.15024277236E+04  0.25500000000E-02 0.  1.
   -5000001    1    1    2    0    0 -0.24292907290E+03  0.97861579536E+02 -0.10572738504E+04  0.11175506333E+04  0.25000000000E+03 0.  0.
    5000001    1    1    2    0    0  0.24292907290E+03 -0.97861579536E+02 -0.33604769083E+03  0.49398327271E+03  0.25000000000E+03 0.  0.
<mgrwt>
<rscale>  0 0.80975096E+03</rscale>
<asrwt>0</asrwt>
<pdfrwt beam="1">  1        2 0.23114271E+00 0.80975096E+03</pdfrwt>
<pdfrwt beam="2">  1       -2 0.16785568E-01 0.80975096E+03</pdfrwt>
<totfact> 0.36937256E+02</totfact>
</mgrwt>
</event>
<event>
 4    1  0.1751735E-005  0.1184809E+04  0.7818608E-02  0.9126258E-01
          2   -1    0    0  501    0  0.00000000000E+00  0.00000000000E+00  0.13417758912E+04  0.13417758912E+04  0.25500000000E-02 0.  1.
         -2   -1    0    0    0  501 -0.00000000000E+00 -0.00000000000E+00 -0.26155135093E+03  0.26155135094E+03  0.25500000000E-02 0. -1.
   -5000001    1    1    2    0    0 -0.41275766656E+03  0.19932648391E+03  0.16134295135E+03  0.54647185329E+03  0.25000000000E+03 0.  0.
    5000001    1    1    2    0    0  0.41275766656E+03 -0.19932648391E+03  0.91888158893E+03  0.10568553889E+04  0.25000000000E+03 0.  0.
<mgrwt>
<rscale>  0 0.11848093E+04</rscale>
<asrwt>0</asrwt>
<pdfrwt beam="1">  1        2 0.20642707E+00 0.11848093E+04</pdfrwt>
<pdfrwt beam="2">  1       -2 0.40238668E-01 0.11848093E+04</pdfrwt>
<totfact> 0.90199398E+01</totfact>
</mgrwt>
</event>
<event>
 4    1  0.1751735E-005  0.5995136E+03  0.7818608E-02  0.9906416E-01
          2   -1    0    0  501    0  0.00000000000E+00  0.00000000000E+00  0.78240209871E+03  0.78240209871E+03  0.25500000000E-02 0. -1.
         -2   -1    0    0    0  501 -0.00000000000E+00 -0.00000000000E+00 -0.11484395687E+03  0.11484395690E+03  0.25500000000E-02 0.  1.
   -5000001    1    1    2    0    0  0.69271143614E+02 -0.11488834934E+03  0.18901352202E+03  0.34091631768E+03  0.25000000000E+03 0.  0.
    5000001    1    1    2    0    0 -0.69271143614E+02  0.11488834934E+03  0.47854461982E+03  0.55632973793E+03  0.25000000000E+03 0.  0.
<mgrwt>
<rscale>  0 0.59951365E+03</rscale>
<asrwt>0</asrwt>
<pdfrwt beam="1">  1        2 0.12036955E+00 0.59951365E+03</pdfrwt>
<pdfrwt beam="2">  1       -2 0.17668301E-01 0.59951365E+03</pdfrwt>
<totfact> 0.94444861E+02</totfact>
</mgrwt>
</event>
<event>
 4    1  0.1751735E-005  0.5411638E+03  0.7818608E-02  0.1003560E+00
          2   -1    0    0  501    0  0.00000000000E+00  0.00000000000E+00  0.20199512608E+04  0.20199512608E+04  0.25500000000E-02 0.  1.
         -2   -1    0    0    0  501 -0.00000000000E+00 -0.00000000000E+00 -0.36245714796E+02  0.36245714886E+02  0.25500000000E-02 0. -1.
   -5000001    1    1    2    0    0 -0.10880368399E+02 -0.10207383780E+03  0.10424210146E+04  0.10768839410E+04  0.25000000000E+03 0.  0.
    5000001    1    1    2    0    0  0.10880368399E+02  0.10207383780E+03  0.94128453139E+03  0.97931303464E+03  0.25000000000E+03 0.  0.
<mgrwt>
<rscale>  0 0.54116385E+03</rscale>
<asrwt>0</asrwt>
<pdfrwt beam="1">  1        2 0.31076179E+00 0.54116385E+03</pdfrwt>
<pdfrwt beam="2">  1       -2 0.55762627E-02 0.54116385E+03</pdfrwt>
<totfact> 0.11754936E+03</totfact>
</mgrwt>
</event>
<event>
 4    1  0.1751735E-005  0.1180353E+04  0.7818608E-02  0.9130229E-01
         -2   -1    0    0    0  501 -0.00000000000E+00  0.00000000000E+00  0.65961458596E+03  0.65961458597E+03  0.25500000000E-02 0. -1.
          2   -1    0    0  501    0  0.00000000000E+00 -0.00000000000E+00 -0.52804820554E+03  0.52804820554E+03  0.25500000000E-02 0.  1.
   -5000001    1    1    2    0    0  0.50024872412E+03 -0.14051233183E+03  0.19232288610E+03  0.60784915390E+03  0.25000000000E+03 0.  0.
    5000001    1    1    2    0    0 -0.50024872412E+03  0.14051233183E+03 -0.60756505677E+02  0.57981363761E+03  0.25000000000E+03 0.  0.
<mgrwt>
<rscale>  0 0.11803530E+04</rscale>
<asrwt>0</asrwt>
<pdfrwt beam="1">  1        2 0.81238186E-01 0.11803530E+04</pdfrwt>
<pdfrwt beam="2">  1       -2 0.10147917E+00 0.11803530E+04</pdfrwt>
<totfact> 0.45532554E+01</totfact>
</mgrwt>
</event>
<event>
 4    1  0.1751735E-005  0.6181642E+03  0.7818608E-02  0.9868422E-01
         -2   -1    0    0    0  501 -0.00000000000E+00  0.00000000000E+00  0.11813966289E+03  0.11813966291E+03  0.25500000000E-02 0. -1.
          2   -1    0    0  501    0  0.00000000000E+00 -0.00000000000E+00 -0.80863384509E+03  0.80863384510E+03  0.25500000000E-02 0.  1.
   -5000001    1    1    2    0    0  0.40985989634E+02  0.76328159876E+02 -0.10571690853E+03  0.28492438310E+03  0.25000000000E+03 0.  0.
    5000001    1    1    2    0    0 -0.40985989634E+02 -0.76328159876E+02 -0.58477727368E+03  0.64184912491E+03  0.25000000000E+03 0.  0.
<mgrwt>
<rscale>  0 0.61816415E+03</rscale>
<asrwt>0</asrwt>
<pdfrwt beam="1">  1        2 0.12440520E+00 0.61816415E+03</pdfrwt>
<pdfrwt beam="2">  1       -2 0.18175333E-01 0.61816415E+03</pdfrwt>
<totfact> 0.86112192E+02</totfact>
</mgrwt>
</event>
<event>
 4    1  0.1751735E-005  0.6159249E+03  0.7818608E-02  0.9872907E-01
         -2   -1    0    0    0  501 -0.00000000000E+00  0.00000000000E+00  0.39994968468E+03  0.39994968469E+03  0.25500000000E-02 0. -1.
          2   -1    0    0  501    0  0.00000000000E+00 -0.00000000000E+00 -0.23713203745E+03  0.23713203747E+03  0.25500000000E-02 0.  1.
   -5000001    1    1    2    0    0 -0.14960347204E+03  0.58246968288E+02  0.16522928564E+03  0.33996268177E+03  0.25000000000E+03 0.  0.
    5000001    1    1    2    0    0  0.14960347204E+03 -0.58246968288E+02 -0.24116384147E+01  0.29711904039E+03  0.25000000000E+03 0.  0.
<mgrwt>
<rscale>  0 0.61592494E+03</rscale>
<asrwt>0</asrwt>
<pdfrwt beam="1">  1        2 0.36481852E-01 0.61592494E+03</pdfrwt>
<pdfrwt beam="2">  1       -2 0.61530720E-01 0.61592494E+03</pdfrwt>
<totfact> 0.35402321E+02</totfact>
</mgrwt>
</event>
<event>
 4    1  0.1751735E-005  0.9422447E+03  0.7818608E-02  0.9374262E-01
          2   -1    0    0  501    0  0.00000000000E+00  0.00000000000E+00  0.12896853458E+04  0.12896853458E+04  0.25500000000E-02 0.  1.
         -2   -1    0    0    0  501 -0.00000000000E+00 -0.00000000000E+00 -0.17210109137E+03  0.17210109139E+03  0.25500000000E-02 0. -1.
   -5000001    1    1    2    0    0 -0.34481734309E+03  0.16987774100E+03  0.72659177892E+03  0.85918162234E+03  0.25000000000E+03 0.  0.
    5000001    1    1    2    0    0  0.34481734309E+03 -0.16987774100E+03  0.39099247551E+03  0.60260481486E+03  0.25000000000E+03 0.  0.
<mgrwt>
<rscale>  0 0.94224467E+03</rscale>
<asrwt>0</asrwt>
<pdfrwt beam="1">  1        2 0.19841313E+00 0.94224467E+03</pdfrwt>
<pdfrwt beam="2">  1       -2 0.26477092E-01 0.94224467E+03</pdfrwt>
<totfact> 0.21648466E+02</totfact>
</mgrwt>
</event>
<event>
 4    1  0.1751735E-005  0.8543954E+03  0.7818608E-02  0.9484456E-01
          2   -1    0    0  501    0  0.00000000000E+00  0.00000000000E+00  0.12060427021E+04  0.12060427022E+04  0.25500000000E-02 0.  1.
         -2   -1    0    0    0  501 -0.00000000000E+00 -0.00000000000E+00 -0.15131958900E+03  0.15131958902E+03  0.25500000000E-02 0. -1.
   -5000001    1    1    2    0    0 -0.17859833515E+03  0.22079236949E+03  0.84251070134E+03  0.92356424661E+03  0.25000000000E+03 0.  0.
    5000001    1    1    2    0    0  0.17859833515E+03 -0.22079236949E+03  0.21221241181E+03  0.43379804456E+03  0.25000000000E+03 0.  0.
<mgrwt>
<rscale>  0 0.85439543E+03</rscale>
<asrwt>0</asrwt>
<pdfrwt beam="1">  1        2 0.18554503E+00 0.85439543E+03</pdfrwt>
<pdfrwt beam="2">  1       -2 0.23279937E-01 0.85439543E+03</pdfrwt>
<totfact> 0.30733573E+02</totfact>
</mgrwt>
</event>
<event>
 4    1  0.1751735E-005  0.6038026E+03  0.7818608E-02  0.9897548E-01
          2   -1    0    0  501    0  0.00000000000E+00  0.00000000000E+00  0.62540880823E+03  0.62540880823E+03  0.25500000000E-02 0. -1.
         -2   -1    0    0    0  501 -0.00000000000E+00 -0.00000000000E+00 -0.14573571868E+03  0.14573571871E+03  0.25500000000E-02 0.  1.
   -5000001    1    1    2    0    0 -0.14235508925E+03  0.82802898082E+02  0.28967981525E+03  0.41657614758E+03  0.25000000000E+03 0.  0.
    5000001    1    1    2    0    0  0.14235508925E+03 -0.82802898082E+02  0.18999327430E+03  0.35456837936E+03  0.25000000000E+03 0.  0.
<mgrwt>
<rscale>  0 0.60380262E+03</rscale>
<asrwt>0</asrwt>
<pdfrwt beam="1">  1        2 0.96216737E-01 0.60380262E+03</pdfrwt>
<pdfrwt beam="2">  1       -2 0.22420880E-01 0.60380262E+03</pdfrwt>
<totfact> 0.82590668E+02</totfact>
</mgrwt>
</event>
<event>
 4    1  0.1751735E-005  0.6429712E+03  0.7818608E-02  0.9820058E-01
         -2   -1    0    0    0  501 -0.00000000000E+00  0.00000000000E+00  0.80297106374E+02  0.80297106414E+02  0.25500000000E-02 0. -1.
          2   -1    0    0  501    0  0.00000000000E+00 -0.00000000000E+00 -0.12871323013E+04  0.12871323013E+04  0.25500000000E-02 0.  1.
   -5000001    1    1    2    0    0 -0.17303225051E+03 -0.35581332151E+02 -0.81230161162E+03  0.86806687482E+03  0.25000000000E+03 0.  0.
    5000001    1    1    2    0    0  0.17303225051E+03  0.35581332151E+02 -0.39453358335E+03  0.49936253294E+03  0.25000000000E+03 0.  0.
<mgrwt>
<rscale>  0 0.64297123E+03</rscale>
<asrwt>0</asrwt>
<pdfrwt beam="1">  1        2 0.19802034E+00 0.64297123E+03</pdfrwt>
<pdfrwt beam="2">  1       -2 0.12353402E-01 0.64297123E+03</pdfrwt>
<totfact> 0.82620499E+02</totfact>
</mgrwt>
</event>
<event>
 4    1  0.1751735E-005  0.5520886E+03  0.7818608E-02  0.1001012E+00
         -2   -1    0    0    0  501 -0.00000000000E+00  0.00000000000E+00  0.16550638955E+04  0.16550638955E+04  0.25500000000E-02 0. -1.
          2   -1    0    0  501    0  0.00000000000E+00 -0.00000000000E+00 -0.46040788232E+02  0.46040788303E+02  0.25500000000E-02 0.  1.
   -5000001    1    1    2    0    0 -0.10115087639E+03 -0.50269138524E+02  0.89907833043E+03  0.94000017571E+03  0.25000000000E+03 0.  0.
    5000001    1    1    2    0    0  0.10115087639E+03  0.50269138524E+02  0.70994477681E+03  0.76110450807E+03  0.25000000000E+03 0.  0.
<mgrwt>
<rscale>  0 0.55208857E+03</rscale>
<asrwt>0</asrwt>
<pdfrwt beam="1">  1        2 0.70831985E-02 0.55208857E+03</pdfrwt>
<pdfrwt beam="2">  1       -2 0.25462520E+00 0.55208857E+03</pdfrwt>
<totfact> 0.65308408E+01</totfact>
</mgrwt>
</event>
<event>
 4    1  0.1751735E-005  0.6208361E+03  0.7818608E-02  0.9863096E-01
         -2   -1    0    0    0  501 -0.00000000000E+00  0.00000000000E+00  0.18844642209E+03  0.18844642211E+03  0.25500000000E-02 0. -1.
          2   -1    0    0  501    0  0.00000000000E+00 -0.00000000000E+00 -0.51133563099E+03  0.51133563100E+03  0.25500000000E-02 0.  1.
   -5000001    1    1    2    0    0  0.15263494972E+03  0.69189358446E+02 -0.75789478024E+02  0.31036855540E+03  0.25000000000E+03 0.  0.
    5000001    1    1    2    0    0 -0.15263494972E+03 -0.69189358446E+02 -0.24709973088E+03  0.38941349771E+03  0.25000000000E+03 0.  0.
<mgrwt>
<rscale>  0 0.62083611E+03</rscale>
<asrwt>0</asrwt>
<pdfrwt beam="1">  1        2 0.78667020E-01 0.62083611E+03</pdfrwt>
<pdfrwt beam="2">  1       -2 0.28991757E-01 0.62083611E+03</pdfrwt>
<totfact> 0.65916871E+02</totfact>
</mgrwt>
</event>
<event>
 4    1  0.1751735E-005  0.1031730E+04  0.7818608E-02  0.9274413E-01
         -2   -1    0    0    0  501 -0.00000000000E+00  0.00000000000E+00  0.55250197454E+03  0.55250197455E+03  0.25500000000E-02 0.  1.
          2   -1    0    0  501    0  0.00000000000E+00 -0.00000000000E+00 -0.48165737896E+03  0.48165737896E+03  0.25500000000E-02 0. -1.
   -5000001    1    1    2    0    0  0.13243062281E+03  0.25852084262E+03 -0.31071062519E+03  0.49336800518E+03  0.25000000000E+03 0.  0.
    5000001    1    1    2    0    0 -0.13243062281E+03 -0.25852084262E+03  0.38155522077E+03  0.54079134833E+03  0.25000000000E+03 0.  0.
<mgrwt>
<rscale>  0 0.10317299E+04</rscale>
<asrwt>0</asrwt>
<pdfrwt beam="1">  1        2 0.74101135E-01 0.10317299E+04</pdfrwt>
<pdfrwt beam="2">  1       -2 0.85000304E-01 0.10317299E+04</pdfrwt>
<totfact> 0.77282754E+01</totfact>
</mgrwt>
</event>
<event>
 4    1  0.1751735E-005  0.6993684E+03  0.7818608E-02  0.9718313E-01
          2   -1    0    0  501    0  0.00000000000E+00  0.00000000000E+00  0.62680175035E+03  0.62680175036E+03  0.25500000000E-02 0.  1.
         -2   -1    0    0    0  501 -0.00000000000E+00 -0.00000000000E+00 -0.19508407631E+03  0.19508407633E+03  0.25500000000E-02 0. -1.
   -5000001    1    1    2    0    0 -0.47257076925E+02  0.22424710561E+03  0.11573321593E+03  0.35834923324E+03  0.25000000000E+03 0.  0.
    5000001    1    1    2    0    0  0.47257076925E+02 -0.22424710561E+03  0.31598445811E+03  0.46353659344E+03  0.25000000000E+03 0.  0.
<mgrwt>
<rscale>  0 0.69936840E+03</rscale>
<asrwt>0</asrwt>
<pdfrwt beam="1">  1        2 0.96431040E-01 0.69936840E+03</pdfrwt>
<pdfrwt beam="2">  1       -2 0.30012934E-01 0.69936840E+03</pdfrwt>
<totfact> 0.48469425E+02</totfact>
</mgrwt>
</event>
<event>
 4    1  0.1751735E-005  0.8636930E+03  0.7818608E-02  0.9472141E-01
         -2   -1    0    0    0  501 -0.00000000000E+00  0.00000000000E+00  0.32877696788E+03  0.32877696789E+03  0.25500000000E-02 0. -1.
          2   -1    0    0  501    0  0.00000000000E+00 -0.00000000000E+00 -0.56722774513E+03  0.56722774514E+03  0.25500000000E-02 0.  1.
   -5000001    1    1    2    0    0 -0.72396824782E+02  0.34448888362E+03 -0.11009104638E+03  0.44557146416E+03  0.25000000000E+03 0.  0.
    5000001    1    1    2    0    0  0.72396824782E+02 -0.34448888362E+03 -0.12835973088E+03  0.45043324887E+03  0.25000000000E+03 0.  0.
<mgrwt>
<rscale>  0 0.86369304E+03</rscale>
<asrwt>0</asrwt>
<pdfrwt beam="1">  1        2 0.87265807E-01 0.86369304E+03</pdfrwt>
<pdfrwt beam="2">  1       -2 0.50581072E-01 0.86369304E+03</pdfrwt>
<totfact> 0.19708214E+02</totfact>
</mgrwt>
</event>
<event>
 4    1  0.1751735E-005  0.1473085E+04  0.7818608E-02  0.8902551E-01
         -2   -1    0    0    0  501 -0.00000000000E+00  0.00000000000E+00  0.85351665465E+03  0.85351665465E+03  0.25500000000E-02 0. -1.
          2   -1    0    0  501    0  0.00000000000E+00 -0.00000000000E+00 -0.63559960949E+03  0.63559960949E+03  0.25500000000E-02 0.  1.
   -5000001    1    1    2    0    0  0.67376489902E+02  0.62696149480E+03  0.39909164709E+03  0.78701616891E+03  0.25000000000E+03 0.  0.
    5000001    1    1    2    0    0 -0.67376489902E+02 -0.62696149480E+03 -0.18117460193E+03  0.70210009524E+03  0.25000000000E+03 0.  0.
<mgrwt>
<rscale>  0 0.14730850E+04</rscale>
<asrwt>0</asrwt>
<pdfrwt beam="1">  1        2 0.97784555E-01 0.14730850E+04</pdfrwt>
<pdfrwt beam="2">  1       -2 0.13131026E+00 0.14730850E+04</pdfrwt>
<totfact> 0.18939701E+01</totfact>
</mgrwt>
</event>
<event>
 4    1  0.1751735E-005  0.6961579E+03  0.7818608E-02  0.9723825E-01
         -2   -1    0    0    0  501 -0.00000000000E+00  0.00000000000E+00  0.23044821429E+03  0.23044821430E+03  0.25500000000E-02 0. -1.
          2   -1    0    0  501    0  0.00000000000E+00 -0.00000000000E+00 -0.52575351377E+03  0.52575351378E+03  0.25500000000E-02 0.  1.
   -5000001    1    1    2    0    0 -0.20302654011E+03  0.12305592517E+03 -0.95598455812E+02  0.35777311450E+03  0.25000000000E+03 0.  0.
    5000001    1    1    2    0    0  0.20302654011E+03 -0.12305592517E+03 -0.19970684367E+03  0.39842861358E+03  0.25000000000E+03 0.  0.
<mgrwt>
<rscale>  0 0.69615791E+03</rscale>
<asrwt>0</asrwt>
<pdfrwt beam="1">  1        2 0.80885156E-01 0.69615791E+03</pdfrwt>
<pdfrwt beam="2">  1       -2 0.35453572E-01 0.69615791E+03</pdfrwt>
<totfact> 0.43707801E+02</totfact>
</mgrwt>
</event>
<event>
 4    1  0.1751735E-005  0.8568010E+03  0.7818608E-02  0.9481254E-01
         -2   -1    0    0    0  501 -0.00000000000E+00  0.00000000000E+00  0.81688664133E+03  0.81688664133E+03  0.25500000000E-02 0. -1.
          2   -1    0    0  501    0  0.00000000000E+00 -0.00000000000E+00 -0.22466638791E+03  0.22466638792E+03  0.25500000000E-02 0.  1.
   -5000001    1    1    2    0    0 -0.22142868925E+03 -0.11655603910E+03  0.58990806878E+03  0.68782810665E+03  0.25000000000E+03 0.  0.
    5000001    1    1    2    0    0  0.22142868925E+03  0.11655603910E+03  0.23121846357E+01  0.35372492261E+03  0.25000000000E+03 0.  0.
<mgrwt>
<rscale>  0 0.85680096E+03</rscale>
<asrwt>0</asrwt>
<pdfrwt beam="1">  1        2 0.34564060E-01 0.85680096E+03</pdfrwt>
<pdfrwt beam="2">  1       -2 0.12567487E+00 0.85680096E+03</pdfrwt>
<totfact> 0.72105661E+01</totfact>
</mgrwt>
</event>
<event>
 4    1  0.1751735E-005  0.6138441E+03  0.7818608E-02  0.9877093E-01
          2   -1    0    0  501    0  0.00000000000E+00  0.00000000000E+00  0.25680968654E+04  0.25680968654E+04  0.25500000000E-02 0.  1.
         -2   -1    0    0    0  501 -0.00000000000E+00 -0.00000000000E+00 -0.36681301142E+02  0.36681301231E+02  0.25500000000E-02 0. -1.
   -5000001    1    1    2    0    0  0.25114068072E+02 -0.17601482704E+03  0.12256310503E+04  0.12634410976E+04  0.25000000000E+03 0.  0.
    5000001    1    1    2    0    0 -0.25114068072E+02  0.17601482704E+03  0.13057845140E+04  0.13413370690E+04  0.25000000000E+03 0.  0.
<mgrwt>
<rscale>  0 0.61384407E+03</rscale>
<asrwt>0</asrwt>
<pdfrwt beam="1">  1        2 0.39509197E+00 0.61384407E+03</pdfrwt>
<pdfrwt beam="2">  1       -2 0.56432750E-02 0.61384407E+03</pdfrwt>
<totfact> 0.57169920E+02</totfact>
</mgrwt>
</event>
<event>
 4    1  0.1751735E-005  0.9554342E+03  0.7818608E-02  0.9358821E-01
          2   -1    0    0  501    0  0.00000000000E+00  0.00000000000E+00  0.56369035121E+03  0.56369035122E+03  0.25500000000E-02 0.  1.
         -2   -1    0    0    0  501 -0.00000000000E+00 -0.00000000000E+00 -0.40485632952E+03  0.40485632953E+03  0.25500000000E-02 0. -1.
   -5000001    1    1    2    0    0  0.30328807109E+03 -0.27088158792E+03  0.98466337331E+02  0.48739727977E+03  0.25000000000E+03 0.  0.
    5000001    1    1    2    0    0 -0.30328807109E+03  0.27088158792E+03  0.60367684364E+02  0.48114940097E+03  0.25000000000E+03 0.  0.
<mgrwt>
<rscale>  0 0.95543416E+03</rscale>
<asrwt>0</asrwt>
<pdfrwt beam="1">  1        2 0.86721592E-01 0.95543416E+03</pdfrwt>
<pdfrwt beam="2">  1       -2 0.62285589E-01 0.95543416E+03</pdfrwt>
<totfact> 0.12806279E+02</totfact>
</mgrwt>
</event>
<event>
 4    1  0.1751735E-005  0.5508570E+03  0.7818608E-02  0.1001296E+00
         -2   -1    0    0    0  501 -0.00000000000E+00  0.00000000000E+00  0.35578715645E+03  0.35578715646E+03  0.25500000000E-02 0. -1.
          2   -1    0    0  501    0  0.00000000000E+00 -0.00000000000E+00 -0.21321976218E+03  0.21321976220E+03  0.25500000000E-02 0.  1.
   -5000001    1    1    2    0    0 -0.10932798195E+03  0.33647828388E+02  0.54120925105E+02  0.28020324503E+03  0.25000000000E+03 0.  0.
    5000001    1    1    2    0    0  0.10932798195E+03 -0.33647828388E+02  0.88446469164E+02  0.28880367363E+03  0.25000000000E+03 0.  0.
<mgrwt>
<rscale>  0 0.55085698E+03</rscale>
<asrwt>0</asrwt>
<pdfrwt beam="1">  1        2 0.32803040E-01 0.55085698E+03</pdfrwt>
<pdfrwt beam="2">  1       -2 0.54736486E-01 0.55085698E+03</pdfrwt>
<totfact> 0.50941375E+02</totfact>
</mgrwt>
</event>
<event>
 4    1  0.1751735E-005  0.7453969E+03  0.7818608E-02  0.9642600E-01
          2   -1    0    0  501    0  0.00000000000E+00  0.00000000000E+00  0.38949195065E+04  0.38949195065E+04  0.25500000000E-02 0.  1.
         -2   -1    0    0    0  501 -0.00000000000E+00 -0.00000000000E+00 -0.35662903621E+02  0.35662903712E+02  0.25500000000E-02 0. -1.
   -5000001    1    1    2    0    0 -0.15514357294E+03  0.19669100457E+02  0.31314848531E+04  0.31453384217E+04  0.25000000000E+03 0.  0.
    5000001    1    1    2    0    0  0.15514357294E+03 -0.19669100457E+02  0.72777174974E+03  0.78524398848E+03  0.25000000000E+03 0.  0.
<mgrwt>
<rscale>  0 0.74539691E+03</rscale>
<asrwt>0</asrwt>
<pdfrwt beam="1">  1        2 0.59921850E+00 0.74539691E+03</pdfrwt>
<pdfrwt beam="2">  1       -2 0.54865995E-02 0.74539691E+03</pdfrwt>
<totfact> 0.81272908E+01</totfact>
</mgrwt>
</event>
<event>
 4    1  0.1751735E-005  0.6398920E+03  0.7818608E-02  0.9825933E-01
          2   -1    0    0  501    0  0.00000000000E+00  0.00000000000E+00  0.17134692160E+03  0.17134692162E+03  0.25500000000E-02 0.  1.
         -2   -1    0    0    0  501 -0.00000000000E+00 -0.00000000000E+00 -0.59741635070E+03  0.59741635070E+03  0.25500000000E-02 0. -1.
   -5000001    1    1    2    0    0 -0.14650722677E+03 -0.81528531083E+02 -0.82783385590E+02  0.31219282152E+03  0.25000000000E+03 0.  0.
    5000001    1    1    2    0    0  0.14650722677E+03  0.81528531083E+02 -0.34328604351E+03  0.45657045080E+03  0.25000000000E+03 0.  0.
<mgrwt>
<rscale>  0 0.63989203E+03</rscale>
<asrwt>0</asrwt>
<pdfrwt beam="1">  1        2 0.26361065E-01 0.63989203E+03</pdfrwt>
<pdfrwt beam="2">  1       -2 0.91910207E-01 0.63989203E+03</pdfrwt>
<totfact> 0.20991330E+02</totfact>
</mgrwt>
</event>
<event>
 4    1  0.1751735E-005  0.5603998E+03  0.7818608E-02  0.9991151E-01
          2   -1    0    0  501    0  0.00000000000E+00  0.00000000000E+00  0.12093880354E+04  0.12093880354E+04  0.25500000000E-02 0.  1.
         -2   -1    0    0    0  501 -0.00000000000E+00 -0.00000000000E+00 -0.64918758649E+02  0.64918758699E+02  0.25500000000E-02 0. -1.
   -5000001    1    1    2    0    0 -0.79731963722E+02  0.15038386474E+02  0.79303530651E+03  0.83545696267E+03  0.25000000000E+03 0.  0.
    5000001    1    1    2    0    0  0.79731963722E+02 -0.15038386474E+02  0.35143397025E+03  0.43884983144E+03  0.25000000000E+03 0.  0.
<mgrwt>
<rscale>  0 0.56039975E+03</rscale>
<asrwt>0</asrwt>
<pdfrwt beam="1">  1        2 0.18605971E+00 0.56039975E+03</pdfrwt>
<pdfrwt beam="2">  1       -2 0.99875004E-02 0.56039975E+03</pdfrwt>
<totfact> 0.13016520E+03</totfact>
</mgrwt>
</event>
<event>
 4    1  0.1751735E-005  0.5922167E+03  0.7818608E-02  0.9921687E-01
          2   -1    0    0  501    0  0.00000000000E+00  0.00000000000E+00  0.13184627833E+04  0.13184627833E+04  0.25500000000E-02 0.  1.
         -2   -1    0    0    0  501 -0.00000000000E+00 -0.00000000000E+00 -0.66501794129E+02  0.66501794178E+02  0.25500000000E-02 0. -1.
   -5000001    1    1    2    0    0  0.10755867794E+03  0.11419375779E+03  0.57009516473E+03  0.64196384662E+03  0.25000000000E+03 0.  0.
    5000001    1    1    2    0    0 -0.10755867794E+03 -0.11419375779E+03  0.68186582443E+03  0.74300073085E+03  0.25000000000E+03 0.  0.
<mgrwt>
<rscale>  0 0.59221665E+03</rscale>
<asrwt>0</asrwt>
<pdfrwt beam="1">  1        2 0.20284042E+00 0.59221665E+03</pdfrwt>
<pdfrwt beam="2">  1       -2 0.10231046E-01 0.59221665E+03</pdfrwt>
<totfact> 0.10819068E+03</totfact>
</mgrwt>
</event>
<event>
 4    1  0.1751735E-005  0.1300963E+04  0.7818608E-02  0.9028802E-01
         -2   -1    0    0    0  501 -0.00000000000E+00  0.00000000000E+00  0.15644415350E+04  0.15644415350E+04  0.25500000000E-02 0. -1.
          2   -1    0    0  501    0  0.00000000000E+00 -0.00000000000E+00 -0.27046462165E+03  0.27046462166E+03  0.25500000000E-02 0.  1.
   -5000001    1    1    2    0    0 -0.25750390780E+03 -0.52457138813E+03  0.84213028828E+03  0.10550672141E+04  0.25000000000E+03 0.  0.
    5000001    1    1    2    0    0  0.25750390780E+03  0.52457138813E+03  0.45184662506E+03  0.77983894257E+03  0.25000000000E+03 0.  0.
<mgrwt>
<rscale>  0 0.13009629E+04</rscale>
<asrwt>0</asrwt>
<pdfrwt beam="1">  1        2 0.41609939E-01 0.13009629E+04</pdfrwt>
<pdfrwt beam="2">  1       -2 0.24068333E+00 0.13009629E+04</pdfrwt>
<totfact> 0.88719122E+00</totfact>
</mgrwt>
</event>
<event>
 4    1  0.1751735E-005  0.7466962E+03  0.7818608E-02  0.9640548E-01
         -2   -1    0    0    0  501 -0.00000000000E+00  0.00000000000E+00  0.57257929944E+03  0.57257929944E+03  0.25500000000E-02 0. -1.
          2   -1    0    0  501    0  0.00000000000E+00 -0.00000000000E+00 -0.24344018751E+03  0.24344018752E+03  0.25500000000E-02 0.  1.
   -5000001    1    1    2    0    0  0.65937130070E+02 -0.24776069094E+03  0.49142956078E+02  0.36145275656E+03  0.25000000000E+03 0.  0.
    5000001    1    1    2    0    0 -0.65937130070E+02  0.24776069094E+03  0.27999615585E+03  0.45456673040E+03  0.25000000000E+03 0.  0.
<mgrwt>
<rscale>  0 0.74669622E+03</rscale>
<asrwt>0</asrwt>
<pdfrwt beam="1">  1        2 0.37452337E-01 0.74669622E+03</pdfrwt>
<pdfrwt beam="2">  1       -2 0.88089122E-01 0.74669622E+03</pdfrwt>
<totfact> 0.15532219E+02</totfact>
</mgrwt>
</event>
<event>
 4    1  0.1751735E-005  0.6418256E+03  0.7818608E-02  0.9822240E-01
          2   -1    0    0  501    0  0.00000000000E+00  0.00000000000E+00  0.21003671177E+04  0.21003671177E+04  0.25500000000E-02 0.  1.
         -2   -1    0    0    0  501 -0.00000000000E+00 -0.00000000000E+00 -0.49031918969E+02  0.49031919036E+02  0.25500000000E-02 0. -1.
   -5000001    1    1    2    0    0  0.14515153468E+03 -0.10330605944E+03  0.13388180944E+04  0.13735628853E+04  0.25000000000E+03 0.  0.
    5000001    1    1    2    0    0 -0.14515153468E+03  0.10330605944E+03  0.71251710433E+03  0.77583615146E+03  0.25000000000E+03 0.  0.
<mgrwt>
<rscale>  0 0.64182562E+03</rscale>
<asrwt>0</asrwt>
<pdfrwt beam="1">  1        2 0.32313340E+00 0.64182562E+03</pdfrwt>
<pdfrwt beam="2">  1       -2 0.75433723E-02 0.64182562E+03</pdfrwt>
<totfact> 0.65637030E+02</totfact>
</mgrwt>
</event>
<event>
 4    1  0.1751735E-005  0.8843393E+03  0.7818608E-02  0.9445373E-01
          2   -1    0    0  501    0  0.00000000000E+00  0.00000000000E+00  0.41559704601E+03  0.41559704602E+03  0.25500000000E-02 0. -1.
         -2   -1    0    0    0  501 -0.00000000000E+00 -0.00000000000E+00 -0.47044123723E+03  0.47044123724E+03  0.25500000000E-02 0.  1.
   -5000001    1    1    2    0    0 -0.12469260312E+03  0.30793085824E+02 -0.36942453734E+03  0.46418848348E+03  0.25000000000E+03 0.  0.
    5000001    1    1    2    0    0  0.12469260312E+03 -0.30793085824E+02  0.31458034612E+03  0.42184979978E+03  0.25000000000E+03 0.  0.
<mgrwt>
<rscale>  0 0.88433928E+03</rscale>
<asrwt>0</asrwt>
<pdfrwt beam="1">  1        2 0.63938007E-01 0.88433928E+03</pdfrwt>
<pdfrwt beam="2">  1       -2 0.72375575E-01 0.88433928E+03</pdfrwt>
<totfact> 0.13217625E+02</totfact>
</mgrwt>
</event>
<event>
 4    1  0.1751735E-005  0.7667257E+03  0.7818608E-02  0.9609470E-01
          2   -1    0    0  501    0  0.00000000000E+00  0.00000000000E+00  0.29757076887E+04  0.29757076887E+04  0.25500000000E-02 0.  1.
         -2   -1    0    0    0  501 -0.00000000000E+00 -0.00000000000E+00 -0.49388952870E+02  0.49388952936E+02  0.25500000000E-02 0. -1.
   -5000001    1    1    2    0    0  0.28856589762E+03  0.22209984114E+02  0.13585093365E+04  0.14113154070E+04  0.25000000000E+03 0.  0.
    5000001    1    1    2    0    0 -0.28856589762E+03 -0.22209984114E+02  0.15678093993E+04  0.16137812346E+04  0.25000000000E+03 0.  0.
<mgrwt>
<rscale>  0 0.76672573E+03</rscale>
<asrwt>0</asrwt>
<pdfrwt beam="1">  1        2 0.45780127E+00 0.76672573E+03</pdfrwt>
<pdfrwt beam="2">  1       -2 0.75982990E-02 0.76672573E+03</pdfrwt>
<totfact> 0.20275212E+02</totfact>
</mgrwt>
</event>
<event>
 4    1  0.1751735E-005  0.1058138E+04  0.7818608E-02  0.9246982E-01
         -2   -1    0    0    0  501 -0.00000000000E+00  0.00000000000E+00  0.84453821711E+02  0.84453821750E+02  0.25500000000E-02 0. -1.
          2   -1    0    0  501    0  0.00000000000E+00 -0.00000000000E+00 -0.33144045949E+04  0.33144045949E+04  0.25500000000E-02 0.  1.
   -5000001    1    1    2    0    0 -0.34585850390E+03  0.29567712576E+03 -0.12878589311E+04  0.13885689374E+04  0.25000000000E+03 0.  0.
    5000001    1    1    2    0    0  0.34585850390E+03 -0.29567712576E+03 -0.19420918421E+04  0.20102894793E+04  0.25000000000E+03 0.  0.
<mgrwt>
<rscale>  0 0.10581382E+04</rscale>
<asrwt>0</asrwt>
<pdfrwt beam="1">  1        2 0.50990830E+00 0.10581382E+04</pdfrwt>
<pdfrwt beam="2">  1       -2 0.12992898E-01 0.10581382E+04</pdfrwt>
<totfact> 0.49910021E+01</totfact>
</mgrwt>
</event>
<event>
 4    1  0.1751735E-005  0.6156640E+03  0.7818608E-02  0.9873431E-01
         -2   -1    0    0    0  501 -0.00000000000E+00  0.00000000000E+00  0.42866203279E+03  0.42866203280E+03  0.25500000000E-02 0. -1.
          2   -1    0    0  501    0  0.00000000000E+00 -0.00000000000E+00 -0.22106120052E+03  0.22106120053E+03  0.25500000000E-02 0.  1.
   -5000001    1    1    2    0    0 -0.10059035766E+03 -0.67092126037E+02  0.24396664870E+03  0.36964780414E+03  0.25000000000E+03 0.  0.
    5000001    1    1    2    0    0  0.10059035766E+03  0.67092126037E+02 -0.36365816424E+02  0.28007542919E+03  0.25000000000E+03 0.  0.
<mgrwt>
<rscale>  0 0.61566401E+03</rscale>
<asrwt>0</asrwt>
<pdfrwt beam="1">  1        2 0.34009415E-01 0.61566401E+03</pdfrwt>
<pdfrwt beam="2">  1       -2 0.65948005E-01 0.61566401E+03</pdfrwt>
<totfact> 0.33023291E+02</totfact>
</mgrwt>
</event>
<event>
 4    1  0.1751735E-005  0.1182369E+04  0.7818608E-02  0.9128430E-01
          2   -1    0    0  501    0  0.00000000000E+00  0.00000000000E+00  0.15104465801E+04  0.15104465801E+04  0.25500000000E-02 0.  1.
         -2   -1    0    0    0  501 -0.00000000000E+00 -0.00000000000E+00 -0.23138804125E+03  0.23138804126E+03  0.25500000000E-02 0. -1.
   -5000001    1    1    2    0    0  0.44820001802E+03 -0.53397302439E+02  0.21443586403E+03  0.55876405382E+03  0.25000000000E+03 0.  0.
    5000001    1    1    2    0    0 -0.44820001802E+03  0.53397302439E+02  0.10646226749E+04  0.11830705676E+04  0.25000000000E+03 0.  0.
<mgrwt>
<rscale>  0 0.11823693E+04</rscale>
<asrwt>0</asrwt>
<pdfrwt beam="1">  1        2 0.23237640E+00 0.11823693E+04</pdfrwt>
<pdfrwt beam="2">  1       -2 0.35598159E-01 0.11823693E+04</pdfrwt>
<totfact> 0.91682255E+01</totfact>
</mgrwt>
</event>
<event>
 4    1  0.1751735E-005  0.1011053E+04  0.7818608E-02  0.9296504E-01
         -2   -1    0    0    0  501 -0.00000000000E+00  0.00000000000E+00  0.95302518931E+03  0.95302518931E+03  0.25500000000E-02 0. -1.
          2   -1    0    0  501    0  0.00000000000E+00 -0.00000000000E+00 -0.26815375518E+03  0.26815375520E+03  0.25500000000E-02 0.  1.
   -5000001    1    1    2    0    0 -0.22360259364E+03 -0.12855795210E+03 -0.87204962684E+02  0.36963491779E+03  0.25000000000E+03 0.  0.
    5000001    1    1    2    0    0  0.22360259364E+03  0.12855795210E+03  0.77207639681E+03  0.85154402672E+03  0.25000000000E+03 0.  0.
<mgrwt>
<rscale>  0 0.10110535E+04</rscale>
<asrwt>0</asrwt>
<pdfrwt beam="1">  1        2 0.41254424E-01 0.10110535E+04</pdfrwt>
<pdfrwt beam="2">  1       -2 0.14661926E+00 0.10110535E+04</pdfrwt>
<totfact> 0.39478547E+01</totfact>
</mgrwt>
</event>
<event>
 4    1  0.1751735E-005  0.1352591E+04  0.7818608E-02  0.8988869E-01
         -2   -1    0    0    0  501 -0.00000000000E+00  0.00000000000E+00  0.43135761773E+03  0.43135761774E+03  0.25500000000E-02 0. -1.
          2   -1    0    0  501    0  0.00000000000E+00 -0.00000000000E+00 -0.10603159853E+04  0.10603159853E+04  0.25500000000E-02 0.  1.
   -5000001    1    1    2    0    0 -0.49091786689E+03  0.39211571522E+03 -0.32657470371E+03  0.75093683040E+03  0.25000000000E+03 0.  0.
    5000001    1    1    2    0    0  0.49091786689E+03 -0.39211571522E+03 -0.30238366382E+03  0.74073677261E+03  0.25000000000E+03 0.  0.
<mgrwt>
<rscale>  0 0.13525907E+04</rscale>
<asrwt>0</asrwt>
<pdfrwt beam="1">  1        2 0.16312554E+00 0.13525907E+04</pdfrwt>
<pdfrwt beam="2">  1       -2 0.66362711E-01 0.13525907E+04</pdfrwt>
<totfact> 0.47023783E+01</totfact>
</mgrwt>
</event>
<event>
 4    1  0.1751735E-005  0.9458364E+03  0.7818608E-02  0.9370030E-01
         -2   -1    0    0    0  501 -0.00000000000E+00  0.00000000000E+00  0.14842103594E+03  0.14842103596E+03  0.25500000000E-02 0. -1.
          2   -1    0    0  501    0  0.00000000000E+00 -0.00000000000E+00 -0.15068726886E+04  0.15068726886E+04  0.25500000000E-02 0.  1.
   -5000001    1    1    2    0    0 -0.40742870122E+02 -0.37539110231E+03 -0.91773318312E+03  0.10233829472E+04  0.25000000000E+03 0.  0.
    5000001    1    1    2    0    0  0.40742870122E+02  0.37539110231E+03 -0.44071846950E+03  0.63191077734E+03  0.25000000000E+03 0.  0.
<mgrwt>
<rscale>  0 0.94583636E+03</rscale>
<asrwt>0</asrwt>
<pdfrwt beam="1">  1        2 0.23182656E+00 0.94583636E+03</pdfrwt>
<pdfrwt beam="2">  1       -2 0.22834007E-01 0.94583636E+03</pdfrwt>
<totfact> 0.21261821E+02</totfact>
</mgrwt>
</event>
<event>
 4    1  0.1751735E-005  0.8795585E+03  0.7818608E-02  0.9451501E-01
         -2   -1    0    0    0  501 -0.00000000000E+00  0.00000000000E+00  0.11289182658E+03  0.11289182661E+03  0.25500000000E-02 0. -1.
          2   -1    0    0  501    0  0.00000000000E+00 -0.00000000000E+00 -0.17131957002E+04  0.17131957002E+04  0.25500000000E-02 0.  1.
   -5000001    1    1    2    0    0  0.15821163465E+03  0.31540470392E+03 -0.96617499701E+03  0.10585391695E+04  0.25000000000E+03 0.  0.
    5000001    1    1    2    0    0 -0.15821163465E+03 -0.31540470392E+03 -0.63412887656E+03  0.76754835723E+03  0.25000000000E+03 0.  0.
<mgrwt>
<rscale>  0 0.87955851E+03</rscale>
<asrwt>0</asrwt>
<pdfrwt beam="1">  1        2 0.26356855E+00 0.87955851E+03</pdfrwt>
<pdfrwt beam="2">  1       -2 0.17367975E-01 0.87955851E+03</pdfrwt>
<totfact> 0.26516770E+02</totfact>
</mgrwt>
</event>
<event>
 4    1  0.1751735E-005  0.9955533E+03  0.7818608E-02  0.9313435E-01
         -2   -1    0    0    0  501 -0.00000000000E+00  0.00000000000E+00  0.15201633605E+04  0.15201633605E+04  0.25500000000E-02 0.  1.
          2   -1    0    0  501    0  0.00000000000E+00 -0.00000000000E+00 -0.16299668987E+03  0.16299668988E+03  0.25500000000E-02 0. -1.
   -5000001    1    1    2    0    0  0.42819763481E+03 -0.38757586810E+02  0.71348798927E+03  0.86972436773E+03  0.25000000000E+03 0.  0.
    5000001    1    1    2    0    0 -0.42819763481E+03  0.38757586810E+02  0.64367868140E+03  0.81343568270E+03  0.25000000000E+03 0.  0.
<mgrwt>
<rscale>  0 0.99555331E+03</rscale>
<asrwt>0</asrwt>
<pdfrwt beam="1">  1        2 0.25076413E-01 0.99555331E+03</pdfrwt>
<pdfrwt beam="2">  1       -2 0.23387129E+00 0.99555331E+03</pdfrwt>
<totfact> 0.17736188E+01</totfact>
</mgrwt>
</event>
<event>
 4    1  0.1751735E-005  0.6321908E+03  0.7818608E-02  0.9840783E-01
          2   -1    0    0  501    0  0.00000000000E+00  0.00000000000E+00  0.39516351114E+03  0.39516351114E+03  0.25500000000E-02 0.  1.
         -2   -1    0    0    0  501 -0.00000000000E+00 -0.00000000000E+00 -0.25284799107E+03  0.25284799108E+03  0.25500000000E-02 0. -1.
   -5000001    1    1    2    0    0 -0.19118847693E+03  0.28028165122E+02  0.62123095080E+02  0.32202156868E+03  0.25000000000E+03 0.  0.
    5000001    1    1    2    0    0  0.19118847693E+03 -0.28028165122E+02  0.80192424987E+02  0.32598993355E+03  0.25000000000E+03 0.  0.
<mgrwt>
<rscale>  0 0.63219079E+03</rscale>
<asrwt>0</asrwt>
<pdfrwt beam="1">  1        2 0.60794386E-01 0.63219079E+03</pdfrwt>
<pdfrwt beam="2">  1       -2 0.38899691E-01 0.63219079E+03</pdfrwt>
<totfact> 0.50747019E+02</totfact>
</mgrwt>
</event>
<event>
 4    1  0.1751735E-005  0.7846638E+03  0.7818608E-02  0.9582485E-01
         -2   -1    0    0    0  501 -0.00000000000E+00  0.00000000000E+00  0.60845793687E+02  0.60845793740E+02  0.25500000000E-02 0. -1.
          2   -1    0    0  501    0  0.00000000000E+00 -0.00000000000E+00 -0.25297444195E+04  0.25297444195E+04  0.25500000000E-02 0.  1.
   -5000001    1    1    2    0    0  0.17001563168E+03  0.23520528844E+03 -0.95435461799E+03  0.10283577099E+04  0.25000000000E+03 0.  0.
    5000001    1    1    2    0    0 -0.17001563168E+03 -0.23520528844E+03 -0.15145440079E+04  0.15622325033E+04  0.25000000000E+03 0.  0.
<mgrwt>
<rscale>  0 0.78466377E+03</rscale>
<asrwt>0</asrwt>
<pdfrwt beam="1">  1        2 0.38919137E+00 0.78466377E+03</pdfrwt>
<pdfrwt beam="2">  1       -2 0.93608933E-02 0.78466377E+03</pdfrwt>
<totfact> 0.26468493E+02</totfact>
</mgrwt>
</event>
<event>
 4    1  0.1751735E-005  0.5559576E+03  0.7818608E-02  0.1000124E+00
          2   -1    0    0  501    0  0.00000000000E+00  0.00000000000E+00  0.20686871054E+04  0.20686871054E+04  0.25500000000E-02 0.  1.
         -2   -1    0    0    0  501 -0.00000000000E+00 -0.00000000000E+00 -0.37353261792E+02  0.37353261879E+02  0.25500000000E-02 0. -1.
   -5000001    1    1    2    0    0 -0.87901130292E+02  0.83861701517E+02  0.10292289713E+04  0.10661011533E+04  0.25000000000E+03 0.  0.
    5000001    1    1    2    0    0  0.87901130292E+02 -0.83861701517E+02  0.10021048723E+04  0.10399392140E+04  0.25000000000E+03 0.  0.
<mgrwt>
<rscale>  0 0.55595759E+03</rscale>
<asrwt>0</asrwt>
<pdfrwt beam="1">  1        2 0.31825960E+00 0.55595759E+03</pdfrwt>
<pdfrwt beam="2">  1       -2 0.57466549E-02 0.55595759E+03</pdfrwt>
<totfact> 0.10545514E+03</totfact>
</mgrwt>
</event>
<event>
 4    1  0.1751735E-005  0.6204980E+03  0.7818608E-02  0.9863769E-01
          2   -1    0    0  501    0  0.00000000000E+00  0.00000000000E+00  0.51174543970E+03  0.51174543970E+03  0.25500000000E-02 0.  1.
         -2   -1    0    0    0  501 -0.00000000000E+00 -0.00000000000E+00 -0.18809045214E+03  0.18809045216E+03  0.25500000000E-02 0. -1.
   -5000001    1    1    2    0    0 -0.23007964439E+02 -0.14068063685E+03  0.29255256778E+03  0.41037472257E+03  0.25000000000E+03 0.  0.
    5000001    1    1    2    0    0  0.23007964439E+02  0.14068063685E+03  0.31102419781E+02  0.28946116929E+03  0.25000000000E+03 0.  0.
<mgrwt>
<rscale>  0 0.62049796E+03</rscale>
<asrwt>0</asrwt>
<pdfrwt beam="1">  1        2 0.78730068E-01 0.62049796E+03</pdfrwt>
<pdfrwt beam="2">  1       -2 0.28936993E-01 0.62049796E+03</pdfrwt>
<totfact> 0.66085572E+02</totfact>
</mgrwt>
</event>
<event>
 4    1  0.1751735E-005  0.6925043E+03  0.7818608E-02  0.9730137E-01
          2   -1    0    0  501    0  0.00000000000E+00  0.00000000000E+00  0.62450524414E+03  0.62450524414E+03  0.25500000000E-02 0. -1.
         -2   -1    0    0    0  501 -0.00000000000E+00 -0.00000000000E+00 -0.19197685681E+03  0.19197685682E+03  0.25500000000E-02 0.  1.
   -5000001    1    1    2    0    0  0.10278411556E+03 -0.94898252573E+02 -0.13026633269E+02  0.28677507898E+03  0.25000000000E+03 0.  0.
    5000001    1    1    2    0    0 -0.10278411556E+03  0.94898252573E+02  0.44555502060E+03  0.52970702198E+03  0.25000000000E+03 0.  0.
<mgrwt>
<rscale>  0 0.69250431E+03</rscale>
<asrwt>0</asrwt>
<pdfrwt beam="1">  1        2 0.96077730E-01 0.69250431E+03</pdfrwt>
<pdfrwt beam="2">  1       -2 0.29534901E-01 0.69250431E+03</pdfrwt>
<totfact> 0.50165294E+02</totfact>
</mgrwt>
</event>
<event>
 4    1  0.1751735E-005  0.7571033E+03  0.7818608E-02  0.9624272E-01
         -2   -1    0    0    0  501 -0.00000000000E+00  0.00000000000E+00  0.56239127637E+02  0.56239127695E+02  0.25500000000E-02 0. -1.
          2   -1    0    0  501    0  0.00000000000E+00 -0.00000000000E+00 -0.25480723945E+04  0.25480723945E+04  0.25500000000E-02 0.  1.
   -5000001    1    1    2    0    0 -0.19162212015E+03 -0.13531516418E+03 -0.69369553875E+03  0.77378468004E+03  0.25000000000E+03 0.  0.
    5000001    1    1    2    0    0  0.19162212015E+03  0.13531516418E+03 -0.17981377281E+04  0.18305268421E+04  0.25000000000E+03 0.  0.
<mgrwt>
<rscale>  0 0.75710334E+03</rscale>
<asrwt>0</asrwt>
<pdfrwt beam="1">  1        2 0.39201105E+00 0.75710334E+03</pdfrwt>
<pdfrwt beam="2">  1       -2 0.86521754E-02 0.75710334E+03</pdfrwt>
<totfact> 0.29418602E+02</totfact>
</mgrwt>
</event>
<event>
 4    1  0.1751735E-005  0.6136073E+03  0.7818608E-02  0.9877571E-01
         -2   -1    0    0    0  501 -0.00000000000E+00  0.00000000000E+00  0.34335813783E+03  0.34335813784E+03  0.25500000000E-02 0. -1.
          2   -1    0    0  501    0  0.00000000000E+00 -0.00000000000E+00 -0.27414084032E+03  0.27414084033E+03  0.25500000000E-02 0.  1.
   -5000001    1    1    2    0    0 -0.57363811235E+02 -0.15530086125E+03  0.99978491600E+02  0.31607698924E+03  0.25000000000E+03 0.  0.
    5000001    1    1    2    0    0  0.57363811235E+02  0.15530086125E+03 -0.30761194089E+02  0.30142198892E+03  0.25000000000E+03 0.  0.
<mgrwt>
<rscale>  0 0.61360733E+03</rscale>
<asrwt>0</asrwt>
<pdfrwt beam="1">  1        2 0.42175514E-01 0.61360733E+03</pdfrwt>
<pdfrwt beam="2">  1       -2 0.52824329E-01 0.61360733E+03</pdfrwt>
<totfact> 0.41421882E+02</totfact>
</mgrwt>
</event>
<event>
 4    1  0.1751735E-005  0.1150588E+04  0.7818608E-02  0.9157242E-01
         -2   -1    0    0    0  501 -0.00000000000E+00  0.00000000000E+00  0.44614724655E+03  0.44614724656E+03  0.25500000000E-02 0. -1.
          2   -1    0    0  501    0  0.00000000000E+00 -0.00000000000E+00 -0.74182446125E+03  0.74182446126E+03  0.25500000000E-02 0.  1.
   -5000001    1    1    2    0    0 -0.16881556393E+02 -0.51430106391E+03 -0.21040766391E+03  0.60955882105E+03  0.25000000000E+03 0.  0.
    5000001    1    1    2    0    0  0.16881556393E+02  0.51430106391E+03 -0.85269550794E+02  0.57841288677E+03  0.25000000000E+03 0.  0.
<mgrwt>
<rscale>  0 0.11505876E+04</rscale>
<asrwt>0</asrwt>
<pdfrwt beam="1">  1        2 0.11412684E+00 0.11505876E+04</pdfrwt>
<pdfrwt beam="2">  1       -2 0.68638038E-01 0.11505876E+04</pdfrwt>
<totfact> 0.73091733E+01</totfact>
</mgrwt>
</event>
<event>
 4    1  0.1751735E-005  0.8204903E+03  0.7818608E-02  0.9530823E-01
          2   -1    0    0  501    0  0.00000000000E+00  0.00000000000E+00  0.11821058394E+03  0.11821058397E+03  0.25500000000E-02 0.  1.
         -2   -1    0    0    0  501 -0.00000000000E+00 -0.00000000000E+00 -0.14237396904E+04  0.14237396904E+04  0.25500000000E-02 0. -1.
   -5000001    1    1    2    0    0  0.13378959647E+02  0.22629524939E+03 -0.21438883557E+03  0.39981384328E+03  0.25000000000E+03 0.  0.
    5000001    1    1    2    0    0 -0.13378959647E+02 -0.22629524939E+03 -0.10911402709E+04  0.11421364310E+04  0.25000000000E+03 0.  0.
<mgrwt>
<rscale>  0 0.82049034E+03</rscale>
<asrwt>0</asrwt>
<pdfrwt beam="1">  1        2 0.18186245E-01 0.82049034E+03</pdfrwt>
<pdfrwt beam="2">  1       -2 0.21903686E+00 0.82049034E+03</pdfrwt>
<totfact> 0.32372843E+01</totfact>
</mgrwt>
</event>
<event>
 4    1  0.1751735E-005  0.1136544E+04  0.7818608E-02  0.9170288E-01
          2   -1    0    0  501    0  0.00000000000E+00  0.00000000000E+00  0.13587339569E+04  0.13587339569E+04  0.25500000000E-02 0.  1.
         -2   -1    0    0    0  501 -0.00000000000E+00 -0.00000000000E+00 -0.23767202980E+03  0.23767202982E+03  0.25500000000E-02 0. -1.
   -5000001    1    1    2    0    0 -0.75821189209E+02  0.48518809971E+03  0.36551346256E+03  0.66125368517E+03  0.25000000000E+03 0.  0.
    5000001    1    1    2    0    0  0.75821189209E+02 -0.48518809971E+03  0.75554846455E+03  0.93515230156E+03  0.25000000000E+03 0.  0.
<mgrwt>
<rscale>  0 0.11365440E+04</rscale>
<asrwt>0</asrwt>
<pdfrwt beam="1">  1        2 0.20903599E+00 0.11365440E+04</pdfrwt>
<pdfrwt beam="2">  1       -2 0.36564927E-01 0.11365440E+04</pdfrwt>
<totfact> 0.10654926E+02</totfact>
</mgrwt>
</event>
<event>
 4    1  0.1751735E-005  0.9038468E+03  0.7818608E-02  0.9420785E-01
         -2   -1    0    0    0  501 -0.00000000000E+00  0.00000000000E+00  0.38359172953E+03  0.38359172954E+03  0.25500000000E-02 0. -1.
          2   -1    0    0  501    0  0.00000000000E+00 -0.00000000000E+00 -0.53242742840E+03  0.53242742840E+03  0.25500000000E-02 0.  1.
   -5000001    1    1    2    0    0 -0.27310236850E+03  0.25882947096E+03 -0.87123002812E+02  0.46007392486E+03  0.25000000000E+03 0.  0.
    5000001    1    1    2    0    0  0.27310236850E+03 -0.25882947096E+03 -0.61712696054E+02  0.45594523308E+03  0.25000000000E+03 0.  0.
<mgrwt>
<rscale>  0 0.90384680E+03</rscale>
<asrwt>0</asrwt>
<pdfrwt beam="1">  1        2 0.81911912E-01 0.90384680E+03</pdfrwt>
<pdfrwt beam="2">  1       -2 0.59014112E-01 0.90384680E+03</pdfrwt>
<totfact> 0.15400832E+02</totfact>
</mgrwt>
</event>
<event>
 4    1  0.1751735E-005  0.7698926E+03  0.7818608E-02  0.9604649E-01
         -2   -1    0    0    0  501 -0.00000000000E+00  0.00000000000E+00  0.77066597502E+02  0.77066597544E+02  0.25500000000E-02 0. -1.
          2   -1    0    0  501    0  0.00000000000E+00 -0.00000000000E+00 -0.19228000063E+04  0.19228000063E+04  0.25500000000E-02 0.  1.
   -5000001    1    1    2    0    0 -0.55824446017E+02 -0.20988289133E+03 -0.41307349080E+03  0.52943073735E+03  0.25000000000E+03 0.  0.
    5000001    1    1    2    0    0  0.55824446017E+02  0.20988289133E+03 -0.14326599180E+04  0.14704358665E+04  0.25000000000E+03 0.  0.
<mgrwt>
<rscale>  0 0.76989260E+03</rscale>
<asrwt>0</asrwt>
<pdfrwt beam="1">  1        2 0.29581535E+00 0.76989260E+03</pdfrwt>
<pdfrwt beam="2">  1       -2 0.11856401E-01 0.76989260E+03</pdfrwt>
<totfact> 0.39062900E+02</totfact>
</mgrwt>
</event>
<event>
 4    1  0.1751735E-005  0.1065539E+04  0.7818608E-02  0.9239446E-01
         -2   -1    0    0    0  501 -0.00000000000E+00  0.00000000000E+00  0.23468915744E+03  0.23468915746E+03  0.25500000000E-02 0. -1.
          2   -1    0    0  501    0  0.00000000000E+00 -0.00000000000E+00 -0.12094440883E+04  0.12094440883E+04  0.25500000000E-02 0.  1.
   -5000001    1    1    2    0    0  0.38025733608E+03 -0.27642105942E+03 -0.46241733841E+03  0.70521914225E+03  0.25000000000E+03 0.  0.
    5000001    1    1    2    0    0 -0.38025733608E+03  0.27642105942E+03 -0.51233759244E+03  0.73891410351E+03  0.25000000000E+03 0.  0.
<mgrwt>
<rscale>  0 0.10655391E+04</rscale>
<asrwt>0</asrwt>
<pdfrwt beam="1">  1        2 0.18606832E+00 0.10655391E+04</pdfrwt>
<pdfrwt beam="2">  1       -2 0.36106025E-01 0.10655391E+04</pdfrwt>
<totfact> 0.13408350E+02</totfact>
</mgrwt>
</event>
<event>
 4    1  0.1751735E-005  0.1498582E+04  0.7818608E-02  0.8885396E-01
         -2   -1    0    0    0  501 -0.00000000000E+00  0.00000000000E+00  0.10478798284E+04  0.10478798284E+04  0.25500000000E-02 0. -1.
          2   -1    0    0  501    0  0.00000000000E+00 -0.00000000000E+00 -0.53578378218E+03  0.53578378218E+03  0.25500000000E-02 0.  1.
   -5000001    1    1    2    0    0  0.13568783226E+03 -0.63604721469E+03 -0.35226719718E+02  0.69764472973E+03  0.25000000000E+03 0.  0.
    5000001    1    1    2    0    0 -0.13568783226E+03  0.63604721469E+03  0.54732276598E+03  0.88601888089E+03  0.25000000000E+03 0.  0.
<mgrwt>
<rscale>  0 0.14985820E+04</rscale>
<asrwt>0</asrwt>
<pdfrwt beam="1">  1        2 0.82428275E-01 0.14985820E+04</pdfrwt>
<pdfrwt beam="2">  1       -2 0.16121228E+00 0.14985820E+04</pdfrwt>
<totfact> 0.13526888E+01</totfact>
</mgrwt>
</event>
<event>
 4    1  0.1751735E-005  0.9594611E+03  0.7818608E-02  0.9354160E-01
         -2   -1    0    0    0  501 -0.00000000000E+00  0.00000000000E+00  0.44761063627E+03  0.44761063628E+03  0.25500000000E-02 0. -1.
          2   -1    0    0  501    0  0.00000000000E+00 -0.00000000000E+00 -0.51415531849E+03  0.51415531850E+03  0.25500000000E-02 0.  1.
   -5000001    1    1    2    0    0  0.15521106701E+03 -0.33730123049E+03 -0.20625222064E+03  0.49285147248E+03  0.25000000000E+03 0.  0.
    5000001    1    1    2    0    0 -0.15521106701E+03  0.33730123049E+03  0.13970753842E+03  0.46891448229E+03  0.25000000000E+03 0.  0.
<mgrwt>
<rscale>  0 0.95946108E+03</rscale>
<asrwt>0</asrwt>
<pdfrwt beam="1">  1        2 0.79100818E-01 0.95946108E+03</pdfrwt>
<pdfrwt beam="2">  1       -2 0.68863175E-01 0.95946108E+03</pdfrwt>
<totfact> 0.11497457E+02</totfact>
</mgrwt>
</event>
<event>
 4    1  0.1751735E-005  0.6546890E+03  0.7818608E-02  0.9798020E-01
         -2   -1    0    0    0  501 -0.00000000000E+00  0.00000000000E+00  0.59038052810E+02  0.59038052865E+02  0.25500000000E-02 0. -1.
          2   -1    0    0  501    0  0.00000000000E+00 -0.00000000000E+00 -0.18150058034E+04  0.18150058034E+04  0.25500000000E-02 0.  1.
   -5000001    1    1    2    0    0 -0.20492324778E+03  0.37599483635E+02 -0.97907291151E+03  0.10317417432E+04  0.25000000000E+03 0.  0.
    5000001    1    1    2    0    0  0.20492324778E+03 -0.37599483635E+02 -0.77689483906E+03  0.84230211302E+03  0.25000000000E+03 0.  0.
<mgrwt>
<rscale>  0 0.65468896E+03</rscale>
<asrwt>0</asrwt>
<pdfrwt beam="1">  1        2 0.27923162E+00 0.65468896E+03</pdfrwt>
<pdfrwt beam="2">  1       -2 0.90827787E-02 0.65468896E+03</pdfrwt>
<totfact> 0.69602962E+02</totfact>
</mgrwt>
</event>
<event>
 4    1  0.1751735E-005  0.7828506E+03  0.7818608E-02  0.9585177E-01
         -2   -1    0    0    0  501 -0.00000000000E+00  0.00000000000E+00  0.90363420543E+02  0.90363420579E+02  0.25500000000E-02 0. -1.
          2   -1    0    0  501    0  0.00000000000E+00 -0.00000000000E+00 -0.16955284460E+04  0.16955284460E+04  0.25500000000E-02 0.  1.
   -5000001    1    1    2    0    0  0.17957874581E+03 -0.21264248261E+03 -0.54000472382E+03  0.65694022034E+03  0.25000000000E+03 0.  0.
    5000001    1    1    2    0    0 -0.17957874581E+03  0.21264248261E+03 -0.10651603016E+04  0.11289516462E+04  0.25000000000E+03 0.  0.
<mgrwt>
<rscale>  0 0.78285056E+03</rscale>
<asrwt>0</asrwt>
<pdfrwt beam="1">  1        2 0.26085051E+00 0.78285056E+03</pdfrwt>
<pdfrwt beam="2">  1       -2 0.13902066E-01 0.78285056E+03</pdfrwt>
<totfact> 0.39843867E+02</totfact>
</mgrwt>
</event>
<event>
 4    1  0.1751735E-005  0.8814288E+03  0.7818608E-02  0.9449099E-01
         -2   -1    0    0    0  501 -0.00000000000E+00  0.00000000000E+00  0.26943847434E+03  0.26943847435E+03  0.25500000000E-02 0. -1.
          2   -1    0    0  501    0  0.00000000000E+00 -0.00000000000E+00 -0.72086657238E+03  0.72086657238E+03  0.25500000000E-02 0.  1.
   -5000001    1    1    2    0    0 -0.18680597361E+03 -0.28669039160E+03 -0.36166182807E+03  0.55712398108E+03  0.25000000000E+03 0.  0.
    5000001    1    1    2    0    0  0.18680597361E+03  0.28669039160E+03 -0.89766269968E+02  0.43318106565E+03  0.25000000000E+03 0.  0.
<mgrwt>
<rscale>  0 0.88142882E+03</rscale>
<asrwt>0</asrwt>
<pdfrwt beam="1">  1        2 0.11090255E+00 0.88142882E+03</pdfrwt>
<pdfrwt beam="2">  1       -2 0.41452073E-01 0.88142882E+03</pdfrwt>
<totfact> 0.21831241E+02</totfact>
</mgrwt>
</event>
<event>
 4    1  0.1751735E-005  0.7851521E+03  0.7818608E-02  0.9581761E-01
          2   -1    0    0  501    0  0.00000000000E+00  0.00000000000E+00  0.68220831858E+03  0.68220831859E+03  0.25500000000E-02 0.  1.
         -2   -1    0    0    0  501 -0.00000000000E+00 -0.00000000000E+00 -0.22590747062E+03  0.22590747064E+03  0.25500000000E-02 0. -1.
   -5000001    1    1    2    0    0 -0.25456582794E+03 -0.16338840831E+03  0.24063019932E+03  0.46032860605E+03  0.25000000000E+03 0.  0.
    5000001    1    1    2    0    0  0.25456582794E+03  0.16338840831E+03  0.21567064864E+03  0.44778718317E+03  0.25000000000E+03 0.  0.
<mgrwt>
<rscale>  0 0.78515210E+03</rscale>
<asrwt>0</asrwt>
<pdfrwt beam="1">  1        2 0.10495512E+00 0.78515210E+03</pdfrwt>
<pdfrwt beam="2">  1       -2 0.34754996E-01 0.78515210E+03</pdfrwt>
<totfact> 0.33045717E+02</totfact>
</mgrwt>
</event>
<event>
 4    1  0.1751735E-005  0.6775030E+03  0.7818608E-02  0.9756498E-01
         -2   -1    0    0    0  501 -0.00000000000E+00  0.00000000000E+00  0.26419215262E+03  0.26419215263E+03  0.25500000000E-02 0. -1.
          2   -1    0    0  501    0  0.00000000000E+00 -0.00000000000E+00 -0.43435268227E+03  0.43435268228E+03  0.25500000000E-02 0.  1.
   -5000001    1    1    2    0    0  0.15675275889E+03  0.81519293645E+02  0.64461345789E+02  0.31284514980E+03  0.25000000000E+03 0.  0.
    5000001    1    1    2    0    0 -0.15675275889E+03 -0.81519293645E+02 -0.23462187544E+03  0.38569968510E+03  0.25000000000E+03 0.  0.
<mgrwt>
<rscale>  0 0.67750297E+03</rscale>
<asrwt>0</asrwt>
<pdfrwt beam="1">  1        2 0.66823490E-01 0.67750297E+03</pdfrwt>
<pdfrwt beam="2">  1       -2 0.40644947E-01 0.67750297E+03</pdfrwt>
<totfact> 0.41847904E+02</totfact>
</mgrwt>
</event>
<event>
 4    1  0.1751735E-005  0.7875337E+03  0.7818608E-02  0.9578239E-01
         -2   -1    0    0    0  501 -0.00000000000E+00  0.00000000000E+00  0.98310794023E+02  0.98310794056E+02  0.25500000000E-02 0. -1.
          2   -1    0    0  501    0  0.00000000000E+00 -0.00000000000E+00 -0.15771649660E+04  0.15771649660E+04  0.25500000000E-02 0.  1.
   -5000001    1    1    2    0    0  0.27673952243E+03  0.10094701089E+03 -0.90113475567E+03  0.98046871963E+03  0.25000000000E+03 0.  0.
    5000001    1    1    2    0    0 -0.27673952243E+03 -0.10094701089E+03 -0.57771941634E+03  0.69500704047E+03  0.25000000000E+03 0.  0.
<mgrwt>
<rscale>  0 0.78753372E+03</rscale>
<asrwt>0</asrwt>
<pdfrwt beam="1">  1        2 0.24264075E+00 0.78753372E+03</pdfrwt>
<pdfrwt beam="2">  1       -2 0.15124739E-01 0.78753372E+03</pdfrwt>
<totfact> 0.40145203E+02</totfact>
</mgrwt>
</event>
<event>
 4    1  0.1751735E-005  0.6737383E+03  0.7818608E-02  0.9763228E-01
          2   -1    0    0  501    0  0.00000000000E+00  0.00000000000E+00  0.40484902204E+03  0.40484902205E+03  0.25500000000E-02 0.  1.
         -2   -1    0    0    0  501 -0.00000000000E+00 -0.00000000000E+00 -0.28030409993E+03  0.28030409994E+03  0.25500000000E-02 0. -1.
   -5000001    1    1    2    0    0  0.17869546822E+03  0.16390133284E+02 -0.77089970533E+02  0.31724370819E+03  0.25000000000E+03 0.  0.
    5000001    1    1    2    0    0 -0.17869546822E+03 -0.16390133284E+02  0.20163489265E+03  0.36790941380E+03  0.25000000000E+03 0.  0.
<mgrwt>
<rscale>  0 0.67373835E+03</rscale>
<asrwt>0</asrwt>
<pdfrwt beam="1">  1        2 0.62284465E-01 0.67373835E+03</pdfrwt>
<pdfrwt beam="2">  1       -2 0.43123708E-01 0.67373835E+03</pdfrwt>
<totfact> 0.40338290E+02</totfact>
</mgrwt>
</event>
<event>
 4    1  0.1751735E-005  0.6781426E+03  0.7818608E-02  0.9755359E-01
          2   -1    0    0  501    0  0.00000000000E+00  0.00000000000E+00  0.10177359220E+04  0.10177359220E+04  0.25500000000E-02 0.  1.
         -2   -1    0    0    0  501 -0.00000000000E+00 -0.00000000000E+00 -0.11296578345E+03  0.11296578348E+03  0.25500000000E-02 0. -1.
   -5000001    1    1    2    0    0 -0.16156738219E+03  0.32910317941E+01  0.72306391448E+03  0.78194390739E+03  0.25000000000E+03 0.  0.
    5000001    1    1    2    0    0  0.16156738219E+03 -0.32910317941E+01  0.18170622410E+03  0.34875779813E+03  0.25000000000E+03 0.  0.
<mgrwt>
<rscale>  0 0.67814257E+03</rscale>
<asrwt>0</asrwt>
<pdfrwt beam="1">  1        2 0.15657476E+00 0.67814257E+03</pdfrwt>
<pdfrwt beam="2">  1       -2 0.17379351E-01 0.67814257E+03</pdfrwt>
<totfact> 0.67356605E+02</totfact>
</mgrwt>
</event>
<event>
 4    1  0.1751735E-005  0.6919778E+03  0.7818608E-02  0.9731050E-01
          2   -1    0    0  501    0  0.00000000000E+00  0.00000000000E+00  0.46435185260E+04  0.46435185260E+04  0.25500000000E-02 0.  1.
         -2   -1    0    0    0  501 -0.00000000000E+00 -0.00000000000E+00 -0.25779654263E+02  0.25779654389E+02  0.25500000000E-02 0. -1.
   -5000001    1    1    2    0    0 -0.94462364747E+02  0.21141204649E+03  0.27131784252E+04  0.27344936202E+04  0.25000000000E+03 0.  0.
    5000001    1    1    2    0    0  0.94462364747E+02 -0.21141204649E+03  0.19045604466E+04  0.19348045602E+04  0.25000000000E+03 0.  0.
<mgrwt>
<rscale>  0 0.69197775E+03</rscale>
<asrwt>0</asrwt>
<pdfrwt beam="1">  1        2 0.71438752E+00 0.69197775E+03</pdfrwt>
<pdfrwt beam="2">  1       -2 0.39661003E-02 0.69197775E+03</pdfrwt>
<totfact> 0.30100129E+01</totfact>
</mgrwt>
</event>
<event>
 4    1  0.1751735E-005  0.7992999E+03  0.7818608E-02  0.9561031E-01
         -2   -1    0    0    0  501 -0.00000000000E+00  0.00000000000E+00  0.40513896925E+03  0.40513896926E+03  0.25500000000E-02 0. -1.
          2   -1    0    0  501    0  0.00000000000E+00 -0.00000000000E+00 -0.39423530461E+03  0.39423530462E+03  0.25500000000E-02 0.  1.
   -5000001    1    1    2    0    0  0.81345668033E+02  0.23257877984E+03 -0.18564205199E+03  0.39708056866E+03  0.25000000000E+03 0.  0.
    5000001    1    1    2    0    0 -0.81345668033E+02 -0.23257877984E+03  0.19654571662E+03  0.40229370522E+03  0.25000000000E+03 0.  0.
<mgrwt>
<rscale>  0 0.79929991E+03</rscale>
<asrwt>0</asrwt>
<pdfrwt beam="1">  1        2 0.60651585E-01 0.79929991E+03</pdfrwt>
<pdfrwt beam="2">  1       -2 0.62329073E-01 0.79929991E+03</pdfrwt>
<totfact> 0.19456462E+02</totfact>
</mgrwt>
</event>
<event>
 4    1  0.1751735E-005  0.1157260E+04  0.7818608E-02  0.9151112E-01
         -2   -1    0    0    0  501 -0.00000000000E+00  0.00000000000E+00  0.14777585756E+04  0.14777585756E+04  0.25500000000E-02 0. -1.
          2   -1    0    0  501    0  0.00000000000E+00 -0.00000000000E+00 -0.22656779401E+03  0.22656779403E+03  0.25500000000E-02 0.  1.
   -5000001    1    1    2    0    0  0.54887272936E+02  0.49840103251E+03  0.41270472573E+03  0.69587455233E+03  0.25000000000E+03 0.  0.
    5000001    1    1    2    0    0 -0.54887272936E+02 -0.49840103251E+03  0.83848605586E+03  0.10084518173E+04  0.25000000000E+03 0.  0.
<mgrwt>
<rscale>  0 0.11572597E+04</rscale>
<asrwt>0</asrwt>
<pdfrwt beam="1">  1        2 0.34856584E-01 0.11572597E+04</pdfrwt>
<pdfrwt beam="2">  1       -2 0.22734747E+00 0.11572597E+04</pdfrwt>
<totfact> 0.13229905E+01</totfact>
</mgrwt>
</event>
<event>
 4    1  0.1751735E-005  0.7084369E+03  0.7818608E-02  0.9702912E-01
          2   -1    0    0  501    0  0.00000000000E+00  0.00000000000E+00  0.23212133433E+03  0.23212133434E+03  0.25500000000E-02 0.  1.
         -2   -1    0    0    0  501 -0.00000000000E+00 -0.00000000000E+00 -0.54053928562E+03  0.54053928563E+03  0.25500000000E-02 0. -1.
   -5000001    1    1    2    0    0  0.14553789875E+03 -0.18552991020E+03 -0.24782809954E+03  0.42369965125E+03  0.25000000000E+03 0.  0.
    5000001    1    1    2    0    0 -0.14553789875E+03  0.18552991020E+03 -0.60589851757E+02  0.34896096872E+03  0.25000000000E+03 0.  0.
<mgrwt>
<rscale>  0 0.70843687E+03</rscale>
<asrwt>0</asrwt>
<pdfrwt beam="1">  1        2 0.35710975E-01 0.70843687E+03</pdfrwt>
<pdfrwt beam="2">  1       -2 0.83159890E-01 0.70843687E+03</pdfrwt>
<totfact> 0.18701948E+02</totfact>
</mgrwt>
</event>
<event>
 4    1  0.1751735E-005  0.5749058E+03  0.7818608E-02  0.9958881E-01
          2   -1    0    0  501    0  0.00000000000E+00  0.00000000000E+00  0.22168751969E+04  0.22168751969E+04  0.25500000000E-02 0.  1.
         -2   -1    0    0    0  501 -0.00000000000E+00 -0.00000000000E+00 -0.37272816268E+02  0.37272816355E+02  0.25500000000E-02 0. -1.
   -5000001    1    1    2    0    0 -0.31137715089E+02  0.71744027606E+02  0.62566838276E+03  0.67829026823E+03  0.25000000000E+03 0.  0.
    5000001    1    1    2    0    0  0.31137715089E+02 -0.71744027606E+02  0.15539339978E+04  0.15758577450E+04  0.25000000000E+03 0.  0.
<mgrwt>
<rscale>  0 0.57490584E+03</rscale>
<asrwt>0</asrwt>
<pdfrwt beam="1">  1        2 0.34105769E+00 0.57490584E+03</pdfrwt>
<pdfrwt beam="2">  1       -2 0.57342800E-02 0.57490584E+03</pdfrwt>
<totfact> 0.87758283E+02</totfact>
</mgrwt>
</event>
<event>
 4    1  0.1751735E-005  0.6704399E+03  0.7818608E-02  0.9769163E-01
          2   -1    0    0  501    0  0.00000000000E+00  0.00000000000E+00  0.28589132030E+04  0.28589132030E+04  0.25500000000E-02 0.  1.
         -2   -1    0    0    0  501 -0.00000000000E+00 -0.00000000000E+00 -0.39305989543E+02  0.39305989626E+02  0.25500000000E-02 0. -1.
   -5000001    1    1    2    0    0 -0.14442915543E+03 -0.17030449800E+03  0.14227791116E+04  0.14617331505E+04  0.25000000000E+03 0.  0.
    5000001    1    1    2    0    0  0.14442915543E+03  0.17030449800E+03  0.13968281019E+04  0.14364860421E+04  0.25000000000E+03 0.  0.
<mgrwt>
<rscale>  0 0.67043989E+03</rscale>
<asrwt>0</asrwt>
<pdfrwt beam="1">  1        2 0.43983276E+00 0.67043989E+03</pdfrwt>
<pdfrwt beam="2">  1       -2 0.60470759E-02 0.67043989E+03</pdfrwt>
<totfact> 0.34577088E+02</totfact>
</mgrwt>
</event>
<event>
 4    1  0.1751735E-005  0.7291554E+03  0.7818608E-02  0.9668632E-01
          2   -1    0    0  501    0  0.00000000000E+00  0.00000000000E+00  0.12777227251E+04  0.12777227251E+04  0.25500000000E-02 0.  1.
         -2   -1    0    0    0  501 -0.00000000000E+00 -0.00000000000E+00 -0.10402640458E+03  0.10402640461E+03  0.25500000000E-02 0. -1.
   -5000001    1    1    2    0    0  0.17938633293E+03 -0.19121688265E+03  0.50932557392E+03  0.62502471383E+03  0.25000000000E+03 0.  0.
    5000001    1    1    2    0    0 -0.17938633293E+03  0.19121688265E+03  0.66437074658E+03  0.75672441586E+03  0.25000000000E+03 0.  0.
<mgrwt>
<rscale>  0 0.72915541E+03</rscale>
<asrwt>0</asrwt>
<pdfrwt beam="1">  1        2 0.19657274E+00 0.72915541E+03</pdfrwt>
<pdfrwt beam="2">  1       -2 0.16004062E-01 0.72915541E+03</pdfrwt>
<totfact> 0.53974125E+02</totfact>
</mgrwt>
</event>
<event>
 4    1  0.1751735E-005  0.5860317E+03  0.7818608E-02  0.9934817E-01
         -2   -1    0    0    0  501 -0.00000000000E+00  0.00000000000E+00  0.59727627914E+03  0.59727627914E+03  0.25500000000E-02 0. -1.
          2   -1    0    0  501    0  0.00000000000E+00 -0.00000000000E+00 -0.14374969103E+03  0.14374969105E+03  0.25500000000E-02 0.  1.
   -5000001    1    1    2    0    0 -0.14759184932E+03  0.38111898383E+02  0.24075338233E+03  0.37907527206E+03  0.25000000000E+03 0.  0.
    5000001    1    1    2    0    0  0.14759184932E+03 -0.38111898383E+02  0.21277320578E+03  0.36195069814E+03  0.25000000000E+03 0.  0.
<mgrwt>
<rscale>  0 0.58603167E+03</rscale>
<asrwt>0</asrwt>
<pdfrwt beam="1">  1        2 0.22115337E-01 0.58603167E+03</pdfrwt>
<pdfrwt beam="2">  1       -2 0.91888658E-01 0.58603167E+03</pdfrwt>
<totfact> 0.25738219E+02</totfact>
</mgrwt>
</event>
<event>
 4    1  0.1751735E-005  0.8990376E+03  0.7818608E-02  0.9426785E-01
          2   -1    0    0  501    0  0.00000000000E+00  0.00000000000E+00  0.17748610153E+04  0.17748610153E+04  0.25500000000E-02 0.  1.
         -2   -1    0    0    0  501 -0.00000000000E+00 -0.00000000000E+00 -0.11384955286E+03  0.11384955288E+03  0.25500000000E-02 0. -1.
   -5000001    1    1    2    0    0  0.26168461322E+03 -0.35418511938E+02  0.27534276088E+03  0.45612163263E+03  0.25000000000E+03 0.  0.
    5000001    1    1    2    0    0 -0.26168461322E+03  0.35418511938E+02  0.13856687016E+04  0.14325889356E+04  0.25000000000E+03 0.  0.
<mgrwt>
<rscale>  0 0.89903756E+03</rscale>
<asrwt>0</asrwt>
<pdfrwt beam="1">  1        2 0.27305554E+00 0.89903756E+03</pdfrwt>
<pdfrwt beam="2">  1       -2 0.17515316E-01 0.89903756E+03</pdfrwt>
<totfact> 0.24141586E+02</totfact>
</mgrwt>
</event>
<event>
 4    1  0.1751735E-005  0.1358760E+04  0.7818608E-02  0.8984223E-01
         -2   -1    0    0    0  501 -0.00000000000E+00  0.00000000000E+00  0.16764334045E+03  0.16764334047E+03  0.25500000000E-02 0. -1.
          2   -1    0    0  501    0  0.00000000000E+00 -0.00000000000E+00 -0.27532096132E+04  0.27532096132E+04  0.25500000000E-02 0.  1.
   -5000001    1    1    2    0    0 -0.12184790433E+03  0.59453659474E+03 -0.16696558490E+04  0.17940377166E+04  0.25000000000E+03 0.  0.
    5000001    1    1    2    0    0  0.12184790433E+03 -0.59453659474E+03 -0.91591042372E+03  0.11268152371E+04  0.25000000000E+03 0.  0.
<mgrwt>
<rscale>  0 0.13587601E+04</rscale>
<asrwt>0</asrwt>
<pdfrwt beam="1">  1        2 0.42357068E+00 0.13587601E+04</pdfrwt>
<pdfrwt beam="2">  1       -2 0.25791285E-01 0.13587601E+04</pdfrwt>
<totfact> 0.32875335E+01</totfact>
</mgrwt>
</event>
<event>
 4    1  0.1751735E-005  0.6632252E+03  0.7818608E-02  0.9782275E-01
         -2   -1    0    0    0  501 -0.00000000000E+00  0.00000000000E+00  0.65611074128E+03  0.65611074128E+03  0.25500000000E-02 0. -1.
          2   -1    0    0  501    0  0.00000000000E+00 -0.00000000000E+00 -0.16760420642E+03  0.16760420644E+03  0.25500000000E-02 0.  1.
   -5000001    1    1    2    0    0  0.16658765222E+03  0.84054637504E+02  0.10456298401E+03  0.32901374680E+03  0.25000000000E+03 0.  0.
    5000001    1    1    2    0    0 -0.16658765222E+03 -0.84054637504E+02  0.38394355085E+03  0.49470120092E+03  0.25000000000E+03 0.  0.
<mgrwt>
<rscale>  0 0.66322521E+03</rscale>
<asrwt>0</asrwt>
<pdfrwt beam="1">  1        2 0.25785262E-01 0.66322521E+03</pdfrwt>
<pdfrwt beam="2">  1       -2 0.10094012E+00 0.66322521E+03</pdfrwt>
<totfact> 0.17276674E+02</totfact>
</mgrwt>
</event>
<event>
 4    1  0.1751735E-005  0.6925980E+03  0.7818608E-02  0.9729975E-01
          2   -1    0    0  501    0  0.00000000000E+00  0.00000000000E+00  0.16406769921E+04  0.16406769921E+04  0.25500000000E-02 0.  1.
         -2   -1    0    0    0  501 -0.00000000000E+00 -0.00000000000E+00 -0.73093598101E+02  0.73093598145E+02  0.25500000000E-02 0. -1.
   -5000001    1    1    2    0    0  0.19009480349E+03  0.14548946429E+03  0.81087106774E+03  0.88165475501E+03  0.25000000000E+03 0.  0.
    5000001    1    1    2    0    0 -0.19009480349E+03 -0.14548946429E+03  0.75671232622E+03  0.83211583519E+03  0.25000000000E+03 0.  0.
<mgrwt>
<rscale>  0 0.69259796E+03</rscale>
<asrwt>0</asrwt>
<pdfrwt beam="1">  1        2 0.25241183E+00 0.69259796E+03</pdfrwt>
<pdfrwt beam="2">  1       -2 0.11245169E-01 0.69259796E+03</pdfrwt>
<totfact> 0.61055587E+02</totfact>
</mgrwt>
</event>
<event>
 4    1  0.1751735E-005  0.1343599E+04  0.7818608E-02  0.8995688E-01
         -2   -1    0    0    0  501 -0.00000000000E+00  0.00000000000E+00  0.18167350944E+03  0.18167350946E+03  0.25500000000E-02 0. -1.
          2   -1    0    0  501    0  0.00000000000E+00 -0.00000000000E+00 -0.24842053771E+04  0.24842053771E+04  0.25500000000E-02 0.  1.
   -5000001    1    1    2    0    0 -0.96595888561E+02  0.57509668717E+03 -0.71319307603E+03  0.95457389917E+03  0.25000000000E+03 0.  0.
    5000001    1    1    2    0    0  0.96595888561E+02 -0.57509668717E+03 -0.15893387916E+04  0.17113049874E+04  0.25000000000E+03 0.  0.
<mgrwt>
<rscale>  0 0.13435986E+04</rscale>
<asrwt>0</asrwt>
<pdfrwt beam="1">  1        2 0.38218542E+00 0.13435986E+04</pdfrwt>
<pdfrwt beam="2">  1       -2 0.27949772E-01 0.13435986E+04</pdfrwt>
<totfact> 0.40801781E+01</totfact>
</mgrwt>
</event>
<event>
 4    1  0.1751735E-005  0.1170651E+04  0.7818608E-02  0.9138941E-01
          2   -1    0    0  501    0  0.00000000000E+00  0.00000000000E+00  0.28500672991E+04  0.28500672991E+04  0.25500000000E-02 0.  1.
         -2   -1    0    0    0  501 -0.00000000000E+00 -0.00000000000E+00 -0.12020969879E+03  0.12020969882E+03  0.25500000000E-02 0. -1.
   -5000001    1    1    2    0    0 -0.46039474690E+03  0.25967929601E+03  0.12973648919E+04  0.14230433312E+04  0.25000000000E+03 0.  0.
    5000001    1    1    2    0    0  0.46039474690E+03 -0.25967929601E+03  0.14324927084E+04  0.15472336667E+04  0.25000000000E+03 0.  0.
<mgrwt>
<rscale>  0 0.11706506E+04</rscale>
<asrwt>0</asrwt>
<pdfrwt beam="1">  1        2 0.43847186E+00 0.11706506E+04</pdfrwt>
<pdfrwt beam="2">  1       -2 0.18493801E-01 0.11706506E+04</pdfrwt>
<totfact> 0.52914440E+01</totfact>
</mgrwt>
</event>
<event>
 4    1  0.1751735E-005  0.8259252E+03  0.7818608E-02  0.9523231E-01
         -2   -1    0    0    0  501 -0.00000000000E+00  0.00000000000E+00  0.14573698242E+03  0.14573698245E+03  0.25500000000E-02 0. -1.
          2   -1    0    0  501    0  0.00000000000E+00 -0.00000000000E+00 -0.11701774087E+04  0.11701774087E+04  0.25500000000E-02 0.  1.
   -5000001    1    1    2    0    0 -0.15411867619E+03  0.27912404037E+03 -0.63943516949E+03  0.75699414280E+03  0.25000000000E+03 0.  0.
    5000001    1    1    2    0    0  0.15411867619E+03 -0.27912404037E+03 -0.38500525682E+03  0.55892024837E+03  0.25000000000E+03 0.  0.
<mgrwt>
<rscale>  0 0.82592524E+03</rscale>
<asrwt>0</asrwt>
<pdfrwt beam="1">  1        2 0.18002729E+00 0.82592524E+03</pdfrwt>
<pdfrwt beam="2">  1       -2 0.22421075E-01 0.82592524E+03</pdfrwt>
<totfact> 0.34573797E+02</totfact>
</mgrwt>
</event>
<event>
 4    1  0.1751735E-005  0.5613590E+03  0.7818608E-02  0.9988984E-01
         -2   -1    0    0    0  501 -0.00000000000E+00  0.00000000000E+00  0.27269009776E+02  0.27269009895E+02  0.25500000000E-02 0. -1.
          2   -1    0    0  501    0  0.00000000000E+00 -0.00000000000E+00 -0.28890302026E+04  0.28890302026E+04  0.25500000000E-02 0.  1.
   -5000001    1    1    2    0    0  0.84023988654E+02 -0.69123798580E+02 -0.10846042623E+04  0.11183490224E+04  0.25000000000E+03 0.  0.
    5000001    1    1    2    0    0 -0.84023988654E+02  0.69123798580E+02 -0.17771569305E+04  0.17979501900E+04  0.25000000000E+03 0.  0.
<mgrwt>
<rscale>  0 0.56135904E+03</rscale>
<asrwt>0</asrwt>
<pdfrwt beam="1">  1        2 0.44446594E+00 0.56135904E+03</pdfrwt>
<pdfrwt beam="2">  1       -2 0.41952346E-02 0.56135904E+03</pdfrwt>
<totfact> 0.59236698E+02</totfact>
</mgrwt>
</event>
<event>
 4    1  0.1751735E-005  0.7448822E+03  0.7818608E-02  0.9643414E-01
         -2   -1    0    0    0  501 -0.00000000000E+00  0.00000000000E+00  0.66493038277E+02  0.66493038326E+02  0.25500000000E-02 0.  1.
          2   -1    0    0  501    0  0.00000000000E+00 -0.00000000000E+00 -0.20861189090E+04  0.20861189090E+04  0.25500000000E-02 0. -1.
   -5000001    1    1    2    0    0 -0.80170619020E+01  0.24631972659E+03 -0.65032087702E+03  0.73902295234E+03  0.25000000000E+03 0.  0.
    5000001    1    1    2    0    0  0.80170619020E+01 -0.24631972659E+03 -0.13693049937E+04  0.14135889950E+04  0.25000000000E+03 0.  0.
<mgrwt>
<rscale>  0 0.74488223E+03</rscale>
<asrwt>0</asrwt>
<pdfrwt beam="1">  1        2 0.32094132E+00 0.74488223E+03</pdfrwt>
<pdfrwt beam="2">  1       -2 0.10229700E-01 0.74488223E+03</pdfrwt>
<totfact> 0.40604824E+02</totfact>
</mgrwt>
</event>
<event>
 4    1  0.1751735E-005  0.1167662E+04  0.7818608E-02  0.9141642E-01
         -2   -1    0    0    0  501 -0.00000000000E+00  0.00000000000E+00  0.96949637504E+02  0.96949637538E+02  0.25500000000E-02 0. -1.
          2   -1    0    0  501    0  0.00000000000E+00 -0.00000000000E+00 -0.35158320099E+04  0.35158320099E+04  0.25500000000E-02 0.  1.
   -5000001    1    1    2    0    0  0.41614467208E+03  0.28238154610E+03 -0.22029648535E+04  0.22734269004E+04  0.25000000000E+03 0.  0.
    5000001    1    1    2    0    0 -0.41614467208E+03 -0.28238154610E+03 -0.12159175189E+04  0.13393547470E+04  0.25000000000E+03 0.  0.
<mgrwt>
<rscale>  0 0.11676620E+04</rscale>
<asrwt>0</asrwt>
<pdfrwt beam="1">  1        2 0.54089714E+00 0.11676620E+04</pdfrwt>
<pdfrwt beam="2">  1       -2 0.14915332E-01 0.11676620E+04</pdfrwt>
<totfact> 0.28568606E+01</totfact>
</mgrwt>
</event>
<event>
 4    1  0.1751735E-005  0.1192751E+04  0.7818608E-02  0.9119225E-01
          2   -1    0    0  501    0  0.00000000000E+00  0.00000000000E+00  0.85876423132E+03  0.85876423132E+03  0.25500000000E-02 0.  1.
         -2   -1    0    0    0  501 -0.00000000000E+00 -0.00000000000E+00 -0.41415779513E+03  0.41415779514E+03  0.25500000000E-02 0. -1.
   -5000001    1    1    2    0    0 -0.48922231291E+02 -0.53712827277E+03  0.27307993928E+03  0.65419631561E+03  0.25000000000E+03 0.  0.
    5000001    1    1    2    0    0  0.48922231291E+02  0.53712827277E+03  0.17152649691E+03  0.61872571085E+03  0.25000000000E+03 0.  0.
<mgrwt>
<rscale>  0 0.11927513E+04</rscale>
<asrwt>0</asrwt>
<pdfrwt beam="1">  1        2 0.13211757E+00 0.11927513E+04</pdfrwt>
<pdfrwt beam="2">  1       -2 0.63716584E-01 0.11927513E+04</pdfrwt>
<totfact> 0.70423221E+01</totfact>
</mgrwt>
</event>
<event>
 4    1  0.1751735E-005  0.6360532E+03  0.7818608E-02  0.9833307E-01
          2   -1    0    0  501    0  0.00000000000E+00  0.00000000000E+00  0.40140270730E+03  0.40140270731E+03  0.25500000000E-02 0.  1.
         -2   -1    0    0    0  501 -0.00000000000E+00 -0.00000000000E+00 -0.25196872757E+03  0.25196872758E+03  0.25500000000E-02 0. -1.
   -5000001    1    1    2    0    0  0.12813866202E+02  0.18078084137E+03 -0.34807513762E+01  0.30880094463E+03  0.25000000000E+03 0.  0.
    5000001    1    1    2    0    0 -0.12813866202E+02 -0.18078084137E+03  0.15291473110E+03  0.34457049026E+03  0.25000000000E+03 0.  0.
<mgrwt>
<rscale>  0 0.63605323E+03</rscale>
<asrwt>0</asrwt>
<pdfrwt beam="1">  1        2 0.61754262E-01 0.63605323E+03</pdfrwt>
<pdfrwt beam="2">  1       -2 0.38764420E-01 0.63605323E+03</pdfrwt>
<totfact> 0.50197055E+02</totfact>
</mgrwt>
</event>
<event>
 4    1  0.1751735E-005  0.2141052E+04  0.7818608E-02  0.8543372E-01
          2   -1    0    0  501    0  0.00000000000E+00  0.00000000000E+00  0.18834685774E+04  0.18834685774E+04  0.25500000000E-02 0.  1.
         -2   -1    0    0    0  501 -0.00000000000E+00 -0.00000000000E+00 -0.60846589992E+03  0.60846589993E+03  0.25500000000E-02 0. -1.
   -5000001    1    1    2    0    0 -0.30553893137E+03  0.90112793230E+03  0.11287382904E+04  0.14973094928E+04  0.25000000000E+03 0.  0.
    5000001    1    1    2    0    0  0.30553893137E+03 -0.90112793230E+03  0.14626438708E+03  0.99462498455E+03  0.25000000000E+03 0.  0.
<mgrwt>
<rscale>  0 0.21410525E+04</rscale>
<asrwt>0</asrwt>
<pdfrwt beam="1">  1        2 0.28976439E+00 0.21410525E+04</pdfrwt>
<pdfrwt beam="2">  1       -2 0.93610140E-01 0.21410525E+04</pdfrwt>
<totfact> 0.68710940E+00</totfact>
</mgrwt>
</event>
<event>
 4    1  0.1751735E-005  0.7630341E+03  0.7818608E-02  0.9615121E-01
          2   -1    0    0  501    0  0.00000000000E+00  0.00000000000E+00  0.62652302551E+03  0.62652302551E+03  0.25500000000E-02 0.  1.
         -2   -1    0    0    0  501 -0.00000000000E+00 -0.00000000000E+00 -0.23232226575E+03  0.23232226577E+03  0.25500000000E-02 0. -1.
   -5000001    1    1    2    0    0 -0.11583707187E+03 -0.47003038887E+02 -0.95173696298E+02  0.29527198538E+03  0.25000000000E+03 0.  0.
    5000001    1    1    2    0    0  0.11583707187E+03  0.47003038887E+02  0.48937445605E+03  0.56357330590E+03  0.25000000000E+03 0.  0.
<mgrwt>
<rscale>  0 0.76303407E+03</rscale>
<asrwt>0</asrwt>
<pdfrwt beam="1">  1        2 0.96388156E-01 0.76303407E+03</pdfrwt>
<pdfrwt beam="2">  1       -2 0.35741888E-01 0.76303407E+03</pdfrwt>
<totfact> 0.34835353E+02</totfact>
</mgrwt>
</event>
<event>
 4    1  0.1751735E-005  0.5726409E+03  0.7818608E-02  0.9963852E-01
          2   -1    0    0  501    0  0.00000000000E+00  0.00000000000E+00  0.11646608554E+03  0.11646608557E+03  0.25500000000E-02 0.  1.
         -2   -1    0    0    0  501 -0.00000000000E+00 -0.00000000000E+00 -0.70389079832E+03  0.70389079832E+03  0.25500000000E-02 0. -1.
   -5000001    1    1    2    0    0  0.13606260547E+01 -0.13211963309E+03 -0.22929447673E+03  0.36405137798E+03  0.25000000000E+03 0.  0.
    5000001    1    1    2    0    0 -0.13606260547E+01  0.13211963309E+03 -0.35813023605E+03  0.45630550591E+03  0.25000000000E+03 0.  0.
<mgrwt>
<rscale>  0 0.57264092E+03</rscale>
<asrwt>0</asrwt>
<pdfrwt beam="1">  1        2 0.17917860E-01 0.57264092E+03</pdfrwt>
<pdfrwt beam="2">  1       -2 0.10829089E+00 0.57264092E+03</pdfrwt>
<totfact> 0.22373896E+02</totfact>
</mgrwt>
</event>
<event>
 4    1  0.1751735E-005  0.5954374E+03  0.7818608E-02  0.9914917E-01
         -2   -1    0    0    0  501 -0.00000000000E+00  0.00000000000E+00  0.78971623790E+02  0.78971623831E+02  0.25500000000E-02 0. -1.
          2   -1    0    0  501    0  0.00000000000E+00 -0.00000000000E+00 -0.11223833224E+04  0.11223833224E+04  0.25500000000E-02 0.  1.
   -5000001    1    1    2    0    0 -0.21622471317E+02  0.14911576060E+03 -0.63992747195E+03  0.70335638952E+03  0.25000000000E+03 0.  0.
    5000001    1    1    2    0    0  0.21622471317E+02 -0.14911576060E+03 -0.40348422666E+03  0.49799855671E+03  0.25000000000E+03 0.  0.
<mgrwt>
<rscale>  0 0.59543743E+03</rscale>
<asrwt>0</asrwt>
<pdfrwt beam="1">  1        2 0.17267435E+00 0.59543743E+03</pdfrwt>
<pdfrwt beam="2">  1       -2 0.12149481E-01 0.59543743E+03</pdfrwt>
<totfact> 0.10631239E+03</totfact>
</mgrwt>
</event>
<event>
 4    1  0.1751735E-005  0.7132075E+03  0.7818608E-02  0.9694908E-01
          2   -1    0    0  501    0  0.00000000000E+00  0.00000000000E+00  0.32000208270E+04  0.32000208270E+04  0.25500000000E-02 0.  1.
         -2   -1    0    0    0  501 -0.00000000000E+00 -0.00000000000E+00 -0.39739186309E+02  0.39739186391E+02  0.25500000000E-02 0. -1.
   -5000001    1    1    2    0    0  0.82845379939E+02  0.23743971340E+03  0.17516322439E+04  0.17871643720E+04  0.25000000000E+03 0.  0.
    5000001    1    1    2    0    0 -0.82845379939E+02 -0.23743971340E+03  0.14086493968E+04  0.14525956415E+04  0.25000000000E+03 0.  0.
<mgrwt>
<rscale>  0 0.71320747E+03</rscale>
<asrwt>0</asrwt>
<pdfrwt beam="1">  1        2 0.49231072E+00 0.71320747E+03</pdfrwt>
<pdfrwt beam="2">  1       -2 0.61137231E-02 0.71320747E+03</pdfrwt>
<totfact> 0.20875650E+02</totfact>
</mgrwt>
</event>
<event>
 4    1  0.1751735E-005  0.9306797E+03  0.7818608E-02  0.9388023E-01
          2   -1    0    0  501    0  0.00000000000E+00  0.00000000000E+00  0.50469078565E+03  0.50469078566E+03  0.25500000000E-02 0.  1.
         -2   -1    0    0    0  501 -0.00000000000E+00 -0.00000000000E+00 -0.42905712699E+03  0.42905712700E+03  0.25500000000E-02 0. -1.
   -5000001    1    1    2    0    0  0.35214414726E+03  0.13278733917E+03  0.14955364349E+03  0.47592464758E+03  0.25000000000E+03 0.  0.
    5000001    1    1    2    0    0 -0.35214414726E+03 -0.13278733917E+03 -0.73919984832E+02  0.45782326508E+03  0.25000000000E+03 0.  0.
<mgrwt>
<rscale>  0 0.93067971E+03</rscale>
<asrwt>0</asrwt>
<pdfrwt beam="1">  1        2 0.77644736E-01 0.93067971E+03</pdfrwt>
<pdfrwt beam="2">  1       -2 0.66008789E-01 0.93067971E+03</pdfrwt>
<totfact> 0.12897569E+02</totfact>
</mgrwt>
</event>
<event>
 4    1  0.1751735E-005  0.7041647E+03  0.7818608E-02  0.9710136E-01
         -2   -1    0    0    0  501 -0.00000000000E+00  0.00000000000E+00  0.10144874615E+03  0.10144874618E+03  0.25500000000E-02 0. -1.
          2   -1    0    0  501    0  0.00000000000E+00 -0.00000000000E+00 -0.12219174113E+04  0.12219174113E+04  0.25500000000E-02 0.  1.
   -5000001    1    1    2    0    0 -0.38016674849E+02 -0.21350977920E+03 -0.78599245190E+03  0.85282813499E+03  0.25000000000E+03 0.  0.
    5000001    1    1    2    0    0  0.38016674849E+02  0.21350977920E+03 -0.33447621324E+03  0.47053802248E+03  0.25000000000E+03 0.  0.
<mgrwt>
<rscale>  0 0.70416472E+03</rscale>
<asrwt>0</asrwt>
<pdfrwt beam="1">  1        2 0.18798728E+00 0.70416472E+03</pdfrwt>
<pdfrwt beam="2">  1       -2 0.15607500E-01 0.70416472E+03</pdfrwt>
<totfact> 0.60776436E+02</totfact>
</mgrwt>
</event>
<event>
 4    1  0.1751735E-005  0.6880707E+03  0.7818608E-02  0.9737853E-01
         -2   -1    0    0    0  501 -0.00000000000E+00  0.00000000000E+00  0.91964268234E+02  0.91964268270E+02  0.25500000000E-02 0. -1.
          2   -1    0    0  501    0  0.00000000000E+00 -0.00000000000E+00 -0.12870250024E+04  0.12870250024E+04  0.25500000000E-02 0.  1.
   -5000001    1    1    2    0    0 -0.14884285006E+03  0.94040498087E+02 -0.28152077417E+03  0.41563416075E+03  0.25000000000E+03 0.  0.
    5000001    1    1    2    0    0  0.14884285006E+03 -0.94040498087E+02 -0.91353995999E+03  0.96335510991E+03  0.25000000000E+03 0.  0.
<mgrwt>
<rscale>  0 0.68807067E+03</rscale>
<asrwt>0</asrwt>
<pdfrwt beam="1">  1        2 0.19800383E+00 0.68807067E+03</pdfrwt>
<pdfrwt beam="2">  1       -2 0.14148350E-01 0.68807067E+03</pdfrwt>
<totfact> 0.65784532E+02</totfact>
</mgrwt>
</event>
<event>
 4    1  0.1751735E-005  0.1507590E+04  0.7818608E-02  0.8879421E-01
          2   -1    0    0  501    0  0.00000000000E+00  0.00000000000E+00  0.13331681550E+04  0.13331681550E+04  0.25500000000E-02 0.  1.
         -2   -1    0    0    0  501 -0.00000000000E+00 -0.00000000000E+00 -0.42620801955E+03  0.42620801955E+03  0.25500000000E-02 0. -1.
   -5000001    1    1    2    0    0  0.52750449736E+03 -0.42460966793E+03  0.70689268393E+03  0.10103225383E+04  0.25000000000E+03 0.  0.
    5000001    1    1    2    0    0 -0.52750449736E+03  0.42460966793E+03  0.20006745156E+03  0.74905363627E+03  0.25000000000E+03 0.  0.
<mgrwt>
<rscale>  0 0.15075901E+04</rscale>
<asrwt>0</asrwt>
<pdfrwt beam="1">  1        2 0.20510279E+00 0.15075901E+04</pdfrwt>
<pdfrwt beam="2">  1       -2 0.65570466E-01 0.15075901E+04</pdfrwt>
<totfact> 0.32713096E+01</totfact>
</mgrwt>
</event>
<event>
 4    1  0.1751735E-005  0.1269108E+04  0.7818608E-02  0.9054428E-01
         -2   -1    0    0    0  501 -0.00000000000E+00  0.00000000000E+00  0.19536777072E+03  0.19536777074E+03  0.25500000000E-02 0. -1.
          2   -1    0    0  501    0  0.00000000000E+00 -0.00000000000E+00 -0.20610287795E+04  0.20610287795E+04  0.25500000000E-02 0.  1.
   -5000001    1    1    2    0    0  0.43403535619E+02 -0.56861016519E+03 -0.71538909423E+03  0.94841074594E+03  0.25000000000E+03 0.  0.
    5000001    1    1    2    0    0 -0.43403535619E+02  0.56861016519E+03 -0.11502719146E+04  0.13079858043E+04  0.25000000000E+03 0.  0.
<mgrwt>
<rscale>  0 0.12691077E+04</rscale>
<asrwt>0</asrwt>
<pdfrwt beam="1">  1        2 0.31708134E+00 0.12691077E+04</pdfrwt>
<pdfrwt beam="2">  1       -2 0.30056581E-01 0.12691077E+04</pdfrwt>
<totfact> 0.62091420E+01</totfact>
</mgrwt>
</event>
<event>
 4    1  0.1751735E-005  0.5841129E+03  0.7818608E-02  0.9938926E-01
         -2   -1    0    0    0  501 -0.00000000000E+00  0.00000000000E+00  0.31064618719E+02  0.31064618824E+02  0.25500000000E-02 0. -1.
          2   -1    0    0  501    0  0.00000000000E+00 -0.00000000000E+00 -0.27457920059E+04  0.27457920059E+04  0.25500000000E-02 0.  1.
   -5000001    1    1    2    0    0 -0.81235658508E+02  0.86466946619E+02 -0.91340233609E+03  0.95440012188E+03  0.25000000000E+03 0.  0.
    5000001    1    1    2    0    0  0.81235658508E+02 -0.86466946619E+02 -0.18013250510E+04  0.18224565028E+04  0.25000000000E+03 0.  0.
<mgrwt>
<rscale>  0 0.58411294E+03</rscale>
<asrwt>0</asrwt>
<pdfrwt beam="1">  1        2 0.42242935E+00 0.58411294E+03</pdfrwt>
<pdfrwt beam="2">  1       -2 0.47791743E-02 0.58411294E+03</pdfrwt>
<totfact> 0.58679540E+02</totfact>
</mgrwt>
</event>
<event>
 4    1  0.1751735E-005  0.5213530E+03  0.7818608E-02  0.1008351E+00
          2   -1    0    0  501    0  0.00000000000E+00  0.00000000000E+00  0.13670323771E+03  0.13670323773E+03  0.25500000000E-02 0.  1.
         -2   -1    0    0    0  501 -0.00000000000E+00 -0.00000000000E+00 -0.49707853939E+03  0.49707853940E+03  0.25500000000E-02 0. -1.
   -5000001    1    1    2    0    0  0.43392678477E+02 -0.57115600410E+02 -0.15888328896E+03  0.30477699366E+03  0.25000000000E+03 0.  0.
    5000001    1    1    2    0    0 -0.43392678477E+02  0.57115600410E+02 -0.20149201272E+03  0.32900478347E+03  0.25000000000E+03 0.  0.
<mgrwt>
<rscale>  0 0.52135303E+03</rscale>
<asrwt>0</asrwt>
<pdfrwt beam="1">  1        2 0.21031268E-01 0.52135303E+03</pdfrwt>
<pdfrwt beam="2">  1       -2 0.76473621E-01 0.52135303E+03</pdfrwt>
<totfact> 0.41363406E+02</totfact>
</mgrwt>
</event>
<event>
 4    1  0.1751735E-005  0.1435569E+04  0.7818608E-02  0.8928467E-01
          2   -1    0    0  501    0  0.00000000000E+00  0.00000000000E+00  0.34683183577E+04  0.34683183577E+04  0.25500000000E-02 0.  1.
         -2   -1    0    0    0  501 -0.00000000000E+00 -0.00000000000E+00 -0.14854875028E+03  0.14854875030E+03  0.25500000000E-02 0. -1.
   -5000001    1    1    2    0    0 -0.17757410209E+03  0.58140248950E+03  0.93336511989E+03  0.11415918113E+04  0.25000000000E+03 0.  0.
    5000001    1    1    2    0    0  0.17757410209E+03 -0.58140248950E+03  0.23864044876E+04  0.24752752968E+04  0.25000000000E+03 0.  0.
<mgrwt>
<rscale>  0 0.14355687E+04</rscale>
<asrwt>0</asrwt>
<pdfrwt beam="1">  1        2 0.53358747E+00 0.14355687E+04</pdfrwt>
<pdfrwt beam="2">  1       -2 0.22853653E-01 0.14355687E+04</pdfrwt>
<totfact> 0.14227252E+01</totfact>
</mgrwt>
</event>
<event>
 4    1  0.1751735E-005  0.7039119E+03  0.7818608E-02  0.9710566E-01
          2   -1    0    0  501    0  0.00000000000E+00  0.00000000000E+00  0.20197428972E+03  0.20197428973E+03  0.25500000000E-02 0. -1.
         -2   -1    0    0    0  501 -0.00000000000E+00 -0.00000000000E+00 -0.61331060582E+03  0.61331060583E+03  0.25500000000E-02 0.  1.
   -5000001    1    1    2    0    0  0.17647801137E+03  0.13532070867E+03 -0.33210416899E+03  0.47143330573E+03  0.25000000000E+03 0.  0.
    5000001    1    1    2    0    0 -0.17647801137E+03 -0.13532070867E+03 -0.79232147116E+02  0.34385158983E+03  0.25000000000E+03 0.  0.
<mgrwt>
<rscale>  0 0.70391185E+03</rscale>
<asrwt>0</asrwt>
<pdfrwt beam="1">  1        2 0.31072968E-01 0.70391185E+03</pdfrwt>
<pdfrwt beam="2">  1       -2 0.94355477E-01 0.70391185E+03</pdfrwt>
<totfact> 0.16359800E+02</totfact>
</mgrwt>
</event>
<event>
 4    1  0.1751735E-005  0.1318295E+04  0.7818608E-02  0.9015182E-01
          2   -1    0    0  501    0  0.00000000000E+00  0.00000000000E+00  0.13379083761E+04  0.13379083761E+04  0.25500000000E-02 0.  1.
         -2   -1    0    0    0  501 -0.00000000000E+00 -0.00000000000E+00 -0.32474230916E+03  0.32474230917E+03  0.25500000000E-02 0. -1.
   -5000001    1    1    2    0    0 -0.45422481650E+02 -0.44954206335E+03 -0.10089853867E+02  0.51648143598E+03  0.25000000000E+03 0.  0.
    5000001    1    1    2    0    0  0.45422481650E+02  0.44954206335E+03  0.10232559209E+04  0.11461692493E+04  0.25000000000E+03 0.  0.
<mgrwt>
<rscale>  0 0.13182950E+04</rscale>
<asrwt>0</asrwt>
<pdfrwt beam="1">  1        2 0.20583206E+00 0.13182950E+04</pdfrwt>
<pdfrwt beam="2">  1       -2 0.49960355E-01 0.13182950E+04</pdfrwt>
<totfact> 0.58288737E+01</totfact>
</mgrwt>
</event>
<event>
 4    1  0.1751735E-005  0.5579618E+03  0.7818608E-02  0.9996677E-01
          2   -1    0    0  501    0  0.00000000000E+00  0.00000000000E+00  0.19498020250E+04  0.19498020250E+04  0.25500000000E-02 0.  1.
         -2   -1    0    0    0  501 -0.00000000000E+00 -0.00000000000E+00 -0.39917051706E+02  0.39917051787E+02  0.25500000000E-02 0. -1.
   -5000001    1    1    2    0    0  0.59545160704E+02  0.94906468082E+02  0.76700513532E+03  0.81446285456E+03  0.25000000000E+03 0.  0.
    5000001    1    1    2    0    0 -0.59545160704E+02 -0.94906468082E+02  0.11428798380E+04  0.11752562222E+04  0.25000000000E+03 0.  0.
<mgrwt>
<rscale>  0 0.55796182E+03</rscale>
<asrwt>0</asrwt>
<pdfrwt beam="1">  1        2 0.29996954E+00 0.55796182E+03</pdfrwt>
<pdfrwt beam="2">  1       -2 0.61410850E-02 0.55796182E+03</pdfrwt>
<totfact> 0.11021147E+03</totfact>
</mgrwt>
</event>
<event>
 4    1  0.1751735E-005  0.6699794E+03  0.7818608E-02  0.9769995E-01
         -2   -1    0    0    0  501 -0.00000000000E+00  0.00000000000E+00  0.12315783160E+03  0.12315783163E+03  0.25500000000E-02 0. -1.
          2   -1    0    0  501    0  0.00000000000E+00 -0.00000000000E+00 -0.91117296859E+03  0.91117296860E+03  0.25500000000E-02 0.  1.
   -5000001    1    1    2    0    0  0.28669525518E+02  0.20693595351E+03 -0.51432350175E+03  0.60882928231E+03  0.25000000000E+03 0.  0.
    5000001    1    1    2    0    0 -0.28669525518E+02 -0.20693595351E+03 -0.27369163524E+03  0.42550151791E+03  0.25000000000E+03 0.  0.
<mgrwt>
<rscale>  0 0.66997936E+03</rscale>
<asrwt>0</asrwt>
<pdfrwt beam="1">  1        2 0.14018045E+00 0.66997936E+03</pdfrwt>
<pdfrwt beam="2">  1       -2 0.18947359E-01 0.66997936E+03</pdfrwt>
<totfact> 0.68040999E+02</totfact>
</mgrwt>
</event>
<event>
 4    1  0.1751735E-005  0.5882064E+03  0.7818608E-02  0.9930181E-01
         -2   -1    0    0    0  501 -0.00000000000E+00  0.00000000000E+00  0.21895893494E+03  0.21895893496E+03  0.25500000000E-02 0. -1.
          2   -1    0    0  501    0  0.00000000000E+00 -0.00000000000E+00 -0.39503607422E+03  0.39503607423E+03  0.25500000000E-02 0.  1.
   -5000001    1    1    2    0    0 -0.13247265949E+03 -0.37481103595E+01 -0.17176507737E+03  0.33100799937E+03  0.25000000000E+03 0.  0.
    5000001    1    1    2    0    0  0.13247265949E+03  0.37481103595E+01 -0.43120619055E+01  0.28298700981E+03  0.25000000000E+03 0.  0.
<mgrwt>
<rscale>  0 0.58820635E+03</rscale>
<asrwt>0</asrwt>
<pdfrwt beam="1">  1        2 0.60774781E-01 0.58820635E+03</pdfrwt>
<pdfrwt beam="2">  1       -2 0.33685990E-01 0.58820635E+03</pdfrwt>
<totfact> 0.66863577E+02</totfact>
</mgrwt>
</event>
<event>
 4    1  0.1751735E-005  0.6370707E+03  0.7818608E-02  0.9831347E-01
         -2   -1    0    0    0  501 -0.00000000000E+00  0.00000000000E+00  0.11259916082E+03  0.11259916085E+03  0.25500000000E-02 0. -1.
          2   -1    0    0  501    0  0.00000000000E+00 -0.00000000000E+00 -0.90111472936E+03  0.90111472936E+03  0.25500000000E-02 0.  1.
   -5000001    1    1    2    0    0 -0.11455753159E+03  0.14006021882E+03 -0.26871870219E+03  0.40920659067E+03  0.25000000000E+03 0.  0.
    5000001    1    1    2    0    0  0.11455753159E+03 -0.14006021882E+03 -0.51979686635E+03  0.60450729954E+03  0.25000000000E+03 0.  0.
<mgrwt>
<rscale>  0 0.63707068E+03</rscale>
<asrwt>0</asrwt>
<pdfrwt beam="1">  1        2 0.13863303E+00 0.63707068E+03</pdfrwt>
<pdfrwt beam="2">  1       -2 0.17322948E-01 0.63707068E+03</pdfrwt>
<totfact> 0.80727634E+02</totfact>
</mgrwt>
</event>
<event>
 4    1  0.1751735E-005  0.6919551E+03  0.7818608E-02  0.9731090E-01
         -2   -1    0    0    0  501 -0.00000000000E+00  0.00000000000E+00  0.23302398549E+03  0.23302398550E+03  0.25500000000E-02 0. -1.
          2   -1    0    0  501    0  0.00000000000E+00 -0.00000000000E+00 -0.51368302303E+03  0.51368302304E+03  0.25500000000E-02 0.  1.
   -5000001    1    1    2    0    0  0.19554282710E+03 -0.11183179393E+03 -0.22704400841E+03  0.40594621456E+03  0.25000000000E+03 0.  0.
    5000001    1    1    2    0    0 -0.19554282710E+03  0.11183179393E+03 -0.53615029134E+02  0.34076079397E+03  0.25000000000E+03 0.  0.
<mgrwt>
<rscale>  0 0.69195510E+03</rscale>
<asrwt>0</asrwt>
<pdfrwt beam="1">  1        2 0.79028157E-01 0.69195510E+03</pdfrwt>
<pdfrwt beam="2">  1       -2 0.35849844E-01 0.69195510E+03</pdfrwt>
<totfact> 0.43971103E+02</totfact>
</mgrwt>
</event>
<event>
 4    1  0.1751735E-005  0.9303816E+03  0.7818608E-02  0.9388380E-01
         -2   -1    0    0    0  501 -0.00000000000E+00  0.00000000000E+00  0.34143554337E+03  0.34143554338E+03  0.25500000000E-02 0. -1.
          2   -1    0    0  501    0  0.00000000000E+00 -0.00000000000E+00 -0.63380187659E+03  0.63380187660E+03  0.25500000000E-02 0.  1.
   -5000001    1    1    2    0    0 -0.10970302528E+03  0.17830746680E+03  0.20158671618E+03  0.38336080996E+03  0.25000000000E+03 0.  0.
    5000001    1    1    2    0    0  0.10970302528E+03 -0.17830746680E+03 -0.49395304940E+03  0.59187661002E+03  0.25000000000E+03 0.  0.
<mgrwt>
<rscale>  0 0.93038162E+03</rscale>
<asrwt>0</asrwt>
<pdfrwt beam="1">  1        2 0.97507981E-01 0.93038162E+03</pdfrwt>
<pdfrwt beam="2">  1       -2 0.52528545E-01 0.93038162E+03</pdfrwt>
<totfact> 0.15896254E+02</totfact>
</mgrwt>
</event>
<event>
 4    1  0.1751735E-005  0.6610989E+03  0.7818608E-02  0.9786173E-01
         -2   -1    0    0    0  501 -0.00000000000E+00  0.00000000000E+00  0.34892908735E+03  0.34892908736E+03  0.25500000000E-02 0. -1.
          2   -1    0    0  501    0  0.00000000000E+00 -0.00000000000E+00 -0.31313791439E+03  0.31313791440E+03  0.25500000000E-02 0.  1.
   -5000001    1    1    2    0    0 -0.21368650057E+03 -0.19994754189E+02  0.44414848319E+02  0.33246712540E+03  0.25000000000E+03 0.  0.
    5000001    1    1    2    0    0  0.21368650057E+03  0.19994754189E+02 -0.86236753599E+01  0.32959987636E+03  0.25000000000E+03 0.  0.
<mgrwt>
<rscale>  0 0.66109886E+03</rscale>
<asrwt>0</asrwt>
<pdfrwt beam="1">  1        2 0.48175064E-01 0.66109886E+03</pdfrwt>
<pdfrwt beam="2">  1       -2 0.53681398E-01 0.66109886E+03</pdfrwt>
<totfact> 0.34550742E+02</totfact>
</mgrwt>
</event>
<event>
 4    1  0.1751735E-005  0.1093269E+04  0.7818608E-02  0.9211777E-01
          2   -1    0    0  501    0  0.00000000000E+00  0.00000000000E+00  0.24283298577E+04  0.24283298577E+04  0.25500000000E-02 0.  1.
         -2   -1    0    0    0  501 -0.00000000000E+00 -0.00000000000E+00 -0.12305141350E+03  0.12305141353E+03  0.25500000000E-02 0. -1.
   -5000001    1    1    2    0    0  0.25466059148E+03 -0.27039889375E+03  0.42079711145E+03  0.61444103671E+03  0.25000000000E+03 0.  0.
    5000001    1    1    2    0    0 -0.25466059148E+03  0.27039889375E+03  0.18844813327E+04  0.19369402345E+04  0.25000000000E+03 0.  0.
<mgrwt>
<rscale>  0 0.10932693E+04</rscale>
<asrwt>0</asrwt>
<pdfrwt beam="1">  1        2 0.37358916E+00 0.10932693E+04</pdfrwt>
<pdfrwt beam="2">  1       -2 0.18930989E-01 0.10932693E+04</pdfrwt>
<totfact> 0.90216913E+01</totfact>
</mgrwt>
</event>
<event>
 4    1  0.1751735E-005  0.8517229E+03  0.7818608E-02  0.9488028E-01
          2   -1    0    0  501    0  0.00000000000E+00  0.00000000000E+00  0.20428503163E+04  0.20428503163E+04  0.25500000000E-02 0.  1.
         -2   -1    0    0    0  501 -0.00000000000E+00 -0.00000000000E+00 -0.88776917625E+02  0.88776917661E+02  0.25500000000E-02 0. -1.
   -5000001    1    1    2    0    0  0.16776160264E+03 -0.29230146318E+03  0.11587877772E+04  0.12324257435E+04  0.25000000000E+03 0.  0.
    5000001    1    1    2    0    0 -0.16776160264E+03  0.29230146318E+03  0.79528562150E+03  0.89920149046E+03  0.25000000000E+03 0.  0.
<mgrwt>
<rscale>  0 0.85172285E+03</rscale>
<asrwt>0</asrwt>
<pdfrwt beam="1">  1        2 0.31428462E+00 0.85172285E+03</pdfrwt>
<pdfrwt beam="2">  1       -2 0.13657989E-01 0.85172285E+03</pdfrwt>
<totfact> 0.26374866E+02</totfact>
</mgrwt>
</event>
<event>
 4    1  0.1751735E-005  0.6164354E+03  0.7818608E-02  0.9871883E-01
         -2   -1    0    0    0  501 -0.00000000000E+00  0.00000000000E+00  0.46341228490E+03  0.46341228491E+03  0.25500000000E-02 0. -1.
          2   -1    0    0  501    0  0.00000000000E+00 -0.00000000000E+00 -0.20499701713E+03  0.20499701715E+03  0.25500000000E-02 0.  1.
   -5000001    1    1    2    0    0 -0.68996595259E+02 -0.16257027676E+03  0.89984377393E+02  0.31904045703E+03  0.25000000000E+03 0.  0.
    5000001    1    1    2    0    0  0.68996595259E+02  0.16257027676E+03  0.16843089037E+03  0.34936884503E+03  0.25000000000E+03 0.  0.
<mgrwt>
<rscale>  0 0.61643535E+03</rscale>
<asrwt>0</asrwt>
<pdfrwt beam="1">  1        2 0.31538003E-01 0.61643535E+03</pdfrwt>
<pdfrwt beam="2">  1       -2 0.71294196E-01 0.61643535E+03</pdfrwt>
<totfact> 0.30350256E+02</totfact>
</mgrwt>
</event>
<event>
 4    1  0.1751735E-005  0.8429338E+03  0.7818608E-02  0.9499870E-01
          2   -1    0    0  501    0  0.00000000000E+00  0.00000000000E+00  0.84636458076E+03  0.84636458077E+03  0.25500000000E-02 0.  1.
         -2   -1    0    0    0  501 -0.00000000000E+00 -0.00000000000E+00 -0.20987923678E+03  0.20987923680E+03  0.25500000000E-02 0. -1.
   -5000001    1    1    2    0    0  0.33327984727E+03 -0.32799257299E+02  0.24980347094E+03  0.48688091149E+03  0.25000000000E+03 0.  0.
    5000001    1    1    2    0    0 -0.33327984727E+03  0.32799257299E+02  0.38668187304E+03  0.56936290608E+03  0.25000000000E+03 0.  0.
<mgrwt>
<rscale>  0 0.84293381E+03</rscale>
<asrwt>0</asrwt>
<pdfrwt beam="1">  1        2 0.13020993E+00 0.84293381E+03</pdfrwt>
<pdfrwt beam="2">  1       -2 0.32289114E-01 0.84293381E+03</pdfrwt>
<totfact> 0.28608810E+02</totfact>
</mgrwt>
</event>
<event>
 4    1  0.1751735E-005  0.1139426E+04  0.7818608E-02  0.9167594E-01
          2   -1    0    0  501    0  0.00000000000E+00  0.00000000000E+00  0.10838132019E+04  0.10838132019E+04  0.25500000000E-02 0.  1.
         -2   -1    0    0    0  501 -0.00000000000E+00 -0.00000000000E+00 -0.29947329865E+03  0.29947329866E+03  0.25500000000E-02 0. -1.
   -5000001    1    1    2    0    0 -0.16874515890E+03 -0.46255774025E+03  0.22204019447E+03  0.59517765388E+03  0.25000000000E+03 0.  0.
    5000001    1    1    2    0    0  0.16874515890E+03  0.46255774025E+03  0.56229970876E+03  0.78810884666E+03  0.25000000000E+03 0.  0.
<mgrwt>
<rscale>  0 0.11394264E+04</rscale>
<asrwt>0</asrwt>
<pdfrwt beam="1">  1        2 0.16674049E+00 0.11394264E+04</pdfrwt>
<pdfrwt beam="2">  1       -2 0.46072815E-01 0.11394264E+04</pdfrwt>
<totfact> 0.98603618E+01</totfact>
</mgrwt>
</event>
<event>
 4    1  0.1751735E-005  0.9543489E+03  0.7818608E-02  0.9360082E-01
         -2   -1    0    0    0  501 -0.00000000000E+00  0.00000000000E+00  0.28671654079E+03  0.28671654080E+03  0.25500000000E-02 0.  1.
          2   -1    0    0  501    0  0.00000000000E+00 -0.00000000000E+00 -0.79414827808E+03  0.79414827809E+03  0.25500000000E-02 0. -1.
   -5000001    1    1    2    0    0 -0.12664099714E+03  0.34678909848E+03 -0.44623516041E+03  0.63081410841E+03  0.25000000000E+03 0.  0.
    5000001    1    1    2    0    0  0.12664099714E+03 -0.34678909848E+03 -0.61196576884E+02  0.45005071048E+03  0.25000000000E+03 0.  0.
<mgrwt>
<rscale>  0 0.95434888E+03</rscale>
<asrwt>0</asrwt>
<pdfrwt beam="1">  1        2 0.12217666E+00 0.95434888E+03</pdfrwt>
<pdfrwt beam="2">  1       -2 0.44110237E-01 0.95434888E+03</pdfrwt>
<totfact> 0.16957736E+02</totfact>
</mgrwt>
</event>
<event>
 4    1  0.1751735E-005  0.8653504E+03  0.7818608E-02  0.9469963E-01
          2   -1    0    0  501    0  0.00000000000E+00  0.00000000000E+00  0.26089672750E+04  0.26089672750E+04  0.25500000000E-02 0.  1.
         -2   -1    0    0    0  501 -0.00000000000E+00 -0.00000000000E+00 -0.71755528070E+02  0.71755528115E+02  0.25500000000E-02 0. -1.
   -5000001    1    1    2    0    0 -0.18857769435E+03 -0.10907114574E+03  0.40759528497E+03  0.52544455270E+03  0.25000000000E+03 0.  0.
    5000001    1    1    2    0    0  0.18857769435E+03  0.10907114574E+03  0.21296164619E+04  0.21552782504E+04  0.25000000000E+03 0.  0.
<mgrwt>
<rscale>  0 0.86535039E+03</rscale>
<asrwt>0</asrwt>
<pdfrwt beam="1">  1        2 0.40137951E+00 0.86535039E+03</pdfrwt>
<pdfrwt beam="2">  1       -2 0.11039314E-01 0.86535039E+03</pdfrwt>
<totfact> 0.18074508E+02</totfact>
</mgrwt>
</event>
<event>
 4    1  0.1751735E-005  0.1163825E+04  0.7818608E-02  0.9145123E-01
          2   -1    0    0  501    0  0.00000000000E+00  0.00000000000E+00  0.78764393892E+03  0.78764393892E+03  0.25500000000E-02 0.  1.
         -2   -1    0    0    0  501 -0.00000000000E+00 -0.00000000000E+00 -0.42991764849E+03  0.42991764849E+03  0.25500000000E-02 0. -1.
   -5000001    1    1    2    0    0  0.45265172040E+03  0.25702888270E+03  0.10367976758E+03  0.58669150388E+03  0.25000000000E+03 0.  0.
    5000001    1    1    2    0    0 -0.45265172040E+03 -0.25702888270E+03  0.25404652285E+03  0.63087008353E+03  0.25000000000E+03 0.  0.
<mgrwt>
<rscale>  0 0.11638248E+04</rscale>
<asrwt>0</asrwt>
<pdfrwt beam="1">  1        2 0.12117599E+00 0.11638248E+04</pdfrwt>
<pdfrwt beam="2">  1       -2 0.66141177E-01 0.11638248E+04</pdfrwt>
<totfact> 0.73164786E+01</totfact>
</mgrwt>
</event>
<event>
 4    1  0.1751735E-005  0.7265191E+03  0.7818608E-02  0.9672926E-01
         -2   -1    0    0    0  501 -0.00000000000E+00  0.00000000000E+00  0.76727472380E+02  0.76727472422E+02  0.25500000000E-02 0. -1.
          2   -1    0    0  501    0  0.00000000000E+00 -0.00000000000E+00 -0.17198207830E+04  0.17198207830E+04  0.25500000000E-02 0.  1.
   -5000001    1    1    2    0    0  0.12908010732E+03 -0.22093612074E+03 -0.66548357650E+03  0.75554141789E+03  0.25000000000E+03 0.  0.
    5000001    1    1    2    0    0 -0.12908010732E+03  0.22093612074E+03 -0.97760973415E+03  0.10410068376E+04  0.25000000000E+03 0.  0.
<mgrwt>
<rscale>  0 0.72651910E+03</rscale>
<asrwt>0</asrwt>
<pdfrwt beam="1">  1        2 0.26458778E+00 0.72651910E+03</pdfrwt>
<pdfrwt beam="2">  1       -2 0.11804228E-01 0.72651910E+03</pdfrwt>
<totfact> 0.50916510E+02</totfact>
</mgrwt>
</event>
<event>
 4    1  0.1751735E-005  0.7024343E+03  0.7818608E-02  0.9713078E-01
          2   -1    0    0  501    0  0.00000000000E+00  0.00000000000E+00  0.20954697668E+04  0.20954697668E+04  0.25500000000E-02 0.  1.
         -2   -1    0    0    0  501 -0.00000000000E+00 -0.00000000000E+00 -0.58866745216E+02  0.58866745271E+02  0.25500000000E-02 0. -1.
   -5000001    1    1    2    0    0 -0.22059726091E+02 -0.20728527789E+03  0.14228571905E+04  0.14596151556E+04  0.25000000000E+03 0.  0.
    5000001    1    1    2    0    0  0.22059726091E+02  0.20728527789E+03  0.61374583111E+03  0.69472135648E+03  0.25000000000E+03 0.  0.
<mgrwt>
<rscale>  0 0.70243430E+03</rscale>
<asrwt>0</asrwt>
<pdfrwt beam="1">  1        2 0.32237989E+00 0.70243430E+03</pdfrwt>
<pdfrwt beam="2">  1       -2 0.90564243E-02 0.70243430E+03</pdfrwt>
<totfact> 0.49056165E+02</totfact>
</mgrwt>
</event>
<event>
 4    1  0.1751735E-005  0.7501105E+03  0.7818608E-02  0.9635177E-01
         -2   -1    0    0    0  501 -0.00000000000E+00  0.00000000000E+00  0.56672617239E+02  0.56672617296E+02  0.25500000000E-02 0. -1.
          2   -1    0    0  501    0  0.00000000000E+00 -0.00000000000E+00 -0.24820885163E+04  0.24820885163E+04  0.25500000000E-02 0.  1.
   -5000001    1    1    2    0    0 -0.91344034966E+02  0.39619332124E+02 -0.32849363696E+03  0.42464278368E+03  0.25000000000E+03 0.  0.
    5000001    1    1    2    0    0  0.91344034966E+02 -0.39619332124E+02 -0.20969222621E+04  0.21141183500E+04  0.25000000000E+03 0.  0.
<mgrwt>
<rscale>  0 0.75011053E+03</rscale>
<asrwt>0</asrwt>
<pdfrwt beam="1">  1        2 0.38185969E+00 0.75011053E+03</pdfrwt>
<pdfrwt beam="2">  1       -2 0.87188661E-02 0.75011053E+03</pdfrwt>
<totfact> 0.31696370E+02</totfact>
</mgrwt>
</event>
<event>
 4    1  0.1751735E-005  0.8009932E+03  0.7818608E-02  0.9558581E-01
          2   -1    0    0  501    0  0.00000000000E+00  0.00000000000E+00  0.48998841573E+03  0.48998841574E+03  0.25500000000E-02 0.  1.
         -2   -1    0    0    0  501 -0.00000000000E+00 -0.00000000000E+00 -0.32734966349E+03  0.32734966350E+03  0.25500000000E-02 0. -1.
   -5000001    1    1    2    0    0 -0.24706025336E+03  0.66850657226E+02  0.26496338823E+03  0.44521160841E+03  0.25000000000E+03 0.  0.
    5000001    1    1    2    0    0  0.24706025336E+03 -0.66850657226E+02 -0.10232463599E+03  0.37212647083E+03  0.25000000000E+03 0.  0.
<mgrwt>
<rscale>  0 0.80099324E+03</rscale>
<asrwt>0</asrwt>
<pdfrwt beam="1">  1        2 0.75382833E-01 0.80099324E+03</pdfrwt>
<pdfrwt beam="2">  1       -2 0.50361487E-01 0.80099324E+03</pdfrwt>
<totfact> 0.23675565E+02</totfact>
</mgrwt>
</event>
<event>
 4    1  0.1751735E-005  0.1099283E+04  0.7818608E-02  0.9205891E-01
         -2   -1    0    0    0  501 -0.00000000000E+00  0.00000000000E+00  0.10891975373E+03  0.10891975376E+03  0.25500000000E-02 0.  1.
          2   -1    0    0  501    0  0.00000000000E+00 -0.00000000000E+00 -0.27736531355E+04  0.27736531355E+04  0.25500000000E-02 0. -1.
   -5000001    1    1    2    0    0  0.35577093935E+02  0.46779464260E+03 -0.16986169455E+04  0.17798587261E+04  0.25000000000E+03 0.  0.
    5000001    1    1    2    0    0 -0.35577093935E+02 -0.46779464260E+03 -0.96611643631E+03  0.11027141632E+04  0.25000000000E+03 0.  0.
<mgrwt>
<rscale>  0 0.10992827E+04</rscale>
<asrwt>0</asrwt>
<pdfrwt beam="1">  1        2 0.42671581E+00 0.10992827E+04</pdfrwt>
<pdfrwt beam="2">  1       -2 0.16756887E-01 0.10992827E+04</pdfrwt>
<totfact> 0.70204343E+01</totfact>
</mgrwt>
</event>
<event>
 4    1  0.1751735E-005  0.7818282E+03  0.7818608E-02  0.9586699E-01
          2   -1    0    0  501    0  0.00000000000E+00  0.00000000000E+00  0.30717001015E+04  0.30717001015E+04  0.25500000000E-02 0.  1.
         -2   -1    0    0    0  501 -0.00000000000E+00 -0.00000000000E+00 -0.49748936899E+02  0.49748936964E+02  0.25500000000E-02 0. -1.
   -5000001    1    1    2    0    0  0.18585465267E+03  0.99735161978E+01  0.24530059091E+04  0.24727271206E+04  0.25000000000E+03 0.  0.
    5000001    1    1    2    0    0 -0.18585465267E+03 -0.99735161978E+01  0.56894525551E+03  0.64872191786E+03  0.25000000000E+03 0.  0.
<mgrwt>
<rscale>  0 0.78182815E+03</rscale>
<asrwt>0</asrwt>
<pdfrwt beam="1">  1        2 0.47256925E+00 0.78182815E+03</pdfrwt>
<pdfrwt beam="2">  1       -2 0.76536825E-02 0.78182815E+03</pdfrwt>
<totfact> 0.17464875E+02</totfact>
</mgrwt>
</event>
<event>
 4    1  0.1751735E-005  0.5043459E+03  0.7818608E-02  0.1012651E+00
         -2   -1    0    0    0  501 -0.00000000000E+00  0.00000000000E+00  0.70139426859E+03  0.70139426860E+03  0.25500000000E-02 0. -1.
          2   -1    0    0  501    0  0.00000000000E+00 -0.00000000000E+00 -0.90663990422E+02  0.90663990458E+02  0.25500000000E-02 0.  1.
   -5000001    1    1    2    0    0  0.30478343378E+02  0.12710225454E+02  0.30670143848E+03  0.39705950639E+03  0.25000000000E+03 0.  0.
    5000001    1    1    2    0    0 -0.30478343378E+02 -0.12710225454E+02  0.30402883969E+03  0.39499875267E+03  0.25000000000E+03 0.  0.
<mgrwt>
<rscale>  0 0.50434593E+03</rscale>
<asrwt>0</asrwt>
<pdfrwt beam="1">  1        2 0.13948307E-01 0.50434593E+03</pdfrwt>
<pdfrwt beam="2">  1       -2 0.10790681E+00 0.50434593E+03</pdfrwt>
<totfact> 0.30540427E+02</totfact>
</mgrwt>
</event>
<event>
 4    1  0.1751735E-005  0.7326489E+03  0.7818608E-02  0.9662972E-01
         -2   -1    0    0    0  501 -0.00000000000E+00  0.00000000000E+00  0.91608025534E+02  0.91608025570E+02  0.25500000000E-02 0. -1.
          2   -1    0    0  501    0  0.00000000000E+00 -0.00000000000E+00 -0.14648674317E+04  0.14648674317E+04  0.25500000000E-02 0.  1.
   -5000001    1    1    2    0    0 -0.13440898688E+03 -0.22686902029E+03 -0.58793342984E+03  0.69115920456E+03  0.25000000000E+03 0.  0.
    5000001    1    1    2    0    0  0.13440898688E+03  0.22686902029E+03 -0.78532597637E+03  0.86531625276E+03  0.25000000000E+03 0.  0.
<mgrwt>
<rscale>  0 0.73264893E+03</rscale>
<asrwt>0</asrwt>
<pdfrwt beam="1">  1        2 0.22536420E+00 0.73264893E+03</pdfrwt>
<pdfrwt beam="2">  1       -2 0.14093543E-01 0.73264893E+03</pdfrwt>
<totfact> 0.52377511E+02</totfact>
</mgrwt>
</event>
<event>
 4    1  0.1751735E-005  0.1078117E+04  0.7818608E-02  0.9226787E-01
          2   -1    0    0  501    0  0.00000000000E+00  0.00000000000E+00  0.23360924307E+04  0.23360924307E+04  0.25500000000E-02 0.  1.
         -2   -1    0    0    0  501 -0.00000000000E+00 -0.00000000000E+00 -0.12438899721E+03  0.12438899723E+03  0.25500000000E-02 0. -1.
   -5000001    1    1    2    0    0  0.10453860888E+03  0.44846919714E+03  0.13948117906E+04  0.14899841854E+04  0.25000000000E+03 0.  0.
    5000001    1    1    2    0    0 -0.10453860888E+03 -0.44846919714E+03  0.81689164284E+03  0.97049724249E+03  0.25000000000E+03 0.  0.
<mgrwt>
<rscale>  0 0.10781172E+04</rscale>
<asrwt>0</asrwt>
<pdfrwt beam="1">  1        2 0.35939884E+00 0.10781172E+04</pdfrwt>
<pdfrwt beam="2">  1       -2 0.19136769E-01 0.10781172E+04</pdfrwt>
<totfact> 0.99954494E+01</totfact>
</mgrwt>
</event>
<event>
 4    1  0.1751735E-005  0.1129021E+04  0.7818608E-02  0.9177358E-01
         -2   -1    0    0    0  501 -0.00000000000E+00  0.00000000000E+00  0.10864059731E+04  0.10864059731E+04  0.25500000000E-02 0. -1.
          2   -1    0    0  501    0  0.00000000000E+00 -0.00000000000E+00 -0.29332708739E+03  0.29332708740E+03  0.25500000000E-02 0.  1.
   -5000001    1    1    2    0    0  0.24672646399E+03  0.25518854051E+03 -0.44381081327E+02  0.43642275333E+03  0.25000000000E+03 0.  0.
    5000001    1    1    2    0    0 -0.24672646399E+03 -0.25518854051E+03  0.83745996705E+03  0.94331030719E+03  0.25000000000E+03 0.  0.
<mgrwt>
<rscale>  0 0.11290213E+04</rscale>
<asrwt>0</asrwt>
<pdfrwt beam="1">  1        2 0.45127245E-01 0.11290213E+04</pdfrwt>
<pdfrwt beam="2">  1       -2 0.16713938E+00 0.11290213E+04</pdfrwt>
<totfact> 0.24902480E+01</totfact>
</mgrwt>
</event>
<event>
 4    1  0.1751735E-005  0.9382403E+03  0.7818608E-02  0.9379002E-01
          2   -1    0    0  501    0  0.00000000000E+00  0.00000000000E+00  0.87256265151E+03  0.87256265151E+03  0.25500000000E-02 0.  1.
         -2   -1    0    0    0  501 -0.00000000000E+00 -0.00000000000E+00 -0.25221537470E+03  0.25221537471E+03  0.25500000000E-02 0. -1.
   -5000001    1    1    2    0    0  0.39381924060E+03  0.37500532223E+02  0.27088916869E+03  0.54072250360E+03  0.25000000000E+03 0.  0.
    5000001    1    1    2    0    0 -0.39381924060E+03 -0.37500532223E+02  0.34945810811E+03  0.58405552263E+03  0.25000000000E+03 0.  0.
<mgrwt>
<rscale>  0 0.93824030E+03</rscale>
<asrwt>0</asrwt>
<pdfrwt beam="1">  1        2 0.13424041E+00 0.93824030E+03</pdfrwt>
<pdfrwt beam="2">  1       -2 0.38802365E-01 0.93824030E+03</pdfrwt>
<totfact> 0.19223373E+02</totfact>
</mgrwt>
</event>
<event>
 4    1  0.1751735E-005  0.7093719E+03  0.7818608E-02  0.9701338E-01
         -2   -1    0    0    0  501 -0.00000000000E+00  0.00000000000E+00  0.10067104177E+04  0.10067104177E+04  0.25500000000E-02 0. -1.
          2   -1    0    0  501    0  0.00000000000E+00 -0.00000000000E+00 -0.12496355074E+03  0.12496355077E+03  0.25500000000E-02 0.  1.
   -5000001    1    1    2    0    0  0.11185520445E+03 -0.15967119877E+03  0.69460244053E+03  0.76353063388E+03  0.25000000000E+03 0.  0.
    5000001    1    1    2    0    0 -0.11185520445E+03  0.15967119877E+03  0.18714442647E+03  0.36814333463E+03  0.25000000000E+03 0.  0.
<mgrwt>
<rscale>  0 0.70937186E+03</rscale>
<asrwt>0</asrwt>
<pdfrwt beam="1">  1        2 0.19225162E-01 0.70937186E+03</pdfrwt>
<pdfrwt beam="2">  1       -2 0.15487853E+00 0.70937186E+03</pdfrwt>
<totfact> 0.82984013E+01</totfact>
</mgrwt>
</event>
<event>
 4    1  0.1751735E-005  0.7282183E+03  0.7818608E-02  0.9670156E-01
          2   -1    0    0  501    0  0.00000000000E+00  0.00000000000E+00  0.12956434254E+04  0.12956434254E+04  0.25500000000E-02 0.  1.
         -2   -1    0    0    0  501 -0.00000000000E+00 -0.00000000000E+00 -0.10232404743E+03  0.10232404746E+03  0.25500000000E-02 0. -1.
   -5000001    1    1    2    0    0 -0.24119814068E+03 -0.10893211335E+03  0.58567684573E+03  0.68960866875E+03  0.25000000000E+03 0.  0.
    5000001    1    1    2    0    0  0.24119814068E+03  0.10893211335E+03  0.60764253222E+03  0.70835880410E+03  0.25000000000E+03 0.  0.
<mgrwt>
<rscale>  0 0.72821832E+03</rscale>
<asrwt>0</asrwt>
<pdfrwt beam="1">  1        2 0.19932975E+00 0.72821832E+03</pdfrwt>
<pdfrwt beam="2">  1       -2 0.15742161E-01 0.72821832E+03</pdfrwt>
<totfact> 0.54204919E+02</totfact>
</mgrwt>
</event>
<event>
 4    1  0.1751735E-005  0.8079893E+03  0.7818608E-02  0.9548524E-01
         -2   -1    0    0    0  501 -0.00000000000E+00  0.00000000000E+00  0.25438519627E+03  0.25438519628E+03  0.25500000000E-02 0. -1.
          2   -1    0    0  501    0  0.00000000000E+00 -0.00000000000E+00 -0.64159264184E+03  0.64159264184E+03  0.25500000000E-02 0.  1.
   -5000001    1    1    2    0    0  0.21184923817E+03 -0.18891494608E+03 -0.36223318766E+02  0.37997511154E+03  0.25000000000E+03 0.  0.
    5000001    1    1    2    0    0 -0.21184923817E+03  0.18891494608E+03 -0.35098412680E+03  0.51600272658E+03  0.25000000000E+03 0.  0.
<mgrwt>
<rscale>  0 0.80798928E+03</rscale>
<asrwt>0</asrwt>
<pdfrwt beam="1">  1        2 0.98706560E-01 0.80798928E+03</pdfrwt>
<pdfrwt beam="2">  1       -2 0.39136184E-01 0.80798928E+03</pdfrwt>
<totfact> 0.28359880E+02</totfact>
</mgrwt>
</event>
<event>
 4    1  0.1751735E-005  0.1143405E+04  0.7818608E-02  0.9163889E-01
          2   -1    0    0  501    0  0.00000000000E+00  0.00000000000E+00  0.73374096690E+03  0.73374096690E+03  0.25500000000E-02 0.  1.
         -2   -1    0    0    0  501 -0.00000000000E+00 -0.00000000000E+00 -0.44544844298E+03  0.44544844299E+03  0.25500000000E-02 0. -1.
   -5000001    1    1    2    0    0  0.38027516145E+03  0.22752983704E+03  0.41300571914E+03  0.65532644477E+03  0.25000000000E+03 0.  0.
    5000001    1    1    2    0    0 -0.38027516145E+03 -0.22752983704E+03 -0.12471319523E+03  0.52386296512E+03  0.25000000000E+03 0.  0.
<mgrwt>
<rscale>  0 0.11434050E+04</rscale>
<asrwt>0</asrwt>
<pdfrwt beam="1">  1        2 0.11288323E+00 0.11434050E+04</pdfrwt>
<pdfrwt beam="2">  1       -2 0.68530530E-01 0.11434050E+04</pdfrwt>
<totfact> 0.74420896E+01</totfact>
</mgrwt>
</event>
<event>
 4    1  0.1751735E-005  0.7488635E+03  0.7818608E-02  0.9637135E-01
         -2   -1    0    0    0  501 -0.00000000000E+00  0.00000000000E+00  0.23838557357E+03  0.23838557358E+03  0.25500000000E-02 0.  1.
          2   -1    0    0  501    0  0.00000000000E+00 -0.00000000000E+00 -0.58811925836E+03  0.58811925837E+03  0.25500000000E-02 0. -1.
   -5000001    1    1    2    0    0 -0.13584518393E+03  0.18271735379E+03  0.26148776179E+01  0.33815142016E+03  0.25000000000E+03 0.  0.
    5000001    1    1    2    0    0  0.13584518393E+03 -0.18271735379E+03 -0.35234856241E+03  0.48835341179E+03  0.25000000000E+03 0.  0.
<mgrwt>
<rscale>  0 0.74886353E+03</rscale>
<asrwt>0</asrwt>
<pdfrwt beam="1">  1        2 0.90479885E-01 0.74886353E+03</pdfrwt>
<pdfrwt beam="2">  1       -2 0.36674704E-01 0.74886353E+03</pdfrwt>
<totfact> 0.35815270E+02</totfact>
</mgrwt>
</event>
<event>
 4    1  0.1751735E-005  0.5933123E+03  0.7818608E-02  0.9919379E-01
          2   -1    0    0  501    0  0.00000000000E+00  0.00000000000E+00  0.52233861996E+03  0.52233861997E+03  0.25500000000E-02 0.  1.
         -2   -1    0    0    0  501 -0.00000000000E+00 -0.00000000000E+00 -0.16848241195E+03  0.16848241197E+03  0.25500000000E-02 0. -1.
   -5000001    1    1    2    0    0 -0.30497393920E+02 -0.15288913480E+03  0.21725706924E+03  0.36606804383E+03  0.25000000000E+03 0.  0.
    5000001    1    1    2    0    0  0.30497393920E+02  0.15288913480E+03  0.13659913877E+03  0.32475298811E+03  0.25000000000E+03 0.  0.
<mgrwt>
<rscale>  0 0.59331230E+03</rscale>
<asrwt>0</asrwt>
<pdfrwt beam="1">  1        2 0.80359788E-01 0.59331230E+03</pdfrwt>
<pdfrwt beam="2">  1       -2 0.25920371E-01 0.59331230E+03</pdfrwt>
<totfact> 0.78908544E+02</totfact>
</mgrwt>
</event>
<event>
 4    1  0.1751735E-005  0.8302611E+03  0.7818608E-02  0.9517220E-01
         -2   -1    0    0    0  501 -0.00000000000E+00  0.00000000000E+00  0.76259013525E+02  0.76259013567E+02  0.25500000000E-02 0.  1.
          2   -1    0    0  501    0  0.00000000000E+00 -0.00000000000E+00 -0.22598426516E+04  0.22598426516E+04  0.25500000000E-02 0. -1.
   -5000001    1    1    2    0    0 -0.87210022143E-01 -0.17995654320E+03 -0.18748336736E+04  0.18999699126E+04  0.25000000000E+03 0.  0.
    5000001    1    1    2    0    0  0.87210022143E-01  0.17995654320E+03 -0.30874996445E+03  0.43613175257E+03  0.25000000000E+03 0.  0.
<mgrwt>
<rscale>  0 0.83026109E+03</rscale>
<asrwt>0</asrwt>
<pdfrwt beam="1">  1        2 0.34766805E+00 0.83026109E+03</pdfrwt>
<pdfrwt beam="2">  1       -2 0.11732158E-01 0.83026109E+03</pdfrwt>
<totfact> 0.25833024E+02</totfact>
</mgrwt>
</event>
<event>
 4    1  0.1751735E-005  0.7374041E+03  0.7818608E-02  0.9655321E-01
         -2   -1    0    0    0  501 -0.00000000000E+00  0.00000000000E+00  0.35619506781E+03  0.35619506782E+03  0.25500000000E-02 0. -1.
          2   -1    0    0  501    0  0.00000000000E+00 -0.00000000000E+00 -0.38164817317E+03  0.38164817318E+03  0.25500000000E-02 0.  1.
   -5000001    1    1    2    0    0  0.14856314115E+03 -0.17414026067E+03 -0.15788313649E+03  0.37392903348E+03  0.25000000000E+03 0.  0.
    5000001    1    1    2    0    0 -0.14856314115E+03  0.17414026067E+03  0.13243003112E+03  0.36391420752E+03  0.25000000000E+03 0.  0.
<mgrwt>
<rscale>  0 0.73740409E+03</rscale>
<asrwt>0</asrwt>
<pdfrwt beam="1">  1        2 0.58715104E-01 0.73740409E+03</pdfrwt>
<pdfrwt beam="2">  1       -2 0.54799241E-01 0.73740409E+03</pdfrwt>
<totfact> 0.26501958E+02</totfact>
</mgrwt>
</event>
<event>
 4    1  0.1751735E-005  0.5912293E+03  0.7818608E-02  0.9923771E-01
         -2   -1    0    0    0  501 -0.00000000000E+00  0.00000000000E+00  0.10263253591E+03  0.10263253594E+03  0.25500000000E-02 0. -1.
          2   -1    0    0  501    0  0.00000000000E+00 -0.00000000000E+00 -0.85146513389E+03  0.85146513389E+03  0.25500000000E-02 0.  1.
   -5000001    1    1    2    0    0 -0.71380991411E+02 -0.12435360670E+03 -0.48059286790E+03  0.56038252124E+03  0.25000000000E+03 0.  0.
    5000001    1    1    2    0    0  0.71380991411E+02  0.12435360670E+03 -0.26823973008E+03  0.39371514859E+03  0.25000000000E+03 0.  0.
<mgrwt>
<rscale>  0 0.59122932E+03</rscale>
<asrwt>0</asrwt>
<pdfrwt beam="1">  1        2 0.13099463E+00 0.59122932E+03</pdfrwt>
<pdfrwt beam="2">  1       -2 0.15789622E-01 0.59122932E+03</pdfrwt>
<totfact> 0.10227314E+03</totfact>
</mgrwt>
</event>
<event>
 4    1  0.1751735E-005  0.8556092E+03  0.7818608E-02  0.9482839E-01
          2   -1    0    0  501    0  0.00000000000E+00  0.00000000000E+00  0.63541683104E+03  0.63541683104E+03  0.25500000000E-02 0.  1.
         -2   -1    0    0    0  501 -0.00000000000E+00 -0.00000000000E+00 -0.28802632805E+03  0.28802632806E+03  0.25500000000E-02 0. -1.
   -5000001    1    1    2    0    0 -0.29690781714E+03  0.17621346883E+03  0.13461187550E+03  0.44701878652E+03  0.25000000000E+03 0.  0.
    5000001    1    1    2    0    0  0.29690781714E+03 -0.17621346883E+03  0.21277862749E+03  0.47642437259E+03  0.25000000000E+03 0.  0.
<mgrwt>
<rscale>  0 0.85560920E+03</rscale>
<asrwt>0</asrwt>
<pdfrwt beam="1">  1        2 0.97756436E-01 0.85560920E+03</pdfrwt>
<pdfrwt beam="2">  1       -2 0.44311742E-01 0.85560920E+03</pdfrwt>
<totfact> 0.22436093E+02</totfact>
</mgrwt>
</event>
<event>
 4    1  0.1751735E-005  0.2636195E+04  0.7818608E-02  0.8356009E-01
          2   -1    0    0  501    0  0.00000000000E+00  0.00000000000E+00  0.23242297646E+04  0.23242297646E+04  0.25500000000E-02 0.  1.
         -2   -1    0    0    0  501 -0.00000000000E+00 -0.00000000000E+00 -0.74750833569E+03  0.74750833570E+03  0.25500000000E-02 0. -1.
   -5000001    1    1    2    0    0 -0.43633909569E+03 -0.12079795278E+04  0.60311408817E+03  0.14407820617E+04  0.25000000000E+03 0.  0.
    5000001    1    1    2    0    0  0.43633909569E+03  0.12079795278E+04  0.97360734076E+03  0.16309560386E+04  0.25000000000E+03 0.  0.
<mgrwt>
<rscale>  0 0.26361951E+04</rscale>
<asrwt>0</asrwt>
<pdfrwt beam="1">  1        2 0.35757381E+00 0.26361951E+04</pdfrwt>
<pdfrwt beam="2">  1       -2 0.11500128E+00 0.26361951E+04</pdfrwt>
<totfact> 0.22835678E+00</totfact>
</mgrwt>
</event>
<event>
 4    1  0.1751735E-005  0.8242204E+03  0.7818608E-02  0.9525606E-01
          2   -1    0    0  501    0  0.00000000000E+00  0.00000000000E+00  0.14290670794E+04  0.14290670794E+04  0.25500000000E-02 0.  1.
         -2   -1    0    0    0  501 -0.00000000000E+00 -0.00000000000E+00 -0.11884312891E+03  0.11884312893E+03  0.25500000000E-02 0. -1.
   -5000001    1    1    2    0    0 -0.32536318767E+03  0.97748325919E+01  0.72482841663E+03  0.83296637675E+03  0.25000000000E+03 0.  0.
    5000001    1    1    2    0    0  0.32536318767E+03 -0.97748325919E+01  0.58539553383E+03  0.71494383155E+03  0.25000000000E+03 0.  0.
<mgrwt>
<rscale>  0 0.82422037E+03</rscale>
<asrwt>0</asrwt>
<pdfrwt beam="1">  1        2 0.21985647E+00 0.82422037E+03</pdfrwt>
<pdfrwt beam="2">  1       -2 0.18283558E-01 0.82422037E+03</pdfrwt>
<totfact> 0.35017753E+02</totfact>
</mgrwt>
</event>
<event>
 4    1  0.1751735E-005  0.1041537E+04  0.7818608E-02  0.9264125E-01
         -2   -1    0    0    0  501 -0.00000000000E+00  0.00000000000E+00  0.74871707721E+02  0.74871707765E+02  0.25500000000E-02 0. -1.
          2   -1    0    0  501    0  0.00000000000E+00 -0.00000000000E+00 -0.36221954016E+04  0.36221954016E+04  0.25500000000E-02 0.  1.
   -5000001    1    1    2    0    0  0.16177393692E+03  0.16877784791E+03 -0.31668307717E+04  0.31852745416E+04  0.25000000000E+03 0.  0.
    5000001    1    1    2    0    0 -0.16177393692E+03 -0.16877784791E+03 -0.38049292214E+03  0.51179256775E+03  0.25000000000E+03 0.  0.
<mgrwt>
<rscale>  0 0.10415372E+04</rscale>
<asrwt>0</asrwt>
<pdfrwt beam="1">  1        2 0.55726069E+00 0.10415372E+04</pdfrwt>
<pdfrwt beam="2">  1       -2 0.11518727E-01 0.10415372E+04</pdfrwt>
<totfact> 0.37650979E+01</totfact>
</mgrwt>
</event>
<event>
 4    1  0.1751735E-005  0.6878398E+03  0.7818608E-02  0.9738257E-01
          2   -1    0    0  501    0  0.00000000000E+00  0.00000000000E+00  0.40468477729E+03  0.40468477730E+03  0.25500000000E-02 0.  1.
         -2   -1    0    0    0  501 -0.00000000000E+00 -0.00000000000E+00 -0.29227907782E+03  0.29227907783E+03  0.25500000000E-02 0. -1.
   -5000001    1    1    2    0    0  0.12815633877E+03 -0.16212265412E+03  0.17205713715E+03  0.36716680214E+03  0.25000000000E+03 0.  0.
    5000001    1    1    2    0    0 -0.12815633877E+03  0.16212265412E+03 -0.59651437677E+02  0.32979705299E+03  0.25000000000E+03 0.  0.
<mgrwt>
<rscale>  0 0.68783979E+03</rscale>
<asrwt>0</asrwt>
<pdfrwt beam="1">  1        2 0.62259196E-01 0.68783979E+03</pdfrwt>
<pdfrwt beam="2">  1       -2 0.44966012E-01 0.68783979E+03</pdfrwt>
<totfact> 0.37131803E+02</totfact>
</mgrwt>
</event>
<event>
 4    1  0.1751735E-005  0.6843218E+03  0.7818608E-02  0.9744426E-01
         -2   -1    0    0    0  501 -0.00000000000E+00  0.00000000000E+00  0.12720386703E+03  0.12720386705E+03  0.25500000000E-02 0. -1.
          2   -1    0    0  501    0  0.00000000000E+00 -0.00000000000E+00 -0.92036571145E+03  0.92036571145E+03  0.25500000000E-02 0.  1.
   -5000001    1    1    2    0    0 -0.13299303840E+03  0.18086350242E+03 -0.49549714850E+03  0.59867869424E+03  0.25000000000E+03 0.  0.
    5000001    1    1    2    0    0  0.13299303840E+03 -0.18086350242E+03 -0.29766469592E+03  0.44889088426E+03  0.25000000000E+03 0.  0.
<mgrwt>
<rscale>  0 0.68432179E+03</rscale>
<asrwt>0</asrwt>
<pdfrwt beam="1">  1        2 0.14159472E+00 0.68432179E+03</pdfrwt>
<pdfrwt beam="2">  1       -2 0.19569826E-01 0.68432179E+03</pdfrwt>
<totfact> 0.63394234E+02</totfact>
</mgrwt>
</event>
<event>
 4    1  0.1751735E-005  0.9393730E+03  0.7818608E-02  0.9377659E-01
         -2   -1    0    0    0  501 -0.00000000000E+00  0.00000000000E+00  0.94061957225E+02  0.94061957260E+02  0.25500000000E-02 0. -1.
          2   -1    0    0  501    0  0.00000000000E+00 -0.00000000000E+00 -0.23453203418E+04  0.23453203418E+04  0.25500000000E-02 0.  1.
   -5000001    1    1    2    0    0  0.38849109644E+02  0.33819366039E+03 -0.16592185419E+04  0.17121303616E+04  0.25000000000E+03 0.  0.
    5000001    1    1    2    0    0 -0.38849109644E+02 -0.33819366039E+03 -0.59203984263E+03  0.72725193744E+03  0.25000000000E+03 0.  0.
<mgrwt>
<rscale>  0 0.93937303E+03</rscale>
<asrwt>0</asrwt>
<pdfrwt beam="1">  1        2 0.36081847E+00 0.93937303E+03</pdfrwt>
<pdfrwt beam="2">  1       -2 0.14471072E-01 0.93937303E+03</pdfrwt>
<totfact> 0.16150837E+02</totfact>
</mgrwt>
</event>
<event>
 4    1  0.1751735E-005  0.7943775E+03  0.7818608E-02  0.9568191E-01
         -2   -1    0    0    0  501 -0.00000000000E+00  0.00000000000E+00  0.10939330706E+03  0.10939330709E+03  0.25500000000E-02 0. -1.
          2   -1    0    0  501    0  0.00000000000E+00 -0.00000000000E+00 -0.14421258895E+04  0.14421258895E+04  0.25500000000E-02 0.  1.
   -5000001    1    1    2    0    0 -0.20996333574E+03  0.18610014271E+03 -0.41517082572E+03  0.55998632126E+03  0.25000000000E+03 0.  0.
    5000001    1    1    2    0    0  0.20996333574E+03 -0.18610014271E+03 -0.91756175674E+03  0.99153287535E+03  0.25000000000E+03 0.  0.
<mgrwt>
<rscale>  0 0.79437754E+03</rscale>
<asrwt>0</asrwt>
<pdfrwt beam="1">  1        2 0.22186551E+00 0.79437754E+03</pdfrwt>
<pdfrwt beam="2">  1       -2 0.16829741E-01 0.79437754E+03</pdfrwt>
<totfact> 0.39780492E+02</totfact>
</mgrwt>
</event>
<event>
 4    1  0.1751735E-005  0.7872520E+03  0.7818608E-02  0.9578655E-01
          2   -1    0    0  501    0  0.00000000000E+00  0.00000000000E+00  0.12431840430E+04  0.12431840430E+04  0.25500000000E-02 0.  1.
         -2   -1    0    0    0  501 -0.00000000000E+00 -0.00000000000E+00 -0.12463273399E+03  0.12463273401E+03  0.25500000000E-02 0. -1.
   -5000001    1    1    2    0    0  0.22942261771E+03  0.74992232875E+02  0.88050729364E+03  0.94660005634E+03  0.25000000000E+03 0.  0.
    5000001    1    1    2    0    0 -0.22942261771E+03 -0.74992232875E+02  0.23804401534E+03  0.42121672064E+03  0.25000000000E+03 0.  0.
<mgrwt>
<rscale>  0 0.78725200E+03</rscale>
<asrwt>0</asrwt>
<pdfrwt beam="1">  1        2 0.19125909E+00 0.78725200E+03</pdfrwt>
<pdfrwt beam="2">  1       -2 0.19174266E-01 0.78725200E+03</pdfrwt>
<totfact> 0.41299564E+02</totfact>
</mgrwt>
</event>
<event>
 4    1  0.1751735E-005  0.8313930E+03  0.7818608E-02  0.9515657E-01
          2   -1    0    0  501    0  0.00000000000E+00  0.00000000000E+00  0.80838355573E+03  0.80838355573E+03  0.25500000000E-02 0. -1.
         -2   -1    0    0    0  501 -0.00000000000E+00 -0.00000000000E+00 -0.21376432752E+03  0.21376432753E+03  0.25500000000E-02 0.  1.
   -5000001    1    1    2    0    0 -0.17302845580E+03  0.11178512075E+03 -0.22979733817E+02  0.32475040862E+03  0.25000000000E+03 0.  0.
    5000001    1    1    2    0    0  0.17302845580E+03 -0.11178512075E+03  0.61759896203E+03  0.69739747464E+03  0.25000000000E+03 0.  0.
<mgrwt>
<rscale>  0 0.83139297E+03</rscale>
<asrwt>0</asrwt>
<pdfrwt beam="1">  1        2 0.12436670E+00 0.83139297E+03</pdfrwt>
<pdfrwt beam="2">  1       -2 0.32886819E-01 0.83139297E+03</pdfrwt>
<totfact> 0.29415519E+02</totfact>
</mgrwt>
</event>
<event>
 4    1  0.1751735E-005  0.1005409E+04  0.7818608E-02  0.9302632E-01
         -2   -1    0    0    0  501 -0.00000000000E+00  0.00000000000E+00  0.37516279958E+03  0.37516279959E+03  0.25500000000E-02 0.  1.
          2   -1    0    0  501    0  0.00000000000E+00 -0.00000000000E+00 -0.67360550377E+03  0.67360550377E+03  0.25500000000E-02 0. -1.
   -5000001    1    1    2    0    0 -0.40095198819E+03  0.10608457249E+03 -0.85141297137E+01  0.48434380739E+03  0.25000000000E+03 0.  0.
    5000001    1    1    2    0    0  0.40095198819E+03 -0.10608457249E+03 -0.28992857448E+03  0.56442449597E+03  0.25000000000E+03 0.  0.
<mgrwt>
<rscale>  0 0.10054088E+04</rscale>
<asrwt>0</asrwt>
<pdfrwt beam="1">  1        2 0.10363162E+00 0.10054088E+04</pdfrwt>
<pdfrwt beam="2">  1       -2 0.57717354E-01 0.10054088E+04</pdfrwt>
<totfact> 0.12070918E+02</totfact>
</mgrwt>
</event>
<event>
 4    1  0.1751735E-005  0.5715668E+03  0.7818608E-02  0.9966217E-01
         -2   -1    0    0    0  501 -0.00000000000E+00  0.00000000000E+00  0.41828923284E+02  0.41828923361E+02  0.25500000000E-02 0. -1.
          2   -1    0    0  501    0  0.00000000000E+00 -0.00000000000E+00 -0.19525284248E+04  0.19525284248E+04  0.25500000000E-02 0.  1.
   -5000001    1    1    2    0    0 -0.41445317998E+02  0.13211524491E+03 -0.95568885763E+03  0.99750355634E+03  0.25000000000E+03 0.  0.
    5000001    1    1    2    0    0  0.41445317998E+02 -0.13211524491E+03 -0.95501064386E+03  0.99685379179E+03  0.25000000000E+03 0.  0.
<mgrwt>
<rscale>  0 0.57156684E+03</rscale>
<asrwt>0</asrwt>
<pdfrwt beam="1">  1        2 0.30038892E+00 0.57156684E+03</pdfrwt>
<pdfrwt beam="2">  1       -2 0.64352205E-02 0.57156684E+03</pdfrwt>
<totfact> 0.10197922E+03</totfact>
</mgrwt>
</event>
<event>
 4    1  0.1751735E-005  0.5972039E+03  0.7818608E-02  0.9911224E-01
         -2   -1    0    0    0  501 -0.00000000000E+00  0.00000000000E+00  0.61361481656E+02  0.61361481708E+02  0.25500000000E-02 0.  1.
          2   -1    0    0  501    0  0.00000000000E+00 -0.00000000000E+00 -0.14530798615E+04  0.14530798615E+04  0.25500000000E-02 0. -1.
   -5000001    1    1    2    0    0  0.81376394646E+01 -0.16215017777E+03 -0.74009074746E+03  0.79786791877E+03  0.25000000000E+03 0.  0.
    5000001    1    1    2    0    0 -0.81376394646E+01  0.16215017777E+03 -0.65162763238E+03  0.71657342444E+03  0.25000000000E+03 0.  0.
<mgrwt>
<rscale>  0 0.59720393E+03</rscale>
<asrwt>0</asrwt>
<pdfrwt beam="1">  1        2 0.22355072E+00 0.59720393E+03</pdfrwt>
<pdfrwt beam="2">  1       -2 0.94402290E-02 0.59720393E+03</pdfrwt>
<totfact> 0.10350806E+03</totfact>
</mgrwt>
</event>
<event>
 4    1  0.1751735E-005  0.7126808E+03  0.7818608E-02  0.9695789E-01
          2   -1    0    0  501    0  0.00000000000E+00  0.00000000000E+00  0.12376607100E+04  0.12376607100E+04  0.25500000000E-02 0.  1.
         -2   -1    0    0    0  501 -0.00000000000E+00 -0.00000000000E+00 -0.10259554550E+03  0.10259554553E+03  0.25500000000E-02 0. -1.
   -5000001    1    1    2    0    0  0.10559661318E+03 -0.22984112535E+03  0.60962105268E+03  0.70577292063E+03  0.25000000000E+03 0.  0.
    5000001    1    1    2    0    0 -0.10559661318E+03  0.22984112535E+03  0.52544411180E+03  0.63448333488E+03  0.25000000000E+03 0.  0.
<mgrwt>
<rscale>  0 0.71268079E+03</rscale>
<asrwt>0</asrwt>
<pdfrwt beam="1">  1        2 0.19040934E+00 0.71268079E+03</pdfrwt>
<pdfrwt beam="2">  1       -2 0.15783930E-01 0.71268079E+03</pdfrwt>
<totfact> 0.58352312E+02</totfact>
</mgrwt>
</event>
<event>
 4    1  0.1751735E-005  0.1408072E+04  0.7818608E-02  0.8947996E-01
         -2   -1    0    0    0  501 -0.00000000000E+00  0.00000000000E+00  0.47313096335E+03  0.47313096336E+03  0.25500000000E-02 0. -1.
          2   -1    0    0  501    0  0.00000000000E+00 -0.00000000000E+00 -0.10476310377E+04  0.10476310377E+04  0.25500000000E-02 0.  1.
   -5000001    1    1    2    0    0  0.63836032243E+03  0.93632188662E+02 -0.42763665053E+03  0.81341501884E+03  0.25000000000E+03 0.  0.
    5000001    1    1    2    0    0 -0.63836032243E+03 -0.93632188662E+02 -0.14686342382E+03  0.70734698222E+03  0.25000000000E+03 0.  0.
<mgrwt>
<rscale>  0 0.14080720E+04</rscale>
<asrwt>0</asrwt>
<pdfrwt beam="1">  1        2 0.16117400E+00 0.14080720E+04</pdfrwt>
<pdfrwt beam="2">  1       -2 0.72789379E-01 0.14080720E+04</pdfrwt>
<totfact> 0.38989775E+01</totfact>
</mgrwt>
</event>
<event>
 4    1  0.1751735E-005  0.7283120E+03  0.7818608E-02  0.9670003E-01
         -2   -1    0    0    0  501 -0.00000000000E+00  0.00000000000E+00  0.20764973792E+03  0.20764973793E+03  0.25500000000E-02 0. -1.
          2   -1    0    0  501    0  0.00000000000E+00 -0.00000000000E+00 -0.63862154422E+03  0.63862154423E+03  0.25500000000E-02 0.  1.
   -5000001    1    1    2    0    0 -0.78568118256E+02  0.14075629649E+03  0.28593484588E+02  0.29883586058E+03  0.25000000000E+03 0.  0.
    5000001    1    1    2    0    0  0.78568118256E+02 -0.14075629649E+03 -0.45956529089E+03  0.54743542158E+03  0.25000000000E+03 0.  0.
<mgrwt>
<rscale>  0 0.72831201E+03</rscale>
<asrwt>0</asrwt>
<pdfrwt beam="1">  1        2 0.98249468E-01 0.72831201E+03</pdfrwt>
<pdfrwt beam="2">  1       -2 0.31946114E-01 0.72831201E+03</pdfrwt>
<totfact> 0.42134431E+02</totfact>
</mgrwt>
</event>
<event>
 4    1  0.1751735E-005  0.6755862E+03  0.7818608E-02  0.9759919E-01
         -2   -1    0    0    0  501 -0.00000000000E+00  0.00000000000E+00  0.39636796211E+02  0.39636796293E+02  0.25500000000E-02 0. -1.
          2   -1    0    0  501    0  0.00000000000E+00 -0.00000000000E+00 -0.28787436972E+04  0.28787436972E+04  0.25500000000E-02 0.  1.
   -5000001    1    1    2    0    0  0.20085890027E+03 -0.71319578003E+02 -0.10801445223E+04  0.11290008721E+04  0.25000000000E+03 0.  0.
    5000001    1    1    2    0    0 -0.20085890027E+03  0.71319578003E+02 -0.17589623787E+04  0.17893796215E+04  0.25000000000E+03 0.  0.
<mgrwt>
<rscale>  0 0.67558620E+03</rscale>
<asrwt>0</asrwt>
<pdfrwt beam="1">  1        2 0.44288348E+00 0.67558620E+03</pdfrwt>
<pdfrwt beam="2">  1       -2 0.60979709E-02 0.67558620E+03</pdfrwt>
<totfact> 0.33190576E+02</totfact>
</mgrwt>
</event>
<event>
 4    1  0.1751735E-005  0.1385763E+04  0.7818608E-02  0.8964189E-01
          2   -1    0    0  501    0  0.00000000000E+00  0.00000000000E+00  0.91778663905E+03  0.91778663906E+03  0.25500000000E-02 0. -1.
         -2   -1    0    0    0  501 -0.00000000000E+00 -0.00000000000E+00 -0.52308969167E+03  0.52308969168E+03  0.25500000000E-02 0.  1.
   -5000001    1    1    2    0    0  0.58699650540E+03 -0.15143628707E+03  0.43005028882E+03  0.78418180118E+03  0.25000000000E+03 0.  0.
    5000001    1    1    2    0    0 -0.58699650540E+03  0.15143628707E+03 -0.35353341431E+02  0.65669452955E+03  0.25000000000E+03 0.  0.
<mgrwt>
<rscale>  0 0.13857629E+04</rscale>
<asrwt>0</asrwt>
<pdfrwt beam="1">  1        2 0.14119794E+00 0.13857629E+04</pdfrwt>
<pdfrwt beam="2">  1       -2 0.80475338E-01 0.13857629E+04</pdfrwt>
<totfact> 0.37916713E+01</totfact>
</mgrwt>
</event>
<event>
 4    1  0.1751735E-005  0.9084128E+03  0.7818608E-02  0.9415126E-01
         -2   -1    0    0    0  501 -0.00000000000E+00  0.00000000000E+00  0.12553750743E+03  0.12553750746E+03  0.25500000000E-02 0. -1.
          2   -1    0    0  501    0  0.00000000000E+00 -0.00000000000E+00 -0.16433612190E+04  0.16433612190E+04  0.25500000000E-02 0.  1.
   -5000001    1    1    2    0    0 -0.54041153049E+02  0.31092927061E+03 -0.11683236815E+04  0.12357498462E+04  0.25000000000E+03 0.  0.
    5000001    1    1    2    0    0  0.54041153049E+02 -0.31092927061E+03 -0.34950003006E+03  0.53314888030E+03  0.25000000000E+03 0.  0.
<mgrwt>
<rscale>  0 0.90841284E+03</rscale>
<asrwt>0</asrwt>
<pdfrwt beam="1">  1        2 0.25282479E+00 0.90841284E+03</pdfrwt>
<pdfrwt beam="2">  1       -2 0.19313464E-01 0.90841284E+03</pdfrwt>
<totfact> 0.24054269E+02</totfact>
</mgrwt>
</event>
<event>
 4    1  0.1751735E-005  0.7487048E+03  0.7818608E-02  0.9637385E-01
          2   -1    0    0  501    0  0.00000000000E+00  0.00000000000E+00  0.10779101956E+04  0.10779101956E+04  0.25500000000E-02 0.  1.
         -2   -1    0    0    0  501 -0.00000000000E+00 -0.00000000000E+00 -0.13001056932E+03  0.13001056935E+03  0.25500000000E-02 0. -1.
   -5000001    1    1    2    0    0 -0.59826788427E+02  0.89901341116E+02  0.88835781910E+03  0.92916150938E+03  0.25000000000E+03 0.  0.
    5000001    1    1    2    0    0  0.59826788427E+02 -0.89901341116E+02  0.59541807132E+02  0.27875925553E+03  0.25000000000E+03 0.  0.
<mgrwt>
<rscale>  0 0.74870480E+03</rscale>
<asrwt>0</asrwt>
<pdfrwt beam="1">  1        2 0.16583234E+00 0.74870480E+03</pdfrwt>
<pdfrwt beam="2">  1       -2 0.20001626E-01 0.74870480E+03</pdfrwt>
<totfact> 0.48291766E+02</totfact>
</mgrwt>
</event>
<event>
 4    1  0.1751735E-005  0.8374395E+03  0.7818608E-02  0.9507352E-01
         -2   -1    0    0    0  501 -0.00000000000E+00  0.00000000000E+00  0.83947228125E+02  0.83947228164E+02  0.25500000000E-02 0. -1.
          2   -1    0    0  501    0  0.00000000000E+00 -0.00000000000E+00 -0.20885289062E+04  0.20885289062E+04  0.25500000000E-02 0.  1.
   -5000001    1    1    2    0    0  0.33077322964E+03 -0.11910580349E+02 -0.11507142947E+04  0.12231909824E+04  0.25000000000E+03 0.  0.
    5000001    1    1    2    0    0 -0.33077322964E+03  0.11910580349E+02 -0.85386738342E+03  0.94928515201E+03  0.25000000000E+03 0.  0.
<mgrwt>
<rscale>  0 0.83743946E+03</rscale>
<asrwt>0</asrwt>
<pdfrwt beam="1">  1        2 0.32131210E+00 0.83743946E+03</pdfrwt>
<pdfrwt beam="2">  1       -2 0.12914960E-01 0.83743946E+03</pdfrwt>
<totfact> 0.27368106E+02</totfact>
</mgrwt>
</event>
<event>
 4    1  0.1751735E-005  0.8573286E+03  0.7818608E-02  0.9480553E-01
         -2   -1    0    0    0  501 -0.00000000000E+00  0.00000000000E+00  0.10308171347E+04  0.10308171347E+04  0.25500000000E-02 0. -1.
          2   -1    0    0  501    0  0.00000000000E+00 -0.00000000000E+00 -0.17825963877E+03  0.17825963879E+03  0.25500000000E-02 0.  1.
   -5000001    1    1    2    0    0 -0.25201718261E+03  0.20340205265E+03  0.60670711817E+03  0.73176402111E+03  0.25000000000E+03 0.  0.
    5000001    1    1    2    0    0  0.25201718261E+03 -0.20340205265E+03  0.24585037779E+03  0.47731275241E+03  0.25000000000E+03 0.  0.
<mgrwt>
<rscale>  0 0.85732862E+03</rscale>
<asrwt>0</asrwt>
<pdfrwt beam="1">  1        2 0.27424560E-01 0.85732862E+03</pdfrwt>
<pdfrwt beam="2">  1       -2 0.15858725E+00 0.85732862E+03</pdfrwt>
<totfact> 0.51158110E+01</totfact>
</mgrwt>
</event>
<event>
 4    1  0.1751735E-005  0.8604784E+03  0.7818608E-02  0.9476380E-01
         -2   -1    0    0    0  501 -0.00000000000E+00  0.00000000000E+00  0.84380539803E+02  0.84380539841E+02  0.25500000000E-02 0. -1.
          2   -1    0    0  501    0  0.00000000000E+00 -0.00000000000E+00 -0.21937020278E+04  0.21937020278E+04  0.25500000000E-02 0.  1.
   -5000001    1    1    2    0    0  0.17603127078E+02  0.30701923222E+03 -0.14979430685E+04  0.15494851130E+04  0.25000000000E+03 0.  0.
    5000001    1    1    2    0    0 -0.17603127078E+02 -0.30701923222E+03 -0.61137841949E+03  0.72859745460E+03  0.25000000000E+03 0.  0.
<mgrwt>
<rscale>  0 0.86047838E+03</rscale>
<asrwt>0</asrwt>
<pdfrwt beam="1">  1        2 0.33749258E+00 0.86047838E+03</pdfrwt>
<pdfrwt beam="2">  1       -2 0.12981623E-01 0.86047838E+03</pdfrwt>
<totfact> 0.23699579E+02</totfact>
</mgrwt>
</event>
<event>
 4    1  0.1751735E-005  0.7529924E+03  0.7818608E-02  0.9630667E-01
          2   -1    0    0  501    0  0.00000000000E+00  0.00000000000E+00  0.66436139771E+03  0.66436139772E+03  0.25500000000E-02 0.  1.
         -2   -1    0    0    0  501 -0.00000000000E+00 -0.00000000000E+00 -0.21336185162E+03  0.21336185164E+03  0.25500000000E-02 0. -1.
   -5000001    1    1    2    0    0  0.96696278277E+02  0.25857207642E+03  0.28976582251E+03  0.47188337631E+03  0.25000000000E+03 0.  0.
    5000001    1    1    2    0    0 -0.96696278277E+02 -0.25857207642E+03  0.16123372358E+03  0.40583987305E+03  0.25000000000E+03 0.  0.
<mgrwt>
<rscale>  0 0.75299237E+03</rscale>
<asrwt>0</asrwt>
<pdfrwt beam="1">  1        2 0.10220945E+00 0.75299237E+03</pdfrwt>
<pdfrwt beam="2">  1       -2 0.32824900E-01 0.75299237E+03</pdfrwt>
<totfact> 0.38102789E+02</totfact>
</mgrwt>
</event>
<event>
 4    1  0.1751735E-005  0.1037367E+04  0.7818608E-02  0.9268485E-01
         -2   -1    0    0    0  501 -0.00000000000E+00  0.00000000000E+00  0.11201566433E+04  0.11201566433E+04  0.25500000000E-02 0. -1.
          2   -1    0    0  501    0  0.00000000000E+00 -0.00000000000E+00 -0.24017420185E+03  0.24017420186E+03  0.25500000000E-02 0.  1.
   -5000001    1    1    2    0    0  0.38394482762E+03  0.36338351806E+02  0.12472986995E+03  0.47622646601E+03  0.25000000000E+03 0.  0.
    5000001    1    1    2    0    0 -0.38394482762E+03 -0.36338351806E+02  0.75525257147E+03  0.88410437912E+03  0.25000000000E+03 0.  0.
<mgrwt>
<rscale>  0 0.10373673E+04</rscale>
<asrwt>0</asrwt>
<pdfrwt beam="1">  1        2 0.36949878E-01 0.10373673E+04</pdfrwt>
<pdfrwt beam="2">  1       -2 0.17233179E+00 0.10373673E+04</pdfrwt>
<totfact> 0.28757773E+01</totfact>
</mgrwt>
</event>
<event>
 4    1  0.1751735E-005  0.9827464E+03  0.7818608E-02  0.9327673E-01
         -2   -1    0    0    0  501 -0.00000000000E+00  0.00000000000E+00  0.23555759470E+03  0.23555759471E+03  0.25500000000E-02 0. -1.
          2   -1    0    0  501    0  0.00000000000E+00 -0.00000000000E+00 -0.10250045159E+04  0.10250045159E+04  0.25500000000E-02 0.  1.
   -5000001    1    1    2    0    0 -0.31607823080E+03  0.21936148106E+03 -0.62028312966E+03  0.77154135878E+03  0.25000000000E+03 0.  0.
    5000001    1    1    2    0    0  0.31607823080E+03 -0.21936148106E+03 -0.16916379153E+03  0.48902075183E+03  0.25000000000E+03 0.  0.
<mgrwt>
<rscale>  0 0.98274635E+03</rscale>
<asrwt>0</asrwt>
<pdfrwt beam="1">  1        2 0.15769300E+00 0.98274635E+03</pdfrwt>
<pdfrwt beam="2">  1       -2 0.36239631E-01 0.98274635E+03</pdfrwt>
<totfact> 0.17361269E+02</totfact>
</mgrwt>
</event>
<event>
 4    1  0.1751735E-005  0.7244372E+03  0.7818608E-02  0.9676330E-01
          2   -1    0    0  501    0  0.00000000000E+00  0.00000000000E+00  0.59706596304E+03  0.59706596304E+03  0.25500000000E-02 0.  1.
         -2   -1    0    0    0  501 -0.00000000000E+00 -0.00000000000E+00 -0.21974508614E+03  0.21974508615E+03  0.25500000000E-02 0. -1.
   -5000001    1    1    2    0    0  0.24778760844E+03  0.53617456345E+02  0.26369527933E+03  0.44306741119E+03  0.25000000000E+03 0.  0.
    5000001    1    1    2    0    0 -0.24778760844E+03 -0.53617456345E+02  0.11362559757E+03  0.37374363800E+03  0.25000000000E+03 0.  0.
<mgrwt>
<rscale>  0 0.72443719E+03</rscale>
<asrwt>0</asrwt>
<pdfrwt beam="1">  1        2 0.91856300E-01 0.72443719E+03</pdfrwt>
<pdfrwt beam="2">  1       -2 0.33806937E-01 0.72443719E+03</pdfrwt>
<totfact> 0.41106044E+02</totfact>
</mgrwt>
</event>
<event>
 4    1  0.1751735E-005  0.1039037E+04  0.7818608E-02  0.9266737E-01
         -2   -1    0    0    0  501 -0.00000000000E+00  0.00000000000E+00  0.11580032437E+03  0.11580032440E+03  0.25500000000E-02 0. -1.
          2   -1    0    0  501    0  0.00000000000E+00 -0.00000000000E+00 -0.23307300811E+04  0.23307300811E+04  0.25500000000E-02 0.  1.
   -5000001    1    1    2    0    0 -0.39731029389E+03 -0.22008694754E+03 -0.10291738583E+04  0.11523855972E+04  0.25000000000E+03 0.  0.
    5000001    1    1    2    0    0  0.39731029389E+03  0.22008694754E+03 -0.11857558984E+04  0.12941448083E+04  0.25000000000E+03 0.  0.
<mgrwt>
<rscale>  0 0.10390367E+04</rscale>
<asrwt>0</asrwt>
<pdfrwt beam="1">  1        2 0.35857382E+00 0.10390367E+04</pdfrwt>
<pdfrwt beam="2">  1       -2 0.17815436E-01 0.10390367E+04</pdfrwt>
<totfact> 0.11436186E+02</totfact>
</mgrwt>
</event>
<event>
 4    1  0.1751735E-005  0.9129919E+03  0.7818608E-02  0.9409485E-01
         -2   -1    0    0    0  501 -0.00000000000E+00  0.00000000000E+00  0.17585063623E+03  0.17585063625E+03  0.25500000000E-02 0. -1.
          2   -1    0    0  501    0  0.00000000000E+00 -0.00000000000E+00 -0.11850315324E+04  0.11850315324E+04  0.25500000000E-02 0.  1.
   -5000001    1    1    2    0    0 -0.34809398497E+03  0.50654180163E+02 -0.72644718795E+03  0.84496200223E+03  0.25000000000E+03 0.  0.
    5000001    1    1    2    0    0  0.34809398497E+03 -0.50654180163E+02 -0.28273370820E+03  0.51592016640E+03  0.25000000000E+03 0.  0.
<mgrwt>
<rscale>  0 0.91299189E+03</rscale>
<asrwt>0</asrwt>
<pdfrwt beam="1">  1        2 0.18231254E+00 0.91299189E+03</pdfrwt>
<pdfrwt beam="2">  1       -2 0.27053945E-01 0.91299189E+03</pdfrwt>
<totfact> 0.24028760E+02</totfact>
</mgrwt>
</event>
<event>
 4    1  0.1751735E-005  0.6270061E+03  0.7818608E-02  0.9850909E-01
         -2   -1    0    0    0  501 -0.00000000000E+00  0.00000000000E+00  0.11629842772E+04  0.11629842772E+04  0.25500000000E-02 0.  1.
          2   -1    0    0  501    0  0.00000000000E+00 -0.00000000000E+00 -0.84510297339E+02  0.84510297377E+02  0.25500000000E-02 0. -1.
   -5000001    1    1    2    0    0 -0.18779828789E+03 -0.20060299640E+02  0.56043674966E+03  0.64207473313E+03  0.25000000000E+03 0.  0.
    5000001    1    1    2    0    0  0.18779828789E+03  0.20060299640E+02  0.51803723025E+03  0.60541984150E+03  0.25000000000E+03 0.  0.
<mgrwt>
<rscale>  0 0.62700605E+03</rscale>
<asrwt>0</asrwt>
<pdfrwt beam="1">  1        2 0.13001584E-01 0.62700605E+03</pdfrwt>
<pdfrwt beam="2">  1       -2 0.17892066E+00 0.62700605E+03</pdfrwt>
<totfact> 0.89951504E+01</totfact>
</mgrwt>
</event>
<event>
 4    1  0.1751735E-005  0.9501618E+03  0.7818608E-02  0.9364961E-01
          2   -1    0    0  501    0  0.00000000000E+00  0.00000000000E+00  0.34184489734E+03  0.34184489735E+03  0.25500000000E-02 0.  1.
         -2   -1    0    0    0  501 -0.00000000000E+00 -0.00000000000E+00 -0.66024637589E+03  0.66024637589E+03  0.25500000000E-02 0. -1.
   -5000001    1    1    2    0    0  0.36648692692E+03  0.33248635598E+02  0.16593597443E+02  0.44518927081E+03  0.25000000000E+03 0.  0.
    5000001    1    1    2    0    0 -0.36648692692E+03 -0.33248635598E+02 -0.33499507599E+03  0.55690200243E+03  0.25000000000E+03 0.  0.
<mgrwt>
<rscale>  0 0.95016179E+03</rscale>
<asrwt>0</asrwt>
<pdfrwt beam="1">  1        2 0.52591523E-01 0.95016179E+03</pdfrwt>
<pdfrwt beam="2">  1       -2 0.10157636E+00 0.95016179E+03</pdfrwt>
<totfact> 0.75589807E+01</totfact>
</mgrwt>
</event>
<event>
 4    1  0.1751735E-005  0.6470210E+03  0.7818608E-02  0.9812385E-01
         -2   -1    0    0    0  501 -0.00000000000E+00  0.00000000000E+00  0.13415327767E+03  0.13415327770E+03  0.25500000000E-02 0. -1.
          2   -1    0    0  501    0  0.00000000000E+00 -0.00000000000E+00 -0.78014532270E+03  0.78014532270E+03  0.25500000000E-02 0.  1.
   -5000001    1    1    2    0    0 -0.20347489982E+03  0.23778665297E+01 -0.36173022026E+03  0.48451670906E+03  0.25000000000E+03 0.  0.
    5000001    1    1    2    0    0  0.20347489982E+03 -0.23778665297E+01 -0.28426182477E+03  0.42978189135E+03  0.25000000000E+03 0.  0.
<mgrwt>
<rscale>  0 0.64702103E+03</rscale>
<asrwt>0</asrwt>
<pdfrwt beam="1">  1        2 0.12002235E+00 0.64702103E+03</pdfrwt>
<pdfrwt beam="2">  1       -2 0.20638966E-01 0.64702103E+03</pdfrwt>
<totfact> 0.72324307E+02</totfact>
</mgrwt>
</event>
<event>
 4    1  0.1751735E-005  0.9139846E+03  0.7818608E-02  0.9408267E-01
          2   -1    0    0  501    0  0.00000000000E+00  0.00000000000E+00  0.25297516934E+04  0.25297516934E+04  0.25500000000E-02 0.  1.
         -2   -1    0    0    0  501 -0.00000000000E+00 -0.00000000000E+00 -0.82554325110E+02  0.82554325149E+02  0.25500000000E-02 0. -1.
   -5000001    1    1    2    0    0 -0.14241268694E+03  0.34406110082E+03  0.97308162510E+03  0.10714696746E+04  0.25000000000E+03 0.  0.
    5000001    1    1    2    0    0  0.14241268694E+03 -0.34406110082E+03  0.14741157432E+04  0.15408363440E+04  0.25000000000E+03 0.  0.
<mgrwt>
<rscale>  0 0.91398456E+03</rscale>
<asrwt>0</asrwt>
<pdfrwt beam="1">  1        2 0.38919252E+00 0.91398456E+03</pdfrwt>
<pdfrwt beam="2">  1       -2 0.12700667E-01 0.91398456E+03</pdfrwt>
<totfact> 0.15842698E+02</totfact>
</mgrwt>
</event>
<event>
 4    1  0.1751735E-005  0.8375865E+03  0.7818608E-02  0.9507151E-01
         -2   -1    0    0    0  501 -0.00000000000E+00  0.00000000000E+00  0.50343609815E+02  0.50343609880E+02  0.25500000000E-02 0. -1.
          2   -1    0    0  501    0  0.00000000000E+00 -0.00000000000E+00 -0.34838138731E+04  0.34838138731E+04  0.25500000000E-02 0.  1.
   -5000001    1    1    2    0    0  0.84841535944E+02 -0.28019544251E+03 -0.10210983596E+04  0.10912604787E+04  0.25000000000E+03 0.  0.
    5000001    1    1    2    0    0 -0.84841535944E+02  0.28019544251E+03 -0.24123719036E+04  0.24428970043E+04  0.25000000000E+03 0.  0.
<mgrwt>
<rscale>  0 0.83758645E+03</rscale>
<asrwt>0</asrwt>
<pdfrwt beam="1">  1        2 0.53597118E+00 0.83758645E+03</pdfrwt>
<pdfrwt beam="2">  1       -2 0.77451735E-02 0.83758645E+03</pdfrwt>
<totfact> 0.91907425E+01</totfact>
</mgrwt>
</event>
<event>
 4    1  0.1751735E-005  0.8380089E+03  0.7818608E-02  0.9506574E-01
          2   -1    0    0  501    0  0.00000000000E+00  0.00000000000E+00  0.44651424083E+03  0.44651424084E+03  0.25500000000E-02 0.  1.
         -2   -1    0    0    0  501 -0.00000000000E+00 -0.00000000000E+00 -0.39318950734E+03  0.39318950735E+03  0.25500000000E-02 0. -1.
   -5000001    1    1    2    0    0 -0.22475788824E+03 -0.24614091919E+03  0.71060603121E+02  0.42267134956E+03  0.25000000000E+03 0.  0.
    5000001    1    1    2    0    0  0.22475788824E+03  0.24614091919E+03 -0.17735869628E+02  0.41703239862E+03  0.25000000000E+03 0.  0.
<mgrwt>
<rscale>  0 0.83800886E+03</rscale>
<asrwt>0</asrwt>
<pdfrwt beam="1">  1        2 0.68694498E-01 0.83800886E+03</pdfrwt>
<pdfrwt beam="2">  1       -2 0.60490694E-01 0.83800886E+03</pdfrwt>
<totfact> 0.17976872E+02</totfact>
</mgrwt>
</event>
<event>
 4    1  0.1751735E-005  0.6235154E+03  0.7818608E-02  0.9857785E-01
         -2   -1    0    0    0  501 -0.00000000000E+00  0.00000000000E+00  0.67051812181E+02  0.67051812230E+02  0.25500000000E-02 0. -1.
          2   -1    0    0  501    0  0.00000000000E+00 -0.00000000000E+00 -0.14495189697E+04  0.14495189697E+04  0.25500000000E-02 0.  1.
   -5000001    1    1    2    0    0 -0.58400794332E+02  0.17599919927E+03 -0.73381623209E+03  0.79710264923E+03  0.25000000000E+03 0.  0.
    5000001    1    1    2    0    0  0.58400794332E+02 -0.17599919927E+03 -0.64865092543E+03  0.71946813271E+03  0.25000000000E+03 0.  0.
<mgrwt>
<rscale>  0 0.62351543E+03</rscale>
<asrwt>0</asrwt>
<pdfrwt beam="1">  1        2 0.22300289E+00 0.62351543E+03</pdfrwt>
<pdfrwt beam="2">  1       -2 0.10315665E-01 0.62351543E+03</pdfrwt>
<totfact> 0.89955641E+02</totfact>
</mgrwt>
</event>
<event>
 4    1  0.1751735E-005  0.8335788E+03  0.7818608E-02  0.9512646E-01
          2   -1    0    0  501    0  0.00000000000E+00  0.00000000000E+00  0.51829178064E+03  0.51829178065E+03  0.25500000000E-02 0.  1.
         -2   -1    0    0    0  501 -0.00000000000E+00 -0.00000000000E+00 -0.33516530014E+03  0.33516530015E+03  0.25500000000E-02 0. -1.
   -5000001    1    1    2    0    0 -0.14238059234E+03  0.29882523268E+03  0.13308483781E+03  0.43563783906E+03  0.25000000000E+03 0.  0.
    5000001    1    1    2    0    0  0.14238059234E+03 -0.29882523268E+03  0.50041642695E+02  0.41781924174E+03  0.25000000000E+03 0.  0.
<mgrwt>
<rscale>  0 0.83357884E+03</rscale>
<asrwt>0</asrwt>
<pdfrwt beam="1">  1        2 0.79737196E-01 0.83357884E+03</pdfrwt>
<pdfrwt beam="2">  1       -2 0.51563893E-01 0.83357884E+03</pdfrwt>
<totfact> 0.21105978E+02</totfact>
</mgrwt>
</event>
<event>
 4    1  0.1751735E-005  0.7193424E+03  0.7818608E-02  0.9684714E-01
          2   -1    0    0  501    0  0.00000000000E+00  0.00000000000E+00  0.13992080878E+04  0.13992080879E+04  0.25500000000E-02 0.  1.
         -2   -1    0    0    0  501 -0.00000000000E+00 -0.00000000000E+00 -0.92454716660E+02  0.92454716695E+02  0.25500000000E-02 0. -1.
   -5000001    1    1    2    0    0  0.51349539068E+02  0.24644400522E+03  0.77591443037E+03  0.85317912898E+03  0.25000000000E+03 0.  0.
    5000001    1    1    2    0    0 -0.51349539068E+02 -0.24644400522E+03  0.53083894082E+03  0.63848367557E+03  0.25000000000E+03 0.  0.
<mgrwt>
<rscale>  0 0.71934244E+03</rscale>
<asrwt>0</asrwt>
<pdfrwt beam="1">  1        2 0.21526278E+00 0.71934244E+03</pdfrwt>
<pdfrwt beam="2">  1       -2 0.14223803E-01 0.71934244E+03</pdfrwt>
<totfact> 0.56184286E+02</totfact>
</mgrwt>
</event>
<event>
 4    1  0.1751735E-005  0.6784399E+03  0.7818608E-02  0.9754830E-01
         -2   -1    0    0    0  501 -0.00000000000E+00  0.00000000000E+00  0.13785871544E+03  0.13785871546E+03  0.25500000000E-02 0. -1.
          2   -1    0    0  501    0  0.00000000000E+00 -0.00000000000E+00 -0.83469646035E+03  0.83469646035E+03  0.25500000000E-02 0.  1.
   -5000001    1    1    2    0    0 -0.65093519224E+01  0.15067591578E+03 -0.10085343554E+03  0.30889645307E+03  0.25000000000E+03 0.  0.
    5000001    1    1    2    0    0  0.65093519224E+01 -0.15067591578E+03 -0.59598430937E+03  0.66365872274E+03  0.25000000000E+03 0.  0.
<mgrwt>
<rscale>  0 0.67843992E+03</rscale>
<asrwt>0</asrwt>
<pdfrwt beam="1">  1        2 0.12841484E+00 0.67843992E+03</pdfrwt>
<pdfrwt beam="2">  1       -2 0.21209034E-01 0.67843992E+03</pdfrwt>
<totfact> 0.62983386E+02</totfact>
</mgrwt>
</event>
<event>
 4    1  0.1751735E-005  0.1129811E+04  0.7818608E-02  0.9176614E-01
          2   -1    0    0  501    0  0.00000000000E+00  0.00000000000E+00  0.27664171705E+04  0.27664171705E+04  0.25500000000E-02 0.  1.
         -2   -1    0    0    0  501 -0.00000000000E+00 -0.00000000000E+00 -0.11535424056E+03  0.11535424059E+03  0.25500000000E-02 0. -1.
   -5000001    1    1    2    0    0  0.24071506143E+03 -0.32118322028E+03  0.21138304283E+04  0.21660751329E+04  0.25000000000E+03 0.  0.
    5000001    1    1    2    0    0 -0.24071506143E+03  0.32118322028E+03  0.53723250162E+03  0.71569627817E+03  0.25000000000E+03 0.  0.
<mgrwt>
<rscale>  0 0.11298105E+04</rscale>
<asrwt>0</asrwt>
<pdfrwt beam="1">  1        2 0.42560257E+00 0.11298105E+04</pdfrwt>
<pdfrwt beam="2">  1       -2 0.17746809E-01 0.11298105E+04</pdfrwt>
<totfact> 0.64033074E+01</totfact>
</mgrwt>
</event>
<event>
 4    1  0.1751735E-005  0.5687024E+03  0.7818608E-02  0.9972554E-01
          2   -1    0    0  501    0  0.00000000000E+00  0.00000000000E+00  0.34767071827E+04  0.34767071827E+04  0.25500000000E-02 0.  1.
         -2   -1    0    0    0  501 -0.00000000000E+00 -0.00000000000E+00 -0.23256375167E+02  0.23256375307E+02  0.25500000000E-02 0. -1.
   -5000001    1    1    2    0    0 -0.74443937995E+02 -0.10882895809E+03  0.15350543876E+04  0.15608579740E+04  0.25000000000E+03 0.  0.
    5000001    1    1    2    0    0  0.74443937995E+02  0.10882895809E+03  0.19183964199E+04  0.19391055840E+04  0.25000000000E+03 0.  0.
<mgrwt>
<rscale>  0 0.56870241E+03</rscale>
<asrwt>0</asrwt>
<pdfrwt beam="1">  1        2 0.53487866E+00 0.56870241E+03</pdfrwt>
<pdfrwt beam="2">  1       -2 0.35778997E-02 0.56870241E+03</pdfrwt>
<totfact> 0.32166542E+02</totfact>
</mgrwt>
</event>
<event>
 4    1  0.1751735E-005  0.1176628E+04  0.7818608E-02  0.9133563E-01
          2   -1    0    0  501    0  0.00000000000E+00  0.00000000000E+00  0.16304678655E+04  0.16304678655E+04  0.25500000000E-02 0.  1.
         -2   -1    0    0    0  501 -0.00000000000E+00 -0.00000000000E+00 -0.21227863580E+03  0.21227863581E+03  0.25500000000E-02 0. -1.
   -5000001    1    1    2    0    0 -0.14761185802E+03 -0.38360936888E+03  0.17876288125E+03  0.51322663243E+03  0.25000000000E+03 0.  0.
    5000001    1    1    2    0    0  0.14761185802E+03  0.38360936888E+03  0.12394263485E+04  0.13295198689E+04  0.25000000000E+03 0.  0.
<mgrwt>
<rscale>  0 0.11766282E+04</rscale>
<asrwt>0</asrwt>
<pdfrwt beam="1">  1        2 0.25084120E+00 0.11766282E+04</pdfrwt>
<pdfrwt beam="2">  1       -2 0.32658253E-01 0.11766282E+04</pdfrwt>
<totfact> 0.92590258E+01</totfact>
</mgrwt>
</event>
<event>
 4    1  0.1751735E-005  0.7420975E+03  0.7818608E-02  0.9647830E-01
         -2   -1    0    0    0  501 -0.00000000000E+00  0.00000000000E+00  0.16176386659E+03  0.16176386661E+03  0.25500000000E-02 0. -1.
          2   -1    0    0  501    0  0.00000000000E+00 -0.00000000000E+00 -0.85109959122E+03  0.85109959123E+03  0.25500000000E-02 0.  1.
   -5000001    1    1    2    0    0  0.17082132015E+03  0.53432537661E+02 -0.62816005749E+03  0.69937115849E+03  0.25000000000E+03 0.  0.
    5000001    1    1    2    0    0 -0.17082132015E+03 -0.53432537661E+02 -0.61175667141E+02  0.31349229935E+03  0.25000000000E+03 0.  0.
<mgrwt>
<rscale>  0 0.74209746E+03</rscale>
<asrwt>0</asrwt>
<pdfrwt beam="1">  1        2 0.13093840E+00 0.74209746E+03</pdfrwt>
<pdfrwt beam="2">  1       -2 0.24886749E-01 0.74209746E+03</pdfrwt>
<totfact> 0.46043108E+02</totfact>
</mgrwt>
</event>
<event>
 4    1  0.1751735E-005  0.7301703E+03  0.7818608E-02  0.9666984E-01
          2   -1    0    0  501    0  0.00000000000E+00  0.00000000000E+00  0.93324461114E+03  0.93324461114E+03  0.25500000000E-02 0.  1.
         -2   -1    0    0    0  501 -0.00000000000E+00 -0.00000000000E+00 -0.14282126420E+03  0.14282126423E+03  0.25500000000E-02 0. -1.
   -5000001    1    1    2    0    0  0.11864240542E+03 -0.20974693701E+03  0.22901839370E+03  0.41595579404E+03  0.25000000000E+03 0.  0.
    5000001    1    1    2    0    0 -0.11864240542E+03  0.20974693701E+03  0.56140495324E+03  0.66011008133E+03  0.25000000000E+03 0.  0.
<mgrwt>
<rscale>  0 0.73017032E+03</rscale>
<asrwt>0</asrwt>
<pdfrwt beam="1">  1        2 0.14357609E+00 0.73017032E+03</pdfrwt>
<pdfrwt beam="2">  1       -2 0.21972503E-01 0.73017032E+03</pdfrwt>
<totfact> 0.50637754E+02</totfact>
</mgrwt>
</event>
<event>
 4    1  0.1751735E-005  0.6763221E+03  0.7818608E-02  0.9758604E-01
         -2   -1    0    0    0  501 -0.00000000000E+00  0.00000000000E+00  0.12361518641E+03  0.12361518643E+03  0.25500000000E-02 0. -1.
          2   -1    0    0  501    0  0.00000000000E+00 -0.00000000000E+00 -0.92507152496E+03  0.92507152496E+03  0.25500000000E-02 0.  1.
   -5000001    1    1    2    0    0  0.14975133663E+03 -0.10215360617E+03 -0.18704106457E+03  0.36103349140E+03  0.25000000000E+03 0.  0.
    5000001    1    1    2    0    0 -0.14975133663E+03  0.10215360617E+03 -0.61441527398E+03  0.68765322000E+03  0.25000000000E+03 0.  0.
<mgrwt>
<rscale>  0 0.67632208E+03</rscale>
<asrwt>0</asrwt>
<pdfrwt beam="1">  1        2 0.14231869E+00 0.67632208E+03</pdfrwt>
<pdfrwt beam="2">  1       -2 0.19017722E-01 0.67632208E+03</pdfrwt>
<totfact> 0.66170979E+02</totfact>
</mgrwt>
</event>
<event>
 4    1  0.1751735E-005  0.7608421E+03  0.7818608E-02  0.9618493E-01
         -2   -1    0    0    0  501 -0.00000000000E+00  0.00000000000E+00  0.21121381673E+03  0.21121381675E+03  0.25500000000E-02 0. -1.
          2   -1    0    0  501    0  0.00000000000E+00 -0.00000000000E+00 -0.68518331465E+03  0.68518331465E+03  0.25500000000E-02 0.  1.
   -5000001    1    1    2    0    0 -0.26124915013E+03  0.25743933005E+02 -0.10107994664E+03  0.37633897505E+03  0.25000000000E+03 0.  0.
    5000001    1    1    2    0    0  0.26124915013E+03 -0.25743933005E+02 -0.37288955128E+03  0.52005815635E+03  0.25000000000E+03 0.  0.
<mgrwt>
<rscale>  0 0.76084212E+03</rscale>
<asrwt>0</asrwt>
<pdfrwt beam="1">  1        2 0.10541282E+00 0.76084212E+03</pdfrwt>
<pdfrwt beam="2">  1       -2 0.32494434E-01 0.76084212E+03</pdfrwt>
<totfact> 0.37357790E+02</totfact>
</mgrwt>
</event>
<event>
 4    1  0.1751735E-005  0.1068085E+04  0.7818608E-02  0.9236870E-01
          2   -1    0    0  501    0  0.00000000000E+00  0.00000000000E+00  0.72204088362E+03  0.72204088363E+03  0.25500000000E-02 0.  1.
         -2   -1    0    0    0  501 -0.00000000000E+00 -0.00000000000E+00 -0.39499307547E+03  0.39499307548E+03  0.25500000000E-02 0. -1.
   -5000001    1    1    2    0    0 -0.23719406424E+03  0.30882333131E+03  0.44232766811E+03  0.64014579593E+03  0.25000000000E+03 0.  0.
    5000001    1    1    2    0    0  0.23719406424E+03 -0.30882333131E+03 -0.11527985995E+03  0.47688816318E+03  0.25000000000E+03 0.  0.
<mgrwt>
<rscale>  0 0.10680845E+04</rscale>
<asrwt>0</asrwt>
<pdfrwt beam="1">  1        2 0.11108321E+00 0.10680845E+04</pdfrwt>
<pdfrwt beam="2">  1       -2 0.60768166E-01 0.10680845E+04</pdfrwt>
<totfact> 0.98810003E+01</totfact>
</mgrwt>
</event>
<event>
 4    1  0.1751735E-005  0.8814154E+03  0.7818608E-02  0.9449116E-01
         -2   -1    0    0    0  501 -0.00000000000E+00  0.00000000000E+00  0.59784187458E+03  0.59784187459E+03  0.25500000000E-02 0. -1.
          2   -1    0    0  501    0  0.00000000000E+00 -0.00000000000E+00 -0.32487402638E+03  0.32487402639E+03  0.25500000000E-02 0.  1.
   -5000001    1    1    2    0    0 -0.16412418316E+03 -0.19344529393E+03 -0.13522632010E+03  0.38097767243E+03  0.25000000000E+03 0.  0.
    5000001    1    1    2    0    0  0.16412418316E+03  0.19344529393E+03  0.40819416830E+03  0.54173822855E+03  0.25000000000E+03 0.  0.
<mgrwt>
<rscale>  0 0.88141545E+03</rscale>
<asrwt>0</asrwt>
<pdfrwt beam="1">  1        2 0.49980620E-01 0.88141545E+03</pdfrwt>
<pdfrwt beam="2">  1       -2 0.91975671E-01 0.88141545E+03</pdfrwt>
<totfact> 0.10139233E+02</totfact>
</mgrwt>
</event>
<event>
 4    1  0.1751735E-005  0.5547984E+03  0.7818608E-02  0.1000389E+00
         -2   -1    0    0    0  501 -0.00000000000E+00  0.00000000000E+00  0.36633170505E+02  0.36633170594E+02  0.25500000000E-02 0. -1.
          2   -1    0    0  501    0  0.00000000000E+00 -0.00000000000E+00 -0.21005640639E+04  0.21005640639E+04  0.25500000000E-02 0.  1.
   -5000001    1    1    2    0    0 -0.54967936513E+02  0.78607570387E+02 -0.75285472142E+03  0.79905622814E+03  0.25000000000E+03 0.  0.
    5000001    1    1    2    0    0  0.54967936513E+02 -0.78607570387E+02 -0.13110761720E+04  0.13381410063E+04  0.25000000000E+03 0.  0.
<mgrwt>
<rscale>  0 0.55479842E+03</rscale>
<asrwt>0</asrwt>
<pdfrwt beam="1">  1        2 0.32316361E+00 0.55479842E+03</pdfrwt>
<pdfrwt beam="2">  1       -2 0.56358740E-02 0.55479842E+03</pdfrwt>
<totfact> 0.10447246E+03</totfact>
</mgrwt>
</event>
<event>
 4    1  0.1751735E-005  0.7372607E+03  0.7818608E-02  0.9655551E-01
          2   -1    0    0  501    0  0.00000000000E+00  0.00000000000E+00  0.54580183180E+03  0.54580183181E+03  0.25500000000E-02 0.  1.
         -2   -1    0    0    0  501 -0.00000000000E+00 -0.00000000000E+00 -0.24897007129E+03  0.24897007130E+03  0.25500000000E-02 0. -1.
   -5000001    1    1    2    0    0 -0.26884731469E+03 -0.29384097632E+01  0.18418244701E+03  0.41074406466E+03  0.25000000000E+03 0.  0.
    5000001    1    1    2    0    0  0.26884731469E+03  0.29384097632E+01  0.11264931351E+03  0.38402783845E+03  0.25000000000E+03 0.  0.
<mgrwt>
<rscale>  0 0.73726066E+03</rscale>
<asrwt>0</asrwt>
<pdfrwt beam="1">  1        2 0.83969513E-01 0.73726066E+03</pdfrwt>
<pdfrwt beam="2">  1       -2 0.38303088E-01 0.73726066E+03</pdfrwt>
<totfact> 0.36014946E+02</totfact>
</mgrwt>
</event>
<event>
 4    1  0.1751735E-005  0.5891742E+03  0.7818608E-02  0.9928124E-01
         -2   -1    0    0    0  501 -0.00000000000E+00  0.00000000000E+00  0.44782650775E+02  0.44782650848E+02  0.25500000000E-02 0. -1.
          2   -1    0    0  501    0  0.00000000000E+00 -0.00000000000E+00 -0.19378386354E+04  0.19378386354E+04  0.25500000000E-02 0.  1.
   -5000001    1    1    2    0    0  0.70091809802E+02  0.13672458111E+03 -0.10339605258E+04  0.10747933949E+04  0.25000000000E+03 0.  0.
    5000001    1    1    2    0    0 -0.70091809802E+02 -0.13672458111E+03 -0.85909545888E+03  0.90782789137E+03  0.25000000000E+03 0.  0.
<mgrwt>
<rscale>  0 0.58917417E+03</rscale>
<asrwt>0</asrwt>
<pdfrwt beam="1">  1        2 0.29812896E+00 0.58917417E+03</pdfrwt>
<pdfrwt beam="2">  1       -2 0.68896401E-02 0.58917417E+03</pdfrwt>
<totfact> 0.93173930E+02</totfact>
</mgrwt>
</event>
<event>
 4    1  0.1751735E-005  0.6296883E+03  0.7818608E-02  0.9845657E-01
          2   -1    0    0  501    0  0.00000000000E+00  0.00000000000E+00  0.39188089023E+03  0.39188089024E+03  0.25500000000E-02 0.  1.
         -2   -1    0    0    0  501 -0.00000000000E+00 -0.00000000000E+00 -0.25295147844E+03  0.25295147845E+03  0.25500000000E-02 0. -1.
   -5000001    1    1    2    0    0 -0.17134373106E+03  0.79273459256E+02  0.10158618734E+03  0.32933677137E+03  0.25000000000E+03 0.  0.
    5000001    1    1    2    0    0  0.17134373106E+03 -0.79273459256E+02  0.37343224452E+02  0.31549559732E+03  0.25000000000E+03 0.  0.
<mgrwt>
<rscale>  0 0.62968834E+03</rscale>
<asrwt>0</asrwt>
<pdfrwt beam="1">  1        2 0.60289368E-01 0.62968834E+03</pdfrwt>
<pdfrwt beam="2">  1       -2 0.38915612E-01 0.62968834E+03</pdfrwt>
<totfact> 0.51185056E+02</totfact>
</mgrwt>
</event>
<event>
 4    1  0.1751735E-005  0.1180820E+04  0.7818608E-02  0.9129812E-01
          2   -1    0    0  501    0  0.00000000000E+00  0.00000000000E+00  0.90816818281E+03  0.90816818281E+03  0.25500000000E-02 0.  1.
         -2   -1    0    0    0  501 -0.00000000000E+00 -0.00000000000E+00 -0.38383201999E+03  0.38383201999E+03  0.25500000000E-02 0. -1.
   -5000001    1    1    2    0    0 -0.51738467485E+03 -0.12927181602E+03  0.30709408932E+03  0.66423255256E+03  0.25000000000E+03 0.  0.
    5000001    1    1    2    0    0  0.51738467485E+03  0.12927181602E+03  0.21724207350E+03  0.62776765024E+03  0.25000000000E+03 0.  0.
<mgrwt>
<rscale>  0 0.11808201E+04</rscale>
<asrwt>0</asrwt>
<pdfrwt beam="1">  1        2 0.13971818E+00 0.11808201E+04</pdfrwt>
<pdfrwt beam="2">  1       -2 0.59051080E-01 0.11808201E+04</pdfrwt>
<totfact> 0.76631554E+01</totfact>
</mgrwt>
</event>
<event>
 4    1  0.1751735E-005  0.8573421E+03  0.7818608E-02  0.9480535E-01
          2   -1    0    0  501    0  0.00000000000E+00  0.00000000000E+00  0.61414850965E+03  0.61414850965E+03  0.25500000000E-02 0.  1.
         -2   -1    0    0    0  501 -0.00000000000E+00 -0.00000000000E+00 -0.29920919225E+03  0.29920919226E+03  0.25500000000E-02 0. -1.
   -5000001    1    1    2    0    0 -0.48413478793E+02 -0.34306020534E+03  0.12018730004E+03  0.44382333930E+03  0.25000000000E+03 0.  0.
    5000001    1    1    2    0    0  0.48413478793E+02  0.34306020534E+03  0.19475201735E+03  0.46953436262E+03  0.25000000000E+03 0.  0.
<mgrwt>
<rscale>  0 0.85734212E+03</rscale>
<asrwt>0</asrwt>
<pdfrwt beam="1">  1        2 0.94484385E-01 0.85734212E+03</pdfrwt>
<pdfrwt beam="2">  1       -2 0.46032184E-01 0.85734212E+03</pdfrwt>
<totfact> 0.21675126E+02</totfact>
</mgrwt>
</event>
<event>
 4    1  0.1751735E-005  0.7246284E+03  0.7818608E-02  0.9676017E-01
          2   -1    0    0  501    0  0.00000000000E+00  0.00000000000E+00  0.30232242270E+04  0.30232242270E+04  0.25500000000E-02 0.  1.
         -2   -1    0    0    0  501 -0.00000000000E+00 -0.00000000000E+00 -0.43421056756E+02  0.43421056831E+02  0.25500000000E-02 0. -1.
   -5000001    1    1    2    0    0 -0.17510339076E+03  0.12706073905E+03  0.86267668858E+03  0.92385967434E+03  0.25000000000E+03 0.  0.
    5000001    1    1    2    0    0  0.17510339076E+03 -0.12706073905E+03  0.21171264817E+04  0.21427856095E+04  0.25000000000E+03 0.  0.
<mgrwt>
<rscale>  0 0.72462843E+03</rscale>
<asrwt>0</asrwt>
<pdfrwt beam="1">  1        2 0.46511142E+00 0.72462843E+03</pdfrwt>
<pdfrwt beam="2">  1       -2 0.66801625E-02 0.72462843E+03</pdfrwt>
<totfact> 0.23375592E+02</totfact>
</mgrwt>
</event>
<event>
 4    1  0.1751735E-005  0.1370207E+04  0.7818608E-02  0.8975671E-01
          2   -1    0    0  501    0  0.00000000000E+00  0.00000000000E+00  0.48465327296E+03  0.48465327297E+03  0.25500000000E-02 0.  1.
         -2   -1    0    0    0  501 -0.00000000000E+00 -0.00000000000E+00 -0.96845832276E+03  0.96845832276E+03  0.25500000000E-02 0. -1.
   -5000001    1    1    2    0    0 -0.50054261521E+03  0.21004021197E+03  0.11333784721E+03  0.60828058320E+03  0.25000000000E+03 0.  0.
    5000001    1    1    2    0    0  0.50054261521E+03 -0.21004021197E+03 -0.59714289701E+03  0.84483101253E+03  0.25000000000E+03 0.  0.
<mgrwt>
<rscale>  0 0.13702065E+04</rscale>
<asrwt>0</asrwt>
<pdfrwt beam="1">  1        2 0.74562042E-01 0.13702065E+04</pdfrwt>
<pdfrwt beam="2">  1       -2 0.14899359E+00 0.13702065E+04</pdfrwt>
<totfact> 0.18978874E+01</totfact>
</mgrwt>
</event>
<event>
 4    1  0.1751735E-005  0.6267296E+03  0.7818608E-02  0.9851452E-01
          2   -1    0    0  501    0  0.00000000000E+00  0.00000000000E+00  0.26670857430E+04  0.26670857430E+04  0.25500000000E-02 0.  1.
         -2   -1    0    0    0  501 -0.00000000000E+00 -0.00000000000E+00 -0.36818273704E+02  0.36818273792E+02  0.25500000000E-02 0. -1.
   -5000001    1    1    2    0    0  0.72933122465E+02 -0.15674627802E+03  0.98631510365E+03  0.10320882325E+04  0.25000000000E+03 0.  0.
    5000001    1    1    2    0    0 -0.72933122465E+02  0.15674627802E+03  0.16439523657E+04  0.16718157843E+04  0.25000000000E+03 0.  0.
<mgrwt>
<rscale>  0 0.62672958E+03</rscale>
<asrwt>0</asrwt>
<pdfrwt beam="1">  1        2 0.41032084E+00 0.62672958E+03</pdfrwt>
<pdfrwt beam="2">  1       -2 0.56643505E-02 0.62672958E+03</pdfrwt>
<totfact> 0.49827896E+02</totfact>
</mgrwt>
</event>
<event>
 4    1  0.1751735E-005  0.1103548E+04  0.7818608E-02  0.9201741E-01
          2   -1    0    0  501    0  0.00000000000E+00  0.00000000000E+00  0.72389066461E+03  0.72389066462E+03  0.25500000000E-02 0.  1.
         -2   -1    0    0    0  501 -0.00000000000E+00 -0.00000000000E+00 -0.42058053667E+03  0.42058053668E+03  0.25500000000E-02 0. -1.
   -5000001    1    1    2    0    0  0.37593816561E+03 -0.31163929106E+03  0.21306033352E+03  0.58850935235E+03  0.25000000000E+03 0.  0.
    5000001    1    1    2    0    0 -0.37593816561E+03  0.31163929106E+03  0.90249794416E+02  0.55596184894E+03  0.25000000000E+03 0.  0.
<mgrwt>
<rscale>  0 0.11035476E+04</rscale>
<asrwt>0</asrwt>
<pdfrwt beam="1">  1        2 0.11136779E+00 0.11035476E+04</pdfrwt>
<pdfrwt beam="2">  1       -2 0.64704699E-01 0.11035476E+04</pdfrwt>
<totfact> 0.85953368E+01</totfact>
</mgrwt>
</event>
<event>
 4    1  0.1751735E-005  0.7430562E+03  0.7818608E-02  0.9646307E-01
         -2   -1    0    0    0  501 -0.00000000000E+00  0.00000000000E+00  0.68992669845E+02  0.68992669892E+02  0.25500000000E-02 0. -1.
          2   -1    0    0  501    0  0.00000000000E+00 -0.00000000000E+00 -0.20006927868E+04  0.20006927868E+04  0.25500000000E-02 0.  1.
   -5000001    1    1    2    0    0  0.19576497484E+03  0.99098315474E+02 -0.50488430251E+03  0.60460942800E+03  0.25000000000E+03 0.  0.
    5000001    1    1    2    0    0 -0.19576497484E+03 -0.99098315474E+02 -0.14268158144E+04  0.14650760287E+04  0.25000000000E+03 0.  0.
<mgrwt>
<rscale>  0 0.74305622E+03</rscale>
<asrwt>0</asrwt>
<pdfrwt beam="1">  1        2 0.30779885E+00 0.74305622E+03</pdfrwt>
<pdfrwt beam="2">  1       -2 0.10614258E-01 0.74305622E+03</pdfrwt>
<totfact> 0.42573323E+02</totfact>
</mgrwt>
</event>
<event>
 4    1  0.1751735E-005  0.8078147E+03  0.7818608E-02  0.9548774E-01
         -2   -1    0    0    0  501 -0.00000000000E+00  0.00000000000E+00  0.85312903349E+02  0.85312903388E+02  0.25500000000E-02 0. -1.
          2   -1    0    0  501    0  0.00000000000E+00 -0.00000000000E+00 -0.19122682504E+04  0.19122682504E+04  0.25500000000E-02 0.  1.
   -5000001    1    1    2    0    0 -0.18978576645E+02 -0.23206066169E+03 -0.14463049980E+04  0.14861058119E+04  0.25000000000E+03 0.  0.
    5000001    1    1    2    0    0  0.18978576645E+02  0.23206066169E+03 -0.38065034906E+03  0.51147534184E+03  0.25000000000E+03 0.  0.
<mgrwt>
<rscale>  0 0.80781472E+03</rscale>
<asrwt>0</asrwt>
<pdfrwt beam="1">  1        2 0.29419508E+00 0.80781472E+03</pdfrwt>
<pdfrwt beam="2">  1       -2 0.13125064E-01 0.80781472E+03</pdfrwt>
<totfact> 0.33342942E+02</totfact>
</mgrwt>
</event>
<event>
 4    1  0.1751735E-005  0.8141450E+03  0.7818608E-02  0.9539766E-01
          2   -1    0    0  501    0  0.00000000000E+00  0.00000000000E+00  0.13431735795E+04  0.13431735795E+04  0.25500000000E-02 0.  1.
         -2   -1    0    0    0  501 -0.00000000000E+00 -0.00000000000E+00 -0.12337051794E+03  0.12337051797E+03  0.25500000000E-02 0. -1.
   -5000001    1    1    2    0    0 -0.13873952420E+03  0.27366712630E+03  0.43839001449E+03  0.59061675933E+03  0.25000000000E+03 0.  0.
    5000001    1    1    2    0    0  0.13873952420E+03 -0.27366712630E+03  0.78141304710E+03  0.87592733818E+03  0.25000000000E+03 0.  0.
<mgrwt>
<rscale>  0 0.81414500E+03</rscale>
<asrwt>0</asrwt>
<pdfrwt beam="1">  1        2 0.20664209E+00 0.81414500E+03</pdfrwt>
<pdfrwt beam="2">  1       -2 0.18980079E-01 0.81414500E+03</pdfrwt>
<totfact> 0.36741193E+02</totfact>
</mgrwt>
</event>
<event>
 4    1  0.1751735E-005  0.1182541E+04  0.7818608E-02  0.9128277E-01
         -2   -1    0    0    0  501 -0.00000000000E+00  0.00000000000E+00  0.26272223750E+03  0.26272223752E+03  0.25500000000E-02 0. -1.
          2   -1    0    0  501    0  0.00000000000E+00 -0.00000000000E+00 -0.13306864700E+04  0.13306864700E+04  0.25500000000E-02 0.  1.
   -5000001    1    1    2    0    0  0.10048773511E+03 -0.50578413946E+03 -0.73010611319E+03  0.92815425288E+03  0.25000000000E+03 0.  0.
    5000001    1    1    2    0    0 -0.10048773511E+03  0.50578413946E+03 -0.33785811931E+03  0.66525445464E+03  0.25000000000E+03 0.  0.
<mgrwt>
<rscale>  0 0.11825412E+04</rscale>
<asrwt>0</asrwt>
<pdfrwt beam="1">  1        2 0.20472099E+00 0.11825412E+04</pdfrwt>
<pdfrwt beam="2">  1       -2 0.40418806E-01 0.11825412E+04</pdfrwt>
<totfact> 0.90757974E+01</totfact>
</mgrwt>
</event>
<event>
 4    1  0.1751735E-005  0.7722281E+03  0.7818608E-02  0.9601109E-01
          2   -1    0    0  501    0  0.00000000000E+00  0.00000000000E+00  0.52686563031E+03  0.52686563031E+03  0.25500000000E-02 0.  1.
         -2   -1    0    0    0  501 -0.00000000000E+00 -0.00000000000E+00 -0.28296413169E+03  0.28296413170E+03  0.25500000000E-02 0. -1.
   -5000001    1    1    2    0    0 -0.14062044443E+03 -0.24252414264E+03  0.21570177379E+03  0.43315046389E+03  0.25000000000E+03 0.  0.
    5000001    1    1    2    0    0  0.14062044443E+03  0.24252414264E+03  0.28199724828E+02  0.37667929812E+03  0.25000000000E+03 0.  0.
<mgrwt>
<rscale>  0 0.77222814E+03</rscale>
<asrwt>0</asrwt>
<pdfrwt beam="1">  1        2 0.81056250E-01 0.77222814E+03</pdfrwt>
<pdfrwt beam="2">  1       -2 0.43532944E-01 0.77222814E+03</pdfrwt>
<totfact> 0.29188669E+02</totfact>
</mgrwt>
</event>
<event>
 4    1  0.1751735E-005  0.5741276E+03  0.7818608E-02  0.9960586E-01
         -2   -1    0    0    0  501 -0.00000000000E+00  0.00000000000E+00  0.30812829011E+03  0.30812829012E+03  0.25500000000E-02 0. -1.
          2   -1    0    0  501    0  0.00000000000E+00 -0.00000000000E+00 -0.26743930666E+03  0.26743930667E+03  0.25500000000E-02 0.  1.
   -5000001    1    1    2    0    0 -0.14002556691E+03 -0.10483064560E+02  0.34110730686E+02  0.28875698429E+03  0.25000000000E+03 0.  0.
    5000001    1    1    2    0    0  0.14002556691E+03  0.10483064560E+02  0.65782527704E+01  0.28681061250E+03  0.25000000000E+03 0.  0.
<mgrwt>
<rscale>  0 0.57412757E+03</rscale>
<asrwt>0</asrwt>
<pdfrwt beam="1">  1        2 0.41144509E-01 0.57412757E+03</pdfrwt>
<pdfrwt beam="2">  1       -2 0.47404352E-01 0.57412757E+03</pdfrwt>
<totfact> 0.53055693E+02</totfact>
</mgrwt>
</event>
<event>
 4    1  0.1751735E-005  0.9921884E+03  0.7818608E-02  0.9317154E-01
         -2   -1    0    0    0  501 -0.00000000000E+00  0.00000000000E+00  0.96396575674E+02  0.96396575708E+02  0.25500000000E-02 0. -1.
          2   -1    0    0  501    0  0.00000000000E+00 -0.00000000000E+00 -0.25530934533E+04  0.25530934533E+04  0.25500000000E-02 0.  1.
   -5000001    1    1    2    0    0  0.28812596954E+03  0.11498365255E+03 -0.43902789358E+03  0.59286027529E+03  0.25000000000E+03 0.  0.
    5000001    1    1    2    0    0 -0.28812596954E+03 -0.11498365255E+03 -0.20176689841E+04  0.20566297538E+04  0.25000000000E+03 0.  0.
<mgrwt>
<rscale>  0 0.99218842E+03</rscale>
<asrwt>0</asrwt>
<pdfrwt beam="1">  1        2 0.39278356E+00 0.99218842E+03</pdfrwt>
<pdfrwt beam="2">  1       -2 0.14830244E-01 0.99218842E+03</pdfrwt>
<totfact> 0.11753427E+02</totfact>
</mgrwt>
</event>
<event>
 4    1  0.1751735E-005  0.1301654E+04  0.7818608E-02  0.9028254E-01
         -2   -1    0    0    0  501 -0.00000000000E+00  0.00000000000E+00  0.16025494402E+03  0.16025494404E+03  0.25500000000E-02 0. -1.
          2   -1    0    0  501    0  0.00000000000E+00 -0.00000000000E+00 -0.26431385878E+04  0.26431385878E+04  0.25500000000E-02 0.  1.
   -5000001    1    1    2    0    0  0.49287119637E+03 -0.19776981089E+03 -0.63594076368E+03  0.86542219132E+03  0.25000000000E+03 0.  0.
    5000001    1    1    2    0    0 -0.49287119637E+03  0.19776981089E+03 -0.18469428801E+04  0.19379713405E+04  0.25000000000E+03 0.  0.
<mgrwt>
<rscale>  0 0.13016544E+04</rscale>
<asrwt>0</asrwt>
<pdfrwt beam="1">  1        2 0.40663667E+00 0.13016544E+04</pdfrwt>
<pdfrwt beam="2">  1       -2 0.24654609E-01 0.13016544E+04</pdfrwt>
<totfact> 0.41650888E+01</totfact>
</mgrwt>
</event>
<event>
 4    1  0.1751735E-005  0.1093215E+04  0.7818608E-02  0.9211830E-01
          2   -1    0    0  501    0  0.00000000000E+00  0.00000000000E+00  0.86197096683E+03  0.86197096684E+03  0.25500000000E-02 0.  1.
         -2   -1    0    0    0  501 -0.00000000000E+00 -0.00000000000E+00 -0.34662407635E+03  0.34662407636E+03  0.25500000000E-02 0. -1.
   -5000001    1    1    2    0    0 -0.80801794338E+02  0.22153156289E+03 -0.21224645271E+03  0.40392291345E+03  0.25000000000E+03 0.  0.
    5000001    1    1    2    0    0  0.80801794338E+02 -0.22153156289E+03  0.72759334319E+03  0.80467212974E+03  0.25000000000E+03 0.  0.
<mgrwt>
<rscale>  0 0.10932152E+04</rscale>
<asrwt>0</asrwt>
<pdfrwt beam="1">  1        2 0.13261092E+00 0.10932152E+04</pdfrwt>
<pdfrwt beam="2">  1       -2 0.53326781E-01 0.10932152E+04</pdfrwt>
<totfact> 0.10252051E+02</totfact>
</mgrwt>
</event>
<event>
 4    1  0.1751735E-005  0.7304700E+03  0.7818608E-02  0.9666498E-01
          2   -1    0    0  501    0  0.00000000000E+00  0.00000000000E+00  0.78048847834E+03  0.78048847834E+03  0.25500000000E-02 0.  1.
         -2   -1    0    0    0  501 -0.00000000000E+00 -0.00000000000E+00 -0.17091425596E+03  0.17091425598E+03  0.25500000000E-02 0. -1.
   -5000001    1    1    2    0    0  0.15499334790E+03  0.77184798800E+02  0.41330240660E+02  0.30690164524E+03  0.25000000000E+03 0.  0.
    5000001    1    1    2    0    0 -0.15499334790E+03 -0.77184798800E+02  0.56824398172E+03  0.64450108908E+03  0.25000000000E+03 0.  0.
<mgrwt>
<rscale>  0 0.73047001E+03</rscale>
<asrwt>0</asrwt>
<pdfrwt beam="1">  1        2 0.12007515E+00 0.73047001E+03</pdfrwt>
<pdfrwt beam="2">  1       -2 0.26294501E-01 0.73047001E+03</pdfrwt>
<totfact> 0.46806238E+02</totfact>
</mgrwt>
</event>
<event>
 4    1  0.1751735E-005  0.6936058E+03  0.7818608E-02  0.9728230E-01
          2   -1    0    0  501    0  0.00000000000E+00  0.00000000000E+00  0.38661720865E+03  0.38661720866E+03  0.25500000000E-02 0.  1.
         -2   -1    0    0    0  501 -0.00000000000E+00 -0.00000000000E+00 -0.31108874990E+03  0.31108874991E+03  0.25500000000E-02 0. -1.
   -5000001    1    1    2    0    0  0.14347524508E+03  0.18569990246E+03  0.90058698010E+02  0.35451398958E+03  0.25000000000E+03 0.  0.
    5000001    1    1    2    0    0 -0.14347524508E+03 -0.18569990246E+03 -0.14530239252E+02  0.34319196898E+03  0.25000000000E+03 0.  0.
<mgrwt>
<rscale>  0 0.69360584E+03</rscale>
<asrwt>0</asrwt>
<pdfrwt beam="1">  1        2 0.59479571E-01 0.69360584E+03</pdfrwt>
<pdfrwt beam="2">  1       -2 0.47859808E-01 0.69360584E+03</pdfrwt>
<totfact> 0.34490515E+02</totfact>
</mgrwt>
</event>
<event>
 4    1  0.1751735E-005  0.6676697E+03  0.7818608E-02  0.9774177E-01
          2   -1    0    0  501    0  0.00000000000E+00  0.00000000000E+00  0.61066276993E+03  0.61066276993E+03  0.25500000000E-02 0.  1.
         -2   -1    0    0    0  501 -0.00000000000E+00 -0.00000000000E+00 -0.18249959721E+03  0.18249959722E+03  0.25500000000E-02 0. -1.
   -5000001    1    1    2    0    0 -0.67011106293E+02 -0.18294821199E+03  0.89571688617E+02  0.32936852314E+03  0.25000000000E+03 0.  0.
    5000001    1    1    2    0    0  0.67011106293E+02  0.18294821199E+03  0.33859148410E+03  0.46379384401E+03  0.25000000000E+03 0.  0.
<mgrwt>
<rscale>  0 0.66766971E+03</rscale>
<asrwt>0</asrwt>
<pdfrwt beam="1">  1        2 0.93948123E-01 0.66766971E+03</pdfrwt>
<pdfrwt beam="2">  1       -2 0.28076860E-01 0.66766971E+03</pdfrwt>
<totfact> 0.56620481E+02</totfact>
</mgrwt>
</event>
<event>
 4    1  0.1751735E-005  0.6500642E+03  0.7818608E-02  0.9806659E-01
         -2   -1    0    0    0  501 -0.00000000000E+00  0.00000000000E+00  0.42043806947E+02  0.42043807024E+02  0.25500000000E-02 0. -1.
          2   -1    0    0  501    0  0.00000000000E+00 -0.00000000000E+00 -0.25127568456E+04  0.25127568456E+04  0.25500000000E-02 0.  1.
   -5000001    1    1    2    0    0 -0.20658282723E+03 -0.19643540139E+02 -0.11994375641E+04  0.12426635922E+04  0.25000000000E+03 0.  0.
    5000001    1    1    2    0    0  0.20658282723E+03  0.19643540139E+02 -0.12712754746E+04  0.13121370605E+04  0.25000000000E+03 0.  0.
<mgrwt>
<rscale>  0 0.65006419E+03</rscale>
<asrwt>0</asrwt>
<pdfrwt beam="1">  1        2 0.38657786E+00 0.65006419E+03</pdfrwt>
<pdfrwt beam="2">  1       -2 0.64682800E-02 0.65006419E+03</pdfrwt>
<totfact> 0.49447650E+02</totfact>
</mgrwt>
</event>
<event>
 4    1  0.1751735E-005  0.6672535E+03  0.7818608E-02  0.9774932E-01
          2   -1    0    0  501    0  0.00000000000E+00  0.00000000000E+00  0.76492697833E+03  0.76492697833E+03  0.25500000000E-02 0.  1.
         -2   -1    0    0    0  501 -0.00000000000E+00 -0.00000000000E+00 -0.14551299588E+03  0.14551299591E+03  0.25500000000E-02 0. -1.
   -5000001    1    1    2    0    0  0.19412668142E+03 -0.44888455204E+01  0.16594263097E+03  0.35741051320E+03  0.25000000000E+03 0.  0.
    5000001    1    1    2    0    0 -0.19412668142E+03  0.44888455204E+01  0.45347135147E+03  0.55302946104E+03  0.25000000000E+03 0.  0.
<mgrwt>
<rscale>  0 0.66725352E+03</rscale>
<asrwt>0</asrwt>
<pdfrwt beam="1">  1        2 0.11768107E+00 0.66725352E+03</pdfrwt>
<pdfrwt beam="2">  1       -2 0.22386615E-01 0.66725352E+03</pdfrwt>
<totfact> 0.64262204E+02</totfact>
</mgrwt>
</event>
<event>
 4    1  0.1751735E-005  0.2102341E+04  0.7818608E-02  0.8560213E-01
         -2   -1    0    0    0  501 -0.00000000000E+00  0.00000000000E+00  0.11300193196E+04  0.11300193196E+04  0.25500000000E-02 0. -1.
          2   -1    0    0  501    0  0.00000000000E+00 -0.00000000000E+00 -0.97782322135E+03  0.97782322136E+03  0.25500000000E-02 0.  1.
   -5000001    1    1    2    0    0 -0.53657487534E+03  0.38060394880E+03  0.85896613568E+03  0.11104480109E+04  0.25000000000E+03 0.  0.
    5000001    1    1    2    0    0  0.53657487534E+03 -0.38060394880E+03 -0.70677003745E+03  0.99739453003E+03  0.25000000000E+03 0.  0.
<mgrwt>
<rscale>  0 0.21023407E+04</rscale>
<asrwt>0</asrwt>
<pdfrwt beam="1">  1        2 0.15043434E+00 0.21023407E+04</pdfrwt>
<pdfrwt beam="2">  1       -2 0.17384913E+00 0.21023407E+04</pdfrwt>
<totfact> 0.48006824E+00</totfact>
</mgrwt>
</event>
<event>
 4    1  0.1751735E-005  0.9226181E+03  0.7818608E-02  0.9397741E-01
          2   -1    0    0  501    0  0.00000000000E+00  0.00000000000E+00  0.11991463552E+03  0.11991463555E+03  0.25500000000E-02 0.  1.
         -2   -1    0    0    0  501 -0.00000000000E+00 -0.00000000000E+00 -0.17746459736E+04  0.17746459736E+04  0.25500000000E-02 0. -1.
   -5000001    1    1    2    0    0  0.19087736802E+03  0.15312451715E+03 -0.20987531644E+03  0.40795702693E+03  0.25000000000E+03 0.  0.
    5000001    1    1    2    0    0 -0.19087736802E+03 -0.15312451715E+03 -0.14448560216E+04  0.14866035822E+04  0.25000000000E+03 0.  0.
<mgrwt>
<rscale>  0 0.92261807E+03</rscale>
<asrwt>0</asrwt>
<pdfrwt beam="1">  1        2 0.18448407E-01 0.92261807E+03</pdfrwt>
<pdfrwt beam="2">  1       -2 0.27302244E+00 0.92261807E+03</pdfrwt>
<totfact> 0.14773660E+01</totfact>
</mgrwt>
</event>
<event>
 4    1  0.1751735E-005  0.8449221E+03  0.7818608E-02  0.9497178E-01
         -2   -1    0    0    0  501 -0.00000000000E+00  0.00000000000E+00  0.41573197751E+03  0.41573197752E+03  0.25500000000E-02 0. -1.
          2   -1    0    0  501    0  0.00000000000E+00 -0.00000000000E+00 -0.42929908732E+03  0.42929908733E+03  0.25500000000E-02 0.  1.
   -5000001    1    1    2    0    0 -0.10278111953E+03  0.20387166438E+03 -0.25949328186E+03  0.42657282778E+03  0.25000000000E+03 0.  0.
    5000001    1    1    2    0    0  0.10278111953E+03 -0.20387166438E+03  0.24592617205E+03  0.41845823707E+03  0.25000000000E+03 0.  0.
<mgrwt>
<rscale>  0 0.84492215E+03</rscale>
<asrwt>0</asrwt>
<pdfrwt beam="1">  1        2 0.66046014E-01 0.84492215E+03</pdfrwt>
<pdfrwt beam="2">  1       -2 0.63958765E-01 0.84492215E+03</pdfrwt>
<totfact> 0.16691409E+02</totfact>
</mgrwt>
</event>
<event>
 4    1  0.1751735E-005  0.1278606E+04  0.7818608E-02  0.9046705E-01
         -2   -1    0    0    0  501 -0.00000000000E+00  0.00000000000E+00  0.17400348356E+03  0.17400348357E+03  0.25500000000E-02 0. -1.
          2   -1    0    0  501    0  0.00000000000E+00 -0.00000000000E+00 -0.23488506726E+04  0.23488506726E+04  0.25500000000E-02 0.  1.
   -5000001    1    1    2    0    0  0.45434582021E+02 -0.37035582972E+03 -0.19851006928E+04  0.20352770087E+04  0.25000000000E+03 0.  0.
    5000001    1    1    2    0    0 -0.45434582021E+02  0.37035582972E+03 -0.18974649626E+03  0.48757714743E+03  0.25000000000E+03 0.  0.
<mgrwt>
<rscale>  0 0.12786058E+04</rscale>
<asrwt>0</asrwt>
<pdfrwt beam="1">  1        2 0.36136162E+00 0.12786058E+04</pdfrwt>
<pdfrwt beam="2">  1       -2 0.26769768E-01 0.12786058E+04</pdfrwt>
<totfact> 0.53043481E+01</totfact>
</mgrwt>
</event>
<event>
 4    1  0.1751735E-005  0.9259225E+03  0.7818608E-02  0.9393745E-01
          2   -1    0    0  501    0  0.00000000000E+00  0.00000000000E+00  0.10970733899E+04  0.10970733899E+04  0.25500000000E-02 0.  1.
         -2   -1    0    0    0  501 -0.00000000000E+00 -0.00000000000E+00 -0.19536806844E+03  0.19536806845E+03  0.25500000000E-02 0. -1.
   -5000001    1    1    2    0    0  0.20392827160E+03  0.30595514450E+03  0.27080625861E+03  0.52060668465E+03  0.25000000000E+03 0.  0.
    5000001    1    1    2    0    0 -0.20392827160E+03 -0.30595514450E+03  0.63089906287E+03  0.77183477372E+03  0.25000000000E+03 0.  0.
<mgrwt>
<rscale>  0 0.92592248E+03</rscale>
<asrwt>0</asrwt>
<pdfrwt beam="1">  1        2 0.16878053E+00 0.92592248E+03</pdfrwt>
<pdfrwt beam="2">  1       -2 0.30056625E-01 0.92592248E+03</pdfrwt>
<totfact> 0.22357602E+02</totfact>
</mgrwt>
</event>
<event>
 4    1  0.1751735E-005  0.1189702E+04  0.7818608E-02  0.9121918E-01
         -2   -1    0    0    0  501 -0.00000000000E+00  0.00000000000E+00  0.32324305862E+03  0.32324305863E+03  0.25500000000E-02 0. -1.
          2   -1    0    0  501    0  0.00000000000E+00 -0.00000000000E+00 -0.10946800661E+04  0.10946800661E+04  0.25500000000E-02 0.  1.
   -5000001    1    1    2    0    0  0.24148573820E+03 -0.10494302881E+02 -0.96091993861E+03  0.10219063658E+04  0.25000000000E+03 0.  0.
    5000001    1    1    2    0    0 -0.24148573820E+03  0.10494302881E+02  0.18948293111E+03  0.39601675890E+03  0.25000000000E+03 0.  0.
<mgrwt>
<rscale>  0 0.11897020E+04</rscale>
<asrwt>0</asrwt>
<pdfrwt beam="1">  1        2 0.16841232E+00 0.11897020E+04</pdfrwt>
<pdfrwt beam="2">  1       -2 0.49729702E-01 0.11897020E+04</pdfrwt>
<totfact> 0.82916895E+01</totfact>
</mgrwt>
</event>
<event>
 4    1  0.1751735E-005  0.7374021E+03  0.7818608E-02  0.9655324E-01
         -2   -1    0    0    0  501 -0.00000000000E+00  0.00000000000E+00  0.95883656341E+02  0.95883656375E+02  0.25500000000E-02 0. -1.
          2   -1    0    0  501    0  0.00000000000E+00 -0.00000000000E+00 -0.14177647606E+04  0.14177647606E+04  0.25500000000E-02 0.  1.
   -5000001    1    1    2    0    0  0.42236049914E+02  0.25748317332E+03 -0.51067392511E+03  0.62559517760E+03  0.25000000000E+03 0.  0.
    5000001    1    1    2    0    0 -0.42236049914E+02 -0.25748317332E+03 -0.81120717919E+03  0.88805323941E+03  0.25000000000E+03 0.  0.
<mgrwt>
<rscale>  0 0.73740211E+03</rscale>
<asrwt>0</asrwt>
<pdfrwt beam="1">  1        2 0.21811764E+00 0.73740211E+03</pdfrwt>
<pdfrwt beam="2">  1       -2 0.14751333E-01 0.73740211E+03</pdfrwt>
<totfact> 0.51535256E+02</totfact>
</mgrwt>
</event>
<event>
 4    1  0.1751735E-005  0.1123907E+04  0.7818608E-02  0.9182199E-01
          2   -1    0    0  501    0  0.00000000000E+00  0.00000000000E+00  0.20062760364E+04  0.20062760364E+04  0.25500000000E-02 0. -1.
         -2   -1    0    0    0  501 -0.00000000000E+00 -0.00000000000E+00 -0.15740181666E+03  0.15740181668E+03  0.25500000000E-02 0.  1.
   -5000001    1    1    2    0    0 -0.75384866603E+02  0.29241114942E+03  0.16995406218E+04  0.17441689951E+04  0.25000000000E+03 0.  0.
    5000001    1    1    2    0    0  0.75384866603E+02 -0.29241114942E+03  0.14933359792E+03  0.41950885793E+03  0.25000000000E+03 0.  0.
<mgrwt>
<rscale>  0 0.11239066E+04</rscale>
<asrwt>0</asrwt>
<pdfrwt beam="1">  1        2 0.30865783E+00 0.11239066E+04</pdfrwt>
<pdfrwt beam="2">  1       -2 0.24215666E-01 0.11239066E+04</pdfrwt>
<totfact> 0.10007219E+02</totfact>
</mgrwt>
</event>
<event>
 4    1  0.1751735E-005  0.6794438E+03  0.7818608E-02  0.9753046E-01
         -2   -1    0    0    0  501 -0.00000000000E+00  0.00000000000E+00  0.13119612802E+03  0.13119612805E+03  0.25500000000E-02 0. -1.
          2   -1    0    0  501    0  0.00000000000E+00 -0.00000000000E+00 -0.87968284726E+03  0.87968284727E+03  0.25500000000E-02 0.  1.
   -5000001    1    1    2    0    0 -0.19145671355E+03  0.96587751457E+02 -0.25042344628E+03  0.41375931329E+03  0.25000000000E+03 0.  0.
    5000001    1    1    2    0    0  0.19145671355E+03 -0.96587751457E+02 -0.49806327297E+03  0.59711966202E+03  0.25000000000E+03 0.  0.
<mgrwt>
<rscale>  0 0.67944384E+03</rscale>
<asrwt>0</asrwt>
<pdfrwt beam="1">  1        2 0.13533582E+00 0.67944384E+03</pdfrwt>
<pdfrwt beam="2">  1       -2 0.20184020E-01 0.67944384E+03</pdfrwt>
<totfact> 0.63969897E+02</totfact>
</mgrwt>
</event>
<event>
 4    1  0.1751735E-005  0.9614037E+03  0.7818608E-02  0.9351920E-01
         -2   -1    0    0    0  501 -0.00000000000E+00  0.00000000000E+00  0.19307374433E+03  0.19307374435E+03  0.25500000000E-02 0. -1.
          2   -1    0    0  501    0  0.00000000000E+00 -0.00000000000E+00 -0.11968186108E+04  0.11968186108E+04  0.25500000000E-02 0.  1.
   -5000001    1    1    2    0    0  0.28501875053E+03  0.28616268635E+03 -0.60859417299E+03  0.77201790045E+03  0.25000000000E+03 0.  0.
    5000001    1    1    2    0    0 -0.28501875053E+03 -0.28616268635E+03 -0.39515069348E+03  0.61787445470E+03  0.25000000000E+03 0.  0.
<mgrwt>
<rscale>  0 0.96140366E+03</rscale>
<asrwt>0</asrwt>
<pdfrwt beam="1">  1        2 0.18412593E+00 0.96140366E+03</pdfrwt>
<pdfrwt beam="2">  1       -2 0.29703654E-01 0.96140366E+03</pdfrwt>
<totfact> 0.19846551E+02</totfact>
</mgrwt>
</event>
<event>
 4    1  0.1751735E-005  0.5414391E+03  0.7818608E-02  0.1003495E+00
         -2   -1    0    0    0  501 -0.00000000000E+00  0.00000000000E+00  0.52918616044E+02  0.52918616105E+02  0.25500000000E-02 0. -1.
          2   -1    0    0  501    0  0.00000000000E+00 -0.00000000000E+00 -0.13849393512E+04  0.13849393512E+04  0.25500000000E-02 0.  1.
   -5000001    1    1    2    0    0 -0.97805112431E+02  0.30610806423E+02 -0.71093769060E+03  0.76054931556E+03  0.25000000000E+03 0.  0.
    5000001    1    1    2    0    0  0.97805112431E+02 -0.30610806423E+02 -0.62108304451E+03  0.67730865170E+03  0.25000000000E+03 0.  0.
<mgrwt>
<rscale>  0 0.54143910E+03</rscale>
<asrwt>0</asrwt>
<pdfrwt beam="1">  1        2 0.21306757E+00 0.54143910E+03</pdfrwt>
<pdfrwt beam="2">  1       -2 0.81413266E-02 0.54143910E+03</pdfrwt>
<totfact> 0.14355404E+03</totfact>
</mgrwt>
</event>
<event>
 4    1  0.1751735E-005  0.7664013E+03  0.7818608E-02  0.9609965E-01
          2   -1    0    0  501    0  0.00000000000E+00  0.00000000000E+00  0.29122597705E+03  0.29122597706E+03  0.25500000000E-02 0.  1.
         -2   -1    0    0    0  501 -0.00000000000E+00 -0.00000000000E+00 -0.50422271488E+03  0.50422271488E+03  0.25500000000E-02 0. -1.
   -5000001    1    1    2    0    0  0.25283176876E+03  0.10976452578E+03 -0.20145693988E+03  0.42315133586E+03  0.25000000000E+03 0.  0.
    5000001    1    1    2    0    0 -0.25283176876E+03 -0.10976452578E+03 -0.11539797953E+02  0.37229735609E+03  0.25000000000E+03 0.  0.
<mgrwt>
<rscale>  0 0.76640134E+03</rscale>
<asrwt>0</asrwt>
<pdfrwt beam="1">  1        2 0.44803996E-01 0.76640134E+03</pdfrwt>
<pdfrwt beam="2">  1       -2 0.77572725E-01 0.76640134E+03</pdfrwt>
<totfact> 0.16954118E+02</totfact>
</mgrwt>
</event>
<event>
 4    1  0.1751735E-005  0.9608633E+03  0.7818608E-02  0.9352542E-01
          2   -1    0    0  501    0  0.00000000000E+00  0.00000000000E+00  0.28855671889E+03  0.28855671890E+03  0.25500000000E-02 0.  1.
         -2   -1    0    0    0  501 -0.00000000000E+00 -0.00000000000E+00 -0.79989332332E+03  0.79989332333E+03  0.25500000000E-02 0. -1.
   -5000001    1    1    2    0    0 -0.37125204694E+03  0.14972007445E+03 -0.35743241889E+03  0.59203219265E+03  0.25000000000E+03 0.  0.
    5000001    1    1    2    0    0  0.37125204694E+03 -0.14972007445E+03 -0.15390418554E+03  0.49641784958E+03  0.25000000000E+03 0.  0.
<mgrwt>
<rscale>  0 0.96086335E+03</rscale>
<asrwt>0</asrwt>
<pdfrwt beam="1">  1        2 0.44393342E-01 0.96086335E+03</pdfrwt>
<pdfrwt beam="2">  1       -2 0.12306051E+00 0.96086335E+03</pdfrwt>
<totfact> 0.57168496E+01</totfact>
</mgrwt>
</event>
<event>
 4    1  0.1751735E-005  0.1551553E+04  0.7818608E-02  0.8850877E-01
          2   -1    0    0  501    0  0.00000000000E+00  0.00000000000E+00  0.23990305397E+04  0.23990305397E+04  0.25500000000E-02 0.  1.
         -2   -1    0    0    0  501 -0.00000000000E+00 -0.00000000000E+00 -0.25086339251E+03  0.25086339253E+03  0.25500000000E-02 0. -1.
   -5000001    1    1    2    0    0  0.38728013324E+03  0.39545411827E+03  0.24975229097E+03  0.65669328313E+03  0.25000000000E+03 0.  0.
    5000001    1    1    2    0    0 -0.38728013324E+03 -0.39545411827E+03  0.18984148562E+04  0.19932006491E+04  0.25000000000E+03 0.  0.
<mgrwt>
<rscale>  0 0.15515527E+04</rscale>
<asrwt>0</asrwt>
<pdfrwt beam="1">  1        2 0.36908162E+00 0.15515527E+04</pdfrwt>
<pdfrwt beam="2">  1       -2 0.38594369E-01 0.15515527E+04</pdfrwt>
<totfact> 0.24343978E+01</totfact>
</mgrwt>
</event>
<event>
 4    1  0.1751735E-005  0.6081497E+03  0.7818608E-02  0.9888641E-01
         -2   -1    0    0    0  501 -0.00000000000E+00  0.00000000000E+00  0.68113383223E+02  0.68113383270E+02  0.25500000000E-02 0. -1.
          2   -1    0    0  501    0  0.00000000000E+00 -0.00000000000E+00 -0.13574647518E+04  0.13574647518E+04  0.25500000000E-02 0.  1.
   -5000001    1    1    2    0    0 -0.14452175326E+03 -0.55286951004E+02 -0.46282345819E+03  0.54831445136E+03  0.25000000000E+03 0.  0.
    5000001    1    1    2    0    0  0.14452175326E+03  0.55286951004E+02 -0.82652791040E+03  0.87726368373E+03  0.25000000000E+03 0.  0.
<mgrwt>
<rscale>  0 0.60814971E+03</rscale>
<asrwt>0</asrwt>
<pdfrwt beam="1">  1        2 0.20884071E+00 0.60814971E+03</pdfrwt>
<pdfrwt beam="2">  1       -2 0.10478983E-01 0.60814971E+03</pdfrwt>
<totfact> 0.98825937E+02</totfact>
</mgrwt>
</event>
<event>
 4    1  0.1751735E-005  0.7036029E+03  0.7818608E-02  0.9711091E-01
          2   -1    0    0  501    0  0.00000000000E+00  0.00000000000E+00  0.34718341972E+04  0.34718341972E+04  0.25500000000E-02 0.  1.
         -2   -1    0    0    0  501 -0.00000000000E+00 -0.00000000000E+00 -0.35648091107E+02  0.35648091198E+02  0.25500000000E-02 0. -1.
   -5000001    1    1    2    0    0 -0.13375478973E+03 -0.16262754430E+03  0.23666492253E+04  0.23891141909E+04  0.25000000000E+03 0.  0.
    5000001    1    1    2    0    0  0.13375478973E+03  0.16262754430E+03  0.10695368808E+04  0.11183680974E+04  0.25000000000E+03 0.  0.
<mgrwt>
<rscale>  0 0.70360290E+03</rscale>
<asrwt>0</asrwt>
<pdfrwt beam="1">  1        2 0.53412835E+00 0.70360290E+03</pdfrwt>
<pdfrwt beam="2">  1       -2 0.54843216E-02 0.70360290E+03</pdfrwt>
<totfact> 0.16445938E+02</totfact>
</mgrwt>
</event>
<event>
 4    1  0.1751735E-005  0.7194415E+03  0.7818608E-02  0.9684550E-01
         -2   -1    0    0    0  501 -0.00000000000E+00  0.00000000000E+00  0.13236503145E+03  0.13236503148E+03  0.25500000000E-02 0. -1.
          2   -1    0    0  501    0  0.00000000000E+00 -0.00000000000E+00 -0.97759204278E+03  0.97759204278E+03  0.25500000000E-02 0.  1.
   -5000001    1    1    2    0    0 -0.12645244423E+03  0.21569026101E+03 -0.32043268084E+03  0.47716832700E+03  0.25000000000E+03 0.  0.
    5000001    1    1    2    0    0  0.12645244423E+03 -0.21569026101E+03 -0.52479433049E+03  0.63278874726E+03  0.25000000000E+03 0.  0.
<mgrwt>
<rscale>  0 0.71944145E+03</rscale>
<asrwt>0</asrwt>
<pdfrwt beam="1">  1        2 0.15039877E+00 0.71944145E+03</pdfrwt>
<pdfrwt beam="2">  1       -2 0.20363852E-01 0.71944145E+03</pdfrwt>
<totfact> 0.54191563E+02</totfact>
</mgrwt>
</event>
<event>
 4    1  0.1751735E-005  0.6360831E+03  0.7818608E-02  0.9833249E-01
         -2   -1    0    0    0  501 -0.00000000000E+00  0.00000000000E+00  0.11306687280E+03  0.11306687283E+03  0.25500000000E-02 0.  1.
          2   -1    0    0  501    0  0.00000000000E+00 -0.00000000000E+00 -0.89460713900E+03  0.89460713901E+03  0.25500000000E-02 0. -1.
   -5000001    1    1    2    0    0  0.47508693203E+01  0.19221990207E+03 -0.45569026598E+03  0.55418830736E+03  0.25000000000E+03 0.  0.
    5000001    1    1    2    0    0 -0.47508693203E+01 -0.19221990207E+03 -0.32585000023E+03  0.45348570447E+03  0.25000000000E+03 0.  0.
<mgrwt>
<rscale>  0 0.63608311E+03</rscale>
<asrwt>0</asrwt>
<pdfrwt beam="1">  1        2 0.13763186E+00 0.63608311E+03</pdfrwt>
<pdfrwt beam="2">  1       -2 0.17394904E-01 0.63608311E+03</pdfrwt>
<totfact> 0.80967044E+02</totfact>
</mgrwt>
</event>
<event>
 4    1  0.1751735E-005  0.7756159E+03  0.7818608E-02  0.9595999E-01
          2   -1    0    0  501    0  0.00000000000E+00  0.00000000000E+00  0.22427800796E+04  0.22427800796E+04  0.25500000000E-02 0.  1.
         -2   -1    0    0    0  501 -0.00000000000E+00 -0.00000000000E+00 -0.67057403662E+02  0.67057403711E+02  0.25500000000E-02 0. -1.
   -5000001    1    1    2    0    0  0.30889399226E+02  0.29109020477E+03  0.94794449067E+03  0.10231258083E+04  0.25000000000E+03 0.  0.
    5000001    1    1    2    0    0 -0.30889399226E+02 -0.29109020477E+03  0.12277781853E+04  0.12867116750E+04  0.25000000000E+03 0.  0.
<mgrwt>
<rscale>  0 0.77561591E+03</rscale>
<asrwt>0</asrwt>
<pdfrwt beam="1">  1        2 0.34504311E+00 0.77561591E+03</pdfrwt>
<pdfrwt beam="2">  1       -2 0.10316523E-01 0.77561591E+03</pdfrwt>
<totfact> 0.32759909E+02</totfact>
</mgrwt>
</event>
<event>
 4    1  0.1751735E-005  0.6815234E+03  0.7818608E-02  0.9749362E-01
          2   -1    0    0  501    0  0.00000000000E+00  0.00000000000E+00  0.32199362551E+03  0.32199362552E+03  0.25500000000E-02 0.  1.
         -2   -1    0    0    0  501 -0.00000000000E+00 -0.00000000000E+00 -0.36062372409E+03  0.36062372410E+03  0.25500000000E-02 0. -1.
   -5000001    1    1    2    0    0 -0.11430604652E+03  0.18443389413E+03 -0.10029534665E+03  0.34589144270E+03  0.25000000000E+03 0.  0.
    5000001    1    1    2    0    0  0.11430604652E+03 -0.18443389413E+03  0.61665248069E+02  0.33672590692E+03  0.25000000000E+03 0.  0.
<mgrwt>
<rscale>  0 0.68152341E+03</rscale>
<asrwt>0</asrwt>
<pdfrwt beam="1">  1        2 0.49537481E-01 0.68152341E+03</pdfrwt>
<pdfrwt beam="2">  1       -2 0.55480573E-01 0.68152341E+03</pdfrwt>
<totfact> 0.31274323E+02</totfact>
</mgrwt>
</event>
<event>
 4    1  0.1751735E-005  0.5548273E+03  0.7818608E-02  0.1000383E+00
          2   -1    0    0  501    0  0.00000000000E+00  0.00000000000E+00  0.35707654313E+04  0.35707654313E+04  0.25500000000E-02 0.  1.
         -2   -1    0    0    0  501 -0.00000000000E+00 -0.00000000000E+00 -0.21552332989E+02  0.21552333140E+02  0.25500000000E-02 0. -1.
   -5000001    1    1    2    0    0  0.74342832852E+02 -0.92938620291E+02  0.18856015429E+04  0.19058220332E+04  0.25000000000E+03 0.  0.
    5000001    1    1    2    0    0 -0.74342832852E+02  0.92938620291E+02  0.16636115555E+04  0.16864957312E+04  0.25000000000E+03 0.  0.
<mgrwt>
<rscale>  0 0.55482727E+03</rscale>
<asrwt>0</asrwt>
<pdfrwt beam="1">  1        2 0.54934874E+00 0.55482727E+03</pdfrwt>
<pdfrwt beam="2">  1       -2 0.33157422E-02 0.55482727E+03</pdfrwt>
<totfact> 0.31234427E+02</totfact>
</mgrwt>
</event>
<event>
 4    1  0.1751735E-005  0.9738416E+03  0.7818608E-02  0.9337709E-01
         -2   -1    0    0    0  501 -0.00000000000E+00  0.00000000000E+00  0.20787025371E+03  0.20787025372E+03  0.25500000000E-02 0. -1.
          2   -1    0    0  501    0  0.00000000000E+00 -0.00000000000E+00 -0.11405762288E+04  0.11405762288E+04  0.25500000000E-02 0.  1.
   -5000001    1    1    2    0    0 -0.19437875527E+02 -0.98711244371E+02  0.95197624478E+02  0.28580470338E+03  0.25000000000E+03 0.  0.
    5000001    1    1    2    0    0  0.19437875527E+02  0.98711244371E+02 -0.10279035996E+04  0.10626417791E+04  0.25000000000E+03 0.  0.
<mgrwt>
<rscale>  0 0.97384161E+03</rscale>
<asrwt>0</asrwt>
<pdfrwt beam="1">  1        2 0.17547326E+00 0.97384161E+03</pdfrwt>
<pdfrwt beam="2">  1       -2 0.31980040E-01 0.97384161E+03</pdfrwt>
<totfact> 0.18675788E+02</totfact>
</mgrwt>
</event>
<event>
 4    1  0.1751735E-005  0.1606715E+04  0.7818608E-02  0.8816433E-01
         -2   -1    0    0    0  501 -0.00000000000E+00  0.00000000000E+00  0.79420766476E+03  0.79420766476E+03  0.25500000000E-02 0. -1.
          2   -1    0    0  501    0  0.00000000000E+00 -0.00000000000E+00 -0.81261252075E+03  0.81261252075E+03  0.25500000000E-02 0.  1.
   -5000001    1    1    2    0    0  0.62182873275E+03 -0.24383705796E+03 -0.37903151460E+03  0.80764619281E+03  0.25000000000E+03 0.  0.
    5000001    1    1    2    0    0 -0.62182873275E+03  0.24383705796E+03  0.36062665861E+03  0.79917399270E+03  0.25000000000E+03 0.  0.
<mgrwt>
<rscale>  0 0.16067148E+04</rscale>
<asrwt>0</asrwt>
<pdfrwt beam="1">  1        2 0.12501731E+00 0.16067148E+04</pdfrwt>
<pdfrwt beam="2">  1       -2 0.12218579E+00 0.16067148E+04</pdfrwt>
<totfact> 0.16410968E+01</totfact>
</mgrwt>
</event>
<event>
 4    1  0.1751735E-005  0.6451245E+03  0.7818608E-02  0.9815971E-01
         -2   -1    0    0    0  501 -0.00000000000E+00  0.00000000000E+00  0.11401565807E+03  0.11401565810E+03  0.25500000000E-02 0. -1.
          2   -1    0    0  501    0  0.00000000000E+00 -0.00000000000E+00 -0.91256244412E+03  0.91256244413E+03  0.25500000000E-02 0.  1.
   -5000001    1    1    2    0    0 -0.11840653357E+03  0.13048737695E+03 -0.56232667926E+03  0.64012370441E+03  0.25000000000E+03 0.  0.
    5000001    1    1    2    0    0  0.11840653357E+03 -0.13048737695E+03 -0.23622010679E+03  0.38645439781E+03  0.25000000000E+03 0.  0.
<mgrwt>
<rscale>  0 0.64512451E+03</rscale>
<asrwt>0</asrwt>
<pdfrwt beam="1">  1        2 0.14039422E+00 0.64512451E+03</pdfrwt>
<pdfrwt beam="2">  1       -2 0.17540871E-01 0.64512451E+03</pdfrwt>
<totfact> 0.77620526E+02</totfact>
</mgrwt>
</event>
<event>
 4    1  0.1751735E-005  0.8753744E+03  0.7818608E-02  0.9456899E-01
         -2   -1    0    0    0  501 -0.00000000000E+00  0.00000000000E+00  0.11198660685E+04  0.11198660686E+04  0.25500000000E-02 0. -1.
          2   -1    0    0  501    0  0.00000000000E+00 -0.00000000000E+00 -0.17106517509E+03  0.17106517511E+03  0.25500000000E-02 0.  1.
   -5000001    1    1    2    0    0 -0.27781551284E+03  0.18358221787E+03  0.27552544592E+03  0.49929766797E+03  0.25000000000E+03 0.  0.
    5000001    1    1    2    0    0  0.27781551284E+03 -0.18358221787E+03  0.67327544754E+03  0.79163357569E+03  0.25000000000E+03 0.  0.
<mgrwt>
<rscale>  0 0.87537440E+03</rscale>
<asrwt>0</asrwt>
<pdfrwt beam="1">  1        2 0.26317718E-01 0.87537440E+03</pdfrwt>
<pdfrwt beam="2">  1       -2 0.17228709E+00 0.87537440E+03</pdfrwt>
<totfact> 0.42665720E+01</totfact>
</mgrwt>
</event>
<event>
 4    1  0.1751735E-005  0.7100382E+03  0.7818608E-02  0.9700218E-01
         -2   -1    0    0    0  501 -0.00000000000E+00  0.00000000000E+00  0.72279940404E+03  0.72279940404E+03  0.25500000000E-02 0. -1.
          2   -1    0    0  501    0  0.00000000000E+00 -0.00000000000E+00 -0.17437556665E+03  0.17437556667E+03  0.25500000000E-02 0.  1.
   -5000001    1    1    2    0    0  0.88820914984E+02 -0.23566288132E+03  0.28760844808E+03  0.45677649674E+03  0.25000000000E+03 0.  0.
    5000001    1    1    2    0    0 -0.88820914984E+02  0.23566288132E+03  0.26081538931E+03  0.44039847397E+03  0.25000000000E+03 0.  0.
<mgrwt>
<rscale>  0 0.71003818E+03</rscale>
<asrwt>0</asrwt>
<pdfrwt beam="1">  1        2 0.26827011E-01 0.71003818E+03</pdfrwt>
<pdfrwt beam="2">  1       -2 0.11119991E+00 0.71003818E+03</pdfrwt>
<totfact> 0.13068373E+02</totfact>
</mgrwt>
</event>
<event>
 4    1  0.1751735E-005  0.1226451E+04  0.7818608E-02  0.9090014E-01
         -2   -1    0    0    0  501 -0.00000000000E+00  0.00000000000E+00  0.11824962408E+04  0.11824962408E+04  0.25500000000E-02 0. -1.
          2   -1    0    0  501    0  0.00000000000E+00 -0.00000000000E+00 -0.31801005361E+03  0.31801005362E+03  0.25500000000E-02 0.  1.
   -5000001    1    1    2    0    0 -0.79186992884E+02 -0.54929740313E+03  0.52336760914E+03  0.80275268373E+03  0.25000000000E+03 0.  0.
    5000001    1    1    2    0    0  0.79186992884E+02  0.54929740313E+03  0.34111857802E+03  0.69775361067E+03  0.25000000000E+03 0.  0.
<mgrwt>
<rscale>  0 0.12264513E+04</rscale>
<asrwt>0</asrwt>
<pdfrwt beam="1">  1        2 0.48924624E-01 0.12264513E+04</pdfrwt>
<pdfrwt beam="2">  1       -2 0.18192250E+00 0.12264513E+04</pdfrwt>
<totfact> 0.17802372E+01</totfact>
</mgrwt>
</event>
<event>
 4    1  0.1751735E-005  0.9139589E+03  0.7818608E-02  0.9408298E-01
          2   -1    0    0  501    0  0.00000000000E+00  0.00000000000E+00  0.47292860950E+03  0.47292860950E+03  0.25500000000E-02 0.  1.
         -2   -1    0    0    0  501 -0.00000000000E+00 -0.00000000000E+00 -0.44156816154E+03  0.44156816155E+03  0.25500000000E-02 0. -1.
   -5000001    1    1    2    0    0  0.27540584582E+03 -0.18165963080E+03 -0.17803540476E+03  0.45060537804E+03  0.25000000000E+03 0.  0.
    5000001    1    1    2    0    0 -0.27540584582E+03  0.18165963080E+03  0.20939585271E+03  0.46389139301E+03  0.25000000000E+03 0.  0.
<mgrwt>
<rscale>  0 0.91395890E+03</rscale>
<asrwt>0</asrwt>
<pdfrwt beam="1">  1        2 0.72758247E-01 0.91395890E+03</pdfrwt>
<pdfrwt beam="2">  1       -2 0.67933564E-01 0.91395890E+03</pdfrwt>
<totfact> 0.13078960E+02</totfact>
</mgrwt>
</event>
<event>
 4    1  0.1751735E-005  0.6521352E+03  0.7818608E-02  0.9802781E-01
          2   -1    0    0  501    0  0.00000000000E+00  0.00000000000E+00  0.26556855437E+03  0.26556855438E+03  0.25500000000E-02 0.  1.
         -2   -1    0    0    0  501 -0.00000000000E+00 -0.00000000000E+00 -0.40034894146E+03  0.40034894147E+03  0.25500000000E-02 0. -1.
   -5000001    1    1    2    0    0 -0.78273529206E+02  0.11035821812E+03  0.95717899511E+02  0.29994599175E+03  0.25000000000E+03 0.  0.
    5000001    1    1    2    0    0  0.78273529206E+02 -0.11035821812E+03 -0.23049828660E+03  0.36597150409E+03  0.25000000000E+03 0.  0.
<mgrwt>
<rscale>  0 0.65213523E+03</rscale>
<asrwt>0</asrwt>
<pdfrwt beam="1">  1        2 0.40856700E-01 0.65213523E+03</pdfrwt>
<pdfrwt beam="2">  1       -2 0.61592145E-01 0.65213523E+03</pdfrwt>
<totfact> 0.31125587E+02</totfact>
</mgrwt>
</event>
<event>
 4    1  0.1751735E-005  0.5181777E+03  0.7818608E-02  0.1009140E+00
          2   -1    0    0  501    0  0.00000000000E+00  0.00000000000E+00  0.86665425838E+03  0.86665425839E+03  0.25500000000E-02 0.  1.
         -2   -1    0    0    0  501 -0.00000000000E+00 -0.00000000000E+00 -0.77455378283E+02  0.77455378325E+02  0.25500000000E-02 0. -1.
   -5000001    1    1    2    0    0  0.40989997619E+02 -0.53227381385E+02  0.41402720391E+03  0.48829484906E+03  0.25000000000E+03 0.  0.
    5000001    1    1    2    0    0 -0.40989997619E+02  0.53227381385E+02  0.37517167619E+03  0.45581478766E+03  0.25000000000E+03 0.  0.
<mgrwt>
<rscale>  0 0.51817770E+03</rscale>
<asrwt>0</asrwt>
<pdfrwt beam="1">  1        2 0.13333142E+00 0.51817770E+03</pdfrwt>
<pdfrwt beam="2">  1       -2 0.11916212E-01 0.51817770E+03</pdfrwt>
<totfact> 0.15980378E+03</totfact>
</mgrwt>
</event>
<event>
 4    1  0.1751735E-005  0.6198984E+03  0.7818608E-02  0.9864962E-01
          2   -1    0    0  501    0  0.00000000000E+00  0.00000000000E+00  0.15456249758E+03  0.15456249760E+03  0.25500000000E-02 0.  1.
         -2   -1    0    0    0  501 -0.00000000000E+00 -0.00000000000E+00 -0.62155128799E+03  0.62155128800E+03  0.25500000000E-02 0. -1.
   -5000001    1    1    2    0    0 -0.11572773942E+03  0.13959594376E+03 -0.26634798056E+03  0.40782494275E+03  0.25000000000E+03 0.  0.
    5000001    1    1    2    0    0  0.11572773942E+03 -0.13959594376E+03 -0.20064080986E+03  0.36828884285E+03  0.25000000000E+03 0.  0.
<mgrwt>
<rscale>  0 0.61989844E+03</rscale>
<asrwt>0</asrwt>
<pdfrwt beam="1">  1        2 0.23778846E-01 0.61989844E+03</pdfrwt>
<pdfrwt beam="2">  1       -2 0.95623274E-01 0.61989844E+03</pdfrwt>
<totfact> 0.21560427E+02</totfact>
</mgrwt>
</event>
<event>
 4    1  0.1751735E-005  0.7652329E+03  0.7818608E-02  0.9611751E-01
          2   -1    0    0  501    0  0.00000000000E+00  0.00000000000E+00  0.46209552565E+03  0.46209552565E+03  0.25500000000E-02 0.  1.
         -2   -1    0    0    0  501 -0.00000000000E+00 -0.00000000000E+00 -0.31680755641E+03  0.31680755642E+03  0.25500000000E-02 0. -1.
   -5000001    1    1    2    0    0  0.16536500954E+03 -0.23338817004E+03  0.11906271521E+03  0.39810997783E+03  0.25000000000E+03 0.  0.
    5000001    1    1    2    0    0 -0.16536500954E+03  0.23338817004E+03  0.26225254020E+02  0.38079310425E+03  0.25000000000E+03 0.  0.
<mgrwt>
<rscale>  0 0.76523292E+03</rscale>
<asrwt>0</asrwt>
<pdfrwt beam="1">  1        2 0.71091619E-01 0.76523292E+03</pdfrwt>
<pdfrwt beam="2">  1       -2 0.48739624E-01 0.76523292E+03</pdfrwt>
<totfact> 0.27106323E+02</totfact>
</mgrwt>
</event>
<event>
 4    1  0.1751735E-005  0.8251644E+03  0.7818608E-02  0.9524290E-01
          2   -1    0    0  501    0  0.00000000000E+00  0.00000000000E+00  0.10983825337E+04  0.10983825337E+04  0.25500000000E-02 0. -1.
         -2   -1    0    0    0  501 -0.00000000000E+00 -0.00000000000E+00 -0.15497704170E+03  0.15497704172E+03  0.25500000000E-02 0.  1.
   -5000001    1    1    2    0    0 -0.21817214139E+03 -0.21799900614E+03  0.30119463689E+03  0.49833809733E+03  0.25000000000E+03 0.  0.
    5000001    1    1    2    0    0  0.21817214139E+03  0.21799900614E+03  0.64221085507E+03  0.75502147805E+03  0.25000000000E+03 0.  0.
<mgrwt>
<rscale>  0 0.82516441E+03</rscale>
<asrwt>0</asrwt>
<pdfrwt beam="1">  1        2 0.16898192E+00 0.82516441E+03</pdfrwt>
<pdfrwt beam="2">  1       -2 0.23842622E-01 0.82516441E+03</pdfrwt>
<totfact> 0.34244398E+02</totfact>
</mgrwt>
</event>
<event>
 4    1  0.1751735E-005  0.7592646E+03  0.7818608E-02  0.9620927E-01
         -2   -1    0    0    0  501 -0.00000000000E+00  0.00000000000E+00  0.26999754891E+03  0.26999754892E+03  0.25500000000E-02 0. -1.
          2   -1    0    0  501    0  0.00000000000E+00 -0.00000000000E+00 -0.53378512450E+03  0.53378512451E+03  0.25500000000E-02 0.  1.
   -5000001    1    1    2    0    0  0.86635534024E+01 -0.24967415140E+03  0.14826951090E+02  0.35374012709E+03  0.25000000000E+03 0.  0.
    5000001    1    1    2    0    0 -0.86635534024E+01  0.24967415140E+03 -0.27861452668E+03  0.45004254634E+03  0.25000000000E+03 0.  0.
<mgrwt>
<rscale>  0 0.75926458E+03</rscale>
<asrwt>0</asrwt>
<pdfrwt beam="1">  1        2 0.82120788E-01 0.75926458E+03</pdfrwt>
<pdfrwt beam="2">  1       -2 0.41538085E-01 0.75926458E+03</pdfrwt>
<totfact> 0.31545467E+02</totfact>
</mgrwt>
</event>
<event>
 4    1  0.1751735E-005  0.5201652E+03  0.7818608E-02  0.1008646E+00
          2   -1    0    0  501    0  0.00000000000E+00  0.00000000000E+00  0.83388169988E+02  0.83388170027E+02  0.25500000000E-02 0.  1.
         -2   -1    0    0    0  501 -0.00000000000E+00 -0.00000000000E+00 -0.81118162058E+03  0.81118162058E+03  0.25500000000E-02 0. -1.
   -5000001    1    1    2    0    0 -0.45122352041E+02 -0.54868418115E+02 -0.34701299099E+03  0.43354882756E+03  0.25000000000E+03 0.  0.
    5000001    1    1    2    0    0  0.45122352041E+02  0.54868418115E+02 -0.38078045960E+03  0.46102096305E+03  0.25000000000E+03 0.  0.
<mgrwt>
<rscale>  0 0.52016517E+03</rscale>
<asrwt>0</asrwt>
<pdfrwt beam="1">  1        2 0.12828950E-01 0.52016517E+03</pdfrwt>
<pdfrwt beam="2">  1       -2 0.12479717E+00 0.52016517E+03</pdfrwt>
<totfact> 0.23730485E+02</totfact>
</mgrwt>
</event>
<event>
 4    1  0.1751735E-005  0.1687797E+04  0.7818608E-02  0.8768355E-01
          2   -1    0    0  501    0  0.00000000000E+00  0.00000000000E+00  0.11402406281E+04  0.11402406281E+04  0.25500000000E-02 0.  1.
         -2   -1    0    0    0  501 -0.00000000000E+00 -0.00000000000E+00 -0.62457384663E+03  0.62457384664E+03  0.25500000000E-02 0. -1.
   -5000001    1    1    2    0    0  0.64017290186E+03  0.91624011809E+02  0.76087717293E+03  0.10293932077E+04  0.25000000000E+03 0.  0.
    5000001    1    1    2    0    0 -0.64017290186E+03 -0.91624011809E+02 -0.24521039151E+03  0.73542126697E+03  0.25000000000E+03 0.  0.
<mgrwt>
<rscale>  0 0.16877968E+04</rscale>
<asrwt>0</asrwt>
<pdfrwt beam="1">  1        2 0.17542163E+00 0.16877968E+04</pdfrwt>
<pdfrwt beam="2">  1       -2 0.96088284E-01 0.16877968E+04</pdfrwt>
<totfact> 0.17792742E+01</totfact>
</mgrwt>
</event>
<event>
 4    1  0.1751735E-005  0.7504668E+03  0.7818608E-02  0.9634618E-01
         -2   -1    0    0    0  501 -0.00000000000E+00  0.00000000000E+00  0.15521369820E+03  0.15521369823E+03  0.25500000000E-02 0. -1.
          2   -1    0    0  501    0  0.00000000000E+00 -0.00000000000E+00 -0.90713699285E+03  0.90713699286E+03  0.25500000000E-02 0.  1.
   -5000001    1    1    2    0    0 -0.28087397127E+02  0.27809664939E+03 -0.35731889427E+03  0.51798015452E+03  0.25000000000E+03 0.  0.
    5000001    1    1    2    0    0  0.28087397127E+02 -0.27809664939E+03 -0.39460440038E+03  0.54437053656E+03  0.25000000000E+03 0.  0.
<mgrwt>
<rscale>  0 0.75046675E+03</rscale>
<asrwt>0</asrwt>
<pdfrwt beam="1">  1        2 0.13955953E+00 0.75046675E+03</pdfrwt>
<pdfrwt beam="2">  1       -2 0.23879031E-01 0.75046675E+03</pdfrwt>
<totfact> 0.45405371E+02</totfact>
</mgrwt>
</event>
<event>
 4    1  0.1751735E-005  0.9281773E+03  0.7818608E-02  0.9391028E-01
          2   -1    0    0  501    0  0.00000000000E+00  0.00000000000E+00  0.23133367757E+04  0.23133367757E+04  0.25500000000E-02 0.  1.
         -2   -1    0    0    0  501 -0.00000000000E+00 -0.00000000000E+00 -0.93102857656E+02  0.93102857691E+02  0.25500000000E-02 0. -1.
   -5000001    1    1    2    0    0  0.27599246563E+03 -0.24295098228E+03  0.76536999964E+03  0.88514872040E+03  0.25000000000E+03 0.  0.
    5000001    1    1    2    0    0 -0.27599246563E+03  0.24295098228E+03  0.14548639184E+04  0.15212909130E+04  0.25000000000E+03 0.  0.
<mgrwt>
<rscale>  0 0.92817728E+03</rscale>
<asrwt>0</asrwt>
<pdfrwt beam="1">  1        2 0.35589793E+00 0.92817728E+03</pdfrwt>
<pdfrwt beam="2">  1       -2 0.14323518E-01 0.92817728E+03</pdfrwt>
<totfact> 0.17141480E+02</totfact>
</mgrwt>
</event>
<event>
 4    1  0.1751735E-005  0.5690997E+03  0.7818608E-02  0.9971673E-01
         -2   -1    0    0    0  501 -0.00000000000E+00  0.00000000000E+00  0.18643472155E+03  0.18643472157E+03  0.25500000000E-02 0. -1.
          2   -1    0    0  501    0  0.00000000000E+00 -0.00000000000E+00 -0.43430015478E+03  0.43430015479E+03  0.25500000000E-02 0.  1.
   -5000001    1    1    2    0    0 -0.13440675271E+03  0.18300632846E+02 -0.13296276585E+03  0.31397322408E+03  0.25000000000E+03 0.  0.
    5000001    1    1    2    0    0  0.13440675271E+03 -0.18300632846E+02 -0.11490266738E+03  0.30676165228E+03  0.25000000000E+03 0.  0.
<mgrwt>
<rscale>  0 0.56909974E+03</rscale>
<asrwt>0</asrwt>
<pdfrwt beam="1">  1        2 0.66815408E-01 0.56909974E+03</pdfrwt>
<pdfrwt beam="2">  1       -2 0.28682265E-01 0.56909974E+03</pdfrwt>
<totfact> 0.81075616E+02</totfact>
</mgrwt>
</event>
<event>
 4    1  0.1751735E-005  0.1131959E+04  0.7818608E-02  0.9174591E-01
          2   -1    0    0  501    0  0.00000000000E+00  0.00000000000E+00  0.18099383392E+04  0.18099383392E+04  0.25500000000E-02 0.  1.
         -2   -1    0    0    0  501 -0.00000000000E+00 -0.00000000000E+00 -0.17698541279E+03  0.17698541280E+03  0.25500000000E-02 0. -1.
   -5000001    1    1    2    0    0 -0.72442102662E+01 -0.50501749395E+03  0.72463674894E+03  0.91798342343E+03  0.25000000000E+03 0.  0.
    5000001    1    1    2    0    0  0.72442102662E+01  0.50501749395E+03  0.90831617744E+03  0.10689403285E+04  0.25000000000E+03 0.  0.
<mgrwt>
<rscale>  0 0.11319588E+04</rscale>
<asrwt>0</asrwt>
<pdfrwt beam="1">  1        2 0.27845205E+00 0.11319588E+04</pdfrwt>
<pdfrwt beam="2">  1       -2 0.27228526E-01 0.11319588E+04</pdfrwt>
<totfact> 0.10367332E+02</totfact>
</mgrwt>
</event>
<event>
 4    1  0.1751735E-005  0.8659788E+03  0.7818608E-02  0.9469138E-01
         -2   -1    0    0    0  501 -0.00000000000E+00  0.00000000000E+00  0.84815585267E+02  0.84815585306E+02  0.25500000000E-02 0. -1.
          2   -1    0    0  501    0  0.00000000000E+00 -0.00000000000E+00 -0.22104408978E+04  0.22104408978E+04  0.25500000000E-02 0.  1.
   -5000001    1    1    2    0    0  0.16630816957E+03  0.29161880630E+03 -0.76910084563E+03  0.87562323302E+03  0.25000000000E+03 0.  0.
    5000001    1    1    2    0    0 -0.16630816957E+03 -0.29161880630E+03 -0.13565244670E+04  0.14196332501E+04  0.25000000000E+03 0.  0.
<mgrwt>
<rscale>  0 0.86597884E+03</rscale>
<asrwt>0</asrwt>
<pdfrwt beam="1">  1        2 0.34006779E+00 0.86597884E+03</pdfrwt>
<pdfrwt beam="2">  1       -2 0.13048553E-01 0.86597884E+03</pdfrwt>
<totfact> 0.22990456E+02</totfact>
</mgrwt>
</event>
<event>
 4    1  0.1751735E-005  0.1250877E+04  0.7818608E-02  0.9069454E-01
         -2   -1    0    0    0  501 -0.00000000000E+00  0.00000000000E+00  0.42229984814E+03  0.42229984814E+03  0.25500000000E-02 0. -1.
          2   -1    0    0  501    0  0.00000000000E+00 -0.00000000000E+00 -0.92629210681E+03  0.92629210682E+03  0.25500000000E-02 0.  1.
   -5000001    1    1    2    0    0  0.19416013890E+03  0.38724598788E+03 -0.65685102802E+03  0.82559729147E+03  0.25000000000E+03 0.  0.
    5000001    1    1    2    0    0 -0.19416013890E+03 -0.38724598788E+03  0.15285876935E+03  0.52299466349E+03  0.25000000000E+03 0.  0.
<mgrwt>
<rscale>  0 0.12508765E+04</rscale>
<asrwt>0</asrwt>
<pdfrwt beam="1">  1        2 0.14250648E+00 0.12508765E+04</pdfrwt>
<pdfrwt beam="2">  1       -2 0.64969208E-01 0.12508765E+04</pdfrwt>
<totfact> 0.60519018E+01</totfact>
</mgrwt>
</event>
<event>
 4    1  0.1751735E-005  0.9141261E+03  0.7818608E-02  0.9408093E-01
         -2   -1    0    0    0  501 -0.00000000000E+00  0.00000000000E+00  0.30529998455E+03  0.30529998456E+03  0.25500000000E-02 0. -1.
          2   -1    0    0  501    0  0.00000000000E+00 -0.00000000000E+00 -0.68426668976E+03  0.68426668977E+03  0.25500000000E-02 0.  1.
   -5000001    1    1    2    0    0 -0.26390225546E+03  0.69344841541E+02  0.10089547257E+03  0.38357920156E+03  0.25000000000E+03 0.  0.
    5000001    1    1    2    0    0  0.26390225546E+03 -0.69344841541E+02 -0.47986217778E+03  0.60598747277E+03  0.25000000000E+03 0.  0.
<mgrwt>
<rscale>  0 0.91412605E+03</rscale>
<asrwt>0</asrwt>
<pdfrwt beam="1">  1        2 0.10527180E+00 0.91412605E+03</pdfrwt>
<pdfrwt beam="2">  1       -2 0.46969228E-01 0.91412605E+03</pdfrwt>
<totfact> 0.18161952E+02</totfact>
</mgrwt>
</event>
<event>
 4    1  0.1751735E-005  0.7642769E+03  0.7818608E-02  0.9613215E-01
          2   -1    0    0  501    0  0.00000000000E+00  0.00000000000E+00  0.10729740183E+03  0.10729740186E+03  0.25500000000E-02 0.  1.
         -2   -1    0    0    0  501 -0.00000000000E+00 -0.00000000000E+00 -0.13609817797E+04  0.13609817797E+04  0.25500000000E-02 0. -1.
   -5000001    1    1    2    0    0 -0.23962513041E+03 -0.11028560824E+03 -0.39996362364E+03  0.54042022422E+03  0.25000000000E+03 0.  0.
    5000001    1    1    2    0    0  0.23962513041E+03  0.11028560824E+03 -0.85372075426E+03  0.92785895736E+03  0.25000000000E+03 0.  0.
<mgrwt>
<rscale>  0 0.76427694E+03</rscale>
<asrwt>0</asrwt>
<pdfrwt beam="1">  1        2 0.16507294E-01 0.76427694E+03</pdfrwt>
<pdfrwt beam="2">  1       -2 0.20938180E+00 0.76427694E+03</pdfrwt>
<totfact> 0.42008040E+01</totfact>
</mgrwt>
</event>
<event>
 4    1  0.1751735E-005  0.1654446E+04  0.7818608E-02  0.8787781E-01
         -2   -1    0    0    0  501 -0.00000000000E+00  0.00000000000E+00  0.76852122020E+03  0.76852122020E+03  0.25500000000E-02 0. -1.
          2   -1    0    0  501    0  0.00000000000E+00 -0.00000000000E+00 -0.89040805702E+03  0.89040805702E+03  0.25500000000E-02 0.  1.
   -5000001    1    1    2    0    0 -0.36095505848E+03 -0.58445541178E+03  0.32730201374E+03  0.80093900567E+03  0.25000000000E+03 0.  0.
    5000001    1    1    2    0    0  0.36095505848E+03  0.58445541178E+03 -0.44918885056E+03  0.85799027155E+03  0.25000000000E+03 0.  0.
<mgrwt>
<rscale>  0 0.16544455E+04</rscale>
<asrwt>0</asrwt>
<pdfrwt beam="1">  1        2 0.13698586E+00 0.16544455E+04</pdfrwt>
<pdfrwt beam="2">  1       -2 0.11823403E+00 0.16544455E+04</pdfrwt>
<totfact> 0.15658787E+01</totfact>
</mgrwt>
</event>
