<event>
 4    1  0.1755570E-005  0.6904548E+03  0.7818608E-02  0.9733696E-01
          2   -1    0    0  501    0  0.00000000000E+00  0.00000000000E+00  0.28034632199E+03  0.28034632201E+03  0.25500000000E-02 0.  1.
         -2   -1    0    0    0  501 -0.00000000000E+00 -0.00000000000E+00 -0.42512405673E+03  0.42512405674E+03  0.25500000000E-02 0. -1.
   -5000001    1    1    2    0    0 -0.13397997070E+03  0.17674453781E+03  0.16053983158E+02  0.33458480923E+03  0.25000000000E+03 0.  0.
    5000001    1    1    2    0    0  0.13397997070E+03 -0.17674453781E+03 -0.16083171790E+03  0.37088556952E+03  0.25000000000E+03 0.  0.
<mgrwt>
<rscale>  0 0.69045482E+03</rscale>
<asrwt>0</asrwt>
<pdfrwt beam="1">  1        2 0.43130203E-01 0.69045482E+03</pdfrwt>
<pdfrwt beam="2">  1       -2 0.65403701E-01 0.69045482E+03</pdfrwt>
<totfact> 0.25761990E+02</totfact>
</mgrwt>
</event>
<event>
 4    1  0.1755570E-005  0.7110190E+03  0.7818608E-02  0.9698572E-01
          2   -1    0    0  501    0  0.00000000000E+00  0.00000000000E+00  0.34772863488E+03  0.34772863489E+03  0.25500000000E-02 0.  1.
         -2   -1    0    0    0  501 -0.00000000000E+00 -0.00000000000E+00 -0.36346444586E+03  0.36346444587E+03  0.25500000000E-02 0. -1.
   -5000001    1    1    2    0    0  0.17441028374E+03  0.13215424338E+03 -0.13440305019E+03  0.35839624861E+03  0.25000000000E+03 0.  0.
    5000001    1    1    2    0    0 -0.17441028374E+03 -0.13215424338E+03  0.11866723921E+03  0.35279683215E+03  0.25000000000E+03 0.  0.
<mgrwt>
<rscale>  0 0.71101897E+03</rscale>
<asrwt>0</asrwt>
<pdfrwt beam="1">  1        2 0.53496713E-01 0.71101897E+03</pdfrwt>
<pdfrwt beam="2">  1       -2 0.55917607E-01 0.71101897E+03</pdfrwt>
<totfact> 0.28223147E+02</totfact>
</mgrwt>
</event>
<event>
 4    1  0.1755570E-005  0.5964870E+03  0.7818608E-02  0.9912721E-01
         -2   -1    0    0    0  501 -0.00000000000E+00  0.00000000000E+00  0.99911684655E+02  0.99911684688E+02  0.25500000000E-02 0. -1.
          2   -1    0    0  501    0  0.00000000000E+00 -0.00000000000E+00 -0.89027805005E+03  0.89027805006E+03  0.25500000000E-02 0.  1.
   -5000001    1    1    2    0    0 -0.11484117435E+03  0.10574819572E+03 -0.47085612083E+03  0.55549677114E+03  0.25000000000E+03 0.  0.
    5000001    1    1    2    0    0  0.11484117435E+03 -0.10574819572E+03 -0.31951024457E+03  0.43469296360E+03  0.25000000000E+03 0.  0.
<mgrwt>
<rscale>  0 0.59648698E+03</rscale>
<asrwt>0</asrwt>
<pdfrwt beam="1">  1        2 0.13696585E+00 0.59648698E+03</pdfrwt>
<pdfrwt beam="2">  1       -2 0.15371029E-01 0.59648698E+03</pdfrwt>
<totfact> 0.10070942E+03</totfact>
</mgrwt>
</event>
<event>
 4    1  0.1755570E-005  0.7073239E+03  0.7818608E-02  0.9704789E-01
         -2   -1    0    0    0  501 -0.00000000000E+00  0.00000000000E+00  0.84138661915E+02  0.84138661954E+02  0.25500000000E-02 0. -1.
          2   -1    0    0  501    0  0.00000000000E+00 -0.00000000000E+00 -0.14865552716E+04  0.14865552716E+04  0.25500000000E-02 0.  1.
   -5000001    1    1    2    0    0 -0.12329254160E+03 -0.19789312209E+03 -0.49995109038E+03  0.60565157588E+03  0.25000000000E+03 0.  0.
    5000001    1    1    2    0    0  0.12329254160E+03  0.19789312209E+03 -0.90246551926E+03  0.96504235764E+03  0.25000000000E+03 0.  0.
<mgrwt>
<rscale>  0 0.70732389E+03</rscale>
<asrwt>0</asrwt>
<pdfrwt beam="1">  1        2 0.22870079E+00 0.70732389E+03</pdfrwt>
<pdfrwt beam="2">  1       -2 0.12944411E-01 0.70732389E+03</pdfrwt>
<totfact> 0.58803680E+02</totfact>
</mgrwt>
</event>
<event>
 4    1  0.1755570E-005  0.7704650E+03  0.7818608E-02  0.9603780E-01
         -2   -1    0    0    0  501 -0.00000000000E+00  0.00000000000E+00  0.62184602817E+02  0.62184602870E+02  0.25500000000E-02 0. -1.
          2   -1    0    0  501    0  0.00000000000E+00 -0.00000000000E+00 -0.23865083648E+04  0.23865083648E+04  0.25500000000E-02 0.  1.
   -5000001    1    1    2    0    0  0.68541072765E+02  0.28494615386E+03 -0.11512048744E+04  0.12139459840E+04  0.25000000000E+03 0.  0.
    5000001    1    1    2    0    0 -0.68541072765E+02 -0.28494615386E+03 -0.11731188876E+04  0.12347469837E+04  0.25000000000E+03 0.  0.
<mgrwt>
<rscale>  0 0.77046499E+03</rscale>
<asrwt>0</asrwt>
<pdfrwt beam="1">  1        2 0.36715506E+00 0.77046499E+03</pdfrwt>
<pdfrwt beam="2">  1       -2 0.95668638E-02 0.77046499E+03</pdfrwt>
<totfact> 0.30821833E+02</totfact>
</mgrwt>
</event>
<event>
 4    1  0.1755570E-005  0.5569758E+03  0.7818608E-02  0.9998921E-01
          2   -1    0    0  501    0  0.00000000000E+00  0.00000000000E+00  0.13699566265E+04  0.13699566265E+04  0.25500000000E-02 0.  1.
         -2   -1    0    0    0  501 -0.00000000000E+00 -0.00000000000E+00 -0.56611656268E+02  0.56611656325E+02  0.25500000000E-02 0. -1.
   -5000001    1    1    2    0    0  0.10902520446E+03 -0.35281527560E+02  0.76902556405E+03  0.81672002519E+03  0.25000000000E+03 0.  0.
    5000001    1    1    2    0    0 -0.10902520446E+03  0.35281527560E+02  0.54431940622E+03  0.60984825767E+03  0.25000000000E+03 0.  0.
<mgrwt>
<rscale>  0 0.55697581E+03</rscale>
<asrwt>0</asrwt>
<pdfrwt beam="1">  1        2 0.21076253E+00 0.55697581E+03</pdfrwt>
<pdfrwt beam="2">  1       -2 0.87094868E-02 0.55697581E+03</pdfrwt>
<totfact> 0.13134007E+03</totfact>
</mgrwt>
</event>
<event>
 4    1  0.1755570E-005  0.6020317E+03  0.7818608E-02  0.9901200E-01
          2   -1    0    0  501    0  0.00000000000E+00  0.00000000000E+00  0.56834870245E+03  0.56834870246E+03  0.25500000000E-02 0.  1.
         -2   -1    0    0    0  501 -0.00000000000E+00 -0.00000000000E+00 -0.15942773797E+03  0.15942773799E+03  0.25500000000E-02 0. -1.
   -5000001    1    1    2    0    0 -0.27785495787E+01  0.15822657893E+03  0.27141009451E+03  0.40150567869E+03  0.25000000000E+03 0.  0.
    5000001    1    1    2    0    0  0.27785495787E+01 -0.15822657893E+03  0.13751086997E+03  0.32627076176E+03  0.25000000000E+03 0.  0.
<mgrwt>
<rscale>  0 0.60203172E+03</rscale>
<asrwt>0</asrwt>
<pdfrwt beam="1">  1        2 0.87438262E-01 0.60203172E+03</pdfrwt>
<pdfrwt beam="2">  1       -2 0.24527344E-01 0.60203172E+03</pdfrwt>
<totfact> 0.78929829E+02</totfact>
</mgrwt>
</event>
<event>
 4    1  0.1755570E-005  0.1274163E+04  0.7818608E-02  0.9050309E-01
         -2   -1    0    0    0  501 -0.00000000000E+00  0.00000000000E+00  0.20969320516E+03  0.20969320517E+03  0.25500000000E-02 0. -1.
          2   -1    0    0  501    0  0.00000000000E+00 -0.00000000000E+00 -0.19355540595E+04  0.19355540595E+04  0.25500000000E-02 0.  1.
   -5000001    1    1    2    0    0  0.27459461593E+03  0.51623027792E+03 -0.92762809186E+03  0.11246731880E+04  0.25000000000E+03 0.  0.
    5000001    1    1    2    0    0 -0.27459461593E+03 -0.51623027792E+03 -0.79823276248E+03  0.10205740767E+04  0.25000000000E+03 0.  0.
<mgrwt>
<rscale>  0 0.12741625E+04</rscale>
<asrwt>0</asrwt>
<pdfrwt beam="1">  1        2 0.29777754E+00 0.12741625E+04</pdfrwt>
<pdfrwt beam="2">  1       -2 0.32260494E-01 0.12741625E+04</pdfrwt>
<totfact> 0.63778083E+01</totfact>
</mgrwt>
</event>
<event>
 4    1  0.1755570E-005  0.7157969E+03  0.7818608E-02  0.9690592E-01
         -2   -1    0    0    0  501 -0.00000000000E+00  0.00000000000E+00  0.15410463593E+03  0.15410463595E+03  0.25500000000E-02 0. -1.
          2   -1    0    0  501    0  0.00000000000E+00 -0.00000000000E+00 -0.83119694981E+03  0.83119694981E+03  0.25500000000E-02 0.  1.
   -5000001    1    1    2    0    0  0.22421070886E+03 -0.38974245956E+02 -0.50026041874E+03  0.60377969523E+03  0.25000000000E+03 0.  0.
    5000001    1    1    2    0    0 -0.22421070886E+03  0.38974245956E+02 -0.17683189513E+03  0.38152189053E+03  0.25000000000E+03 0.  0.
<mgrwt>
<rscale>  0 0.71579691E+03</rscale>
<asrwt>0</asrwt>
<pdfrwt beam="1">  1        2 0.12787645E+00 0.71579691E+03</pdfrwt>
<pdfrwt beam="2">  1       -2 0.23708406E-01 0.71579691E+03</pdfrwt>
<totfact> 0.51914992E+02</totfact>
</mgrwt>
</event>
<event>
 4    1  0.1755570E-005  0.5904671E+03  0.7818608E-02  0.9925384E-01
          2   -1    0    0  501    0  0.00000000000E+00  0.00000000000E+00  0.82622853718E+02  0.82622853758E+02  0.25500000000E-02 0.  1.
         -2   -1    0    0    0  501 -0.00000000000E+00 -0.00000000000E+00 -0.10549483175E+04  0.10549483175E+04  0.25500000000E-02 0. -1.
   -5000001    1    1    2    0    0  0.65276978215E+01 -0.12691216870E+03 -0.30840121045E+03  0.41684603393E+03  0.25000000000E+03 0.  0.
    5000001    1    1    2    0    0 -0.65276978215E+01  0.12691216870E+03 -0.66392425329E+03  0.72072513728E+03  0.25000000000E+03 0.  0.
<mgrwt>
<rscale>  0 0.59046707E+03</rscale>
<asrwt>0</asrwt>
<pdfrwt beam="1">  1        2 0.12711209E-01 0.59046707E+03</pdfrwt>
<pdfrwt beam="2">  1       -2 0.16229973E+00 0.59046707E+03</pdfrwt>
<totfact> 0.12129990E+02</totfact>
</mgrwt>
</event>
<event>
 4    1  0.1755570E-005  0.8059018E+03  0.7818608E-02  0.9551514E-01
          2   -1    0    0  501    0  0.00000000000E+00  0.00000000000E+00  0.91930181990E+03  0.91930181991E+03  0.25500000000E-02 0.  1.
         -2   -1    0    0    0  501 -0.00000000000E+00 -0.00000000000E+00 -0.17662253709E+03  0.17662253711E+03  0.25500000000E-02 0. -1.
   -5000001    1    1    2    0    0 -0.63227270283E+02 -0.30875839850E+03  0.33973952466E+03  0.52654760561E+03  0.25000000000E+03 0.  0.
    5000001    1    1    2    0    0  0.63227270283E+02  0.30875839850E+03  0.40293975815E+03  0.56937675141E+03  0.25000000000E+03 0.  0.
<mgrwt>
<rscale>  0 0.80590178E+03</rscale>
<asrwt>0</asrwt>
<pdfrwt beam="1">  1        2 0.14143105E+00 0.80590178E+03</pdfrwt>
<pdfrwt beam="2">  1       -2 0.27172698E-01 0.80590178E+03</pdfrwt>
<totfact> 0.35190091E+02</totfact>
</mgrwt>
</event>
<event>
 4    1  0.1755570E-005  0.6681405E+03  0.7818608E-02  0.9773323E-01
          2   -1    0    0  501    0  0.00000000000E+00  0.00000000000E+00  0.23578812993E+04  0.23578812993E+04  0.25500000000E-02 0.  1.
         -2   -1    0    0    0  501 -0.00000000000E+00 -0.00000000000E+00 -0.47331864941E+02  0.47331865010E+02  0.25500000000E-02 0. -1.
   -5000001    1    1    2    0    0  0.14810008712E+03  0.35258541273E+02  0.17349096511E+04  0.17594284009E+04  0.25000000000E+03 0.  0.
    5000001    1    1    2    0    0 -0.14810008712E+03 -0.35258541273E+02  0.57563978324E+03  0.64578476336E+03  0.25000000000E+03 0.  0.
<mgrwt>
<rscale>  0 0.66814046E+03</rscale>
<asrwt>0</asrwt>
<pdfrwt beam="1">  1        2 0.36275101E+00 0.66814046E+03</pdfrwt>
<pdfrwt beam="2">  1       -2 0.72818246E-02 0.66814046E+03</pdfrwt>
<totfact> 0.49992337E+02</totfact>
</mgrwt>
</event>
<event>
 4    1  0.1755570E-005  0.6438954E+03  0.7818608E-02  0.9818302E-01
          2   -1    0    0  501    0  0.00000000000E+00  0.00000000000E+00  0.25234628769E+03  0.25234628771E+03  0.25500000000E-02 0.  1.
         -2   -1    0    0    0  501 -0.00000000000E+00 -0.00000000000E+00 -0.41074641551E+03  0.41074641552E+03  0.25500000000E-02 0. -1.
   -5000001    1    1    2    0    0  0.10815338598E+03 -0.13054528059E+03 -0.19392667860E+03  0.35895233926E+03  0.25000000000E+03 0.  0.
    5000001    1    1    2    0    0 -0.10815338598E+03  0.13054528059E+03  0.35526550783E+02  0.30414036397E+03  0.25000000000E+03 0.  0.
<mgrwt>
<rscale>  0 0.64389544E+03</rscale>
<asrwt>0</asrwt>
<pdfrwt beam="1">  1        2 0.38822506E-01 0.64389544E+03</pdfrwt>
<pdfrwt beam="2">  1       -2 0.63191756E-01 0.64389544E+03</pdfrwt>
<totfact> 0.31200661E+02</totfact>
</mgrwt>
</event>
<event>
 4    1  0.1755570E-005  0.6618856E+03  0.7818608E-02  0.9784729E-01
          2   -1    0    0  501    0  0.00000000000E+00  0.00000000000E+00  0.29014079148E+03  0.29014079149E+03  0.25500000000E-02 0. -1.
         -2   -1    0    0    0  501 -0.00000000000E+00 -0.00000000000E+00 -0.37748269680E+03  0.37748269681E+03  0.25500000000E-02 0.  1.
   -5000001    1    1    2    0    0  0.15497876654E+03  0.15167302233E+03 -0.43739700032E+02  0.33382073803E+03  0.25000000000E+03 0.  0.
    5000001    1    1    2    0    0 -0.15497876654E+03 -0.15167302233E+03 -0.43602205282E+02  0.33380275027E+03  0.25000000000E+03 0.  0.
<mgrwt>
<rscale>  0 0.66188557E+03</rscale>
<asrwt>0</asrwt>
<pdfrwt beam="1">  1        2 0.44637045E-01 0.66188557E+03</pdfrwt>
<pdfrwt beam="2">  1       -2 0.58074261E-01 0.66188557E+03</pdfrwt>
<totfact> 0.31930848E+02</totfact>
</mgrwt>
</event>
<event>
 4    1  0.1755570E-005  0.5702620E+03  0.7818608E-02  0.9969099E-01
          2   -1    0    0  501    0  0.00000000000E+00  0.00000000000E+00  0.74362929893E+03  0.74362929893E+03  0.25500000000E-02 0.  1.
         -2   -1    0    0    0  501 -0.00000000000E+00 -0.00000000000E+00 -0.10932825739E+03  0.10932825742E+03  0.25500000000E-02 0. -1.
   -5000001    1    1    2    0    0  0.12562822201E+03 -0.33312659448E+02  0.38247660128E+03  0.47505845322E+03  0.25000000000E+03 0.  0.
    5000001    1    1    2    0    0 -0.12562822201E+03  0.33312659448E+02  0.25182444025E+03  0.37789910314E+03  0.25000000000E+03 0.  0.
<mgrwt>
<rscale>  0 0.57026203E+03</rscale>
<asrwt>0</asrwt>
<pdfrwt beam="1">  1        2 0.11440451E+00 0.57026203E+03</pdfrwt>
<pdfrwt beam="2">  1       -2 0.16819732E-01 0.57026203E+03</pdfrwt>
<totfact> 0.10975593E+03</totfact>
</mgrwt>
</event>
<event>
 4    1  0.1755570E-005  0.9843352E+03  0.7818608E-02  0.9325894E-01
          2   -1    0    0  501    0  0.00000000000E+00  0.00000000000E+00  0.12700974195E+04  0.12700974195E+04  0.25500000000E-02 0.  1.
         -2   -1    0    0    0  501 -0.00000000000E+00 -0.00000000000E+00 -0.19071683603E+03  0.19071683605E+03  0.25500000000E-02 0. -1.
   -5000001    1    1    2    0    0 -0.61808247468E+02 -0.39736506955E+03  0.73885172778E+03  0.87756545830E+03  0.25000000000E+03 0.  0.
    5000001    1    1    2    0    0  0.61808247468E+02  0.39736506955E+03  0.34052885569E+03  0.58324879726E+03  0.25000000000E+03 0.  0.
<mgrwt>
<rscale>  0 0.98433523E+03</rscale>
<asrwt>0</asrwt>
<pdfrwt beam="1">  1        2 0.19539960E+00 0.98433523E+03</pdfrwt>
<pdfrwt beam="2">  1       -2 0.29341052E-01 0.98433523E+03</pdfrwt>
<totfact> 0.18353831E+02</totfact>
</mgrwt>
</event>
<event>
 4    1  0.1755570E-005  0.1058205E+04  0.7818608E-02  0.9246913E-01
          2   -1    0    0  501    0  0.00000000000E+00  0.00000000000E+00  0.15607054373E+04  0.15607054373E+04  0.25500000000E-02 0.  1.
         -2   -1    0    0    0  501 -0.00000000000E+00 -0.00000000000E+00 -0.17937373786E+03  0.17937373788E+03  0.25500000000E-02 0. -1.
   -5000001    1    1    2    0    0 -0.15954370153E+03  0.99864686067E+02  0.13922205761E+04  0.14269566499E+04  0.25000000000E+03 0.  0.
    5000001    1    1    2    0    0  0.15954370153E+03 -0.99864686067E+02 -0.10888876610E+02  0.31312252531E+03  0.25000000000E+03 0.  0.
<mgrwt>
<rscale>  0 0.10582052E+04</rscale>
<asrwt>0</asrwt>
<pdfrwt beam="1">  1        2 0.24010853E+00 0.10582052E+04</pdfrwt>
<pdfrwt beam="2">  1       -2 0.27595960E-01 0.10582052E+04</pdfrwt>
<totfact> 0.13973153E+02</totfact>
</mgrwt>
</event>
<event>
 4    1  0.1755570E-005  0.8541192E+03  0.7818608E-02  0.9484825E-01
         -2   -1    0    0    0  501 -0.00000000000E+00  0.00000000000E+00  0.93893023960E+02  0.93893023994E+02  0.25500000000E-02 0. -1.
          2   -1    0    0  501    0  0.00000000000E+00 -0.00000000000E+00 -0.19424222683E+04  0.19424222683E+04  0.25500000000E-02 0.  1.
   -5000001    1    1    2    0    0  0.12046961627E+03  0.20922336571E+03 -0.33257949725E+03  0.48103686677E+03  0.25000000000E+03 0.  0.
    5000001    1    1    2    0    0 -0.12046961627E+03 -0.20922336571E+03 -0.15159497471E+04  0.15552784255E+04  0.25000000000E+03 0.  0.
<mgrwt>
<rscale>  0 0.85411920E+03</rscale>
<asrwt>0</asrwt>
<pdfrwt beam="1">  1        2 0.29883417E+00 0.85411920E+03</pdfrwt>
<pdfrwt beam="2">  1       -2 0.14445082E-01 0.85411920E+03</pdfrwt>
<totfact> 0.27238149E+02</totfact>
</mgrwt>
</event>
<event>
 4    1  0.1755570E-005  0.8248466E+03  0.7818608E-02  0.9524733E-01
         -2   -1    0    0    0  501 -0.00000000000E+00  0.00000000000E+00  0.44984119563E+03  0.44984119564E+03  0.25500000000E-02 0. -1.
          2   -1    0    0  501    0  0.00000000000E+00 -0.00000000000E+00 -0.37811784355E+03  0.37811784356E+03  0.25500000000E-02 0.  1.
   -5000001    1    1    2    0    0  0.22246963952E+03  0.20286766820E+03 -0.94802286048E+02  0.40266053290E+03  0.25000000000E+03 0.  0.
    5000001    1    1    2    0    0 -0.22246963952E+03 -0.20286766820E+03  0.16652563813E+03  0.42529850631E+03  0.25000000000E+03 0.  0.
<mgrwt>
<rscale>  0 0.82484661E+03</rscale>
<asrwt>0</asrwt>
<pdfrwt beam="1">  1        2 0.58171976E-01 0.82484661E+03</pdfrwt>
<pdfrwt beam="2">  1       -2 0.69206337E-01 0.82484661E+03</pdfrwt>
<totfact> 0.16259463E+02</totfact>
</mgrwt>
</event>
<event>
 4    1  0.1755570E-005  0.8746723E+03  0.7818608E-02  0.9457808E-01
          2   -1    0    0  501    0  0.00000000000E+00  0.00000000000E+00  0.89067706791E+03  0.89067706791E+03  0.25500000000E-02 0.  1.
         -2   -1    0    0    0  501 -0.00000000000E+00 -0.00000000000E+00 -0.21473877292E+03  0.21473877293E+03  0.25500000000E-02 0. -1.
   -5000001    1    1    2    0    0 -0.47812791160E+02  0.33502435251E+03  0.18718107131E+03  0.46050421630E+03  0.25000000000E+03 0.  0.
    5000001    1    1    2    0    0  0.47812791160E+02 -0.33502435251E+03  0.48875722368E+03  0.64491162454E+03  0.25000000000E+03 0.  0.
<mgrwt>
<rscale>  0 0.87467228E+03</rscale>
<asrwt>0</asrwt>
<pdfrwt beam="1">  1        2 0.13702724E+00 0.87467228E+03</pdfrwt>
<pdfrwt beam="2">  1       -2 0.33036734E-01 0.87467228E+03</pdfrwt>
<totfact> 0.25504983E+02</totfact>
</mgrwt>
</event>
<event>
 4    1  0.1755570E-005  0.9255300E+03  0.7818608E-02  0.9394219E-01
         -2   -1    0    0    0  501 -0.00000000000E+00  0.00000000000E+00  0.17289765982E+03  0.17289765984E+03  0.25500000000E-02 0. -1.
          2   -1    0    0  501    0  0.00000000000E+00 -0.00000000000E+00 -0.12386023245E+04  0.12386023245E+04  0.25500000000E-02 0.  1.
   -5000001    1    1    2    0    0  0.93586080713E+02  0.35598461703E+03 -0.72677076123E+03  0.85216145269E+03  0.25000000000E+03 0.  0.
    5000001    1    1    2    0    0 -0.93586080713E+02 -0.35598461703E+03 -0.33893390340E+03  0.55933853161E+03  0.25000000000E+03 0.  0.
<mgrwt>
<rscale>  0 0.92553000E+03</rscale>
<asrwt>0</asrwt>
<pdfrwt beam="1">  1        2 0.19055420E+00 0.92553000E+03</pdfrwt>
<pdfrwt beam="2">  1       -2 0.26599641E-01 0.92553000E+03</pdfrwt>
<totfact> 0.23018840E+02</totfact>
</mgrwt>
</event>
<event>
 4    1  0.1755570E-005  0.1171117E+04  0.7818608E-02  0.9138520E-01
         -2   -1    0    0    0  501 -0.00000000000E+00  0.00000000000E+00  0.24704143309E+03  0.24704143311E+03  0.25500000000E-02 0. -1.
          2   -1    0    0  501    0  0.00000000000E+00 -0.00000000000E+00 -0.13879410308E+04  0.13879410308E+04  0.25500000000E-02 0.  1.
   -5000001    1    1    2    0    0  0.44764306834E+03  0.25982928794E+03 -0.72643325740E+03  0.92633733216E+03  0.25000000000E+03 0.  0.
    5000001    1    1    2    0    0 -0.44764306834E+03 -0.25982928794E+03 -0.41446634032E+03  0.70864513176E+03  0.25000000000E+03 0.  0.
<mgrwt>
<rscale>  0 0.11711173E+04</rscale>
<asrwt>0</asrwt>
<pdfrwt beam="1">  1        2 0.21352938E+00 0.11711173E+04</pdfrwt>
<pdfrwt beam="2">  1       -2 0.38006375E-01 0.11711173E+04</pdfrwt>
<totfact> 0.94916228E+01</totfact>
</mgrwt>
</event>
<event>
 4    1  0.1755570E-005  0.9070952E+03  0.7818608E-02  0.9416755E-01
         -2   -1    0    0    0  501 -0.00000000000E+00  0.00000000000E+00  0.47332211448E+03  0.47332211449E+03  0.25500000000E-02 0. -1.
          2   -1    0    0  501    0  0.00000000000E+00 -0.00000000000E+00 -0.43459922974E+03  0.43459922975E+03  0.25500000000E-02 0.  1.
   -5000001    1    1    2    0    0  0.35491328303E+03 -0.18329239572E+02  0.14950304000E+03  0.45951121691E+03  0.25000000000E+03 0.  0.
    5000001    1    1    2    0    0 -0.35491328303E+03  0.18329239572E+02 -0.11078015526E+03  0.44841012733E+03  0.25000000000E+03 0.  0.
<mgrwt>
<rscale>  0 0.90709520E+03</rscale>
<asrwt>0</asrwt>
<pdfrwt beam="1">  1        2 0.66861420E-01 0.90709520E+03</pdfrwt>
<pdfrwt beam="2">  1       -2 0.72818787E-01 0.90709520E+03</pdfrwt>
<totfact> 0.12382229E+02</totfact>
</mgrwt>
</event>
<event>
 4    1  0.1755570E-005  0.1136975E+04  0.7818608E-02  0.9169885E-01
         -2   -1    0    0    0  501 -0.00000000000E+00  0.00000000000E+00  0.13412253310E+04  0.13412253310E+04  0.25500000000E-02 0. -1.
          2   -1    0    0  501    0  0.00000000000E+00 -0.00000000000E+00 -0.24095717946E+03  0.24095717948E+03  0.25500000000E-02 0.  1.
   -5000001    1    1    2    0    0  0.50963656717E+03 -0.72256621691E+01  0.50847438896E+03  0.76212062367E+03  0.25000000000E+03 0.  0.
    5000001    1    1    2    0    0 -0.50963656717E+03  0.72256621691E+01  0.59179376257E+03  0.82006188681E+03  0.25000000000E+03 0.  0.
<mgrwt>
<rscale>  0 0.11369747E+04</rscale>
<asrwt>0</asrwt>
<pdfrwt beam="1">  1        2 0.37070336E-01 0.11369747E+04</pdfrwt>
<pdfrwt beam="2">  1       -2 0.20634236E+00 0.11369747E+04</pdfrwt>
<totfact> 0.16802652E+01</totfact>
</mgrwt>
</event>
<event>
 4    1  0.1755570E-005  0.6051247E+03  0.7818608E-02  0.9894831E-01
         -2   -1    0    0    0  501 -0.00000000000E+00  0.00000000000E+00  0.38473633399E+02  0.38473633483E+02  0.25500000000E-02 0. -1.
          2   -1    0    0  501    0  0.00000000000E+00 -0.00000000000E+00 -0.23793950630E+04  0.23793950630E+04  0.25500000000E-02 0.  1.
   -5000001    1    1    2    0    0 -0.13664001391E+03 -0.95139405864E+02 -0.13157385018E+04  0.13495887541E+04  0.25000000000E+03 0.  0.
    5000001    1    1    2    0    0  0.13664001391E+03  0.95139405864E+02 -0.10251829278E+04  0.10682799425E+04  0.25000000000E+03 0.  0.
<mgrwt>
<rscale>  0 0.60512469E+03</rscale>
<asrwt>0</asrwt>
<pdfrwt beam="1">  1        2 0.36606066E+00 0.60512469E+03</pdfrwt>
<pdfrwt beam="2">  1       -2 0.59190224E-02 0.60512469E+03</pdfrwt>
<totfact> 0.67781976E+02</totfact>
</mgrwt>
</event>
<event>
 4    1  0.1755570E-005  0.8882687E+03  0.7818608E-02  0.9440366E-01
         -2   -1    0    0    0  501 -0.00000000000E+00  0.00000000000E+00  0.34089690546E+03  0.34089690547E+03  0.25500000000E-02 0. -1.
          2   -1    0    0  501    0  0.00000000000E+00 -0.00000000000E+00 -0.57863623943E+03  0.57863623944E+03  0.25500000000E-02 0.  1.
   -5000001    1    1    2    0    0 -0.51754608094E+02  0.32584007803E+03  0.47745644549E+02  0.41668926370E+03  0.25000000000E+03 0.  0.
    5000001    1    1    2    0    0  0.51754608094E+02 -0.32584007803E+03 -0.28548497852E+03  0.50284388121E+03  0.25000000000E+03 0.  0.
<mgrwt>
<rscale>  0 0.88826866E+03</rscale>
<asrwt>0</asrwt>
<pdfrwt beam="1">  1        2 0.89020960E-01 0.88826866E+03</pdfrwt>
<pdfrwt beam="2">  1       -2 0.52445678E-01 0.88826866E+03</pdfrwt>
<totfact> 0.17848241E+02</totfact>
</mgrwt>
</event>
<event>
 4    1  0.1755570E-005  0.1074304E+04  0.7818608E-02  0.9230605E-01
         -2   -1    0    0    0  501 -0.00000000000E+00  0.00000000000E+00  0.12458896352E+03  0.12458896355E+03  0.25500000000E-02 0. -1.
          2   -1    0    0  501    0  0.00000000000E+00 -0.00000000000E+00 -0.23158723765E+04  0.23158723765E+04  0.25500000000E-02 0.  1.
   -5000001    1    1    2    0    0  0.30977729370E+03 -0.22059635122E+03 -0.44748976392E+03  0.63825685322E+03  0.25000000000E+03 0.  0.
    5000001    1    1    2    0    0 -0.30977729370E+03  0.22059635122E+03 -0.17437936490E+04  0.18022044868E+04  0.25000000000E+03 0.  0.
<mgrwt>
<rscale>  0 0.10743038E+04</rscale>
<asrwt>0</asrwt>
<pdfrwt beam="1">  1        2 0.35628802E+00 0.10743038E+04</pdfrwt>
<pdfrwt beam="2">  1       -2 0.19167535E-01 0.10743038E+04</pdfrwt>
<totfact> 0.10235083E+02</totfact>
</mgrwt>
</event>
<event>
 4    1  0.1755570E-005  0.6674278E+03  0.7818608E-02  0.9774616E-01
         -2   -1    0    0    0  501 -0.00000000000E+00  0.00000000000E+00  0.23828081151E+03  0.23828081152E+03  0.25500000000E-02 0. -1.
          2   -1    0    0  501    0  0.00000000000E+00 -0.00000000000E+00 -0.46736863899E+03  0.46736863900E+03  0.25500000000E-02 0.  1.
   -5000001    1    1    2    0    0 -0.18842675355E+03  0.11442096442E+03 -0.13185793347E+03  0.35844569069E+03  0.25000000000E+03 0.  0.
    5000001    1    1    2    0    0  0.18842675355E+03 -0.11442096442E+03 -0.97229894016E+02  0.34720375984E+03  0.25000000000E+03 0.  0.
<mgrwt>
<rscale>  0 0.66742783E+03</rscale>
<asrwt>0</asrwt>
<pdfrwt beam="1">  1        2 0.71902867E-01 0.66742783E+03</pdfrwt>
<pdfrwt beam="2">  1       -2 0.36658587E-01 0.66742783E+03</pdfrwt>
<totfact> 0.47016892E+02</totfact>
</mgrwt>
</event>
<event>
 4    1  0.1755570E-005  0.8233175E+03  0.7818608E-02  0.9526866E-01
         -2   -1    0    0    0  501 -0.00000000000E+00  0.00000000000E+00  0.16160876953E+04  0.16160876953E+04  0.25500000000E-02 0. -1.
          2   -1    0    0  501    0  0.00000000000E+00 -0.00000000000E+00 -0.10485998522E+03  0.10485998525E+03  0.25500000000E-02 0.  1.
   -5000001    1    1    2    0    0 -0.31956502926E+03  0.11796225574E+02  0.61228277294E+03  0.73460952411E+03  0.25000000000E+03 0.  0.
    5000001    1    1    2    0    0  0.31956502926E+03 -0.11796225574E+02  0.89894493714E+03  0.98633815645E+03  0.25000000000E+03 0.  0.
<mgrwt>
<rscale>  0 0.82331751E+03</rscale>
<asrwt>0</asrwt>
<pdfrwt beam="1">  1        2 0.16132306E-01 0.82331751E+03</pdfrwt>
<pdfrwt beam="2">  1       -2 0.24862887E+00 0.82331751E+03</pdfrwt>
<totfact> 0.24566509E+01</totfact>
</mgrwt>
</event>
<event>
 4    1  0.1755570E-005  0.7930831E+03  0.7818608E-02  0.9570083E-01
          2   -1    0    0  501    0  0.00000000000E+00  0.00000000000E+00  0.14951878025E+04  0.14951878025E+04  0.25500000000E-02 0.  1.
         -2   -1    0    0    0  501 -0.00000000000E+00 -0.00000000000E+00 -0.10516752992E+03  0.10516752995E+03  0.25500000000E-02 0. -1.
   -5000001    1    1    2    0    0 -0.12655402904E+03  0.21826871987E+03  0.10508007351E+04  0.11092066269E+04  0.25000000000E+03 0.  0.
    5000001    1    1    2    0    0  0.12655402904E+03 -0.21826871987E+03  0.33921953751E+03  0.49114870555E+03  0.25000000000E+03 0.  0.
<mgrwt>
<rscale>  0 0.79308312E+03</rscale>
<asrwt>0</asrwt>
<pdfrwt beam="1">  1        2 0.23002890E+00 0.79308312E+03</pdfrwt>
<pdfrwt beam="2">  1       -2 0.16179619E-01 0.79308312E+03</pdfrwt>
<totfact> 0.39741135E+02</totfact>
</mgrwt>
</event>
<event>
 4    1  0.1755570E-005  0.1186861E+04  0.7818608E-02  0.9124436E-01
          2   -1    0    0  501    0  0.00000000000E+00  0.00000000000E+00  0.12842799688E+04  0.12842799688E+04  0.25500000000E-02 0.  1.
         -2   -1    0    0    0  501 -0.00000000000E+00 -0.00000000000E+00 -0.27420773555E+03  0.27420773557E+03  0.25500000000E-02 0. -1.
   -5000001    1    1    2    0    0 -0.16972397417E+03 -0.29650928325E+03 -0.41030693046E+02  0.42533222337E+03  0.25000000000E+03 0.  0.
    5000001    1    1    2    0    0  0.16972397417E+03  0.29650928325E+03  0.10511029263E+04  0.11331554810E+04  0.25000000000E+03 0.  0.
<mgrwt>
<rscale>  0 0.11868606E+04</rscale>
<asrwt>0</asrwt>
<pdfrwt beam="1">  1        2 0.19758153E+00 0.11868606E+04</pdfrwt>
<pdfrwt beam="2">  1       -2 0.42185805E-01 0.11868606E+04</pdfrwt>
<totfact> 0.88757350E+01</totfact>
</mgrwt>
</event>
<event>
 4    1  0.1755570E-005  0.1004738E+04  0.7818608E-02  0.9303364E-01
          2   -1    0    0  501    0  0.00000000000E+00  0.00000000000E+00  0.20915720769E+03  0.20915720770E+03  0.25500000000E-02 0.  1.
         -2   -1    0    0    0  501 -0.00000000000E+00 -0.00000000000E+00 -0.12066252466E+04  0.12066252466E+04  0.25500000000E-02 0. -1.
   -5000001    1    1    2    0    0 -0.26178383261E+03 -0.26972446894E+03 -0.80935275726E+03  0.92673294419E+03  0.25000000000E+03 0.  0.
    5000001    1    1    2    0    0  0.26178383261E+03  0.26972446894E+03 -0.18811528168E+03  0.48904951014E+03  0.25000000000E+03 0.  0.
<mgrwt>
<rscale>  0 0.10047375E+04</rscale>
<asrwt>0</asrwt>
<pdfrwt beam="1">  1        2 0.32178033E-01 0.10047375E+04</pdfrwt>
<pdfrwt beam="2">  1       -2 0.18563465E+00 0.10047375E+04</pdfrwt>
<totfact> 0.27237608E+01</totfact>
</mgrwt>
</event>
<event>
 4    1  0.1755570E-005  0.9622543E+03  0.7818608E-02  0.9350941E-01
         -2   -1    0    0    0  501 -0.00000000000E+00  0.00000000000E+00  0.27012386472E+03  0.27012386473E+03  0.25500000000E-02 0. -1.
          2   -1    0    0  501    0  0.00000000000E+00 -0.00000000000E+00 -0.85695248564E+03  0.85695248564E+03  0.25500000000E-02 0.  1.
   -5000001    1    1    2    0    0  0.38069316846E+03 -0.15502330520E+03 -0.29912890259E+03  0.56651356032E+03  0.25000000000E+03 0.  0.
    5000001    1    1    2    0    0 -0.38069316846E+03  0.15502330520E+03 -0.28769971833E+03  0.56056279005E+03  0.25000000000E+03 0.  0.
<mgrwt>
<rscale>  0 0.96225426E+03</rscale>
<asrwt>0</asrwt>
<pdfrwt beam="1">  1        2 0.13183884E+00 0.96225426E+03</pdfrwt>
<pdfrwt beam="2">  1       -2 0.41557518E-01 0.96225426E+03</pdfrwt>
<totfact> 0.17211729E+02</totfact>
</mgrwt>
</event>
<event>
 4    1  0.1755570E-005  0.7642393E+03  0.7818608E-02  0.9613272E-01
         -2   -1    0    0    0  501 -0.00000000000E+00  0.00000000000E+00  0.75883294987E+02  0.75883295030E+02  0.25500000000E-02 0. -1.
          2   -1    0    0  501    0  0.00000000000E+00 -0.00000000000E+00 -0.19242102660E+04  0.19242102660E+04  0.25500000000E-02 0.  1.
   -5000001    1    1    2    0    0  0.65317339571E+01  0.25389981940E+03 -0.12849788196E+04  0.13334835389E+04  0.25000000000E+03 0.  0.
    5000001    1    1    2    0    0 -0.65317339571E+01 -0.25389981940E+03 -0.56334815144E+03  0.66661002211E+03  0.25000000000E+03 0.  0.
<mgrwt>
<rscale>  0 0.76423927E+03</rscale>
<asrwt>0</asrwt>
<pdfrwt beam="1">  1        2 0.29603231E+00 0.76423927E+03</pdfrwt>
<pdfrwt beam="2">  1       -2 0.11674355E-01 0.76423927E+03</pdfrwt>
<totfact> 0.40018991E+02</totfact>
</mgrwt>
</event>
<event>
 4    1  0.1755570E-005  0.1346986E+04  0.7818608E-02  0.8993112E-01
          2   -1    0    0  501    0  0.00000000000E+00  0.00000000000E+00  0.31035885568E+04  0.31035885568E+04  0.25500000000E-02 0.  1.
         -2   -1    0    0    0  501 -0.00000000000E+00 -0.00000000000E+00 -0.14615117826E+03  0.14615117828E+03  0.25500000000E-02 0. -1.
   -5000001    1    1    2    0    0 -0.18470736521E+03 -0.40295332529E+03  0.41442307117E+03  0.65630379783E+03  0.25000000000E+03 0.  0.
    5000001    1    1    2    0    0  0.18470736521E+03  0.40295332529E+03  0.25430143074E+04  0.25934359373E+04  0.25000000000E+03 0.  0.
<mgrwt>
<rscale>  0 0.13469865E+04</rscale>
<asrwt>0</asrwt>
<pdfrwt beam="1">  1        2 0.47747513E+00 0.13469865E+04</pdfrwt>
<pdfrwt beam="2">  1       -2 0.22484798E-01 0.13469865E+04</pdfrwt>
<totfact> 0.25701176E+01</totfact>
</mgrwt>
</event>
<event>
 4    1  0.1755570E-005  0.6469575E+03  0.7818608E-02  0.9812505E-01
         -2   -1    0    0    0  501 -0.00000000000E+00  0.00000000000E+00  0.19365880543E+03  0.19365880545E+03  0.25500000000E-02 0. -1.
          2   -1    0    0  501    0  0.00000000000E+00 -0.00000000000E+00 -0.54032407921E+03  0.54032407922E+03  0.25500000000E-02 0.  1.
   -5000001    1    1    2    0    0 -0.16929165970E+02  0.19800856217E+03 -0.11499023992E+03  0.33943591830E+03  0.25000000000E+03 0.  0.
    5000001    1    1    2    0    0  0.16929165970E+02 -0.19800856217E+03 -0.23167503386E+03  0.39454696636E+03  0.25000000000E+03 0.  0.
<mgrwt>
<rscale>  0 0.64695754E+03</rscale>
<asrwt>0</asrwt>
<pdfrwt beam="1">  1        2 0.83126781E-01 0.64695754E+03</pdfrwt>
<pdfrwt beam="2">  1       -2 0.29793663E-01 0.64695754E+03</pdfrwt>
<totfact> 0.58745642E+02</totfact>
</mgrwt>
</event>
<event>
 4    1  0.1755570E-005  0.5779269E+03  0.7818608E-02  0.9952289E-01
         -2   -1    0    0    0  501 -0.00000000000E+00  0.00000000000E+00  0.10605943644E+03  0.10605943647E+03  0.25500000000E-02 0. -1.
          2   -1    0    0  501    0  0.00000000000E+00 -0.00000000000E+00 -0.78729309589E+03  0.78729309589E+03  0.25500000000E-02 0.  1.
   -5000001    1    1    2    0    0 -0.64222139072E+02 -0.12582120981E+03 -0.29066126600E+03  0.40858222127E+03  0.25000000000E+03 0.  0.
    5000001    1    1    2    0    0  0.64222139072E+02  0.12582120981E+03 -0.39057239345E+03  0.48477031109E+03  0.25000000000E+03 0.  0.
<mgrwt>
<rscale>  0 0.57792685E+03</rscale>
<asrwt>0</asrwt>
<pdfrwt beam="1">  1        2 0.12112201E+00 0.57792685E+03</pdfrwt>
<pdfrwt beam="2">  1       -2 0.16316837E-01 0.57792685E+03</pdfrwt>
<totfact> 0.10735460E+03</totfact>
</mgrwt>
</event>
<event>
 4    1  0.1755570E-005  0.9850788E+03  0.7818608E-02  0.9325063E-01
         -2   -1    0    0    0  501 -0.00000000000E+00  0.00000000000E+00  0.20612483295E+03  0.20612483297E+03  0.25500000000E-02 0. -1.
          2   -1    0    0  501    0  0.00000000000E+00 -0.00000000000E+00 -0.11769327702E+04  0.11769327702E+04  0.25500000000E-02 0.  1.
   -5000001    1    1    2    0    0 -0.36792051018E+03  0.14440831669E+03 -0.70234830448E+03  0.84380827476E+03  0.25000000000E+03 0.  0.
    5000001    1    1    2    0    0  0.36792051018E+03 -0.14440831669E+03 -0.26845963272E+03  0.53924932836E+03  0.25000000000E+03 0.  0.
<mgrwt>
<rscale>  0 0.98507882E+03</rscale>
<asrwt>0</asrwt>
<pdfrwt beam="1">  1        2 0.18106658E+00 0.98507882E+03</pdfrwt>
<pdfrwt beam="2">  1       -2 0.31711514E-01 0.98507882E+03</pdfrwt>
<totfact> 0.18027299E+02</totfact>
</mgrwt>
</event>
<event>
 4    1  0.1755570E-005  0.7492820E+03  0.7818608E-02  0.9636477E-01
         -2   -1    0    0    0  501 -0.00000000000E+00  0.00000000000E+00  0.18217830182E+03  0.18217830184E+03  0.25500000000E-02 0. -1.
          2   -1    0    0  501    0  0.00000000000E+00 -0.00000000000E+00 -0.77043144579E+03  0.77043144580E+03  0.25500000000E-02 0.  1.
   -5000001    1    1    2    0    0  0.14921870349E+03  0.23533495198E+03 -0.27582903428E+03  0.46500582496E+03  0.25000000000E+03 0.  0.
    5000001    1    1    2    0    0 -0.14921870349E+03 -0.23533495198E+03 -0.31242410969E+03  0.48760392268E+03  0.25000000000E+03 0.  0.
<mgrwt>
<rscale>  0 0.74928204E+03</rscale>
<asrwt>0</asrwt>
<pdfrwt beam="1">  1        2 0.11852791E+00 0.74928204E+03</pdfrwt>
<pdfrwt beam="2">  1       -2 0.28027431E-01 0.74928204E+03</pdfrwt>
<totfact> 0.42341165E+02</totfact>
</mgrwt>
</event>
<event>
 4    1  0.1755570E-005  0.7436466E+03  0.7818608E-02  0.9645371E-01
          2   -1    0    0  501    0  0.00000000000E+00  0.00000000000E+00  0.54352721353E+03  0.54352721354E+03  0.25500000000E-02 0.  1.
         -2   -1    0    0    0  501 -0.00000000000E+00 -0.00000000000E+00 -0.25436182394E+03  0.25436182396E+03  0.25500000000E-02 0. -1.
   -5000001    1    1    2    0    0 -0.14500153449E+03  0.33476380458E+02 -0.10383610336E+03  0.30891430756E+03  0.25000000000E+03 0.  0.
    5000001    1    1    2    0    0  0.14500153449E+03 -0.33476380458E+02  0.39300149295E+03  0.48897472994E+03  0.25000000000E+03 0.  0.
<mgrwt>
<rscale>  0 0.74364662E+03</rscale>
<asrwt>0</asrwt>
<pdfrwt beam="1">  1        2 0.83619570E-01 0.74364662E+03</pdfrwt>
<pdfrwt beam="2">  1       -2 0.39132589E-01 0.74364662E+03</pdfrwt>
<totfact> 0.34713847E+02</totfact>
</mgrwt>
</event>
<event>
 4    1  0.1755570E-005  0.1037888E+04  0.7818608E-02  0.9267939E-01
         -2   -1    0    0    0  501 -0.00000000000E+00  0.00000000000E+00  0.10794153650E+04  0.10794153650E+04  0.25500000000E-02 0. -1.
          2   -1    0    0  501    0  0.00000000000E+00 -0.00000000000E+00 -0.24948951672E+03  0.24948951674E+03  0.25500000000E-02 0.  1.
   -5000001    1    1    2    0    0  0.33173451175E+03 -0.28618654145E+03  0.57100446681E+03  0.76190329039E+03  0.25000000000E+03 0.  0.
    5000001    1    1    2    0    0 -0.33173451175E+03  0.28618654145E+03  0.25892138145E+03  0.56700159133E+03  0.25000000000E+03 0.  0.
<mgrwt>
<rscale>  0 0.10378879E+04</rscale>
<asrwt>0</asrwt>
<pdfrwt beam="1">  1        2 0.38383003E-01 0.10378879E+04</pdfrwt>
<pdfrwt beam="2">  1       -2 0.16606390E+00 0.10378879E+04</pdfrwt>
<totfact> 0.30543664E+01</totfact>
</mgrwt>
</event>
<event>
 4    1  0.1755570E-005  0.6492544E+03  0.7818608E-02  0.9808179E-01
          2   -1    0    0  501    0  0.00000000000E+00  0.00000000000E+00  0.20321457938E+04  0.20321457938E+04  0.25500000000E-02 0.  1.
         -2   -1    0    0    0  501 -0.00000000000E+00 -0.00000000000E+00 -0.51857906909E+02  0.51857906972E+02  0.25500000000E-02 0. -1.
   -5000001    1    1    2    0    0  0.19081274609E+03 -0.12376783778E+02  0.73496380496E+03  0.79952140900E+03  0.25000000000E+03 0.  0.
    5000001    1    1    2    0    0 -0.19081274609E+03  0.12376783778E+02  0.12453240819E+04  0.12844822917E+04  0.25000000000E+03 0.  0.
<mgrwt>
<rscale>  0 0.64925443E+03</rscale>
<asrwt>0</asrwt>
<pdfrwt beam="1">  1        2 0.31263778E+00 0.64925443E+03</pdfrwt>
<pdfrwt beam="2">  1       -2 0.79781404E-02 0.64925443E+03</pdfrwt>
<totfact> 0.65355226E+02</totfact>
</mgrwt>
</event>
<event>
 4    1  0.1755570E-005  0.6475667E+03  0.7818608E-02  0.9811356E-01
          2   -1    0    0  501    0  0.00000000000E+00  0.00000000000E+00  0.10073420304E+04  0.10073420304E+04  0.25500000000E-02 0.  1.
         -2   -1    0    0    0  501 -0.00000000000E+00 -0.00000000000E+00 -0.10407154896E+03  0.10407154900E+03  0.25500000000E-02 0. -1.
   -5000001    1    1    2    0    0  0.10907778907E+03  0.15113722905E+03  0.30205942572E+03  0.43414320533E+03  0.25000000000E+03 0.  0.
    5000001    1    1    2    0    0 -0.10907778907E+03 -0.15113722905E+03  0.60121105575E+03  0.67727037409E+03  0.25000000000E+03 0.  0.
<mgrwt>
<rscale>  0 0.64756666E+03</rscale>
<asrwt>0</asrwt>
<pdfrwt beam="1">  1        2 0.15497570E+00 0.64756666E+03</pdfrwt>
<pdfrwt beam="2">  1       -2 0.16011008E-01 0.64756666E+03</pdfrwt>
<totfact> 0.78744637E+02</totfact>
</mgrwt>
</event>
<event>
 4    1  0.1755570E-005  0.8163938E+03  0.7818608E-02  0.9536586E-01
          2   -1    0    0  501    0  0.00000000000E+00  0.00000000000E+00  0.12119417689E+04  0.12119417689E+04  0.25500000000E-02 0.  1.
         -2   -1    0    0    0  501 -0.00000000000E+00 -0.00000000000E+00 -0.13748573382E+03  0.13748573384E+03  0.25500000000E-02 0. -1.
   -5000001    1    1    2    0    0 -0.11517796011E+03 -0.30137818196E+03  0.52818484835E+03  0.66751329956E+03  0.25000000000E+03 0.  0.
    5000001    1    1    2    0    0  0.11517796011E+03  0.30137818196E+03  0.54627118673E+03  0.68191420319E+03  0.25000000000E+03 0.  0.
<mgrwt>
<rscale>  0 0.81639379E+03</rscale>
<asrwt>0</asrwt>
<pdfrwt beam="1">  1        2 0.18645258E+00 0.81639379E+03</pdfrwt>
<pdfrwt beam="2">  1       -2 0.21151651E-01 0.81639379E+03</pdfrwt>
<totfact> 0.36220491E+02</totfact>
</mgrwt>
</event>
<event>
 4    1  0.1755570E-005  0.1152295E+04  0.7818608E-02  0.9155668E-01
          2   -1    0    0  501    0  0.00000000000E+00  0.00000000000E+00  0.90902726631E+03  0.90902726631E+03  0.25500000000E-02 0.  1.
         -2   -1    0    0    0  501 -0.00000000000E+00 -0.00000000000E+00 -0.36516639421E+03  0.36516639422E+03  0.25500000000E-02 0. -1.
   -5000001    1    1    2    0    0  0.32500312082E+03 -0.32118980985E+03  0.54426922210E+03  0.75333850865E+03  0.25000000000E+03 0.  0.
    5000001    1    1    2    0    0 -0.32500312082E+03  0.32118980985E+03 -0.40834999849E+00  0.52085515188E+03  0.25000000000E+03 0.  0.
<mgrwt>
<rscale>  0 0.11522955E+04</rscale>
<asrwt>0</asrwt>
<pdfrwt beam="1">  1        2 0.13985035E+00 0.11522955E+04</pdfrwt>
<pdfrwt beam="2">  1       -2 0.56179446E-01 0.11522955E+04</pdfrwt>
<totfact> 0.85122598E+01</totfact>
</mgrwt>
</event>
<event>
 4    1  0.1755570E-005  0.1148322E+04  0.7818608E-02  0.9159333E-01
         -2   -1    0    0    0  501 -0.00000000000E+00  0.00000000000E+00  0.21184687141E+03  0.21184687142E+03  0.25500000000E-02 0. -1.
          2   -1    0    0  501    0  0.00000000000E+00 -0.00000000000E+00 -0.15561285366E+04  0.15561285366E+04  0.25500000000E-02 0.  1.
   -5000001    1    1    2    0    0 -0.12606096532E+03 -0.89452611519E+02 -0.14315132176E+04  0.14613771686E+04  0.25000000000E+03 0.  0.
    5000001    1    1    2    0    0  0.12606096532E+03  0.89452611519E+02  0.87231552422E+02  0.30659823943E+03  0.25000000000E+03 0.  0.
<mgrwt>
<rscale>  0 0.11483222E+04</rscale>
<asrwt>0</asrwt>
<pdfrwt beam="1">  1        2 0.23940438E+00 0.11483222E+04</pdfrwt>
<pdfrwt beam="2">  1       -2 0.32591827E-01 0.11483222E+04</pdfrwt>
<totfact> 0.10246388E+02</totfact>
</mgrwt>
</event>
<event>
 4    1  0.1755570E-005  0.7606104E+03  0.7818608E-02  0.9618850E-01
          2   -1    0    0  501    0  0.00000000000E+00  0.00000000000E+00  0.12611854994E+04  0.12611854994E+04  0.25500000000E-02 0.  1.
         -2   -1    0    0    0  501 -0.00000000000E+00 -0.00000000000E+00 -0.11467944988E+03  0.11467944990E+03  0.25500000000E-02 0. -1.
   -5000001    1    1    2    0    0  0.15611957941E+03  0.75626858540E+01  0.10077704886E+04  0.10500151785E+04  0.25000000000E+03 0.  0.
    5000001    1    1    2    0    0 -0.15611957941E+03 -0.75626858540E+01  0.13873556090E+03  0.32584977083E+03  0.25000000000E+03 0.  0.
<mgrwt>
<rscale>  0 0.76061044E+03</rscale>
<asrwt>0</asrwt>
<pdfrwt beam="1">  1        2 0.19402853E+00 0.76061044E+03</pdfrwt>
<pdfrwt beam="2">  1       -2 0.17642993E-01 0.76061044E+03</pdfrwt>
<totfact> 0.46624587E+02</totfact>
</mgrwt>
</event>
<event>
 4    1  0.1755570E-005  0.6250152E+03  0.7818608E-02  0.9854825E-01
          2   -1    0    0  501    0  0.00000000000E+00  0.00000000000E+00  0.14375622783E+03  0.14375622785E+03  0.25500000000E-02 0.  1.
         -2   -1    0    0    0  501 -0.00000000000E+00 -0.00000000000E+00 -0.67935141300E+03  0.67935141300E+03  0.25500000000E-02 0. -1.
   -5000001    1    1    2    0    0 -0.16102718727E+03 -0.79783490368E+02 -0.19729716689E+03  0.36567927537E+03  0.25000000000E+03 0.  0.
    5000001    1    1    2    0    0  0.16102718727E+03  0.79783490368E+02 -0.33829801828E+03  0.45742836548E+03  0.25000000000E+03 0.  0.
<mgrwt>
<rscale>  0 0.62501519E+03</rscale>
<asrwt>0</asrwt>
<pdfrwt beam="1">  1        2 0.22116343E-01 0.62501519E+03</pdfrwt>
<pdfrwt beam="2">  1       -2 0.10451560E+00 0.62501519E+03</pdfrwt>
<totfact> 0.19000659E+02</totfact>
</mgrwt>
</event>
<event>
 4    1  0.1755570E-005  0.8276245E+03  0.7818608E-02  0.9520871E-01
          2   -1    0    0  501    0  0.00000000000E+00  0.00000000000E+00  0.80729328593E+03  0.80729328594E+03  0.25500000000E-02 0.  1.
         -2   -1    0    0    0  501 -0.00000000000E+00 -0.00000000000E+00 -0.21211691213E+03  0.21211691215E+03  0.25500000000E-02 0. -1.
   -5000001    1    1    2    0    0 -0.46889079349E+02 -0.28765512972E+03  0.10758005033E+03  0.39877001724E+03  0.25000000000E+03 0.  0.
    5000001    1    1    2    0    0  0.46889079349E+02  0.28765512972E+03  0.48759632347E+03  0.62064018085E+03  0.25000000000E+03 0.  0.
<mgrwt>
<rscale>  0 0.82762445E+03</rscale>
<asrwt>0</asrwt>
<pdfrwt beam="1">  1        2 0.12419897E+00 0.82762445E+03</pdfrwt>
<pdfrwt beam="2">  1       -2 0.32633372E-01 0.82762445E+03</pdfrwt>
<totfact> 0.29906237E+02</totfact>
</mgrwt>
</event>
<event>
 4    1  0.1755570E-005  0.6109658E+03  0.7818608E-02  0.9882913E-01
         -2   -1    0    0    0  501 -0.00000000000E+00  0.00000000000E+00  0.42978308587E+03  0.42978308588E+03  0.25500000000E-02 0. -1.
          2   -1    0    0  501    0  0.00000000000E+00 -0.00000000000E+00 -0.21713235065E+03  0.21713235066E+03  0.25500000000E-02 0.  1.
   -5000001    1    1    2    0    0  0.84408169376E+02 -0.63996188986E+02  0.25456139154E+03  0.37218510627E+03  0.25000000000E+03 0.  0.
    5000001    1    1    2    0    0 -0.84408169376E+02  0.63996188986E+02 -0.41910656313E+02  0.27473033028E+03  0.25000000000E+03 0.  0.
<mgrwt>
<rscale>  0 0.61096583E+03</rscale>
<asrwt>0</asrwt>
<pdfrwt beam="1">  1        2 0.33404977E-01 0.61096583E+03</pdfrwt>
<pdfrwt beam="2">  1       -2 0.66120474E-01 0.61096583E+03</pdfrwt>
<totfact> 0.33506574E+02</totfact>
</mgrwt>
</event>
<event>
 4    1  0.1755570E-005  0.8619738E+03  0.7818608E-02  0.9474406E-01
          2   -1    0    0  501    0  0.00000000000E+00  0.00000000000E+00  0.17408328981E+04  0.17408328981E+04  0.25500000000E-02 0.  1.
         -2   -1    0    0    0  501 -0.00000000000E+00 -0.00000000000E+00 -0.10670162718E+03  0.10670162722E+03  0.25500000000E-02 0. -1.
   -5000001    1    1    2    0    0 -0.33932708838E+03  0.55795305819E+02  0.66560131879E+03  0.78979814170E+03  0.25000000000E+03 0.  0.
    5000001    1    1    2    0    0  0.33932708838E+03 -0.55795305819E+02  0.96852995210E+03  0.10577363836E+04  0.25000000000E+03 0.  0.
<mgrwt>
<rscale>  0 0.86197379E+03</rscale>
<asrwt>0</asrwt>
<pdfrwt beam="1">  1        2 0.26782044E+00 0.86197379E+03</pdfrwt>
<pdfrwt beam="2">  1       -2 0.16415635E-01 0.86197379E+03</pdfrwt>
<totfact> 0.28243008E+02</totfact>
</mgrwt>
</event>
<event>
 4    1  0.1755570E-005  0.6102728E+03  0.7818608E-02  0.9884320E-01
          2   -1    0    0  501    0  0.00000000000E+00  0.00000000000E+00  0.22279571480E+04  0.22279571480E+04  0.25500000000E-02 0.  1.
         -2   -1    0    0    0  501 -0.00000000000E+00 -0.00000000000E+00 -0.41790846464E+02  0.41790846542E+02  0.25500000000E-02 0. -1.
   -5000001    1    1    2    0    0 -0.16816834453E+03 -0.35889557999E+02  0.97316663757E+03  0.10193733158E+04  0.25000000000E+03 0.  0.
    5000001    1    1    2    0    0  0.16816834453E+03  0.35889557999E+02  0.12129996640E+04  0.12503746788E+04  0.25000000000E+03 0.  0.
<mgrwt>
<rscale>  0 0.61027278E+03</rscale>
<asrwt>0</asrwt>
<pdfrwt beam="1">  1        2 0.34276272E+00 0.61027278E+03</pdfrwt>
<pdfrwt beam="2">  1       -2 0.64293595E-02 0.61027278E+03</pdfrwt>
<totfact> 0.72139983E+02</totfact>
</mgrwt>
</event>
<event>
 4    1  0.1755570E-005  0.6636616E+03  0.7818608E-02  0.9781477E-01
         -2   -1    0    0    0  501 -0.00000000000E+00  0.00000000000E+00  0.35584375466E+02  0.35584375557E+02  0.25500000000E-02 0. -1.
          2   -1    0    0  501    0  0.00000000000E+00 -0.00000000000E+00 -0.30943827114E+04  0.30943827114E+04  0.25500000000E-02 0.  1.
   -5000001    1    1    2    0    0 -0.54737287513E+02 -0.21008361729E+03 -0.16327669775E+04  0.16660009903E+04  0.25000000000E+03 0.  0.
    5000001    1    1    2    0    0  0.54737287513E+02  0.21008361729E+03 -0.14260313584E+04  0.14639660966E+04  0.25000000000E+03 0.  0.
<mgrwt>
<rscale>  0 0.66366159E+03</rscale>
<asrwt>0</asrwt>
<pdfrwt beam="1">  1        2 0.47605867E+00 0.66366159E+03</pdfrwt>
<pdfrwt beam="2">  1       -2 0.54745218E-02 0.66366159E+03</pdfrwt>
<totfact> 0.29090270E+02</totfact>
</mgrwt>
</event>
<event>
 4    1  0.1755570E-005  0.6869934E+03  0.7818608E-02  0.9739737E-01
          2   -1    0    0  501    0  0.00000000000E+00  0.00000000000E+00  0.29252627134E+03  0.29252627135E+03  0.25500000000E-02 0.  1.
         -2   -1    0    0    0  501 -0.00000000000E+00 -0.00000000000E+00 -0.40334835873E+03  0.40334835873E+03  0.25500000000E-02 0. -1.
   -5000001    1    1    2    0    0 -0.21928833249E+03  0.58585997274E+02  0.84138444761E+01  0.33777282991E+03  0.25000000000E+03 0.  0.
    5000001    1    1    2    0    0  0.21928833249E+03 -0.58585997274E+02 -0.11923593186E+03  0.35810180018E+03  0.25000000000E+03 0.  0.
<mgrwt>
<rscale>  0 0.68699342E+03</rscale>
<asrwt>0</asrwt>
<pdfrwt beam="1">  1        2 0.45004042E-01 0.68699342E+03</pdfrwt>
<pdfrwt beam="2">  1       -2 0.62053594E-01 0.68699342E+03</pdfrwt>
<totfact> 0.27498181E+02</totfact>
</mgrwt>
</event>
<event>
 4    1  0.1755570E-005  0.7802130E+03  0.7818608E-02  0.9589108E-01
         -2   -1    0    0    0  501 -0.00000000000E+00  0.00000000000E+00  0.44372823427E+03  0.44372823428E+03  0.25500000000E-02 0. -1.
          2   -1    0    0  501    0  0.00000000000E+00 -0.00000000000E+00 -0.34296458902E+03  0.34296458903E+03  0.25500000000E-02 0.  1.
   -5000001    1    1    2    0    0 -0.28681881668E+03  0.12175541644E+02 -0.35589394472E+02  0.38233477793E+03  0.25000000000E+03 0.  0.
    5000001    1    1    2    0    0  0.28681881668E+03 -0.12175541644E+02  0.13635303973E+03  0.40435804538E+03  0.25000000000E+03 0.  0.
<mgrwt>
<rscale>  0 0.78021297E+03</rscale>
<asrwt>0</asrwt>
<pdfrwt beam="1">  1        2 0.52763783E-01 0.78021297E+03</pdfrwt>
<pdfrwt beam="2">  1       -2 0.68265882E-01 0.78021297E+03</pdfrwt>
<totfact> 0.18715826E+02</totfact>
</mgrwt>
</event>
<event>
 4    1  0.1755570E-005  0.5051185E+03  0.7818608E-02  0.1012451E+00
          2   -1    0    0  501    0  0.00000000000E+00  0.00000000000E+00  0.17445302913E+04  0.17445302913E+04  0.25500000000E-02 0.  1.
         -2   -1    0    0    0  501 -0.00000000000E+00 -0.00000000000E+00 -0.36563530032E+02  0.36563530121E+02  0.25500000000E-02 0. -1.
   -5000001    1    1    2    0    0  0.27725129248E+02  0.22701559787E+02  0.84882253873E+03  0.88559795950E+03  0.25000000000E+03 0.  0.
    5000001    1    1    2    0    0 -0.27725129248E+02 -0.22701559787E+02  0.85914422256E+03  0.89549586195E+03  0.25000000000E+03 0.  0.
<mgrwt>
<rscale>  0 0.50511854E+03</rscale>
<asrwt>0</asrwt>
<pdfrwt beam="1">  1        2 0.26838930E+00 0.50511854E+03</pdfrwt>
<pdfrwt beam="2">  1       -2 0.56251580E-02 0.50511854E+03</pdfrwt>
<totfact> 0.16349794E+03</totfact>
</mgrwt>
</event>
<event>
 4    1  0.1755570E-005  0.7189992E+03  0.7818608E-02  0.9685282E-01
         -2   -1    0    0    0  501 -0.00000000000E+00  0.00000000000E+00  0.11336828299E+03  0.11336828302E+03  0.25500000000E-02 0. -1.
          2   -1    0    0  501    0  0.00000000000E+00 -0.00000000000E+00 -0.11400009853E+04  0.11400009853E+04  0.25500000000E-02 0.  1.
   -5000001    1    1    2    0    0 -0.11293951226E+03 -0.22376921935E+03 -0.62234677626E+03  0.71599127570E+03  0.25000000000E+03 0.  0.
    5000001    1    1    2    0    0  0.11293951226E+03  0.22376921935E+03 -0.40428592609E+03  0.53737799266E+03  0.25000000000E+03 0.  0.
<mgrwt>
<rscale>  0 0.71899918E+03</rscale>
<asrwt>0</asrwt>
<pdfrwt beam="1">  1        2 0.17538476E+00 0.71899918E+03</pdfrwt>
<pdfrwt beam="2">  1       -2 0.17441275E-01 0.71899918E+03</pdfrwt>
<totfact> 0.56201697E+02</totfact>
</mgrwt>
</event>
<event>
 4    1  0.1755570E-005  0.1248927E+04  0.7818608E-02  0.9071077E-01
          2   -1    0    0  501    0  0.00000000000E+00  0.00000000000E+00  0.13701558975E+04  0.13701558975E+04  0.25500000000E-02 0.  1.
         -2   -1    0    0    0  501 -0.00000000000E+00 -0.00000000000E+00 -0.28460614139E+03  0.28460614140E+03  0.25500000000E-02 0. -1.
   -5000001    1    1    2    0    0  0.12736320021E+02 -0.50966395497E+03  0.88709594433E+03  0.10532610195E+04  0.25000000000E+03 0.  0.
    5000001    1    1    2    0    0 -0.12736320021E+02  0.50966395497E+03  0.19845381174E+03  0.60150101931E+03  0.25000000000E+03 0.  0.
<mgrwt>
<rscale>  0 0.12489272E+04</rscale>
<asrwt>0</asrwt>
<pdfrwt beam="1">  1        2 0.21079322E+00 0.12489272E+04</pdfrwt>
<pdfrwt beam="2">  1       -2 0.43785559E-01 0.12489272E+04</pdfrwt>
<totfact> 0.73200686E+01</totfact>
</mgrwt>
</event>
<event>
 4    1  0.1755570E-005  0.6049909E+03  0.7818608E-02  0.9895105E-01
         -2   -1    0    0    0  501 -0.00000000000E+00  0.00000000000E+00  0.18929309714E+03  0.18929309716E+03  0.25500000000E-02 0. -1.
          2   -1    0    0  501    0  0.00000000000E+00 -0.00000000000E+00 -0.48339586648E+03  0.48339586649E+03  0.25500000000E-02 0.  1.
   -5000001    1    1    2    0    0  0.14116007646E+03 -0.71837198125E+02 -0.77464337868E+02  0.30592069865E+03  0.25000000000E+03 0.  0.
    5000001    1    1    2    0    0 -0.14116007646E+03  0.71837198125E+02 -0.21663843147E+03  0.36676826500E+03  0.25000000000E+03 0.  0.
<mgrwt>
<rscale>  0 0.60499091E+03</rscale>
<asrwt>0</asrwt>
<pdfrwt beam="1">  1        2 0.74368594E-01 0.60499091E+03</pdfrwt>
<pdfrwt beam="2">  1       -2 0.29122015E-01 0.60499091E+03</pdfrwt>
<totfact> 0.69771175E+02</totfact>
</mgrwt>
</event>
<event>
 4    1  0.1755570E-005  0.1112015E+04  0.7818608E-02  0.9193560E-01
          2   -1    0    0  501    0  0.00000000000E+00  0.00000000000E+00  0.10561359659E+04  0.10561359659E+04  0.25500000000E-02 0.  1.
         -2   -1    0    0    0  501 -0.00000000000E+00 -0.00000000000E+00 -0.29271253573E+03  0.29271253575E+03  0.25500000000E-02 0. -1.
   -5000001    1    1    2    0    0 -0.44581865958E+03  0.20389435449E+03  0.28530443839E+03  0.61985950633E+03  0.25000000000E+03 0.  0.
    5000001    1    1    2    0    0  0.44581865958E+03 -0.20389435449E+03  0.47811899180E+03  0.72898899535E+03  0.25000000000E+03 0.  0.
<mgrwt>
<rscale>  0 0.11120148E+04</rscale>
<asrwt>0</asrwt>
<pdfrwt beam="1">  1        2 0.16248246E+00 0.11120148E+04</pdfrwt>
<pdfrwt beam="2">  1       -2 0.45032697E-01 0.11120148E+04</pdfrwt>
<totfact> 0.10759523E+02</totfact>
</mgrwt>
</event>
<event>
 4    1  0.1755570E-005  0.6083817E+03  0.7818608E-02  0.9888168E-01
         -2   -1    0    0    0  501 -0.00000000000E+00  0.00000000000E+00  0.37580267199E+03  0.37580267200E+03  0.25500000000E-02 0.  1.
          2   -1    0    0  501    0  0.00000000000E+00 -0.00000000000E+00 -0.24622512059E+03  0.24622512060E+03  0.25500000000E-02 0. -1.
   -5000001    1    1    2    0    0 -0.10231590372E+03  0.13971846163E+03  0.58141755635E+02  0.30962922411E+03  0.25000000000E+03 0.  0.
    5000001    1    1    2    0    0  0.10231590372E+03 -0.13971846163E+03  0.71435795765E+02  0.31239856848E+03  0.25000000000E+03 0.  0.
<mgrwt>
<rscale>  0 0.60838165E+03</rscale>
<asrwt>0</asrwt>
<pdfrwt beam="1">  1        2 0.37880788E-01 0.60838165E+03</pdfrwt>
<pdfrwt beam="2">  1       -2 0.57815796E-01 0.60838165E+03</pdfrwt>
<totfact> 0.38706434E+02</totfact>
</mgrwt>
</event>
<event>
 4    1  0.1755570E-005  0.1031389E+04  0.7818608E-02  0.9274772E-01
         -2   -1    0    0    0  501 -0.00000000000E+00  0.00000000000E+00  0.29794400301E+03  0.29794400302E+03  0.25500000000E-02 0. -1.
          2   -1    0    0  501    0  0.00000000000E+00 -0.00000000000E+00 -0.89258660223E+03  0.89258660223E+03  0.25500000000E-02 0.  1.
   -5000001    1    1    2    0    0  0.77677976419E+02 -0.39472174434E+03 -0.61884898147E+02  0.47767024619E+03  0.25000000000E+03 0.  0.
    5000001    1    1    2    0    0 -0.77677976419E+02  0.39472174434E+03 -0.53275770107E+03  0.71286035906E+03  0.25000000000E+03 0.  0.
<mgrwt>
<rscale>  0 0.10313890E+04</rscale>
<asrwt>0</asrwt>
<pdfrwt beam="1">  1        2 0.13732101E+00 0.10313890E+04</pdfrwt>
<pdfrwt beam="2">  1       -2 0.45837539E-01 0.10313890E+04</pdfrwt>
<totfact> 0.13338808E+02</totfact>
</mgrwt>
</event>
<event>
 4    1  0.1755570E-005  0.5497250E+03  0.7818608E-02  0.1001558E+00
          2   -1    0    0  501    0  0.00000000000E+00  0.00000000000E+00  0.56367072814E+03  0.56367072815E+03  0.25500000000E-02 0.  1.
         -2   -1    0    0    0  501 -0.00000000000E+00 -0.00000000000E+00 -0.13403105515E+03  0.13403105517E+03  0.25500000000E-02 0. -1.
   -5000001    1    1    2    0    0 -0.10497745443E+03 -0.34441829257E+02  0.17797246957E+03  0.32616055167E+03  0.25000000000E+03 0.  0.
    5000001    1    1    2    0    0  0.10497745443E+03  0.34441829257E+02  0.25166720342E+03  0.37154123165E+03  0.25000000000E+03 0.  0.
<mgrwt>
<rscale>  0 0.54972496E+03</rscale>
<asrwt>0</asrwt>
<pdfrwt beam="1">  1        2 0.86718573E-01 0.54972496E+03</pdfrwt>
<pdfrwt beam="2">  1       -2 0.20620162E-01 0.54972496E+03</pdfrwt>
<totfact> 0.10840880E+03</totfact>
</mgrwt>
</event>
<event>
 4    1  0.1755570E-005  0.7937898E+03  0.7818608E-02  0.9569050E-01
          2   -1    0    0  501    0  0.00000000000E+00  0.00000000000E+00  0.12151064675E+03  0.12151064678E+03  0.25500000000E-02 0.  1.
         -2   -1    0    0    0  501 -0.00000000000E+00 -0.00000000000E+00 -0.12963930608E+04  0.12963930608E+04  0.25500000000E-02 0. -1.
   -5000001    1    1    2    0    0  0.12887638519E+03  0.18252985014E+03 -0.96677897264E+03  0.10232731067E+04  0.25000000000E+03 0.  0.
    5000001    1    1    2    0    0 -0.12887638519E+03 -0.18252985014E+03 -0.20810344136E+03  0.39463060089E+03  0.25000000000E+03 0.  0.
<mgrwt>
<rscale>  0 0.79378979E+03</rscale>
<asrwt>0</asrwt>
<pdfrwt beam="1">  1        2 0.18693947E-01 0.79378979E+03</pdfrwt>
<pdfrwt beam="2">  1       -2 0.19944508E+00 0.79378979E+03</pdfrwt>
<totfact> 0.41865116E+01</totfact>
</mgrwt>
</event>
<event>
 4    1  0.1755570E-005  0.8972456E+03  0.7818608E-02  0.9429031E-01
         -2   -1    0    0    0  501 -0.00000000000E+00  0.00000000000E+00  0.11541260803E+04  0.11541260803E+04  0.25500000000E-02 0. -1.
          2   -1    0    0  501    0  0.00000000000E+00 -0.00000000000E+00 -0.17438510918E+03  0.17438510919E+03  0.25500000000E-02 0.  1.
   -5000001    1    1    2    0    0 -0.30393880926E+03 -0.16002646797E+03  0.70328590467E+03  0.82164367821E+03  0.25000000000E+03 0.  0.
    5000001    1    1    2    0    0  0.30393880926E+03  0.16002646797E+03  0.27645506644E+03  0.50686751128E+03  0.25000000000E+03 0.  0.
<mgrwt>
<rscale>  0 0.89724557E+03</rscale>
<asrwt>0</asrwt>
<pdfrwt beam="1">  1        2 0.26828478E-01 0.89724557E+03</pdfrwt>
<pdfrwt beam="2">  1       -2 0.17755786E+00 0.89724557E+03</pdfrwt>
<totfact> 0.38292483E+01</totfact>
</mgrwt>
</event>
<event>
 4    1  0.1755570E-005  0.6079071E+03  0.7818608E-02  0.9889136E-01
         -2   -1    0    0    0  501 -0.00000000000E+00  0.00000000000E+00  0.28984562339E+03  0.28984562340E+03  0.25500000000E-02 0. -1.
          2   -1    0    0  501    0  0.00000000000E+00 -0.00000000000E+00 -0.31874811848E+03  0.31874811849E+03  0.25500000000E-02 0.  1.
   -5000001    1    1    2    0    0 -0.15869647954E+03  0.66387846360E+02  0.27678423507E+01  0.30347912566E+03  0.25000000000E+03 0.  0.
    5000001    1    1    2    0    0  0.15869647954E+03 -0.66387846360E+02 -0.31670337442E+02  0.30511461623E+03  0.25000000000E+03 0.  0.
<mgrwt>
<rscale>  0 0.60790706E+03</rscale>
<asrwt>0</asrwt>
<pdfrwt beam="1">  1        2 0.49038172E-01 0.60790706E+03</pdfrwt>
<pdfrwt beam="2">  1       -2 0.44591635E-01 0.60790706E+03</pdfrwt>
<totfact> 0.49347049E+02</totfact>
</mgrwt>
</event>
<event>
 4    1  0.1755570E-005  0.7846460E+03  0.7818608E-02  0.9582511E-01
          2   -1    0    0  501    0  0.00000000000E+00  0.00000000000E+00  0.13748638727E+04  0.13748638727E+04  0.25500000000E-02 0.  1.
         -2   -1    0    0    0  501 -0.00000000000E+00 -0.00000000000E+00 -0.11195097387E+03  0.11195097390E+03  0.25500000000E-02 0. -1.
   -5000001    1    1    2    0    0  0.14438478840E+03 -0.18234562475E+03  0.99752007219E+03  0.10543449096E+04  0.25000000000E+03 0.  0.
    5000001    1    1    2    0    0 -0.14438478840E+03  0.18234562475E+03  0.26539282666E+03  0.43246993702E+03  0.25000000000E+03 0.  0.
<mgrwt>
<rscale>  0 0.78464603E+03</rscale>
<asrwt>0</asrwt>
<pdfrwt beam="1">  1        2 0.21151754E+00 0.78464603E+03</pdfrwt>
<pdfrwt beam="2">  1       -2 0.17223225E-01 0.78464603E+03</pdfrwt>
<totfact> 0.41754361E+02</totfact>
</mgrwt>
</event>
<event>
 4    1  0.1755570E-005  0.8006980E+03  0.7818608E-02  0.9559007E-01
          2   -1    0    0  501    0  0.00000000000E+00  0.00000000000E+00  0.30859776730E+03  0.30859776731E+03  0.25500000000E-02 0.  1.
         -2   -1    0    0    0  501 -0.00000000000E+00 -0.00000000000E+00 -0.51937936359E+03  0.51937936360E+03  0.25500000000E-02 0. -1.
   -5000001    1    1    2    0    0 -0.18296102449E+03 -0.22905826177E+03  0.71133108400E+01  0.38534792455E+03  0.25000000000E+03 0.  0.
    5000001    1    1    2    0    0  0.18296102449E+03  0.22905826177E+03 -0.21789490713E+03  0.44262920636E+03  0.25000000000E+03 0.  0.
<mgrwt>
<rscale>  0 0.80069798E+03</rscale>
<asrwt>0</asrwt>
<pdfrwt beam="1">  1        2 0.47476580E-01 0.80069798E+03</pdfrwt>
<pdfrwt beam="2">  1       -2 0.79904517E-01 0.80069798E+03</pdfrwt>
<totfact> 0.14856474E+02</totfact>
</mgrwt>
</event>
<event>
 4    1  0.1755570E-005  0.5917454E+03  0.7818608E-02  0.9922681E-01
         -2   -1    0    0    0  501 -0.00000000000E+00  0.00000000000E+00  0.97624336165E+02  0.97624336198E+02  0.25500000000E-02 0. -1.
          2   -1    0    0  501    0  0.00000000000E+00 -0.00000000000E+00 -0.89670922460E+03  0.89670922460E+03  0.25500000000E-02 0.  1.
   -5000001    1    1    2    0    0 -0.10395925076E+03  0.17559230223E+01 -0.59998973985E+03  0.65825397607E+03  0.25000000000E+03 0.  0.
    5000001    1    1    2    0    0  0.10395925076E+03 -0.17559230223E+01 -0.19909514859E+03  0.33607958474E+03  0.25000000000E+03 0.  0.
<mgrwt>
<rscale>  0 0.59174536E+03</rscale>
<asrwt>0</asrwt>
<pdfrwt beam="1">  1        2 0.13795526E+00 0.59174536E+03</pdfrwt>
<pdfrwt beam="2">  1       -2 0.15019129E-01 0.59174536E+03</pdfrwt>
<totfact> 0.10369815E+03</totfact>
</mgrwt>
</event>
<event>
 4    1  0.1755570E-005  0.7590355E+03  0.7818608E-02  0.9621281E-01
          2   -1    0    0  501    0  0.00000000000E+00  0.00000000000E+00  0.17784913121E+04  0.17784913121E+04  0.25500000000E-02 0.  1.
         -2   -1    0    0    0  501 -0.00000000000E+00 -0.00000000000E+00 -0.80986471920E+02  0.80986471960E+02  0.25500000000E-02 0. -1.
   -5000001    1    1    2    0    0  0.16059206323E+03  0.21287360002E+03  0.10989281327E+04  0.11581226279E+04  0.25000000000E+03 0.  0.
    5000001    1    1    2    0    0 -0.16059206323E+03 -0.21287360002E+03  0.59857670739E+03  0.70135515610E+03  0.25000000000E+03 0.  0.
<mgrwt>
<rscale>  0 0.75903554E+03</rscale>
<asrwt>0</asrwt>
<pdfrwt beam="1">  1        2 0.27361404E+00 0.75903554E+03</pdfrwt>
<pdfrwt beam="2">  1       -2 0.12459457E-01 0.75903554E+03</pdfrwt>
<totfact> 0.43161482E+02</totfact>
</mgrwt>
</event>
<event>
 4    1  0.1755570E-005  0.8462088E+03  0.7818608E-02  0.9495440E-01
          2   -1    0    0  501    0  0.00000000000E+00  0.00000000000E+00  0.46405003298E+03  0.46405003299E+03  0.25500000000E-02 0. -1.
         -2   -1    0    0    0  501 -0.00000000000E+00 -0.00000000000E+00 -0.38577161566E+03  0.38577161567E+03  0.25500000000E-02 0.  1.
   -5000001    1    1    2    0    0 -0.10257885959E+03  0.32256753902E+03  0.83430694796E+02  0.42899058323E+03  0.25000000000E+03 0.  0.
    5000001    1    1    2    0    0  0.10257885959E+03 -0.32256753902E+03 -0.51522774753E+01  0.42083106543E+03  0.25000000000E+03 0.  0.
<mgrwt>
<rscale>  0 0.84620879E+03</rscale>
<asrwt>0</asrwt>
<pdfrwt beam="1">  1        2 0.71392313E-01 0.84620879E+03</pdfrwt>
<pdfrwt beam="2">  1       -2 0.59349479E-01 0.84620879E+03</pdfrwt>
<totfact> 0.17901009E+02</totfact>
</mgrwt>
</event>
<event>
 4    1  0.1755570E-005  0.8177103E+03  0.7818608E-02  0.9534730E-01
          2   -1    0    0  501    0  0.00000000000E+00  0.00000000000E+00  0.33203258685E+03  0.33203258686E+03  0.25500000000E-02 0.  1.
         -2   -1    0    0    0  501 -0.00000000000E+00 -0.00000000000E+00 -0.50345218106E+03  0.50345218106E+03  0.25500000000E-02 0. -1.
   -5000001    1    1    2    0    0 -0.22313922769E+03  0.42354093766E+02  0.14968371574E+03  0.36944579975E+03  0.25000000000E+03 0.  0.
    5000001    1    1    2    0    0  0.22313922769E+03 -0.42354093766E+02 -0.32110330995E+03  0.46603896817E+03  0.25000000000E+03 0.  0.
<mgrwt>
<rscale>  0 0.81771029E+03</rscale>
<asrwt>0</asrwt>
<pdfrwt beam="1">  1        2 0.51081936E-01 0.81771029E+03</pdfrwt>
<pdfrwt beam="2">  1       -2 0.77454182E-01 0.81771029E+03</pdfrwt>
<totfact> 0.14673282E+02</totfact>
</mgrwt>
</event>
<event>
 4    1  0.1755570E-005  0.8725247E+03  0.7818608E-02  0.9460594E-01
         -2   -1    0    0    0  501 -0.00000000000E+00  0.00000000000E+00  0.40124023896E+03  0.40124023897E+03  0.25500000000E-02 0. -1.
          2   -1    0    0  501    0  0.00000000000E+00 -0.00000000000E+00 -0.47434133381E+03  0.47434133382E+03  0.25500000000E-02 0.  1.
   -5000001    1    1    2    0    0 -0.43035942185E+02  0.34600222776E+03  0.42816342065E+02  0.43116455453E+03  0.25000000000E+03 0.  0.
    5000001    1    1    2    0    0  0.43035942185E+02 -0.34600222776E+03 -0.11591743692E+03  0.44441701826E+03  0.25000000000E+03 0.  0.
<mgrwt>
<rscale>  0 0.87252468E+03</rscale>
<asrwt>0</asrwt>
<pdfrwt beam="1">  1        2 0.72975590E-01 0.87252468E+03</pdfrwt>
<pdfrwt beam="2">  1       -2 0.61729267E-01 0.87252468E+03</pdfrwt>
<totfact> 0.16042499E+02</totfact>
</mgrwt>
</event>
<event>
 4    1  0.1755570E-005  0.7726247E+03  0.7818608E-02  0.9600509E-01
          2   -1    0    0  501    0  0.00000000000E+00  0.00000000000E+00  0.48275662492E+03  0.48275662492E+03  0.25500000000E-02 0.  1.
         -2   -1    0    0    0  501 -0.00000000000E+00 -0.00000000000E+00 -0.30913557364E+03  0.30913557365E+03  0.25500000000E-02 0. -1.
   -5000001    1    1    2    0    0  0.18812806712E+03 -0.17623993591E+03  0.23278612522E+03  0.42795100741E+03  0.25000000000E+03 0.  0.
    5000001    1    1    2    0    0 -0.18812806712E+03  0.17623993591E+03 -0.59165073938E+02  0.36394119116E+03  0.25000000000E+03 0.  0.
<mgrwt>
<rscale>  0 0.77262474E+03</rscale>
<asrwt>0</asrwt>
<pdfrwt beam="1">  1        2 0.74270250E-01 0.77262474E+03</pdfrwt>
<pdfrwt beam="2">  1       -2 0.47559319E-01 0.77262474E+03</pdfrwt>
<totfact> 0.27077944E+02</totfact>
</mgrwt>
</event>
<event>
 4    1  0.1755570E-005  0.6582916E+03  0.7818608E-02  0.9791344E-01
         -2   -1    0    0    0  501 -0.00000000000E+00  0.00000000000E+00  0.28111871778E+03  0.28111871779E+03  0.25500000000E-02 0. -1.
          2   -1    0    0  501    0  0.00000000000E+00 -0.00000000000E+00 -0.38537791435E+03  0.38537791435E+03  0.25500000000E-02 0.  1.
   -5000001    1    1    2    0    0 -0.16838230196E+03  0.12639394252E+03 -0.91458545590E+02  0.33940049187E+03  0.25000000000E+03 0.  0.
    5000001    1    1    2    0    0  0.16838230196E+03 -0.12639394252E+03 -0.12800650977E+02  0.32709614028E+03  0.25000000000E+03 0.  0.
<mgrwt>
<rscale>  0 0.65829156E+03</rscale>
<asrwt>0</asrwt>
<pdfrwt beam="1">  1        2 0.59288910E-01 0.65829156E+03</pdfrwt>
<pdfrwt beam="2">  1       -2 0.43249034E-01 0.65829156E+03</pdfrwt>
<totfact> 0.42402611E+02</totfact>
</mgrwt>
</event>
<event>
 4    1  0.1755570E-005  0.8640940E+03  0.7818608E-02  0.9471613E-01
          2   -1    0    0  501    0  0.00000000000E+00  0.00000000000E+00  0.44277381059E+04  0.44277381059E+04  0.25500000000E-02 0.  1.
         -2   -1    0    0    0  501 -0.00000000000E+00 -0.00000000000E+00 -0.42158003929E+02  0.42158004006E+02  0.25500000000E-02 0. -1.
   -5000001    1    1    2    0    0  0.24430724602E+03  0.10117488918E+03  0.33975628309E+04  0.34169951095E+04  0.25000000000E+03 0.  0.
    5000001    1    1    2    0    0 -0.24430724602E+03 -0.10117488918E+03  0.98801727114E+03  0.10529010004E+04  0.25000000000E+03 0.  0.
<mgrwt>
<rscale>  0 0.86409398E+03</rscale>
<asrwt>0</asrwt>
<pdfrwt beam="1">  1        2 0.68119054E+00 0.86409398E+03</pdfrwt>
<pdfrwt beam="2">  1       -2 0.64858462E-02 0.86409398E+03</pdfrwt>
<totfact> 0.21917346E+01</totfact>
</mgrwt>
</event>
<event>
 4    1  0.1755570E-005  0.1842953E+04  0.7818608E-02  0.8683785E-01
         -2   -1    0    0    0  501 -0.00000000000E+00  0.00000000000E+00  0.16103766038E+04  0.16103766038E+04  0.25500000000E-02 0. -1.
          2   -1    0    0  501    0  0.00000000000E+00 -0.00000000000E+00 -0.52727971043E+03  0.52727971043E+03  0.25500000000E-02 0.  1.
   -5000001    1    1    2    0    0  0.64536401451E+03 -0.28777104895E+03 -0.80179699880E+02  0.75381408326E+03  0.25000000000E+03 0.  0.
    5000001    1    1    2    0    0 -0.64536401451E+03  0.28777104895E+03  0.11632765933E+04  0.13838422310E+04  0.25000000000E+03 0.  0.
<mgrwt>
<rscale>  0 0.18429530E+04</rscale>
<asrwt>0</asrwt>
<pdfrwt beam="1">  1        2 0.81119956E-01 0.18429530E+04</pdfrwt>
<pdfrwt beam="2">  1       -2 0.24775025E+00 0.18429530E+04</pdfrwt>
<totfact> 0.36114045E+00</totfact>
</mgrwt>
</event>
<event>
 4    1  0.1755570E-005  0.5958705E+03  0.7818608E-02  0.9914011E-01
          2   -1    0    0  501    0  0.00000000000E+00  0.00000000000E+00  0.11716950873E+04  0.11716950873E+04  0.25500000000E-02 0.  1.
         -2   -1    0    0    0  501 -0.00000000000E+00 -0.00000000000E+00 -0.75758116887E+02  0.75758116930E+02  0.25500000000E-02 0. -1.
   -5000001    1    1    2    0    0 -0.93654228748E+02  0.11081919683E+03  0.39680980660E+03  0.49092772539E+03  0.25000000000E+03 0.  0.
    5000001    1    1    2    0    0  0.93654228748E+02 -0.11081919683E+03  0.69912716383E+03  0.75652547885E+03  0.25000000000E+03 0.  0.
<mgrwt>
<rscale>  0 0.59587050E+03</rscale>
<asrwt>0</asrwt>
<pdfrwt beam="1">  1        2 0.18026077E+00 0.59587050E+03</pdfrwt>
<pdfrwt beam="2">  1       -2 0.11655096E-01 0.59587050E+03</pdfrwt>
<totfact> 0.10637343E+03</totfact>
</mgrwt>
</event>
<event>
 4    1  0.1755570E-005  0.5729137E+03  0.7818608E-02  0.9963252E-01
         -2   -1    0    0    0  501 -0.00000000000E+00  0.00000000000E+00  0.51733422276E+02  0.51733422339E+02  0.25500000000E-02 0. -1.
          2   -1    0    0  501    0  0.00000000000E+00 -0.00000000000E+00 -0.15861606142E+04  0.15861606142E+04  0.25500000000E-02 0.  1.
   -5000001    1    1    2    0    0  0.78936854078E+02  0.96878893095E+02 -0.58774098231E+03  0.65081180778E+03  0.25000000000E+03 0.  0.
    5000001    1    1    2    0    0 -0.78936854078E+02 -0.96878893095E+02 -0.94668620957E+03  0.98708222872E+03  0.25000000000E+03 0.  0.
<mgrwt>
<rscale>  0 0.57291367E+03</rscale>
<asrwt>0</asrwt>
<pdfrwt beam="1">  1        2 0.24402467E+00 0.57291367E+03</pdfrwt>
<pdfrwt beam="2">  1       -2 0.79589892E-02 0.57291367E+03</pdfrwt>
<totfact> 0.11506621E+03</totfact>
</mgrwt>
</event>
<event>
 4    1  0.1755570E-005  0.7111321E+03  0.7818608E-02  0.9698382E-01
         -2   -1    0    0    0  501 -0.00000000000E+00  0.00000000000E+00  0.31462274141E+03  0.31462274142E+03  0.25500000000E-02 0. -1.
          2   -1    0    0  501    0  0.00000000000E+00 -0.00000000000E+00 -0.40183749394E+03  0.40183749395E+03  0.25500000000E-02 0.  1.
   -5000001    1    1    2    0    0  0.18518852590E+03 -0.11180519166E+03 -0.17547741557E+03  0.37428266642E+03  0.25000000000E+03 0.  0.
    5000001    1    1    2    0    0 -0.18518852590E+03  0.11180519166E+03  0.88262663035E+02  0.34217756895E+03  0.25000000000E+03 0.  0.
<mgrwt>
<rscale>  0 0.71113209E+03</rscale>
<asrwt>0</asrwt>
<pdfrwt beam="1">  1        2 0.61821153E-01 0.71113209E+03</pdfrwt>
<pdfrwt beam="2">  1       -2 0.48403499E-01 0.71113209E+03</pdfrwt>
<totfact> 0.32267576E+02</totfact>
</mgrwt>
</event>
<event>
 4    1  0.1755570E-005  0.1560945E+04  0.7818608E-02  0.8844907E-01
         -2   -1    0    0    0  501 -0.00000000000E+00  0.00000000000E+00  0.43998279712E+03  0.43998279713E+03  0.25500000000E-02 0. -1.
          2   -1    0    0  501    0  0.00000000000E+00 -0.00000000000E+00 -0.13844573750E+04  0.13844573750E+04  0.25500000000E-02 0.  1.
   -5000001    1    1    2    0    0 -0.26425310233E+03  0.46927937845E+03  0.11981119579E+03  0.60572894909E+03  0.25000000000E+03 0.  0.
    5000001    1    1    2    0    0  0.26425310233E+03 -0.46927937845E+03 -0.10642857737E+04  0.12187112231E+04  0.25000000000E+03 0.  0.
<mgrwt>
<rscale>  0 0.15609451E+04</rscale>
<asrwt>0</asrwt>
<pdfrwt beam="1">  1        2 0.21299344E+00 0.15609451E+04</pdfrwt>
<pdfrwt beam="2">  1       -2 0.67689662E-01 0.15609451E+04</pdfrwt>
<totfact> 0.28410788E+01</totfact>
</mgrwt>
</event>
<event>
 4    1  0.1755570E-005  0.9356010E+03  0.7818608E-02  0.9382141E-01
          2   -1    0    0  501    0  0.00000000000E+00  0.00000000000E+00  0.19441235038E+04  0.19441235038E+04  0.25500000000E-02 0.  1.
         -2   -1    0    0    0  501 -0.00000000000E+00 -0.00000000000E+00 -0.11256346948E+03  0.11256346951E+03  0.25500000000E-02 0. -1.
   -5000001    1    1    2    0    0  0.24809072328E+03 -0.26863212262E+02  0.24156973086E+03  0.42793290831E+03  0.25000000000E+03 0.  0.
    5000001    1    1    2    0    0 -0.24809072328E+03  0.26863212262E+02  0.15899903034E+04  0.16287540650E+04  0.25000000000E+03 0.  0.
<mgrwt>
<rscale>  0 0.93560095E+03</rscale>
<asrwt>0</asrwt>
<pdfrwt beam="1">  1        2 0.29909588E+00 0.93560095E+03</pdfrwt>
<pdfrwt beam="2">  1       -2 0.17317460E-01 0.93560095E+03</pdfrwt>
<totfact> 0.19830265E+02</totfact>
</mgrwt>
</event>
<event>
 4    1  0.1755570E-005  0.8287661E+03  0.7818608E-02  0.9519288E-01
         -2   -1    0    0    0  501 -0.00000000000E+00  0.00000000000E+00  0.22340986431E+03  0.22340986432E+03  0.25500000000E-02 0. -1.
          2   -1    0    0  501    0  0.00000000000E+00 -0.00000000000E+00 -0.76860219031E+03  0.76860219031E+03  0.25500000000E-02 0.  1.
   -5000001    1    1    2    0    0  0.42001762103E+02  0.29463854683E+03 -0.44454977528E+03  0.59050869934E+03  0.25000000000E+03 0.  0.
    5000001    1    1    2    0    0 -0.42001762103E+02 -0.29463854683E+03 -0.10064255072E+03  0.40150335530E+03  0.25000000000E+03 0.  0.
<mgrwt>
<rscale>  0 0.82876610E+03</rscale>
<asrwt>0</asrwt>
<pdfrwt beam="1">  1        2 0.11824649E+00 0.82876610E+03</pdfrwt>
<pdfrwt beam="2">  1       -2 0.34370749E-01 0.82876610E+03</pdfrwt>
<totfact> 0.28925777E+02</totfact>
</mgrwt>
</event>
<event>
 4    1  0.1755570E-005  0.7935901E+03  0.7818608E-02  0.9569342E-01
         -2   -1    0    0    0  501 -0.00000000000E+00  0.00000000000E+00  0.59983233732E+02  0.59983233786E+02  0.25500000000E-02 0. -1.
          2   -1    0    0  501    0  0.00000000000E+00 -0.00000000000E+00 -0.26248386953E+04  0.26248386953E+04  0.25500000000E-02 0.  1.
   -5000001    1    1    2    0    0 -0.25264592867E+03  0.55012505576E+02 -0.71541227605E+03  0.80073158160E+03  0.25000000000E+03 0.  0.
    5000001    1    1    2    0    0  0.25264592867E+03 -0.55012505576E+02 -0.18494431855E+04  0.18840903474E+04  0.25000000000E+03 0.  0.
<mgrwt>
<rscale>  0 0.79359010E+03</rscale>
<asrwt>0</asrwt>
<pdfrwt beam="1">  1        2 0.40382125E+00 0.79359010E+03</pdfrwt>
<pdfrwt beam="2">  1       -2 0.92281919E-02 0.79359010E+03</pdfrwt>
<totfact> 0.23872783E+02</totfact>
</mgrwt>
</event>
<event>
 4    1  0.1755570E-005  0.7301343E+03  0.7818608E-02  0.9667043E-01
          2   -1    0    0  501    0  0.00000000000E+00  0.00000000000E+00  0.99255249018E+03  0.99255249019E+03  0.25500000000E-02 0.  1.
         -2   -1    0    0    0  501 -0.00000000000E+00 -0.00000000000E+00 -0.13427401467E+03  0.13427401469E+03  0.25500000000E-02 0. -1.
   -5000001    1    1    2    0    0 -0.75424135893E+02 -0.25449104898E+03  0.45672587974E+03  0.58442537891E+03  0.25000000000E+03 0.  0.
    5000001    1    1    2    0    0  0.75424135893E+02  0.25449104898E+03  0.40155259577E+03  0.54240112598E+03  0.25000000000E+03 0.  0.
<mgrwt>
<rscale>  0 0.73013426E+03</rscale>
<asrwt>0</asrwt>
<pdfrwt beam="1">  1        2 0.15270039E+00 0.73013426E+03</pdfrwt>
<pdfrwt beam="2">  1       -2 0.20657540E-01 0.73013426E+03</pdfrwt>
<totfact> 0.51669415E+02</totfact>
</mgrwt>
</event>
<event>
 4    1  0.1755570E-005  0.6650331E+03  0.7818608E-02  0.9778972E-01
         -2   -1    0    0    0  501 -0.00000000000E+00  0.00000000000E+00  0.45465755279E+02  0.45465755351E+02  0.25500000000E-02 0. -1.
          2   -1    0    0  501    0  0.00000000000E+00 -0.00000000000E+00 -0.24318799541E+04  0.24318799541E+04  0.25500000000E-02 0.  1.
   -5000001    1    1    2    0    0  0.14605048561E+03 -0.14624714385E+03 -0.14656344594E+04  0.15011007095E+04  0.25000000000E+03 0.  0.
    5000001    1    1    2    0    0 -0.14605048561E+03  0.14624714385E+03 -0.92077973934E+03  0.97624499989E+03  0.25000000000E+03 0.  0.
<mgrwt>
<rscale>  0 0.66503311E+03</rscale>
<asrwt>0</asrwt>
<pdfrwt beam="1">  1        2 0.37413528E+00 0.66503311E+03</pdfrwt>
<pdfrwt beam="2">  1       -2 0.69947335E-02 0.66503311E+03</pdfrwt>
<totfact> 0.48462065E+02</totfact>
</mgrwt>
</event>
<event>
 4    1  0.1755570E-005  0.9293356E+03  0.7818608E-02  0.9389636E-01
         -2   -1    0    0    0  501 -0.00000000000E+00  0.00000000000E+00  0.26639458549E+03  0.26639458550E+03  0.25500000000E-02 0. -1.
          2   -1    0    0  501    0  0.00000000000E+00 -0.00000000000E+00 -0.81051264767E+03  0.81051264767E+03  0.25500000000E-02 0.  1.
   -5000001    1    1    2    0    0 -0.24060597716E+03 -0.29150564289E+03 -0.15303910372E+03  0.47831761764E+03  0.25000000000E+03 0.  0.
    5000001    1    1    2    0    0  0.24060597716E+03  0.29150564289E+03 -0.39107895845E+03  0.59858961553E+03  0.25000000000E+03 0.  0.
<mgrwt>
<rscale>  0 0.92933564E+03</rscale>
<asrwt>0</asrwt>
<pdfrwt beam="1">  1        2 0.12469425E+00 0.92933564E+03</pdfrwt>
<pdfrwt beam="2">  1       -2 0.40983783E-01 0.92933564E+03</pdfrwt>
<totfact> 0.19107325E+02</totfact>
</mgrwt>
</event>
<event>
 4    1  0.1755570E-005  0.1101816E+04  0.7818608E-02  0.9203424E-01
          2   -1    0    0  501    0  0.00000000000E+00  0.00000000000E+00  0.92834645308E+03  0.92834645309E+03  0.25500000000E-02 0.  1.
         -2   -1    0    0    0  501 -0.00000000000E+00 -0.00000000000E+00 -0.32692467013E+03  0.32692467014E+03  0.25500000000E-02 0. -1.
   -5000001    1    1    2    0    0  0.45402619294E+02  0.29267579134E+03 -0.14532495048E+03  0.41393218999E+03  0.25000000000E+03 0.  0.
    5000001    1    1    2    0    0 -0.45402619294E+02 -0.29267579134E+03  0.74674673344E+03  0.84133893324E+03  0.25000000000E+03 0.  0.
<mgrwt>
<rscale>  0 0.11018155E+04</rscale>
<asrwt>0</asrwt>
<pdfrwt beam="1">  1        2 0.14282253E+00 0.11018155E+04</pdfrwt>
<pdfrwt beam="2">  1       -2 0.50296104E-01 0.11018155E+04</pdfrwt>
<totfact> 0.10414905E+02</totfact>
</mgrwt>
</event>
<event>
 4    1  0.1755570E-005  0.7358565E+03  0.7818608E-02  0.9657804E-01
         -2   -1    0    0    0  501 -0.00000000000E+00  0.00000000000E+00  0.73104080480E+02  0.73104080524E+02  0.25500000000E-02 0. -1.
          2   -1    0    0  501    0  0.00000000000E+00 -0.00000000000E+00 -0.18517596653E+04  0.18517596653E+04  0.25500000000E-02 0.  1.
   -5000001    1    1    2    0    0 -0.23209517624E+03  0.11835547732E+03 -0.70445434992E+03  0.79160098595E+03  0.25000000000E+03 0.  0.
    5000001    1    1    2    0    0  0.23209517624E+03 -0.11835547732E+03 -0.10742012349E+04  0.11332627598E+04  0.25000000000E+03 0.  0.
<mgrwt>
<rscale>  0 0.73585647E+03</rscale>
<asrwt>0</asrwt>
<pdfrwt beam="1">  1        2 0.28488607E+00 0.73585647E+03</pdfrwt>
<pdfrwt beam="2">  1       -2 0.11246783E-01 0.73585647E+03</pdfrwt>
<totfact> 0.46695595E+02</totfact>
</mgrwt>
</event>
<event>
 4    1  0.1755570E-005  0.6433187E+03  0.7818608E-02  0.9819398E-01
          2   -1    0    0  501    0  0.00000000000E+00  0.00000000000E+00  0.17265972970E+04  0.17265972970E+04  0.25500000000E-02 0.  1.
         -2   -1    0    0    0  501 -0.00000000000E+00 -0.00000000000E+00 -0.59924066202E+02  0.59924066256E+02  0.25500000000E-02 0. -1.
   -5000001    1    1    2    0    0 -0.37987586853E+02  0.16548407425E+03  0.11392738063E+04  0.11786741880E+04  0.25000000000E+03 0.  0.
    5000001    1    1    2    0    0  0.37987586853E+02 -0.16548407425E+03  0.52739942449E+03  0.60784717532E+03  0.25000000000E+03 0.  0.
<mgrwt>
<rscale>  0 0.64331868E+03</rscale>
<asrwt>0</asrwt>
<pdfrwt beam="1">  1        2 0.26563033E+00 0.64331868E+03</pdfrwt>
<pdfrwt beam="2">  1       -2 0.92190880E-02 0.64331868E+03</pdfrwt>
<totfact> 0.75946593E+02</totfact>
</mgrwt>
</event>
<event>
 4    1  0.1755570E-005  0.5716229E+03  0.7818608E-02  0.9966094E-01
         -2   -1    0    0    0  501 -0.00000000000E+00  0.00000000000E+00  0.23832180558E+03  0.23832180559E+03  0.25500000000E-02 0. -1.
          2   -1    0    0  501    0  0.00000000000E+00 -0.00000000000E+00 -0.34276414992E+03  0.34276414993E+03  0.25500000000E-02 0.  1.
   -5000001    1    1    2    0    0 -0.98443784567E+02 -0.17829812192E+02  0.45172471791E+02  0.27303778700E+03  0.25000000000E+03 0.  0.
    5000001    1    1    2    0    0  0.98443784567E+02  0.17829812192E+02 -0.14961481613E+03  0.30804816852E+03  0.25000000000E+03 0.  0.
<mgrwt>
<rscale>  0 0.57162285E+03</rscale>
<asrwt>0</asrwt>
<pdfrwt beam="1">  1        2 0.52732947E-01 0.57162285E+03</pdfrwt>
<pdfrwt beam="2">  1       -2 0.36664893E-01 0.57162285E+03</pdfrwt>
<totfact> 0.66680631E+02</totfact>
</mgrwt>
</event>
<event>
 4    1  0.1755570E-005  0.6693516E+03  0.7818608E-02  0.9771130E-01
         -2   -1    0    0    0  501 -0.00000000000E+00  0.00000000000E+00  0.30750598345E+03  0.30750598346E+03  0.25500000000E-02 0. -1.
          2   -1    0    0  501    0  0.00000000000E+00 -0.00000000000E+00 -0.36424620633E+03  0.36424620634E+03  0.25500000000E-02 0.  1.
   -5000001    1    1    2    0    0 -0.13098831232E+03  0.54626350833E+02  0.14360933064E+03  0.32134967872E+03  0.25000000000E+03 0.  0.
    5000001    1    1    2    0    0  0.13098831232E+03 -0.54626350833E+02 -0.20034955352E+03  0.35040251107E+03  0.25000000000E+03 0.  0.
<mgrwt>
<rscale>  0 0.66935159E+03</rscale>
<asrwt>0</asrwt>
<pdfrwt beam="1">  1        2 0.56037878E-01 0.66935159E+03</pdfrwt>
<pdfrwt beam="2">  1       -2 0.47308613E-01 0.66935159E+03</pdfrwt>
<totfact> 0.37759907E+02</totfact>
</mgrwt>
</event>
<event>
 4    1  0.1755570E-005  0.7263203E+03  0.7818608E-02  0.9673250E-01
         -2   -1    0    0    0  501 -0.00000000000E+00  0.00000000000E+00  0.28449536208E+03  0.28449536209E+03  0.25500000000E-02 0. -1.
          2   -1    0    0  501    0  0.00000000000E+00 -0.00000000000E+00 -0.46357623471E+03  0.46357623472E+03  0.25500000000E-02 0.  1.
   -5000001    1    1    2    0    0  0.11626686020E+03  0.21402582830E+03  0.13764100851E+02  0.34930572345E+03  0.25000000000E+03 0.  0.
    5000001    1    1    2    0    0 -0.11626686020E+03 -0.21402582830E+03 -0.19284497348E+03  0.39876587336E+03  0.25000000000E+03 0.  0.
<mgrwt>
<rscale>  0 0.72632028E+03</rscale>
<asrwt>0</asrwt>
<pdfrwt beam="1">  1        2 0.71319420E-01 0.72632028E+03</pdfrwt>
<pdfrwt beam="2">  1       -2 0.43768517E-01 0.72632028E+03</pdfrwt>
<totfact> 0.33544414E+02</totfact>
</mgrwt>
</event>
<event>
 4    1  0.1755570E-005  0.6640825E+03  0.7818608E-02  0.9780707E-01
          2   -1    0    0  501    0  0.00000000000E+00  0.00000000000E+00  0.10766060730E+04  0.10766060730E+04  0.25500000000E-02 0.  1.
         -2   -1    0    0    0  501 -0.00000000000E+00 -0.00000000000E+00 -0.10240642489E+03  0.10240642492E+03  0.25500000000E-02 0. -1.
   -5000001    1    1    2    0    0  0.21715278176E+03  0.11621843058E+02  0.44898113421E+03  0.55800936975E+03  0.25000000000E+03 0.  0.
    5000001    1    1    2    0    0 -0.21715278176E+03 -0.11621843058E+02  0.52521851393E+03  0.62100312820E+03  0.25000000000E+03 0.  0.
<mgrwt>
<rscale>  0 0.66408246E+03</rscale>
<asrwt>0</asrwt>
<pdfrwt beam="1">  1        2 0.16563171E+00 0.66408246E+03</pdfrwt>
<pdfrwt beam="2">  1       -2 0.15754834E-01 0.66408246E+03</pdfrwt>
<totfact> 0.73229155E+02</totfact>
</mgrwt>
</event>
<event>
 4    1  0.1755570E-005  0.5961786E+03  0.7818608E-02  0.9913366E-01
          2   -1    0    0  501    0  0.00000000000E+00  0.00000000000E+00  0.78130214270E+03  0.78130214271E+03  0.25500000000E-02 0.  1.
         -2   -1    0    0    0  501 -0.00000000000E+00 -0.00000000000E+00 -0.11372968226E+03  0.11372968229E+03  0.25500000000E-02 0. -1.
   -5000001    1    1    2    0    0  0.20932689595E+02  0.13609310445E+03  0.20466090933E+03  0.35120592019E+03  0.25000000000E+03 0.  0.
    5000001    1    1    2    0    0 -0.20932689595E+02 -0.13609310445E+03  0.46291155112E+03  0.54382590480E+03  0.25000000000E+03 0.  0.
<mgrwt>
<rscale>  0 0.59617865E+03</rscale>
<asrwt>0</asrwt>
<pdfrwt beam="1">  1        2 0.12020034E+00 0.59617865E+03</pdfrwt>
<pdfrwt beam="2">  1       -2 0.17496873E-01 0.59617865E+03</pdfrwt>
<totfact> 0.96220054E+02</totfact>
</mgrwt>
</event>
<event>
 4    1  0.1755570E-005  0.6438201E+03  0.7818608E-02  0.9818445E-01
          2   -1    0    0  501    0  0.00000000000E+00  0.00000000000E+00  0.13713258493E+04  0.13713258493E+04  0.25500000000E-02 0.  1.
         -2   -1    0    0    0  501 -0.00000000000E+00 -0.00000000000E+00 -0.75566352114E+02  0.75566352157E+02  0.25500000000E-02 0. -1.
   -5000001    1    1    2    0    0 -0.17000247392E+03  0.41749575271E+02  0.41778943552E+03  0.51738948637E+03  0.25000000000E+03 0.  0.
    5000001    1    1    2    0    0  0.17000247392E+03 -0.41749575271E+02  0.87797006163E+03  0.92950271506E+03  0.25000000000E+03 0.  0.
<mgrwt>
<rscale>  0 0.64382014E+03</rscale>
<asrwt>0</asrwt>
<pdfrwt beam="1">  1        2 0.21097320E+00 0.64382014E+03</pdfrwt>
<pdfrwt beam="2">  1       -2 0.11625593E-01 0.64382014E+03</pdfrwt>
<totfact> 0.81765731E+02</totfact>
</mgrwt>
</event>
<event>
 4    1  0.1755570E-005  0.6687149E+03  0.7818608E-02  0.9772282E-01
         -2   -1    0    0    0  501 -0.00000000000E+00  0.00000000000E+00  0.20528970139E+03  0.20528970141E+03  0.25500000000E-02 0. -1.
          2   -1    0    0  501    0  0.00000000000E+00 -0.00000000000E+00 -0.54457142351E+03  0.54457142351E+03  0.25500000000E-02 0.  1.
   -5000001    1    1    2    0    0  0.22863762465E+02  0.18964614389E+03 -0.29653891235E+03  0.43234677987E+03  0.25000000000E+03 0.  0.
    5000001    1    1    2    0    0 -0.22863762465E+02 -0.18964614389E+03 -0.42742809766E+02  0.31751434505E+03  0.25000000000E+03 0.  0.
<mgrwt>
<rscale>  0 0.66871490E+03</rscale>
<asrwt>0</asrwt>
<pdfrwt beam="1">  1        2 0.83780219E-01 0.66871490E+03</pdfrwt>
<pdfrwt beam="2">  1       -2 0.31583031E-01 0.66871490E+03</pdfrwt>
<totfact> 0.52201374E+02</totfact>
</mgrwt>
</event>
<event>
 4    1  0.1755570E-005  0.8587335E+03  0.7818608E-02  0.9478689E-01
          2   -1    0    0  501    0  0.00000000000E+00  0.00000000000E+00  0.18444416411E+04  0.18444416411E+04  0.25500000000E-02 0.  1.
         -2   -1    0    0    0  501 -0.00000000000E+00 -0.00000000000E+00 -0.99952105804E+02  0.99952105837E+02  0.25500000000E-02 0. -1.
   -5000001    1    1    2    0    0 -0.34275361669E+03  0.66008495941E+02  0.86246307093E+03  0.96342083848E+03  0.25000000000E+03 0.  0.
    5000001    1    1    2    0    0  0.34275361669E+03 -0.66008495941E+02  0.88202646436E+03  0.98097290846E+03  0.25000000000E+03 0.  0.
<mgrwt>
<rscale>  0 0.85873355E+03</rscale>
<asrwt>0</asrwt>
<pdfrwt beam="1">  1        2 0.28376023E+00 0.85873355E+03</pdfrwt>
<pdfrwt beam="2">  1       -2 0.15377248E-01 0.85873355E+03</pdfrwt>
<totfact> 0.27710665E+02</totfact>
</mgrwt>
</event>
<event>
 4    1  0.1755570E-005  0.1344106E+04  0.7818608E-02  0.8995302E-01
         -2   -1    0    0    0  501 -0.00000000000E+00  0.00000000000E+00  0.65274128403E+03  0.65274128404E+03  0.25500000000E-02 0. -1.
          2   -1    0    0  501    0  0.00000000000E+00 -0.00000000000E+00 -0.69193583261E+03  0.69193583262E+03  0.25500000000E-02 0.  1.
   -5000001    1    1    2    0    0 -0.55219351673E+03 -0.18592352406E+03  0.20336479110E+03  0.66583967663E+03  0.25000000000E+03 0.  0.
    5000001    1    1    2    0    0  0.55219351673E+03  0.18592352406E+03 -0.24255933968E+03  0.67883744003E+03  0.25000000000E+03 0.  0.
<mgrwt>
<rscale>  0 0.13441058E+04</rscale>
<asrwt>0</asrwt>
<pdfrwt beam="1">  1        2 0.10645167E+00 0.13441058E+04</pdfrwt>
<pdfrwt beam="2">  1       -2 0.10042174E+00 0.13441058E+04</pdfrwt>
<totfact> 0.33234245E+01</totfact>
</mgrwt>
</event>
<event>
 4    1  0.1755570E-005  0.1106125E+04  0.7818608E-02  0.9199242E-01
         -2   -1    0    0    0  501 -0.00000000000E+00  0.00000000000E+00  0.31752585367E+03  0.31752585368E+03  0.25500000000E-02 0. -1.
          2   -1    0    0  501    0  0.00000000000E+00 -0.00000000000E+00 -0.96331757446E+03  0.96331757447E+03  0.25500000000E-02 0.  1.
   -5000001    1    1    2    0    0 -0.33312676141E+03 -0.25753018045E+03 -0.62056694046E+03  0.79050525653E+03  0.25000000000E+03 0.  0.
    5000001    1    1    2    0    0  0.33312676141E+03  0.25753018045E+03 -0.25224780335E+02  0.49033817162E+03  0.25000000000E+03 0.  0.
<mgrwt>
<rscale>  0 0.11061252E+04</rscale>
<asrwt>0</asrwt>
<pdfrwt beam="1">  1        2 0.14820270E+00 0.11061252E+04</pdfrwt>
<pdfrwt beam="2">  1       -2 0.48850132E-01 0.11061252E+04</pdfrwt>
<totfact> 0.10476838E+02</totfact>
</mgrwt>
</event>
<event>
 4    1  0.1755570E-005  0.1190385E+04  0.7818608E-02  0.9121315E-01
         -2   -1    0    0    0  501 -0.00000000000E+00  0.00000000000E+00  0.92006365667E+03  0.92006365667E+03  0.25500000000E-02 0. -1.
          2   -1    0    0  501    0  0.00000000000E+00 -0.00000000000E+00 -0.38503207668E+03  0.38503207669E+03  0.25500000000E-02 0.  1.
   -5000001    1    1    2    0    0 -0.28824198312E+03 -0.44645623934E+03  0.37351448830E+03  0.69600264903E+03  0.25000000000E+03 0.  0.
    5000001    1    1    2    0    0  0.28824198312E+03  0.44645623934E+03  0.16151709169E+03  0.60909308434E+03  0.25000000000E+03 0.  0.
<mgrwt>
<rscale>  0 0.11903848E+04</rscale>
<asrwt>0</asrwt>
<pdfrwt beam="1">  1        2 0.59235704E-01 0.11903848E+04</pdfrwt>
<pdfrwt beam="2">  1       -2 0.14154825E+00 0.11903848E+04</pdfrwt>
<totfact> 0.28580882E+01</totfact>
</mgrwt>
</event>
<event>
 4    1  0.1755570E-005  0.9484936E+03  0.7818608E-02  0.9366913E-01
         -2   -1    0    0    0  501 -0.00000000000E+00  0.00000000000E+00  0.29919578636E+03  0.29919578637E+03  0.25500000000E-02 0. -1.
          2   -1    0    0  501    0  0.00000000000E+00 -0.00000000000E+00 -0.75171523014E+03  0.75171523014E+03  0.25500000000E-02 0.  1.
   -5000001    1    1    2    0    0  0.29513882817E+03  0.26330901559E+03 -0.14064036907E+03  0.48858804631E+03  0.25000000000E+03 0.  0.
    5000001    1    1    2    0    0 -0.29513882817E+03 -0.26330901559E+03 -0.31187907471E+03  0.56232297021E+03  0.25000000000E+03 0.  0.
<mgrwt>
<rscale>  0 0.94849360E+03</rscale>
<asrwt>0</asrwt>
<pdfrwt beam="1">  1        2 0.11564850E+00 0.94849360E+03</pdfrwt>
<pdfrwt beam="2">  1       -2 0.46030121E-01 0.94849360E+03</pdfrwt>
<totfact> 0.16744070E+02</totfact>
</mgrwt>
</event>
<event>
 4    1  0.1755570E-005  0.6783455E+03  0.7818608E-02  0.9754998E-01
         -2   -1    0    0    0  501 -0.00000000000E+00  0.00000000000E+00  0.70585658440E+02  0.70585658486E+02  0.25500000000E-02 0. -1.
          2   -1    0    0  501    0  0.00000000000E+00 -0.00000000000E+00 -0.16297668450E+04  0.16297668450E+04  0.25500000000E-02 0.  1.
   -5000001    1    1    2    0    0 -0.22916761433E+03 -0.12649043888E+01 -0.79045048295E+03  0.86013450195E+03  0.25000000000E+03 0.  0.
    5000001    1    1    2    0    0  0.22916761433E+03  0.12649043888E+01 -0.76873070358E+03  0.84021800152E+03  0.25000000000E+03 0.  0.
<mgrwt>
<rscale>  0 0.67834553E+03</rscale>
<asrwt>0</asrwt>
<pdfrwt beam="1">  1        2 0.25073333E+00 0.67834553E+03</pdfrwt>
<pdfrwt beam="2">  1       -2 0.10859333E-01 0.67834553E+03</pdfrwt>
<totfact> 0.65601833E+02</totfact>
</mgrwt>
</event>
<event>
 4    1  0.1755570E-005  0.1114557E+04  0.7818608E-02  0.9191119E-01
         -2   -1    0    0    0  501 -0.00000000000E+00  0.00000000000E+00  0.16942634513E+03  0.16942634515E+03  0.25500000000E-02 0. -1.
          2   -1    0    0  501    0  0.00000000000E+00 -0.00000000000E+00 -0.18330052067E+04  0.18330052067E+04  0.25500000000E-02 0.  1.
   -5000001    1    1    2    0    0  0.45068761475E+03  0.26314112051E+02 -0.45386906780E+03  0.68724732760E+03  0.25000000000E+03 0.  0.
    5000001    1    1    2    0    0 -0.45068761475E+03 -0.26314112051E+02 -0.12097097937E+04  0.13151842242E+04  0.25000000000E+03 0.  0.
<mgrwt>
<rscale>  0 0.11145571E+04</rscale>
<asrwt>0</asrwt>
<pdfrwt beam="1">  1        2 0.28200079E+00 0.11145571E+04</pdfrwt>
<pdfrwt beam="2">  1       -2 0.26065593E-01 0.11145571E+04</pdfrwt>
<totfact> 0.10918584E+02</totfact>
</mgrwt>
</event>
<event>
 4    1  0.1755570E-005  0.7456853E+03  0.7818608E-02  0.9642144E-01
         -2   -1    0    0    0  501 -0.00000000000E+00  0.00000000000E+00  0.60342878995E+02  0.60342879049E+02  0.25500000000E-02 0. -1.
          2   -1    0    0  501    0  0.00000000000E+00 -0.00000000000E+00 -0.23036960697E+04  0.23036960697E+04  0.25500000000E-02 0.  1.
   -5000001    1    1    2    0    0 -0.34782047164E+02  0.27231017955E+03 -0.12291409504E+04  0.12839977027E+04  0.25000000000E+03 0.  0.
    5000001    1    1    2    0    0  0.34782047164E+02 -0.27231017955E+03 -0.10142122403E+04  0.10800412460E+04  0.25000000000E+03 0.  0.
<mgrwt>
<rscale>  0 0.74568533E+03</rscale>
<asrwt>0</asrwt>
<pdfrwt beam="1">  1        2 0.35441471E+00 0.74568533E+03</pdfrwt>
<pdfrwt beam="2">  1       -2 0.92835217E-02 0.74568533E+03</pdfrwt>
<totfact> 0.36069295E+02</totfact>
</mgrwt>
</event>
<event>
 4    1  0.1755570E-005  0.6643827E+03  0.7818608E-02  0.9780159E-01
          2   -1    0    0  501    0  0.00000000000E+00  0.00000000000E+00  0.23130999435E+04  0.23130999435E+04  0.25500000000E-02 0.  1.
         -2   -1    0    0    0  501 -0.00000000000E+00 -0.00000000000E+00 -0.47707019784E+02  0.47707019853E+02  0.25500000000E-02 0. -1.
   -5000001    1    1    2    0    0  0.58419098844E+02 -0.18122332297E+03  0.15153485829E+04  0.15475903888E+04  0.25000000000E+03 0.  0.
    5000001    1    1    2    0    0 -0.58419098844E+02  0.18122332297E+03  0.75004434084E+03  0.81321657455E+03  0.25000000000E+03 0.  0.
<mgrwt>
<rscale>  0 0.66438274E+03</rscale>
<asrwt>0</asrwt>
<pdfrwt beam="1">  1        2 0.35586149E+00 0.66438274E+03</pdfrwt>
<pdfrwt beam="2">  1       -2 0.73395424E-02 0.66438274E+03</pdfrwt>
<totfact> 0.52294595E+02</totfact>
</mgrwt>
</event>
<event>
 4    1  0.1755570E-005  0.7986744E+03  0.7818608E-02  0.9561938E-01
          2   -1    0    0  501    0  0.00000000000E+00  0.00000000000E+00  0.31247840377E+03  0.31247840378E+03  0.25500000000E-02 0.  1.
         -2   -1    0    0    0  501 -0.00000000000E+00 -0.00000000000E+00 -0.51033993727E+03  0.51033993728E+03  0.25500000000E-02 0. -1.
   -5000001    1    1    2    0    0 -0.13601137300E+03  0.85970521687E+02  0.17573748330E+03  0.34536022820E+03  0.25000000000E+03 0.  0.
    5000001    1    1    2    0    0  0.13601137300E+03 -0.85970521687E+02 -0.37359901680E+03  0.47745811286E+03  0.25000000000E+03 0.  0.
<mgrwt>
<rscale>  0 0.79867442E+03</rscale>
<asrwt>0</asrwt>
<pdfrwt beam="1">  1        2 0.48073600E-01 0.79867442E+03</pdfrwt>
<pdfrwt beam="2">  1       -2 0.78513837E-01 0.79867442E+03</pdfrwt>
<totfact> 0.15241285E+02</totfact>
</mgrwt>
</event>
<event>
 4    1  0.1755570E-005  0.5404492E+03  0.7818608E-02  0.1003729E+00
          2   -1    0    0  501    0  0.00000000000E+00  0.00000000000E+00  0.33360214019E+03  0.33360214020E+03  0.25500000000E-02 0.  1.
         -2   -1    0    0    0  501 -0.00000000000E+00 -0.00000000000E+00 -0.21888746210E+03  0.21888746212E+03  0.25500000000E-02 0. -1.
   -5000001    1    1    2    0    0 -0.61350013736E+02 -0.71804145099E+02  0.98269770163E+02  0.28473954268E+03  0.25000000000E+03 0.  0.
    5000001    1    1    2    0    0  0.61350013736E+02  0.71804145099E+02  0.16444907921E+02  0.26775005964E+03  0.25000000000E+03 0.  0.
<mgrwt>
<rscale>  0 0.54044917E+03</rscale>
<asrwt>0</asrwt>
<pdfrwt beam="1">  1        2 0.51323406E-01 0.54044917E+03</pdfrwt>
<pdfrwt beam="2">  1       -2 0.33674994E-01 0.54044917E+03</pdfrwt>
<totfact> 0.80751527E+02</totfact>
</mgrwt>
</event>
<event>
 4    1  0.1755570E-005  0.1089694E+04  0.7818608E-02  0.9215295E-01
         -2   -1    0    0    0  501 -0.00000000000E+00  0.00000000000E+00  0.43163109151E+03  0.43163109151E+03  0.25500000000E-02 0. -1.
          2   -1    0    0  501    0  0.00000000000E+00 -0.00000000000E+00 -0.68775949776E+03  0.68775949776E+03  0.25500000000E-02 0.  1.
   -5000001    1    1    2    0    0  0.87871923823E+02 -0.47181540230E+03 -0.62875096246E+02  0.54477933750E+03  0.25000000000E+03 0.  0.
    5000001    1    1    2    0    0 -0.87871923823E+02  0.47181540230E+03 -0.19325331001E+03  0.57461125178E+03  0.25000000000E+03 0.  0.
<mgrwt>
<rscale>  0 0.10896942E+04</rscale>
<asrwt>0</asrwt>
<pdfrwt beam="1">  1        2 0.10580915E+00 0.10896942E+04</pdfrwt>
<pdfrwt beam="2">  1       -2 0.66404783E-01 0.10896942E+04</pdfrwt>
<totfact> 0.86824778E+01</totfact>
</mgrwt>
</event>
<event>
 4    1  0.1755570E-005  0.7664773E+03  0.7818608E-02  0.9609849E-01
         -2   -1    0    0    0  501 -0.00000000000E+00  0.00000000000E+00  0.82796125685E+02  0.82796125725E+02  0.25500000000E-02 0. -1.
          2   -1    0    0  501    0  0.00000000000E+00 -0.00000000000E+00 -0.17738978559E+04  0.17738978559E+04  0.25500000000E-02 0.  1.
   -5000001    1    1    2    0    0  0.94617988254E+01 -0.25938749325E+03 -0.11613940563E+04  0.12160211969E+04  0.25000000000E+03 0.  0.
    5000001    1    1    2    0    0 -0.94617988254E+01  0.25938749325E+03 -0.52970767393E+03  0.64067278474E+03  0.25000000000E+03 0.  0.
<mgrwt>
<rscale>  0 0.76647732E+03</rscale>
<asrwt>0</asrwt>
<pdfrwt beam="1">  1        2 0.27290733E+00 0.76647732E+03</pdfrwt>
<pdfrwt beam="2">  1       -2 0.12737867E-01 0.76647732E+03</pdfrwt>
<totfact> 0.41825793E+02</totfact>
</mgrwt>
</event>
<event>
 4    1  0.1755570E-005  0.7786582E+03  0.7818608E-02  0.9591433E-01
         -2   -1    0    0    0  501 -0.00000000000E+00  0.00000000000E+00  0.79255826393E+02  0.79255826434E+02  0.25500000000E-02 0. -1.
          2   -1    0    0  501    0  0.00000000000E+00 -0.00000000000E+00 -0.19125049877E+04  0.19125049877E+04  0.25500000000E-02 0.  1.
   -5000001    1    1    2    0    0 -0.17118863171E+03  0.19584691494E+03 -0.12909552752E+04  0.13404204879E+04  0.25000000000E+03 0.  0.
    5000001    1    1    2    0    0  0.17118863171E+03 -0.19584691494E+03 -0.54229388611E+03  0.65134032627E+03  0.25000000000E+03 0.  0.
<mgrwt>
<rscale>  0 0.77865824E+03</rscale>
<asrwt>0</asrwt>
<pdfrwt beam="1">  1        2 0.29423150E+00 0.77865824E+03</pdfrwt>
<pdfrwt beam="2">  1       -2 0.12193206E-01 0.77865824E+03</pdfrwt>
<totfact> 0.37755425E+02</totfact>
</mgrwt>
</event>
<event>
 4    1  0.1755570E-005  0.7130842E+03  0.7818608E-02  0.9695114E-01
         -2   -1    0    0    0  501 -0.00000000000E+00  0.00000000000E+00  0.66642968727E+02  0.66642968776E+02  0.25500000000E-02 0. -1.
          2   -1    0    0  501    0  0.00000000000E+00 -0.00000000000E+00 -0.19075119831E+04  0.19075119831E+04  0.25500000000E-02 0.  1.
   -5000001    1    1    2    0    0 -0.67726670822E+02  0.19739620543E+03 -0.13222935178E+04  0.13618047992E+04  0.25000000000E+03 0.  0.
    5000001    1    1    2    0    0  0.67726670822E+02 -0.19739620543E+03 -0.51857549655E+03  0.61235015267E+03  0.25000000000E+03 0.  0.
<mgrwt>
<rscale>  0 0.71308418E+03</rscale>
<asrwt>0</asrwt>
<pdfrwt beam="1">  1        2 0.29346334E+00 0.71308418E+03</pdfrwt>
<pdfrwt beam="2">  1       -2 0.10252766E-01 0.71308418E+03</pdfrwt>
<totfact> 0.50744379E+02</totfact>
</mgrwt>
</event>
<event>
 4    1  0.1755570E-005  0.1003670E+04  0.7818608E-02  0.9304529E-01
          2   -1    0    0  501    0  0.00000000000E+00  0.00000000000E+00  0.24359382349E+04  0.24359382349E+04  0.25500000000E-02 0.  1.
         -2   -1    0    0    0  501 -0.00000000000E+00 -0.00000000000E+00 -0.10338453688E+03  0.10338453691E+03  0.25500000000E-02 0. -1.
   -5000001    1    1    2    0    0 -0.30866495065E+03 -0.25054977321E+03  0.71874540211E+03  0.85857101842E+03  0.25000000000E+03 0.  0.
    5000001    1    1    2    0    0  0.30866495065E+03  0.25054977321E+03  0.16138082959E+04  0.16807517534E+04  0.25000000000E+03 0.  0.
<mgrwt>
<rscale>  0 0.10036700E+04</rscale>
<asrwt>0</asrwt>
<pdfrwt beam="1">  1        2 0.37475970E+00 0.10036700E+04</pdfrwt>
<pdfrwt beam="2">  1       -2 0.15905315E-01 0.10036700E+04</pdfrwt>
<totfact> 0.12159103E+02</totfact>
</mgrwt>
</event>
<event>
 4    1  0.1755570E-005  0.7080175E+03  0.7818608E-02  0.9703619E-01
          2   -1    0    0  501    0  0.00000000000E+00  0.00000000000E+00  0.13979662550E+04  0.13979662550E+04  0.25500000000E-02 0. -1.
         -2   -1    0    0    0  501 -0.00000000000E+00 -0.00000000000E+00 -0.89646090249E+02  0.89646090286E+02  0.25500000000E-02 0.  1.
   -5000001    1    1    2    0    0 -0.22681986001E+03  0.10578115769E+03  0.62555840388E+03  0.71865166728E+03  0.25000000000E+03 0.  0.
    5000001    1    1    2    0    0  0.22681986001E+03 -0.10578115769E+03  0.68276176089E+03  0.76896067803E+03  0.25000000000E+03 0.  0.
<mgrwt>
<rscale>  0 0.70801754E+03</rscale>
<asrwt>0</asrwt>
<pdfrwt beam="1">  1        2 0.21507173E+00 0.70801754E+03</pdfrwt>
<pdfrwt beam="2">  1       -2 0.13791707E-01 0.70801754E+03</pdfrwt>
<totfact> 0.59299145E+02</totfact>
</mgrwt>
</event>
<event>
 4    1  0.1755570E-005  0.7006399E+03  0.7818608E-02  0.9716139E-01
          2   -1    0    0  501    0  0.00000000000E+00  0.00000000000E+00  0.95982573093E+03  0.95982573093E+03  0.25500000000E-02 0.  1.
         -2   -1    0    0    0  501 -0.00000000000E+00 -0.00000000000E+00 -0.12786076948E+03  0.12786076951E+03  0.25500000000E-02 0. -1.
   -5000001    1    1    2    0    0  0.21255994755E+03 -0.61799292541E+02  0.25152004642E+03  0.41804690838E+03  0.25000000000E+03 0.  0.
    5000001    1    1    2    0    0 -0.21255994755E+03  0.61799292541E+02  0.58044491503E+03  0.66963959205E+03  0.25000000000E+03 0.  0.
<mgrwt>
<rscale>  0 0.70063987E+03</rscale>
<asrwt>0</asrwt>
<pdfrwt beam="1">  1        2 0.14766550E+00 0.70063987E+03</pdfrwt>
<pdfrwt beam="2">  1       -2 0.19670887E-01 0.70063987E+03</pdfrwt>
<totfact> 0.59158497E+02</totfact>
</mgrwt>
</event>
<event>
 4    1  0.1755570E-005  0.1634658E+04  0.7818608E-02  0.8799535E-01
          2   -1    0    0  501    0  0.00000000000E+00  0.00000000000E+00  0.46565520269E+03  0.46565520270E+03  0.25500000000E-02 0.  1.
         -2   -1    0    0    0  501 -0.00000000000E+00 -0.00000000000E+00 -0.14345952139E+04  0.14345952139E+04  0.25500000000E-02 0. -1.
   -5000001    1    1    2    0    0 -0.51819859771E+03 -0.56572461711E+03 -0.33311317369E+03  0.87294817461E+03  0.25000000000E+03 0.  0.
    5000001    1    1    2    0    0  0.51819859771E+03  0.56572461711E+03 -0.63582683750E+03  0.10273022420E+04  0.25000000000E+03 0.  0.
<mgrwt>
<rscale>  0 0.16346580E+04</rscale>
<asrwt>0</asrwt>
<pdfrwt beam="1">  1        2 0.71639263E-01 0.16346580E+04</pdfrwt>
<pdfrwt beam="2">  1       -2 0.22070695E+00 0.16346580E+04</pdfrwt>
<totfact> 0.62517049E+00</totfact>
</mgrwt>
</event>
<event>
 4    1  0.1755570E-005  0.7049041E+03  0.7818608E-02  0.9708882E-01
         -2   -1    0    0    0  501 -0.00000000000E+00  0.00000000000E+00  0.40692026643E+02  0.40692026723E+02  0.25500000000E-02 0. -1.
          2   -1    0    0  501    0  0.00000000000E+00 -0.00000000000E+00 -0.30527465234E+04  0.30527465234E+04  0.25500000000E-02 0.  1.
   -5000001    1    1    2    0    0 -0.15890277025E+03 -0.13375025707E+03 -0.21042624501E+04  0.21292157431E+04  0.25000000000E+03 0.  0.
    5000001    1    1    2    0    0  0.15890277025E+03  0.13375025707E+03 -0.90779204667E+03  0.96422280706E+03  0.25000000000E+03 0.  0.
<mgrwt>
<rscale>  0 0.70490409E+03</rscale>
<asrwt>0</asrwt>
<pdfrwt beam="1">  1        2 0.46965313E+00 0.70490409E+03</pdfrwt>
<pdfrwt beam="2">  1       -2 0.62603142E-02 0.70490409E+03</pdfrwt>
<totfact> 0.24892891E+02</totfact>
</mgrwt>
</event>
<event>
 4    1  0.1755570E-005  0.5446406E+03  0.7818608E-02  0.1002742E+00
          2   -1    0    0  501    0  0.00000000000E+00  0.00000000000E+00  0.32637854618E+03  0.32637854619E+03  0.25500000000E-02 0.  1.
         -2   -1    0    0    0  501 -0.00000000000E+00 -0.00000000000E+00 -0.22721578761E+03  0.22721578762E+03  0.25500000000E-02 0. -1.
   -5000001    1    1    2    0    0  0.90492706954E+02  0.57205097538E+02  0.35314779624E+02  0.27424165777E+03  0.25000000000E+03 0.  0.
    5000001    1    1    2    0    0 -0.90492706954E+02 -0.57205097538E+02  0.63847978955E+02  0.27935267604E+03  0.25000000000E+03 0.  0.
<mgrwt>
<rscale>  0 0.54464065E+03</rscale>
<asrwt>0</asrwt>
<pdfrwt beam="1">  1        2 0.50212084E-01 0.54464065E+03</pdfrwt>
<pdfrwt beam="2">  1       -2 0.34956275E-01 0.54464065E+03</pdfrwt>
<totfact> 0.77097051E+02</totfact>
</mgrwt>
</event>
<event>
 4    1  0.1755570E-005  0.1253147E+04  0.7818608E-02  0.9067568E-01
          2   -1    0    0  501    0  0.00000000000E+00  0.00000000000E+00  0.14183337446E+04  0.14183337446E+04  0.25500000000E-02 0.  1.
         -2   -1    0    0    0  501 -0.00000000000E+00 -0.00000000000E+00 -0.27679965284E+03  0.27679965286E+03  0.25500000000E-02 0. -1.
   -5000001    1    1    2    0    0  0.55301046668E+03  0.11933815921E+03  0.70625421256E+03  0.93880625544E+03  0.25000000000E+03 0.  0.
    5000001    1    1    2    0    0 -0.55301046668E+03 -0.11933815921E+03  0.43527987917E+03  0.75632714199E+03  0.25000000000E+03 0.  0.
<mgrwt>
<rscale>  0 0.12531469E+04</rscale>
<asrwt>0</asrwt>
<pdfrwt beam="1">  1        2 0.21820519E+00 0.12531469E+04</pdfrwt>
<pdfrwt beam="2">  1       -2 0.42584562E-01 0.12531469E+04</pdfrwt>
<totfact> 0.72570707E+01</totfact>
</mgrwt>
</event>
<event>
 4    1  0.1755570E-005  0.6043684E+03  0.7818608E-02  0.9896384E-01
          2   -1    0    0  501    0  0.00000000000E+00  0.00000000000E+00  0.38565212269E+03  0.38565212270E+03  0.25500000000E-02 0.  1.
         -2   -1    0    0    0  501 -0.00000000000E+00 -0.00000000000E+00 -0.23678153216E+03  0.23678153217E+03  0.25500000000E-02 0. -1.
   -5000001    1    1    2    0    0  0.38378949407E+01  0.13760348095E+03 -0.27860696442E+02  0.28675018014E+03  0.25000000000E+03 0.  0.
    5000001    1    1    2    0    0 -0.38378949407E+01 -0.13760348095E+03  0.17673128698E+03  0.33568347472E+03  0.25000000000E+03 0.  0.
<mgrwt>
<rscale>  0 0.60436843E+03</rscale>
<asrwt>0</asrwt>
<pdfrwt beam="1">  1        2 0.59331096E-01 0.60436843E+03</pdfrwt>
<pdfrwt beam="2">  1       -2 0.36427928E-01 0.60436843E+03</pdfrwt>
<totfact> 0.59193372E+02</totfact>
</mgrwt>
</event>
<event>
 4    1  0.1755570E-005  0.1254487E+04  0.7818608E-02  0.9066457E-01
         -2   -1    0    0    0  501 -0.00000000000E+00  0.00000000000E+00  0.27028419454E+03  0.27028419455E+03  0.25500000000E-02 0. -1.
          2   -1    0    0  501    0  0.00000000000E+00 -0.00000000000E+00 -0.14556321760E+04  0.14556321760E+04  0.25500000000E-02 0.  1.
   -5000001    1    1    2    0    0  0.15980848276E+03  0.46831806399E+03 -0.99630926935E+03  0.11401722328E+04  0.25000000000E+03 0.  0.
    5000001    1    1    2    0    0 -0.15980848276E+03 -0.46831806399E+03 -0.18903871206E+03  0.58574413772E+03  0.25000000000E+03 0.  0.
<mgrwt>
<rscale>  0 0.12544869E+04</rscale>
<asrwt>0</asrwt>
<pdfrwt beam="1">  1        2 0.22394341E+00 0.12544869E+04</pdfrwt>
<pdfrwt beam="2">  1       -2 0.41582185E-01 0.12544869E+04</pdfrwt>
<totfact> 0.72432438E+01</totfact>
</mgrwt>
</event>
<event>
 4    1  0.1755570E-005  0.6792607E+03  0.7818608E-02  0.9753371E-01
          2   -1    0    0  501    0  0.00000000000E+00  0.00000000000E+00  0.31715876699E+04  0.31715876699E+04  0.25500000000E-02 0.  1.
         -2   -1    0    0    0  501 -0.00000000000E+00 -0.00000000000E+00 -0.36369414583E+02  0.36369414672E+02  0.25500000000E-02 0. -1.
   -5000001    1    1    2    0    0 -0.19295433308E+03  0.78459695883E+02  0.11082294589E+04  0.11550150787E+04  0.25000000000E+03 0.  0.
    5000001    1    1    2    0    0  0.19295433308E+03 -0.78459695883E+02  0.20269887964E+04  0.20529420058E+04  0.25000000000E+03 0.  0.
<mgrwt>
<rscale>  0 0.67926074E+03</rscale>
<asrwt>0</asrwt>
<pdfrwt beam="1">  1        2 0.48793671E+00 0.67926074E+03</pdfrwt>
<pdfrwt beam="2">  1       -2 0.55952929E-02 0.67926074E+03</pdfrwt>
<totfact> 0.25107649E+02</totfact>
</mgrwt>
</event>
<event>
 4    1  0.1755570E-005  0.5588657E+03  0.7818608E-02  0.9994625E-01
         -2   -1    0    0    0  501 -0.00000000000E+00  0.00000000000E+00  0.23419260057E+03  0.23419260058E+03  0.25500000000E-02 0. -1.
          2   -1    0    0  501    0  0.00000000000E+00 -0.00000000000E+00 -0.33341235974E+03  0.33341235974E+03  0.25500000000E-02 0.  1.
   -5000001    1    1    2    0    0 -0.12112153985E+02 -0.63035763030E+02  0.59127371793E+02  0.26479474653E+03  0.25000000000E+03 0.  0.
    5000001    1    1    2    0    0  0.12112153985E+02  0.63035763030E+02 -0.15834713096E+03  0.30281021379E+03  0.25000000000E+03 0.  0.
<mgrwt>
<rscale>  0 0.55886566E+03</rscale>
<asrwt>0</asrwt>
<pdfrwt beam="1">  1        2 0.51294210E-01 0.55886566E+03</pdfrwt>
<pdfrwt beam="2">  1       -2 0.36029631E-01 0.55886566E+03</pdfrwt>
<totfact> 0.71092657E+02</totfact>
</mgrwt>
</event>
<event>
 4    1  0.1755570E-005  0.1580461E+04  0.7818608E-02  0.8832642E-01
          2   -1    0    0  501    0  0.00000000000E+00  0.00000000000E+00  0.81131402331E+03  0.81131402331E+03  0.25500000000E-02 0.  1.
         -2   -1    0    0    0  501 -0.00000000000E+00 -0.00000000000E+00 -0.76969515283E+03  0.76969515283E+03  0.25500000000E-02 0. -1.
   -5000001    1    1    2    0    0 -0.69452869823E+03  0.52174402087E+02  0.29816389619E+03  0.79780573443E+03  0.25000000000E+03 0.  0.
    5000001    1    1    2    0    0  0.69452869823E+03 -0.52174402087E+02 -0.25654502570E+03  0.78320344171E+03  0.25000000000E+03 0.  0.
<mgrwt>
<rscale>  0 0.15804613E+04</rscale>
<asrwt>0</asrwt>
<pdfrwt beam="1">  1        2 0.12481754E+00 0.15804613E+04</pdfrwt>
<pdfrwt beam="2">  1       -2 0.11841464E+00 0.15804613E+04</pdfrwt>
<totfact> 0.17817562E+01</totfact>
</mgrwt>
</event>
<event>
 4    1  0.1755570E-005  0.1007103E+04  0.7818608E-02  0.9300789E-01
          2   -1    0    0  501    0  0.00000000000E+00  0.00000000000E+00  0.87541005946E+03  0.87541005946E+03  0.25500000000E-02 0.  1.
         -2   -1    0    0    0  501 -0.00000000000E+00 -0.00000000000E+00 -0.28965162176E+03  0.28965162177E+03  0.25500000000E-02 0. -1.
   -5000001    1    1    2    0    0  0.23176802954E+03  0.93195841799E+02 -0.12207522781E+03  0.37390405947E+03  0.25000000000E+03 0.  0.
    5000001    1    1    2    0    0 -0.23176802954E+03 -0.93195841799E+02  0.70783366550E+03  0.79115762176E+03  0.25000000000E+03 0.  0.
<mgrwt>
<rscale>  0 0.10071027E+04</rscale>
<asrwt>0</asrwt>
<pdfrwt beam="1">  1        2 0.13467847E+00 0.10071027E+04</pdfrwt>
<pdfrwt beam="2">  1       -2 0.44561788E-01 0.10071027E+04</pdfrwt>
<totfact> 0.14520024E+02</totfact>
</mgrwt>
</event>
<event>
 4    1  0.1755570E-005  0.1191806E+04  0.7818608E-02  0.9120059E-01
          2   -1    0    0  501    0  0.00000000000E+00  0.00000000000E+00  0.33138335202E+03  0.33138335203E+03  0.25500000000E-02 0.  1.
         -2   -1    0    0    0  501 -0.00000000000E+00 -0.00000000000E+00 -0.10715694493E+04  0.10715694493E+04  0.25500000000E-02 0. -1.
   -5000001    1    1    2    0    0 -0.53291871053E+03  0.90983163386E+02 -0.34903566535E+03  0.69036670237E+03  0.25000000000E+03 0.  0.
    5000001    1    1    2    0    0  0.53291871053E+03 -0.90983163386E+02 -0.39115043196E+03  0.71258609899E+03  0.25000000000E+03 0.  0.
<mgrwt>
<rscale>  0 0.11918058E+04</rscale>
<asrwt>0</asrwt>
<pdfrwt beam="1">  1        2 0.50982055E-01 0.11918058E+04</pdfrwt>
<pdfrwt beam="2">  1       -2 0.16485684E+00 0.11918058E+04</pdfrwt>
<totfact> 0.22482000E+01</totfact>
</mgrwt>
</event>
<event>
 4    1  0.1755570E-005  0.7434680E+03  0.7818608E-02  0.9645654E-01
         -2   -1    0    0    0  501 -0.00000000000E+00  0.00000000000E+00  0.13407472611E+03  0.13407472614E+03  0.25500000000E-02 0. -1.
          2   -1    0    0  501    0  0.00000000000E+00 -0.00000000000E+00 -0.10306652152E+04  0.10306652153E+04  0.25500000000E-02 0.  1.
   -5000001    1    1    2    0    0  0.19979625052E+03 -0.17499354987E+03 -0.56066618143E+03  0.66887057883E+03  0.25000000000E+03 0.  0.
    5000001    1    1    2    0    0 -0.19979625052E+03  0.17499354987E+03 -0.33592430770E+03  0.49586936256E+03  0.25000000000E+03 0.  0.
<mgrwt>
<rscale>  0 0.74346797E+03</rscale>
<asrwt>0</asrwt>
<pdfrwt beam="1">  1        2 0.15856387E+00 0.74346797E+03</pdfrwt>
<pdfrwt beam="2">  1       -2 0.20626882E-01 0.74346797E+03</pdfrwt>
<totfact> 0.48972963E+02</totfact>
</mgrwt>
</event>
<event>
 4    1  0.1755570E-005  0.9499691E+03  0.7818608E-02  0.9365187E-01
          2   -1    0    0  501    0  0.00000000000E+00  0.00000000000E+00  0.16763008991E+04  0.16763008991E+04  0.25500000000E-02 0.  1.
         -2   -1    0    0    0  501 -0.00000000000E+00 -0.00000000000E+00 -0.13458820926E+03  0.13458820929E+03  0.25500000000E-02 0. -1.
   -5000001    1    1    2    0    0  0.39763110600E+03  0.69479880172E+02  0.79588476182E+03  0.92675266620E+03  0.25000000000E+03 0.  0.
    5000001    1    1    2    0    0 -0.39763110600E+03 -0.69479880172E+02  0.74582792801E+03  0.88413644219E+03  0.25000000000E+03 0.  0.
<mgrwt>
<rscale>  0 0.94996913E+03</rscale>
<asrwt>0</asrwt>
<pdfrwt beam="1">  1        2 0.25789247E+00 0.94996913E+03</pdfrwt>
<pdfrwt beam="2">  1       -2 0.20705876E-01 0.94996913E+03</pdfrwt>
<totfact> 0.20358793E+02</totfact>
</mgrwt>
</event>
<event>
 4    1  0.1755570E-005  0.8092455E+03  0.7818608E-02  0.9546730E-01
          2   -1    0    0  501    0  0.00000000000E+00  0.00000000000E+00  0.15148302849E+04  0.15148302849E+04  0.25500000000E-02 0.  1.
         -2   -1    0    0    0  501 -0.00000000000E+00 -0.00000000000E+00 -0.10807782204E+03  0.10807782207E+03  0.25500000000E-02 0. -1.
   -5000001    1    1    2    0    0 -0.22798779756E+03 -0.91238864273E+02  0.11090373445E+04  0.11630850346E+04  0.25000000000E+03 0.  0.
    5000001    1    1    2    0    0  0.22798779756E+03  0.91238864273E+02  0.29771511834E+03  0.45982307236E+03  0.25000000000E+03 0.  0.
<mgrwt>
<rscale>  0 0.80924547E+03</rscale>
<asrwt>0</asrwt>
<pdfrwt beam="1">  1        2 0.23305080E+00 0.80924547E+03</pdfrwt>
<pdfrwt beam="2">  1       -2 0.16627358E-01 0.80924547E+03</pdfrwt>
<totfact> 0.36949502E+02</totfact>
</mgrwt>
</event>
<event>
 4    1  0.1755570E-005  0.6368113E+03  0.7818608E-02  0.9831846E-01
         -2   -1    0    0    0  501 -0.00000000000E+00  0.00000000000E+00  0.51798031064E+03  0.51798031064E+03  0.25500000000E-02 0. -1.
          2   -1    0    0  501    0  0.00000000000E+00 -0.00000000000E+00 -0.19572591512E+03  0.19572591513E+03  0.25500000000E-02 0.  1.
   -5000001    1    1    2    0    0 -0.15272114855E+03  0.73236712817E+02  0.47965837524E+02  0.30575821639E+03  0.25000000000E+03 0.  0.
    5000001    1    1    2    0    0  0.15272114855E+03 -0.73236712817E+02  0.27428855799E+03  0.40794800939E+03  0.25000000000E+03 0.  0.
<mgrwt>
<rscale>  0 0.63681134E+03</rscale>
<asrwt>0</asrwt>
<pdfrwt beam="1">  1        2 0.30111680E-01 0.63681134E+03</pdfrwt>
<pdfrwt beam="2">  1       -2 0.79689276E-01 0.63681134E+03</pdfrwt>
<totfact> 0.24979631E+02</totfact>
</mgrwt>
</event>
<event>
 4    1  0.1755570E-005  0.1049783E+04  0.7818608E-02  0.9255568E-01
         -2   -1    0    0    0  501 -0.00000000000E+00  0.00000000000E+00  0.12688725006E+04  0.12688725006E+04  0.25500000000E-02 0. -1.
          2   -1    0    0  501    0  0.00000000000E+00 -0.00000000000E+00 -0.21713057547E+03  0.21713057548E+03  0.25500000000E-02 0.  1.
   -5000001    1    1    2    0    0 -0.18794667318E+03  0.40588356107E+03  0.36481333174E+03  0.62901048014E+03  0.25000000000E+03 0.  0.
    5000001    1    1    2    0    0  0.18794667318E+03 -0.40588356107E+03  0.68692859343E+03  0.85699259598E+03  0.25000000000E+03 0.  0.
<mgrwt>
<rscale>  0 0.10497829E+04</rscale>
<asrwt>0</asrwt>
<pdfrwt beam="1">  1        2 0.33404704E-01 0.10497829E+04</pdfrwt>
<pdfrwt beam="2">  1       -2 0.19521115E+00 0.10497829E+04</pdfrwt>
<totfact> 0.22464596E+01</totfact>
</mgrwt>
</event>
<event>
 4    1  0.1755570E-005  0.5674423E+03  0.7818608E-02  0.9975354E-01
          2   -1    0    0  501    0  0.00000000000E+00  0.00000000000E+00  0.22108238576E+04  0.22108238576E+04  0.25500000000E-02 0.  1.
         -2   -1    0    0    0  501 -0.00000000000E+00 -0.00000000000E+00 -0.36410722561E+02  0.36410722650E+02  0.25500000000E-02 0. -1.
   -5000001    1    1    2    0    0  0.10402859277E+03 -0.74954302647E+02  0.12435049449E+04  0.12748508319E+04  0.25000000000E+03 0.  0.
    5000001    1    1    2    0    0 -0.10402859277E+03  0.74954302647E+02  0.93090819014E+03  0.97238374836E+03  0.25000000000E+03 0.  0.
<mgrwt>
<rscale>  0 0.56744231E+03</rscale>
<asrwt>0</asrwt>
<pdfrwt beam="1">  1        2 0.34012679E+00 0.56744231E+03</pdfrwt>
<pdfrwt beam="2">  1       -2 0.56016490E-02 0.56744231E+03</pdfrwt>
<totfact> 0.91768608E+02</totfact>
</mgrwt>
</event>
<event>
 4    1  0.1755570E-005  0.9103586E+03  0.7818608E-02  0.9412724E-01
          2   -1    0    0  501    0  0.00000000000E+00  0.00000000000E+00  0.64737876363E+03  0.64737876363E+03  0.25500000000E-02 0.  1.
         -2   -1    0    0    0  501 -0.00000000000E+00 -0.00000000000E+00 -0.32004172725E+03  0.32004172726E+03  0.25500000000E-02 0. -1.
   -5000001    1    1    2    0    0  0.18820871231E+03 -0.28876961223E+03 -0.72804617326E+01  0.42586783567E+03  0.25000000000E+03 0.  0.
    5000001    1    1    2    0    0 -0.18820871231E+03  0.28876961223E+03  0.33461749811E+03  0.54155265522E+03  0.25000000000E+03 0.  0.
<mgrwt>
<rscale>  0 0.91035865E+03</rscale>
<asrwt>0</asrwt>
<pdfrwt beam="1">  1        2 0.99596733E-01 0.91035865E+03</pdfrwt>
<pdfrwt beam="2">  1       -2 0.49237189E-01 0.91035865E+03</pdfrwt>
<totfact> 0.17694470E+02</totfact>
</mgrwt>
</event>
<event>
 4    1  0.1755570E-005  0.7356179E+03  0.7818608E-02  0.9658188E-01
          2   -1    0    0  501    0  0.00000000000E+00  0.00000000000E+00  0.14177168885E+03  0.14177168887E+03  0.25500000000E-02 0.  1.
         -2   -1    0    0    0  501 -0.00000000000E+00 -0.00000000000E+00 -0.95423430675E+03  0.95423430675E+03  0.25500000000E-02 0. -1.
   -5000001    1    1    2    0    0 -0.39883582935E+02 -0.25691170587E+03 -0.29890503965E+03  0.46844268329E+03  0.25000000000E+03 0.  0.
    5000001    1    1    2    0    0  0.39883582935E+02  0.25691170587E+03 -0.51355757825E+03  0.62756331233E+03  0.25000000000E+03 0.  0.
<mgrwt>
<rscale>  0 0.73561786E+03</rscale>
<asrwt>0</asrwt>
<pdfrwt beam="1">  1        2 0.21811030E-01 0.73561786E+03</pdfrwt>
<pdfrwt beam="2">  1       -2 0.14680527E+00 0.73561786E+03</pdfrwt>
<totfact> 0.82338531E+01</totfact>
</mgrwt>
</event>
<event>
 4    1  0.1755570E-005  0.5699201E+03  0.7818608E-02  0.9969855E-01
          2   -1    0    0  501    0  0.00000000000E+00  0.00000000000E+00  0.28963998841E+03  0.28963998842E+03  0.25500000000E-02 0.  1.
         -2   -1    0    0    0  501 -0.00000000000E+00 -0.00000000000E+00 -0.28035574311E+03  0.28035574312E+03  0.25500000000E-02 0. -1.
   -5000001    1    1    2    0    0  0.13446267652E+03  0.10530171105E+02 -0.17969245166E+02  0.28462956567E+03  0.25000000000E+03 0.  0.
    5000001    1    1    2    0    0 -0.13446267652E+03 -0.10530171105E+02  0.27253490467E+02  0.28536616587E+03  0.25000000000E+03 0.  0.
<mgrwt>
<rscale>  0 0.56992011E+03</rscale>
<asrwt>0</asrwt>
<pdfrwt beam="1">  1        2 0.44559998E-01 0.56992011E+03</pdfrwt>
<pdfrwt beam="2">  1       -2 0.43131653E-01 0.56992011E+03</pdfrwt>
<totfact> 0.58615929E+02</totfact>
</mgrwt>
</event>
<event>
 4    1  0.1755570E-005  0.6667941E+03  0.7818608E-02  0.9775767E-01
          2   -1    0    0  501    0  0.00000000000E+00  0.00000000000E+00  0.15224500235E+04  0.15224500235E+04  0.25500000000E-02 0.  1.
         -2   -1    0    0    0  501 -0.00000000000E+00 -0.00000000000E+00 -0.73009672217E+02  0.73009672261E+02  0.25500000000E-02 0. -1.
   -5000001    1    1    2    0    0 -0.12101861620E+03  0.39874446487E+01  0.11658674273E+04  0.11985025086E+04  0.25000000000E+03 0.  0.
    5000001    1    1    2    0    0  0.12101861620E+03 -0.39874446487E+01  0.28357292395E+03  0.39695718708E+03  0.25000000000E+03 0.  0.
<mgrwt>
<rscale>  0 0.66679405E+03</rscale>
<asrwt>0</asrwt>
<pdfrwt beam="1">  1        2 0.23422308E+00 0.66679405E+03</pdfrwt>
<pdfrwt beam="2">  1       -2 0.11232258E-01 0.66679405E+03</pdfrwt>
<totfact> 0.71157073E+02</totfact>
</mgrwt>
</event>
<event>
 4    1  0.1755570E-005  0.7424209E+03  0.7818608E-02  0.9647316E-01
         -2   -1    0    0    0  501 -0.00000000000E+00  0.00000000000E+00  0.36966078503E+03  0.36966078504E+03  0.25500000000E-02 0. -1.
          2   -1    0    0  501    0  0.00000000000E+00 -0.00000000000E+00 -0.37276658780E+03  0.37276658781E+03  0.25500000000E-02 0.  1.
   -5000001    1    1    2    0    0 -0.16045071260E+03  0.20476101529E+03 -0.88878833285E+02  0.37157899774E+03  0.25000000000E+03 0.  0.
    5000001    1    1    2    0    0  0.16045071260E+03 -0.20476101529E+03  0.85773030519E+02  0.37084837511E+03  0.25000000000E+03 0.  0.
<mgrwt>
<rscale>  0 0.74242088E+03</rscale>
<asrwt>0</asrwt>
<pdfrwt beam="1">  1        2 0.57348706E-01 0.74242088E+03</pdfrwt>
<pdfrwt beam="2">  1       -2 0.56870890E-01 0.74242088E+03</pdfrwt>
<totfact> 0.25184482E+02</totfact>
</mgrwt>
</event>
<event>
 4    1  0.1755570E-005  0.1702425E+04  0.7818608E-02  0.8759983E-01
         -2   -1    0    0    0  501 -0.00000000000E+00  0.00000000000E+00  0.25852500980E+03  0.25852500982E+03  0.25500000000E-02 0. -1.
          2   -1    0    0  501    0  0.00000000000E+00 -0.00000000000E+00 -0.28026788623E+04  0.28026788623E+04  0.25500000000E-02 0.  1.
   -5000001    1    1    2    0    0 -0.49155675664E+03  0.19355115058E+03 -0.15930004202E+03  0.60577767892E+03  0.25000000000E+03 0.  0.
    5000001    1    1    2    0    0  0.49155675664E+03 -0.19355115058E+03 -0.23848538104E+04  0.24554261932E+04  0.25000000000E+03 0.  0.
<mgrwt>
<rscale>  0 0.17024248E+04</rscale>
<asrwt>0</asrwt>
<pdfrwt beam="1">  1        2 0.43118134E+00 0.17024248E+04</pdfrwt>
<pdfrwt beam="2">  1       -2 0.39773080E-01 0.17024248E+04</pdfrwt>
<totfact> 0.13151919E+01</totfact>
</mgrwt>
</event>
<event>
 4    1  0.1755570E-005  0.7107194E+03  0.7818608E-02  0.9699074E-01
         -2   -1    0    0    0  501 -0.00000000000E+00  0.00000000000E+00  0.89310886850E+02  0.89310886887E+02  0.25500000000E-02 0. -1.
          2   -1    0    0  501    0  0.00000000000E+00 -0.00000000000E+00 -0.14139432864E+04  0.14139432864E+04  0.25500000000E-02 0.  1.
   -5000001    1    1    2    0    0  0.21738625607E+03 -0.41880489383E+02 -0.91936825503E+03  0.97813534242E+03  0.25000000000E+03 0.  0.
    5000001    1    1    2    0    0 -0.21738625607E+03  0.41880489383E+02 -0.40526414455E+03  0.52511883091E+03  0.25000000000E+03 0.  0.
<mgrwt>
<rscale>  0 0.71071944E+03</rscale>
<asrwt>0</asrwt>
<pdfrwt beam="1">  1        2 0.21752972E+00 0.71071944E+03</pdfrwt>
<pdfrwt beam="2">  1       -2 0.13740137E-01 0.71071944E+03</pdfrwt>
<totfact> 0.58439877E+02</totfact>
</mgrwt>
</event>
<event>
 4    1  0.1755570E-005  0.5799596E+03  0.7818608E-02  0.9947878E-01
          2   -1    0    0  501    0  0.00000000000E+00  0.00000000000E+00  0.10683887038E+04  0.10683887038E+04  0.25500000000E-02 0.  1.
         -2   -1    0    0    0  501 -0.00000000000E+00 -0.00000000000E+00 -0.78705703634E+02  0.78705703676E+02  0.25500000000E-02 0. -1.
   -5000001    1    1    2    0    0 -0.78325404302E+02  0.96762694993E+02  0.64919774591E+03  0.70672172841E+03  0.25000000000E+03 0.  0.
    5000001    1    1    2    0    0  0.78325404302E+02 -0.96762694993E+02  0.34048525420E+03  0.44037267903E+03  0.25000000000E+03 0.  0.
<mgrwt>
<rscale>  0 0.57995960E+03</rscale>
<asrwt>0</asrwt>
<pdfrwt beam="1">  1        2 0.16436748E+00 0.57995960E+03</pdfrwt>
<pdfrwt beam="2">  1       -2 0.12108571E-01 0.57995960E+03</pdfrwt>
<totfact> 0.11534618E+03</totfact>
</mgrwt>
</event>
<event>
 4    1  0.1755570E-005  0.8979265E+03  0.7818608E-02  0.9428177E-01
         -2   -1    0    0    0  501 -0.00000000000E+00  0.00000000000E+00  0.14594432859E+04  0.14594432859E+04  0.25500000000E-02 0. -1.
          2   -1    0    0  501    0  0.00000000000E+00 -0.00000000000E+00 -0.13811293756E+03  0.13811293758E+03  0.25500000000E-02 0.  1.
   -5000001    1    1    2    0    0 -0.95266572457E+00  0.33321713771E+03  0.95855350438E+03  0.10451599826E+04  0.25000000000E+03 0.  0.
    5000001    1    1    2    0    0  0.95266572457E+00 -0.33321713771E+03  0.36277684394E+03  0.55239624088E+03  0.25000000000E+03 0.  0.
<mgrwt>
<rscale>  0 0.89792650E+03</rscale>
<asrwt>0</asrwt>
<pdfrwt beam="1">  1        2 0.21248144E-01 0.89792650E+03</pdfrwt>
<pdfrwt beam="2">  1       -2 0.22452974E+00 0.89792650E+03</pdfrwt>
<totfact> 0.24749805E+01</totfact>
</mgrwt>
</event>
<event>
 4    1  0.1755570E-005  0.5474301E+03  0.7818608E-02  0.1002091E+00
          2   -1    0    0  501    0  0.00000000000E+00  0.00000000000E+00  0.19499092763E+04  0.19499092763E+04  0.25500000000E-02 0.  1.
         -2   -1    0    0    0  501 -0.00000000000E+00 -0.00000000000E+00 -0.38422270492E+02  0.38422270576E+02  0.25500000000E-02 0. -1.
   -5000001    1    1    2    0    0  0.10488899816E+03 -0.29666386020E+02  0.87148574779E+03  0.91316439100E+03  0.25000000000E+03 0.  0.
    5000001    1    1    2    0    0 -0.10488899816E+03  0.29666386020E+02  0.10400012581E+04  0.10751671559E+04  0.25000000000E+03 0.  0.
<mgrwt>
<rscale>  0 0.54743015E+03</rscale>
<asrwt>0</asrwt>
<pdfrwt beam="1">  1        2 0.29998603E+00 0.54743015E+03</pdfrwt>
<pdfrwt beam="2">  1       -2 0.59111188E-02 0.54743015E+03</pdfrwt>
<totfact> 0.11704932E+03</totfact>
</mgrwt>
</event>
<event>
 4    1  0.1755570E-005  0.1008286E+04  0.7818608E-02  0.9299503E-01
          2   -1    0    0  501    0  0.00000000000E+00  0.00000000000E+00  0.73700069013E+03  0.73700069013E+03  0.25500000000E-02 0.  1.
         -2   -1    0    0    0  501 -0.00000000000E+00 -0.00000000000E+00 -0.34485748810E+03  0.34485748811E+03  0.25500000000E-02 0. -1.
   -5000001    1    1    2    0    0  0.10657207459E+03 -0.35138541941E+03  0.45185878178E+03  0.63364475752E+03  0.25000000000E+03 0.  0.
    5000001    1    1    2    0    0 -0.10657207459E+03  0.35138541941E+03 -0.59715579748E+02  0.44821342073E+03  0.25000000000E+03 0.  0.
<mgrwt>
<rscale>  0 0.10082861E+04</rscale>
<asrwt>0</asrwt>
<pdfrwt beam="1">  1        2 0.11338472E+00 0.10082861E+04</pdfrwt>
<pdfrwt beam="2">  1       -2 0.53054999E-01 0.10082861E+04</pdfrwt>
<totfact> 0.12827035E+02</totfact>
</mgrwt>
</event>
<event>
 4    1  0.1755570E-005  0.1605055E+04  0.7818608E-02  0.8817448E-01
         -2   -1    0    0    0  501 -0.00000000000E+00  0.00000000000E+00  0.77390904815E+03  0.77390904815E+03  0.25500000000E-02 0.  1.
          2   -1    0    0  501    0  0.00000000000E+00 -0.00000000000E+00 -0.83220466258E+03  0.83220466258E+03  0.25500000000E-02 0. -1.
   -5000001    1    1    2    0    0 -0.10653944805E+03  0.75482018579E+03 -0.80021106377E+01  0.80228934970E+03  0.25000000000E+03 0.  0.
    5000001    1    1    2    0    0  0.10653944805E+03 -0.75482018579E+03 -0.50293503791E+02  0.80382436103E+03  0.25000000000E+03 0.  0.
<mgrwt>
<rscale>  0 0.16050554E+04</rscale>
<asrwt>0</asrwt>
<pdfrwt beam="1">  1        2 0.12803149E+00 0.16050554E+04</pdfrwt>
<pdfrwt beam="2">  1       -2 0.11906293E+00 0.16050554E+04</pdfrwt>
<totfact> 0.16953825E+01</totfact>
</mgrwt>
</event>
<event>
 4    1  0.1755570E-005  0.1185208E+04  0.7818608E-02  0.9125903E-01
         -2   -1    0    0    0  501 -0.00000000000E+00  0.00000000000E+00  0.45020375353E+03  0.45020375353E+03  0.25500000000E-02 0. -1.
          2   -1    0    0  501    0  0.00000000000E+00 -0.00000000000E+00 -0.78004614576E+03  0.78004614577E+03  0.25500000000E-02 0.  1.
   -5000001    1    1    2    0    0  0.34475762434E+03 -0.38954588012E+03 -0.30447718866E+03  0.65254131722E+03  0.25000000000E+03 0.  0.
    5000001    1    1    2    0    0 -0.34475762434E+03  0.38954588012E+03 -0.25365203575E+02  0.57770858208E+03  0.25000000000E+03 0.  0.
<mgrwt>
<rscale>  0 0.11852083E+04</rscale>
<asrwt>0</asrwt>
<pdfrwt beam="1">  1        2 0.12000710E+00 0.11852083E+04</pdfrwt>
<pdfrwt beam="2">  1       -2 0.69262116E-01 0.11852083E+04</pdfrwt>
<totfact> 0.66960875E+01</totfact>
</mgrwt>
</event>
<event>
 4    1  0.1755570E-005  0.6513429E+03  0.7818608E-02  0.9804263E-01
          2   -1    0    0  501    0  0.00000000000E+00  0.00000000000E+00  0.24293921523E+04  0.24293921523E+04  0.25500000000E-02 0.  1.
         -2   -1    0    0    0  501 -0.00000000000E+00 -0.00000000000E+00 -0.43657794624E+02  0.43657794698E+02  0.25500000000E-02 0. -1.
   -5000001    1    1    2    0    0  0.10681268313E+03  0.86138717468E+02  0.17899880445E+04  0.18125633858E+04  0.25000000000E+03 0.  0.
    5000001    1    1    2    0    0 -0.10681268313E+03 -0.86138717468E+02  0.59574631318E+03  0.66048656125E+03  0.25000000000E+03 0.  0.
<mgrwt>
<rscale>  0 0.65134293E+03</rscale>
<asrwt>0</asrwt>
<pdfrwt beam="1">  1        2 0.37375259E+00 0.65134293E+03</pdfrwt>
<pdfrwt beam="2">  1       -2 0.67165847E-02 0.65134293E+03</pdfrwt>
<totfact> 0.51902721E+02</totfact>
</mgrwt>
</event>
<event>
 4    1  0.1755570E-005  0.9289071E+03  0.7818608E-02  0.9390150E-01
         -2   -1    0    0    0  501 -0.00000000000E+00  0.00000000000E+00  0.35273630332E+03  0.35273630333E+03  0.25500000000E-02 0. -1.
          2   -1    0    0  501    0  0.00000000000E+00 -0.00000000000E+00 -0.61155347298E+03  0.61155347298E+03  0.25500000000E-02 0.  1.
   -5000001    1    1    2    0    0 -0.46215590075E+02 -0.29105599656E+03  0.13802346154E+03  0.41036562945E+03  0.25000000000E+03 0.  0.
    5000001    1    1    2    0    0  0.46215590075E+02  0.29105599656E+03 -0.39684063120E+03  0.55392414686E+03  0.25000000000E+03 0.  0.
<mgrwt>
<rscale>  0 0.92890712E+03</rscale>
<asrwt>0</asrwt>
<pdfrwt beam="1">  1        2 0.94085150E-01 0.92890712E+03</pdfrwt>
<pdfrwt beam="2">  1       -2 0.54267124E-01 0.92890712E+03</pdfrwt>
<totfact> 0.15527668E+02</totfact>
</mgrwt>
</event>
<event>
 4    1  0.1755570E-005  0.7055720E+03  0.7818608E-02  0.9707751E-01
         -2   -1    0    0    0  501 -0.00000000000E+00  0.00000000000E+00  0.77783630714E+02  0.77783630756E+02  0.25500000000E-02 0. -1.
          2   -1    0    0  501    0  0.00000000000E+00 -0.00000000000E+00 -0.16000531638E+04  0.16000531638E+04  0.25500000000E-02 0.  1.
   -5000001    1    1    2    0    0  0.68532506702E+02  0.91979709676E+02 -0.12864532079E+04  0.13155298657E+04  0.25000000000E+03 0.  0.
    5000001    1    1    2    0    0 -0.68532506702E+02 -0.91979709676E+02 -0.23581632520E+03  0.36230692886E+03  0.25000000000E+03 0.  0.
<mgrwt>
<rscale>  0 0.70557195E+03</rscale>
<asrwt>0</asrwt>
<pdfrwt beam="1">  1        2 0.24616200E+00 0.70557195E+03</pdfrwt>
<pdfrwt beam="2">  1       -2 0.11966714E-01 0.70557195E+03</pdfrwt>
<totfact> 0.57971541E+02</totfact>
</mgrwt>
</event>
<event>
 4    1  0.1755570E-005  0.1077251E+04  0.7818608E-02  0.9227653E-01
          2   -1    0    0  501    0  0.00000000000E+00  0.00000000000E+00  0.48341911521E+03  0.48341911522E+03  0.25500000000E-02 0.  1.
         -2   -1    0    0    0  501 -0.00000000000E+00 -0.00000000000E+00 -0.60013634760E+03  0.60013634760E+03  0.25500000000E-02 0. -1.
   -5000001    1    1    2    0    0  0.15729087840E+03  0.44985885376E+03 -0.80939352398E+02  0.54421005825E+03  0.25000000000E+03 0.  0.
    5000001    1    1    2    0    0 -0.15729087840E+03 -0.44985885376E+03 -0.35777879993E+02  0.53934540457E+03  0.25000000000E+03 0.  0.
<mgrwt>
<rscale>  0 0.10772509E+04</rscale>
<asrwt>0</asrwt>
<pdfrwt beam="1">  1        2 0.74372171E-01 0.10772509E+04</pdfrwt>
<pdfrwt beam="2">  1       -2 0.92328669E-01 0.10772509E+04</pdfrwt>
<totfact> 0.63446864E+01</totfact>
</mgrwt>
</event>
<event>
 4    1  0.1755570E-005  0.1570187E+04  0.7818608E-02  0.8839076E-01
          2   -1    0    0  501    0  0.00000000000E+00  0.00000000000E+00  0.20985171661E+04  0.20985171661E+04  0.25500000000E-02 0.  1.
         -2   -1    0    0    0  501 -0.00000000000E+00 -0.00000000000E+00 -0.29371773596E+03  0.29371773597E+03  0.25500000000E-02 0. -1.
   -5000001    1    1    2    0    0 -0.29408733836E+03 -0.68208646214E+03  0.83188115793E+03  0.11429153798E+04  0.25000000000E+03 0.  0.
    5000001    1    1    2    0    0  0.29408733836E+03  0.68208646214E+03  0.97291827224E+03  0.12493195223E+04  0.25000000000E+03 0.  0.
<mgrwt>
<rscale>  0 0.15701869E+04</rscale>
<asrwt>0</asrwt>
<pdfrwt beam="1">  1        2 0.32284880E+00 0.15701869E+04</pdfrwt>
<pdfrwt beam="2">  1       -2 0.45187343E-01 0.15701869E+04</pdfrwt>
<totfact> 0.26292012E+01</totfact>
</mgrwt>
</event>
<event>
 4    1  0.1755570E-005  0.7202489E+03  0.7818608E-02  0.9683217E-01
         -2   -1    0    0    0  501 -0.00000000000E+00  0.00000000000E+00  0.13353299339E+03  0.13353299341E+03  0.25500000000E-02 0. -1.
          2   -1    0    0  501    0  0.00000000000E+00 -0.00000000000E+00 -0.97121775604E+03  0.97121775605E+03  0.25500000000E-02 0.  1.
   -5000001    1    1    2    0    0 -0.47480587511E+02 -0.24043391945E+03 -0.54832966446E+03  0.65055998704E+03  0.25000000000E+03 0.  0.
    5000001    1    1    2    0    0  0.47480587511E+02  0.24043391945E+03 -0.28935509820E+03  0.45419076242E+03  0.25000000000E+03 0.  0.
<mgrwt>
<rscale>  0 0.72024889E+03</rscale>
<asrwt>0</asrwt>
<pdfrwt beam="1">  1        2 0.14941811E+00 0.72024889E+03</pdfrwt>
<pdfrwt beam="2">  1       -2 0.20543538E-01 0.72024889E+03</pdfrwt>
<totfact> 0.53868973E+02</totfact>
</mgrwt>
</event>
<event>
 4    1  0.1755570E-005  0.6234931E+03  0.7818608E-02  0.9857829E-01
         -2   -1    0    0    0  501 -0.00000000000E+00  0.00000000000E+00  0.10137448968E+03  0.10137448972E+03  0.25500000000E-02 0. -1.
          2   -1    0    0  501    0  0.00000000000E+00 -0.00000000000E+00 -0.95868226941E+03  0.95868226942E+03  0.25500000000E-02 0.  1.
   -5000001    1    1    2    0    0 -0.10596110238E+03  0.10953285453E+03 -0.61066733516E+03  0.67722950000E+03  0.25000000000E+03 0.  0.
    5000001    1    1    2    0    0  0.10596110238E+03 -0.10953285453E+03 -0.24664044457E+03  0.38282725914E+03  0.25000000000E+03 0.  0.
<mgrwt>
<rscale>  0 0.62349315E+03</rscale>
<asrwt>0</asrwt>
<pdfrwt beam="1">  1        2 0.14748957E+00 0.62349315E+03</pdfrwt>
<pdfrwt beam="2">  1       -2 0.15596076E-01 0.62349315E+03</pdfrwt>
<totfact> 0.88514604E+02</totfact>
</mgrwt>
</event>
<event>
 4    1  0.1755570E-005  0.8739489E+03  0.7818608E-02  0.9458745E-01
          2   -1    0    0  501    0  0.00000000000E+00  0.00000000000E+00  0.43442242044E+04  0.43442242044E+04  0.25500000000E-02 0. -1.
         -2   -1    0    0    0  501 -0.00000000000E+00 -0.00000000000E+00 -0.43954150127E+02  0.43954150201E+02  0.25500000000E-02 0.  1.
   -5000001    1    1    2    0    0 -0.27877417350E+03 -0.77745774420E+02  0.10887084169E+04  0.11539261078E+04  0.25000000000E+03 0.  0.
    5000001    1    1    2    0    0  0.27877417350E+03  0.77745774420E+02  0.32115616374E+04  0.32342522468E+04  0.25000000000E+03 0.  0.
<mgrwt>
<rscale>  0 0.87394893E+03</rscale>
<asrwt>0</asrwt>
<pdfrwt beam="1">  1        2 0.66834221E+00 0.87394893E+03</pdfrwt>
<pdfrwt beam="2">  1       -2 0.67621767E-02 0.87394893E+03</pdfrwt>
<totfact> 0.24405730E+01</totfact>
</mgrwt>
</event>
<event>
 4    1  0.1755570E-005  0.6740943E+03  0.7818608E-02  0.9762590E-01
          2   -1    0    0  501    0  0.00000000000E+00  0.00000000000E+00  0.10196062241E+04  0.10196062241E+04  0.25500000000E-02 0. -1.
         -2   -1    0    0    0  501 -0.00000000000E+00 -0.00000000000E+00 -0.11141633550E+03  0.11141633553E+03  0.25500000000E-02 0.  1.
   -5000001    1    1    2    0    0  0.53435198991E+02 -0.21961593793E+03  0.44774825328E+03  0.56041500604E+03  0.25000000000E+03 0.  0.
    5000001    1    1    2    0    0 -0.53435198991E+02  0.21961593793E+03  0.46044163532E+03  0.57060755360E+03  0.25000000000E+03 0.  0.
<mgrwt>
<rscale>  0 0.67409432E+03</rscale>
<asrwt>0</asrwt>
<pdfrwt beam="1">  1        2 0.15686250E+00 0.67409432E+03</pdfrwt>
<pdfrwt beam="2">  1       -2 0.17140974E-01 0.67409432E+03</pdfrwt>
<totfact> 0.68793960E+02</totfact>
</mgrwt>
</event>
<event>
 4    1  0.1755570E-005  0.8347494E+03  0.7818608E-02  0.9511038E-01
         -2   -1    0    0    0  501 -0.00000000000E+00  0.00000000000E+00  0.39256268481E+03  0.39256268482E+03  0.25500000000E-02 0. -1.
          2   -1    0    0  501    0  0.00000000000E+00 -0.00000000000E+00 -0.44375494962E+03  0.44375494962E+03  0.25500000000E-02 0.  1.
   -5000001    1    1    2    0    0 -0.83722051094E+02 -0.32278323114E+03 -0.31210143170E+01  0.41678308132E+03  0.25000000000E+03 0.  0.
    5000001    1    1    2    0    0  0.83722051094E+02  0.32278323114E+03 -0.48071250487E+02  0.41953455313E+03  0.25000000000E+03 0.  0.
<mgrwt>
<rscale>  0 0.83474939E+03</rscale>
<asrwt>0</asrwt>
<pdfrwt beam="1">  1        2 0.68269993E-01 0.83474939E+03</pdfrwt>
<pdfrwt beam="2">  1       -2 0.60394259E-01 0.83474939E+03</pdfrwt>
<totfact> 0.18168209E+02</totfact>
</mgrwt>
</event>
<event>
 4    1  0.1755570E-005  0.7526873E+03  0.7818608E-02  0.9631144E-01
          2   -1    0    0  501    0  0.00000000000E+00  0.00000000000E+00  0.25236996485E+04  0.25236996485E+04  0.25500000000E-02 0.  1.
         -2   -1    0    0    0  501 -0.00000000000E+00 -0.00000000000E+00 -0.56121786398E+02  0.56121786456E+02  0.25500000000E-02 0. -1.
   -5000001    1    1    2    0    0  0.18464891093E+03  0.18770774833E+03  0.89439709691E+03  0.96528523560E+03  0.25000000000E+03 0.  0.
    5000001    1    1    2    0    0 -0.18464891093E+03 -0.18770774833E+03  0.15731807651E+04  0.16145361993E+04  0.25000000000E+03 0.  0.
<mgrwt>
<rscale>  0 0.75268727E+03</rscale>
<asrwt>0</asrwt>
<pdfrwt beam="1">  1        2 0.38826135E+00 0.75268727E+03</pdfrwt>
<pdfrwt beam="2">  1       -2 0.86341241E-02 0.75268727E+03</pdfrwt>
<totfact> 0.30488669E+02</totfact>
</mgrwt>
</event>
<event>
 4    1  0.1755570E-005  0.9262604E+03  0.7818608E-02  0.9393337E-01
          2   -1    0    0  501    0  0.00000000000E+00  0.00000000000E+00  0.17042392395E+04  0.17042392395E+04  0.25500000000E-02 0.  1.
         -2   -1    0    0    0  501 -0.00000000000E+00 -0.00000000000E+00 -0.12585650185E+03  0.12585650188E+03  0.25500000000E-02 0. -1.
   -5000001    1    1    2    0    0  0.13323247944E+03  0.31475565284E+03  0.11597115895E+04  0.12346064091E+04  0.25000000000E+03 0.  0.
    5000001    1    1    2    0    0 -0.13323247944E+03 -0.31475565284E+03  0.41867114816E+03  0.59548933229E+03  0.25000000000E+03 0.  0.
<mgrwt>
<rscale>  0 0.92626041E+03</rscale>
<asrwt>0</asrwt>
<pdfrwt beam="1">  1        2 0.26219063E+00 0.92626041E+03</pdfrwt>
<pdfrwt beam="2">  1       -2 0.19362541E-01 0.92626041E+03</pdfrwt>
<totfact> 0.22140107E+02</totfact>
</mgrwt>
</event>
<event>
 4    1  0.1755570E-005  0.6689215E+03  0.7818608E-02  0.9771908E-01
          2   -1    0    0  501    0  0.00000000000E+00  0.00000000000E+00  0.38659572481E+03  0.38659572481E+03  0.25500000000E-02 0.  1.
         -2   -1    0    0    0  501 -0.00000000000E+00 -0.00000000000E+00 -0.28935652424E+03  0.28935652426E+03  0.25500000000E-02 0. -1.
   -5000001    1    1    2    0    0 -0.15809141360E+03 -0.14913696529E+03  0.19906333972E+01  0.33126830831E+03  0.25000000000E+03 0.  0.
    5000001    1    1    2    0    0  0.15809141360E+03  0.14913696529E+03  0.95248567164E+02  0.34468394076E+03  0.25000000000E+03 0.  0.
<mgrwt>
<rscale>  0 0.66892151E+03</rscale>
<asrwt>0</asrwt>
<pdfrwt beam="1">  1        2 0.59476265E-01 0.66892151E+03</pdfrwt>
<pdfrwt beam="2">  1       -2 0.44516389E-01 0.66892151E+03</pdfrwt>
<totfact> 0.39894452E+02</totfact>
</mgrwt>
</event>
<event>
 4    1  0.1755570E-005  0.9480565E+03  0.7818608E-02  0.9367425E-01
         -2   -1    0    0    0  501 -0.00000000000E+00  0.00000000000E+00  0.91222054420E+02  0.91222054456E+02  0.25500000000E-02 0. -1.
          2   -1    0    0  501    0  0.00000000000E+00 -0.00000000000E+00 -0.24632507970E+04  0.24632507970E+04  0.25500000000E-02 0.  1.
   -5000001    1    1    2    0    0 -0.27144635992E+01  0.35839739623E+03 -0.69103973557E+03  0.81761358726E+03  0.25000000000E+03 0.  0.
    5000001    1    1    2    0    0  0.27144635992E+01 -0.35839739623E+03 -0.16809890070E+04  0.17368592642E+04  0.25000000000E+03 0.  0.
<mgrwt>
<rscale>  0 0.94805653E+03</rscale>
<asrwt>0</asrwt>
<pdfrwt beam="1">  1        2 0.37896161E+00 0.94805653E+03</pdfrwt>
<pdfrwt beam="2">  1       -2 0.14034164E-01 0.94805653E+03</pdfrwt>
<totfact> 0.14579484E+02</totfact>
</mgrwt>
</event>
<event>
 4    1  0.1755570E-005  0.7124623E+03  0.7818608E-02  0.9696154E-01
          2   -1    0    0  501    0  0.00000000000E+00  0.00000000000E+00  0.16019158020E+04  0.16019158020E+04  0.25500000000E-02 0.  1.
         -2   -1    0    0    0  501 -0.00000000000E+00 -0.00000000000E+00 -0.79218032221E+02  0.79218032262E+02  0.25500000000E-02 0. -1.
   -5000001    1    1    2    0    0 -0.24722717838E+03 -0.41401552022E+02  0.66799498234E+03  0.75601102021E+03  0.25000000000E+03 0.  0.
    5000001    1    1    2    0    0  0.24722717838E+03  0.41401552022E+02  0.85470278744E+03  0.92512281406E+03  0.25000000000E+03 0.  0.
<mgrwt>
<rscale>  0 0.71246226E+03</rscale>
<asrwt>0</asrwt>
<pdfrwt beam="1">  1        2 0.24644855E+00 0.71246226E+03</pdfrwt>
<pdfrwt beam="2">  1       -2 0.12187391E-01 0.71246226E+03</pdfrwt>
<totfact> 0.56091587E+02</totfact>
</mgrwt>
</event>
<event>
 4    1  0.1755570E-005  0.1169793E+04  0.7818608E-02  0.9139715E-01
          2   -1    0    0  501    0  0.00000000000E+00  0.00000000000E+00  0.18064962945E+04  0.18064962945E+04  0.25500000000E-02 0. -1.
         -2   -1    0    0    0  501 -0.00000000000E+00 -0.00000000000E+00 -0.18937436730E+03  0.18937436732E+03  0.25500000000E-02 0.  1.
   -5000001    1    1    2    0    0  0.40641218408E+03  0.19185243187E+03  0.12839252108E+04  0.13830915248E+04  0.25000000000E+03 0.  0.
    5000001    1    1    2    0    0 -0.40641218408E+03 -0.19185243187E+03  0.33319671640E+03  0.61277913705E+03  0.25000000000E+03 0.  0.
<mgrwt>
<rscale>  0 0.11697933E+04</rscale>
<asrwt>0</asrwt>
<pdfrwt beam="1">  1        2 0.27792250E+00 0.11697933E+04</pdfrwt>
<pdfrwt beam="2">  1       -2 0.29134518E-01 0.11697933E+04</pdfrwt>
<totfact> 0.91651871E+01</totfact>
</mgrwt>
</event>
<event>
 4    1  0.1755570E-005  0.9447019E+03  0.7818608E-02  0.9371365E-01
          2   -1    0    0  501    0  0.00000000000E+00  0.00000000000E+00  0.95611022054E+03  0.95611022055E+03  0.25500000000E-02 0.  1.
         -2   -1    0    0    0  501 -0.00000000000E+00 -0.00000000000E+00 -0.23335741177E+03  0.23335741179E+03  0.25500000000E-02 0. -1.
   -5000001    1    1    2    0    0 -0.14146340400E+02  0.34633817886E+03  0.61465497599E+03  0.74863274881E+03  0.25000000000E+03 0.  0.
    5000001    1    1    2    0    0  0.14146340400E+02 -0.34633817886E+03  0.10809783278E+03  0.44083488352E+03  0.25000000000E+03 0.  0.
<mgrwt>
<rscale>  0 0.94470187E+03</rscale>
<asrwt>0</asrwt>
<pdfrwt beam="1">  1        2 0.14709388E+00 0.94470187E+03</pdfrwt>
<pdfrwt beam="2">  1       -2 0.35901141E-01 0.94470187E+03</pdfrwt>
<totfact> 0.19621826E+02</totfact>
</mgrwt>
</event>
<event>
 4    1  0.1755570E-005  0.9014517E+03  0.7818608E-02  0.9423769E-01
         -2   -1    0    0    0  501 -0.00000000000E+00  0.00000000000E+00  0.10037825000E+03  0.10037825003E+03  0.25500000000E-02 0. -1.
          2   -1    0    0  501    0  0.00000000000E+00 -0.00000000000E+00 -0.20238825133E+04  0.20238825133E+04  0.25500000000E-02 0.  1.
   -5000001    1    1    2    0    0  0.23756655189E+03  0.10256859540E+03 -0.32203768725E+03  0.48287312552E+03  0.25000000000E+03 0.  0.
    5000001    1    1    2    0    0 -0.23756655189E+03 -0.10256859540E+03 -0.16014665760E+04  0.16413876378E+04  0.25000000000E+03 0.  0.
<mgrwt>
<rscale>  0 0.90145168E+03</rscale>
<asrwt>0</asrwt>
<pdfrwt beam="1">  1        2 0.31136651E+00 0.90145168E+03</pdfrwt>
<pdfrwt beam="2">  1       -2 0.15442809E-01 0.90145168E+03</pdfrwt>
<totfact> 0.21870036E+02</totfact>
</mgrwt>
</event>
<event>
 4    1  0.1755570E-005  0.8040733E+03  0.7818608E-02  0.9554140E-01
         -2   -1    0    0    0  501 -0.00000000000E+00  0.00000000000E+00  0.42830639010E+03  0.42830639011E+03  0.25500000000E-02 0. -1.
          2   -1    0    0  501    0  0.00000000000E+00 -0.00000000000E+00 -0.37737810306E+03  0.37737810307E+03  0.25500000000E-02 0.  1.
   -5000001    1    1    2    0    0 -0.21006761595E+03  0.16110589009E+02 -0.20898226915E+03  0.38802260651E+03  0.25000000000E+03 0.  0.
    5000001    1    1    2    0    0  0.21006761595E+03 -0.16110589009E+02  0.25991055619E+03  0.41766188666E+03  0.25000000000E+03 0.  0.
<mgrwt>
<rscale>  0 0.80407326E+03</rscale>
<asrwt>0</asrwt>
<pdfrwt beam="1">  1        2 0.58058170E-01 0.80407326E+03</pdfrwt>
<pdfrwt beam="2">  1       -2 0.65893291E-01 0.80407326E+03</pdfrwt>
<totfact> 0.18137389E+02</totfact>
</mgrwt>
</event>
<event>
 4    1  0.1755570E-005  0.6402687E+03  0.7818608E-02  0.9825213E-01
         -2   -1    0    0    0  501 -0.00000000000E+00  0.00000000000E+00  0.15919283729E+03  0.15919283731E+03  0.25500000000E-02 0. -1.
          2   -1    0    0  501    0  0.00000000000E+00 -0.00000000000E+00 -0.64378533209E+03  0.64378533210E+03  0.25500000000E-02 0.  1.
   -5000001    1    1    2    0    0  0.48122555907E+02 -0.18730037668E+03 -0.30610655995E+03  0.43999822447E+03  0.25000000000E+03 0.  0.
    5000001    1    1    2    0    0 -0.48122555907E+02  0.18730037668E+03 -0.17848593485E+03  0.36297994494E+03  0.25000000000E+03 0.  0.
<mgrwt>
<rscale>  0 0.64026874E+03</rscale>
<asrwt>0</asrwt>
<pdfrwt beam="1">  1        2 0.99043896E-01 0.64026874E+03</pdfrwt>
<pdfrwt beam="2">  1       -2 0.24491206E-01 0.64026874E+03</pdfrwt>
<totfact> 0.68066839E+02</totfact>
</mgrwt>
</event>
<event>
 4    1  0.1755570E-005  0.8771118E+03  0.7818608E-02  0.9454654E-01
          2   -1    0    0  501    0  0.00000000000E+00  0.00000000000E+00  0.69737123572E+03  0.69737123572E+03  0.25500000000E-02 0.  1.
         -2   -1    0    0    0  501 -0.00000000000E+00 -0.00000000000E+00 -0.27579465312E+03  0.27579465313E+03  0.25500000000E-02 0. -1.
   -5000001    1    1    2    0    0 -0.26015601839E+03 -0.17063303270E+03  0.91302090600E+01  0.39922443121E+03  0.25000000000E+03 0.  0.
    5000001    1    1    2    0    0  0.26015601839E+03  0.17063303270E+03  0.41244637354E+03  0.57394145765E+03  0.25000000000E+03 0.  0.
<mgrwt>
<rscale>  0 0.87711176E+03</rscale>
<asrwt>0</asrwt>
<pdfrwt beam="1">  1        2 0.10728788E+00 0.87711176E+03</pdfrwt>
<pdfrwt beam="2">  1       -2 0.42429947E-01 0.87711176E+03</pdfrwt>
<totfact> 0.21753102E+02</totfact>
</mgrwt>
</event>
<event>
 4    1  0.1755570E-005  0.9837920E+03  0.7818608E-02  0.9326502E-01
         -2   -1    0    0    0  501 -0.00000000000E+00  0.00000000000E+00  0.46251312716E+03  0.46251312717E+03  0.25500000000E-02 0. -1.
          2   -1    0    0  501    0  0.00000000000E+00 -0.00000000000E+00 -0.52314547792E+03  0.52314547792E+03  0.25500000000E-02 0.  1.
   -5000001    1    1    2    0    0  0.29944326350E+03 -0.29676415226E+03 -0.71945233679E+02  0.49539009555E+03  0.25000000000E+03 0.  0.
    5000001    1    1    2    0    0 -0.29944326350E+03  0.29676415226E+03  0.11312882920E+02  0.49026850954E+03  0.25000000000E+03 0.  0.
<mgrwt>
<rscale>  0 0.98379195E+03</rscale>
<asrwt>0</asrwt>
<pdfrwt beam="1">  1        2 0.80483919E-01 0.98379195E+03</pdfrwt>
<pdfrwt beam="2">  1       -2 0.71155866E-01 0.98379195E+03</pdfrwt>
<totfact> 0.10474601E+02</totfact>
</mgrwt>
</event>
<event>
 4    1  0.1755570E-005  0.6824339E+03  0.7818608E-02  0.9747753E-01
          2   -1    0    0  501    0  0.00000000000E+00  0.00000000000E+00  0.32160623891E+03  0.32160623892E+03  0.25500000000E-02 0. -1.
         -2   -1    0    0    0  501 -0.00000000000E+00 -0.00000000000E+00 -0.36202348836E+03  0.36202348837E+03  0.25500000000E-02 0.  1.
   -5000001    1    1    2    0    0  0.18363288815E+03 -0.78400030598E+02  0.98579978032E+02  0.33479189727E+03  0.25000000000E+03 0.  0.
    5000001    1    1    2    0    0 -0.18363288815E+03  0.78400030598E+02 -0.13899722747E+03  0.34883783002E+03  0.25000000000E+03 0.  0.
<mgrwt>
<rscale>  0 0.68243392E+03</rscale>
<asrwt>0</asrwt>
<pdfrwt beam="1">  1        2 0.49477883E-01 0.68243392E+03</pdfrwt>
<pdfrwt beam="2">  1       -2 0.55695921E-01 0.68243392E+03</pdfrwt>
<totfact> 0.31064536E+02</totfact>
</mgrwt>
</event>
<event>
 4    1  0.1755570E-005  0.1523195E+04  0.7818608E-02  0.8869173E-01
          2   -1    0    0  501    0  0.00000000000E+00  0.00000000000E+00  0.34909194946E+04  0.34909194946E+04  0.25500000000E-02 0.  1.
         -2   -1    0    0    0  501 -0.00000000000E+00 -0.00000000000E+00 -0.16615414094E+03  0.16615414095E+03  0.25500000000E-02 0. -1.
   -5000001    1    1    2    0    0 -0.99524972697E+02  0.49284211927E+03  0.42705675295E+03  0.70546158291E+03  0.25000000000E+03 0.  0.
    5000001    1    1    2    0    0  0.99524972697E+02 -0.49284211927E+03  0.28977086007E+04  0.29516120527E+04  0.25000000000E+03 0.  0.
<mgrwt>
<rscale>  0 0.15231950E+04</rscale>
<asrwt>0</asrwt>
<pdfrwt beam="1">  1        2 0.53706452E+00 0.15231950E+04</pdfrwt>
<pdfrwt beam="2">  1       -2 0.25562176E-01 0.15231950E+04</pdfrwt>
<totfact> 0.11110958E+01</totfact>
</mgrwt>
</event>
<event>
 4    1  0.1755570E-005  0.1086194E+04  0.7818608E-02  0.9218754E-01
          2   -1    0    0  501    0  0.00000000000E+00  0.00000000000E+00  0.70110470658E+03  0.70110470658E+03  0.25500000000E-02 0.  1.
         -2   -1    0    0    0  501 -0.00000000000E+00 -0.00000000000E+00 -0.42069928100E+03  0.42069928101E+03  0.25500000000E-02 0. -1.
   -5000001    1    1    2    0    0 -0.28942794179E+03  0.35692643984E+03 -0.10489088626E+02  0.52323516503E+03  0.25000000000E+03 0.  0.
    5000001    1    1    2    0    0  0.28942794179E+03 -0.35692643984E+03  0.29089451420E+03  0.59856882256E+03  0.25000000000E+03 0.  0.
<mgrwt>
<rscale>  0 0.10861938E+04</rscale>
<asrwt>0</asrwt>
<pdfrwt beam="1">  1        2 0.10786226E+00 0.10861938E+04</pdfrwt>
<pdfrwt beam="2">  1       -2 0.64722967E-01 0.10861938E+04</pdfrwt>
<totfact> 0.89574057E+01</totfact>
</mgrwt>
</event>
<event>
 4    1  0.1755570E-005  0.6982529E+03  0.7818608E-02  0.9720225E-01
         -2   -1    0    0    0  501 -0.00000000000E+00  0.00000000000E+00  0.56292644848E+02  0.56292644905E+02  0.25500000000E-02 0. -1.
          2   -1    0    0  501    0  0.00000000000E+00 -0.00000000000E+00 -0.21652791089E+04  0.21652791089E+04  0.25500000000E-02 0.  1.
   -5000001    1    1    2    0    0 -0.40627621937E+02 -0.20157425511E+03 -0.63836401404E+03  0.71574534466E+03  0.25000000000E+03 0.  0.
    5000001    1    1    2    0    0  0.40627621937E+02  0.20157425511E+03 -0.14706224500E+04  0.15058264092E+04  0.25000000000E+03 0.  0.
<mgrwt>
<rscale>  0 0.69825293E+03</rscale>
<asrwt>0</asrwt>
<pdfrwt beam="1">  1        2 0.33311980E+00 0.69825293E+03</pdfrwt>
<pdfrwt beam="2">  1       -2 0.86604086E-02 0.69825293E+03</pdfrwt>
<totfact> 0.48293255E+02</totfact>
</mgrwt>
</event>
<event>
 4    1  0.1755570E-005  0.8914175E+03  0.7818608E-02  0.9436374E-01
         -2   -1    0    0    0  501 -0.00000000000E+00  0.00000000000E+00  0.52802347515E+03  0.52802347516E+03  0.25500000000E-02 0. -1.
          2   -1    0    0  501    0  0.00000000000E+00 -0.00000000000E+00 -0.37622626510E+03  0.37622626511E+03  0.25500000000E-02 0.  1.
   -5000001    1    1    2    0    0 -0.31474869744E+03 -0.14545900137E+03 -0.52137356089E+02  0.43063135919E+03  0.25000000000E+03 0.  0.
    5000001    1    1    2    0    0  0.31474869744E+03  0.14545900137E+03  0.20393456614E+03  0.47361838107E+03  0.25000000000E+03 0.  0.
<mgrwt>
<rscale>  0 0.89141752E+03</rscale>
<asrwt>0</asrwt>
<pdfrwt beam="1">  1        2 0.57880964E-01 0.89141752E+03</pdfrwt>
<pdfrwt beam="2">  1       -2 0.81234381E-01 0.89141752E+03</pdfrwt>
<totfact> 0.11426933E+02</totfact>
</mgrwt>
</event>
<event>
 4    1  0.1755570E-005  0.7482826E+03  0.7818608E-02  0.9638049E-01
         -2   -1    0    0    0  501 -0.00000000000E+00  0.00000000000E+00  0.78263976479E+02  0.78263976521E+02  0.25500000000E-02 0. -1.
          2   -1    0    0  501    0  0.00000000000E+00 -0.00000000000E+00 -0.17885841949E+04  0.17885841949E+04  0.25500000000E-02 0.  1.
   -5000001    1    1    2    0    0  0.97393992968E+01 -0.11307059161E+03 -0.22104808494E+03  0.35247988658E+03  0.25000000000E+03 0.  0.
    5000001    1    1    2    0    0 -0.97393992968E+01  0.11307059161E+03 -0.14892721335E+04  0.15143682848E+04  0.25000000000E+03 0.  0.
<mgrwt>
<rscale>  0 0.74828260E+03</rscale>
<asrwt>0</asrwt>
<pdfrwt beam="1">  1        2 0.27516677E+00 0.74828260E+03</pdfrwt>
<pdfrwt beam="2">  1       -2 0.12040613E-01 0.74828260E+03</pdfrwt>
<totfact> 0.45133892E+02</totfact>
</mgrwt>
</event>
<event>
 4    1  0.1755570E-005  0.9940747E+03  0.7818608E-02  0.9315068E-01
         -2   -1    0    0    0  501 -0.00000000000E+00  0.00000000000E+00  0.82871103648E+02  0.82871103687E+02  0.25500000000E-02 0. -1.
          2   -1    0    0  501    0  0.00000000000E+00 -0.00000000000E+00 -0.29810890729E+04  0.29810890729E+04  0.25500000000E-02 0.  1.
   -5000001    1    1    2    0    0 -0.20184624128E+03 -0.32220775822E+03 -0.20654487942E+04  0.21149795427E+04  0.25000000000E+03 0.  0.
    5000001    1    1    2    0    0  0.20184624128E+03  0.32220775822E+03 -0.83276917504E+03  0.94898063388E+03  0.25000000000E+03 0.  0.
<mgrwt>
<rscale>  0 0.99407473E+03</rscale>
<asrwt>0</asrwt>
<pdfrwt beam="1">  1        2 0.45862900E+00 0.99407473E+03</pdfrwt>
<pdfrwt beam="2">  1       -2 0.12749403E-01 0.99407473E+03</pdfrwt>
<totfact> 0.84464242E+01</totfact>
</mgrwt>
</event>
<event>
 4    1  0.1755570E-005  0.7039931E+03  0.7818608E-02  0.9710428E-01
         -2   -1    0    0    0  501 -0.00000000000E+00  0.00000000000E+00  0.18462866638E+03  0.18462866640E+03  0.25500000000E-02 0. -1.
          2   -1    0    0  501    0  0.00000000000E+00 -0.00000000000E+00 -0.67108530086E+03  0.67108530086E+03  0.25500000000E-02 0.  1.
   -5000001    1    1    2    0    0  0.14714844088E+03  0.14831241456E+03 -0.81275652195E+02  0.33579006478E+03  0.25000000000E+03 0.  0.
    5000001    1    1    2    0    0 -0.14714844088E+03 -0.14831241456E+03 -0.40518098228E+03  0.51992390248E+03  0.25000000000E+03 0.  0.
<mgrwt>
<rscale>  0 0.70399314E+03</rscale>
<asrwt>0</asrwt>
<pdfrwt beam="1">  1        2 0.10324389E+00 0.70399314E+03</pdfrwt>
<pdfrwt beam="2">  1       -2 0.28404411E-01 0.70399314E+03</pdfrwt>
<totfact> 0.49326639E+02</totfact>
</mgrwt>
</event>
<event>
 4    1  0.1755570E-005  0.8044964E+03  0.7818608E-02  0.9553531E-01
          2   -1    0    0  501    0  0.00000000000E+00  0.00000000000E+00  0.17686911070E+04  0.17686911070E+04  0.25500000000E-02 0.  1.
         -2   -1    0    0    0  501 -0.00000000000E+00 -0.00000000000E+00 -0.91482121590E+02  0.91482121626E+02  0.25500000000E-02 0. -1.
   -5000001    1    1    2    0    0 -0.13981535848E+03  0.27918997674E+03  0.74028106668E+03  0.84143415385E+03  0.25000000000E+03 0.  0.
    5000001    1    1    2    0    0  0.13981535848E+03 -0.27918997674E+03  0.93692791869E+03  0.10187390747E+04  0.25000000000E+03 0.  0.
<mgrwt>
<rscale>  0 0.80449640E+03</rscale>
<asrwt>0</asrwt>
<pdfrwt beam="1">  1        2 0.27210633E+00 0.80449640E+03</pdfrwt>
<pdfrwt beam="2">  1       -2 0.14074172E-01 0.80449640E+03</pdfrwt>
<totfact> 0.35539707E+02</totfact>
</mgrwt>
</event>
<event>
 4    1  0.1755570E-005  0.5748303E+03  0.7818608E-02  0.9959047E-01
         -2   -1    0    0    0  501 -0.00000000000E+00  0.00000000000E+00  0.93760642190E+03  0.93760642190E+03  0.25500000000E-02 0. -1.
          2   -1    0    0  501    0  0.00000000000E+00 -0.00000000000E+00 -0.88104624501E+02  0.88104624538E+02  0.25500000000E-02 0.  1.
   -5000001    1    1    2    0    0  0.50483813750E+02 -0.10850935748E+03  0.56046368745E+03  0.62525390127E+03  0.25000000000E+03 0.  0.
    5000001    1    1    2    0    0 -0.50483813750E+02  0.10850935748E+03  0.28903810995E+03  0.40045714517E+03  0.25000000000E+03 0.  0.
<mgrwt>
<rscale>  0 0.57483028E+03</rscale>
<asrwt>0</asrwt>
<pdfrwt beam="1">  1        2 0.13554557E-01 0.57483028E+03</pdfrwt>
<pdfrwt beam="2">  1       -2 0.14424714E+00 0.57483028E+03</pdfrwt>
<totfact> 0.15328868E+02</totfact>
</mgrwt>
</event>
<event>
 4    1  0.1755570E-005  0.6015959E+03  0.7818608E-02  0.9902101E-01
          2   -1    0    0  501    0  0.00000000000E+00  0.00000000000E+00  0.85352191735E+03  0.85352191736E+03  0.25500000000E-02 0.  1.
         -2   -1    0    0    0  501 -0.00000000000E+00 -0.00000000000E+00 -0.10600711709E+03  0.10600711713E+03  0.25500000000E-02 0. -1.
   -5000001    1    1    2    0    0  0.92790754778E+02  0.53911925903E+02  0.57840414167E+03  0.63919321885E+03  0.25000000000E+03 0.  0.
    5000001    1    1    2    0    0 -0.92790754778E+02 -0.53911925903E+02  0.16911065859E+03  0.32033581563E+03  0.25000000000E+03 0.  0.
<mgrwt>
<rscale>  0 0.60159587E+03</rscale>
<asrwt>0</asrwt>
<pdfrwt beam="1">  1        2 0.13131106E+00 0.60159587E+03</pdfrwt>
<pdfrwt beam="2">  1       -2 0.16308787E-01 0.60159587E+03</pdfrwt>
<totfact> 0.96473444E+02</totfact>
</mgrwt>
</event>
<event>
 4    1  0.1755570E-005  0.8146905E+03  0.7818608E-02  0.9538993E-01
          2   -1    0    0  501    0  0.00000000000E+00  0.00000000000E+00  0.47750961347E+03  0.47750961348E+03  0.25500000000E-02 0.  1.
         -2   -1    0    0    0  501 -0.00000000000E+00 -0.00000000000E+00 -0.34749073013E+03  0.34749073014E+03  0.25500000000E-02 0. -1.
   -5000001    1    1    2    0    0  0.26940437021E+03 -0.17345322163E+03  0.36992930857E+02  0.40808480947E+03  0.25000000000E+03 0.  0.
    5000001    1    1    2    0    0 -0.26940437021E+03  0.17345322163E+03  0.93025952484E+02  0.41691553415E+03  0.25000000000E+03 0.  0.
<mgrwt>
<rscale>  0 0.81469053E+03</rscale>
<asrwt>0</asrwt>
<pdfrwt beam="1">  1        2 0.73463018E-01 0.81469053E+03</pdfrwt>
<pdfrwt beam="2">  1       -2 0.53460112E-01 0.81469053E+03</pdfrwt>
<totfact> 0.21568663E+02</totfact>
</mgrwt>
</event>
<event>
 4    1  0.1755570E-005  0.7945850E+03  0.7818608E-02  0.9567888E-01
          2   -1    0    0  501    0  0.00000000000E+00  0.00000000000E+00  0.46636477614E+03  0.46636477614E+03  0.25500000000E-02 0.  1.
         -2   -1    0    0    0  501 -0.00000000000E+00 -0.00000000000E+00 -0.33845040925E+03  0.33845040926E+03  0.25500000000E-02 0. -1.
   -5000001    1    1    2    0    0  0.12267026185E+03  0.19574655887E+03 -0.14356265232E+03  0.36942515290E+03  0.25000000000E+03 0.  0.
    5000001    1    1    2    0    0 -0.12267026185E+03 -0.19574655887E+03  0.27147701920E+03  0.43539003251E+03  0.25000000000E+03 0.  0.
<mgrwt>
<rscale>  0 0.79458505E+03</rscale>
<asrwt>0</asrwt>
<pdfrwt beam="1">  1        2 0.71748427E-01 0.79458505E+03</pdfrwt>
<pdfrwt beam="2">  1       -2 0.52069294E-01 0.79458505E+03</pdfrwt>
<totfact> 0.23416574E+02</totfact>
</mgrwt>
</event>
<event>
 4    1  0.1755570E-005  0.1407519E+04  0.7818608E-02  0.8948394E-01
          2   -1    0    0  501    0  0.00000000000E+00  0.00000000000E+00  0.69034474768E+03  0.69034474768E+03  0.25500000000E-02 0.  1.
         -2   -1    0    0    0  501 -0.00000000000E+00 -0.00000000000E+00 -0.71743499302E+03  0.71743499302E+03  0.25500000000E-02 0. -1.
   -5000001    1    1    2    0    0 -0.47081882774E+03  0.10889776269E+02  0.44587481806E+03  0.69504914154E+03  0.25000000000E+03 0.  0.
    5000001    1    1    2    0    0  0.47081882774E+03 -0.10889776269E+02 -0.47296506340E+03  0.71273059916E+03  0.25000000000E+03 0.  0.
<mgrwt>
<rscale>  0 0.14075191E+04</rscale>
<asrwt>0</asrwt>
<pdfrwt beam="1">  1        2 0.10620688E+00 0.14075191E+04</pdfrwt>
<pdfrwt beam="2">  1       -2 0.11037461E+00 0.14075191E+04</pdfrwt>
<totfact> 0.26434318E+01</totfact>
</mgrwt>
</event>
<event>
 4    1  0.1755570E-005  0.8740186E+03  0.7818608E-02  0.9458655E-01
          2   -1    0    0  501    0  0.00000000000E+00  0.00000000000E+00  0.73128975468E+03  0.73128975468E+03  0.25500000000E-02 0.  1.
         -2   -1    0    0    0  501 -0.00000000000E+00 -0.00000000000E+00 -0.26115109304E+03  0.26115109305E+03  0.25500000000E-02 0. -1.
   -5000001    1    1    2    0    0  0.27180480533E+03  0.17688740048E+03  0.40843223225E+03  0.57834582474E+03  0.25000000000E+03 0.  0.
    5000001    1    1    2    0    0 -0.27180480533E+03 -0.17688740048E+03  0.61706429386E+02  0.41409502300E+03  0.25000000000E+03 0.  0.
<mgrwt>
<rscale>  0 0.87401858E+03</rscale>
<asrwt>0</asrwt>
<pdfrwt beam="1">  1        2 0.11250612E+00 0.87401858E+03</pdfrwt>
<pdfrwt beam="2">  1       -2 0.40177092E-01 0.87401858E+03</pdfrwt>
<totfact> 0.22794241E+02</totfact>
</mgrwt>
</event>
<event>
 4    1  0.1755570E-005  0.5654176E+03  0.7818608E-02  0.9979870E-01
         -2   -1    0    0    0  501 -0.00000000000E+00  0.00000000000E+00  0.10101696426E+03  0.10101696430E+03  0.25500000000E-02 0. -1.
          2   -1    0    0  501    0  0.00000000000E+00 -0.00000000000E+00 -0.79119650049E+03  0.79119650050E+03  0.25500000000E-02 0.  1.
   -5000001    1    1    2    0    0  0.12146637747E+03  0.21904895995E+02 -0.41894096189E+03  0.50323496985E+03  0.25000000000E+03 0.  0.
    5000001    1    1    2    0    0 -0.12146637747E+03 -0.21904895995E+02 -0.27123857434E+03  0.38897849495E+03  0.25000000000E+03 0.  0.
<mgrwt>
<rscale>  0 0.56541761E+03</rscale>
<asrwt>0</asrwt>
<pdfrwt beam="1">  1        2 0.12172253E+00 0.56541761E+03</pdfrwt>
<pdfrwt beam="2">  1       -2 0.15541072E-01 0.56541761E+03</pdfrwt>
<totfact> 0.11586089E+03</totfact>
</mgrwt>
</event>
<event>
 4    1  0.1755570E-005  0.1240825E+04  0.7818608E-02  0.9077854E-01
         -2   -1    0    0    0  501 -0.00000000000E+00  0.00000000000E+00  0.41656205116E+03  0.41656205117E+03  0.25500000000E-02 0. -1.
          2   -1    0    0  501    0  0.00000000000E+00 -0.00000000000E+00 -0.92402049335E+03  0.92402049335E+03  0.25500000000E-02 0.  1.
   -5000001    1    1    2    0    0 -0.28121081867E+03 -0.48520480105E+03 -0.34980945447E+03  0.70666107713E+03  0.25000000000E+03 0.  0.
    5000001    1    1    2    0    0  0.28121081867E+03  0.48520480105E+03 -0.15764898772E+03  0.63392146739E+03  0.25000000000E+03 0.  0.
<mgrwt>
<rscale>  0 0.12408253E+04</rscale>
<asrwt>0</asrwt>
<pdfrwt beam="1">  1        2 0.14215700E+00 0.12408253E+04</pdfrwt>
<pdfrwt beam="2">  1       -2 0.64086469E-01 0.12408253E+04</pdfrwt>
<totfact> 0.62584449E+01</totfact>
</mgrwt>
</event>
<event>
 4    1  0.1755570E-005  0.9623565E+03  0.7818608E-02  0.9350823E-01
         -2   -1    0    0    0  501 -0.00000000000E+00  0.00000000000E+00  0.87332460703E+02  0.87332460740E+02  0.25500000000E-02 0. -1.
          2   -1    0    0  501    0  0.00000000000E+00 -0.00000000000E+00 -0.26511622437E+04  0.26511622437E+04  0.25500000000E-02 0.  1.
   -5000001    1    1    2    0    0 -0.35744849498E+02  0.38687949767E+03 -0.89929803278E+03  0.10110343178E+04  0.25000000000E+03 0.  0.
    5000001    1    1    2    0    0  0.35744849498E+02 -0.38687949767E+03 -0.16645317503E+04  0.17274603867E+04  0.25000000000E+03 0.  0.
<mgrwt>
<rscale>  0 0.96235653E+03</rscale>
<asrwt>0</asrwt>
<pdfrwt beam="1">  1        2 0.40787105E+00 0.96235653E+03</pdfrwt>
<pdfrwt beam="2">  1       -2 0.13435765E-01 0.96235653E+03</pdfrwt>
<totfact> 0.12217130E+02</totfact>
</mgrwt>
</event>
<event>
 4    1  0.1755570E-005  0.5579829E+03  0.7818608E-02  0.9996629E-01
          2   -1    0    0  501    0  0.00000000000E+00  0.00000000000E+00  0.65120880169E+03  0.65120880170E+03  0.25500000000E-02 0.  1.
         -2   -1    0    0    0  501 -0.00000000000E+00 -0.00000000000E+00 -0.11952575733E+03  0.11952575736E+03  0.25500000000E-02 0. -1.
   -5000001    1    1    2    0    0 -0.95691837919E+02 -0.75871966633E+02  0.23744130385E+03  0.36577569075E+03  0.25000000000E+03 0.  0.
    5000001    1    1    2    0    0  0.95691837919E+02  0.75871966633E+02  0.29424174051E+03  0.40495886831E+03  0.25000000000E+03 0.  0.
<mgrwt>
<rscale>  0 0.55798289E+03</rscale>
<asrwt>0</asrwt>
<pdfrwt beam="1">  1        2 0.10018597E+00 0.55798289E+03</pdfrwt>
<pdfrwt beam="2">  1       -2 0.18388579E-01 0.55798289E+03</pdfrwt>
<totfact> 0.11120748E+03</totfact>
</mgrwt>
</event>
<event>
 4    1  0.1755570E-005  0.7905875E+03  0.7818608E-02  0.9573742E-01
          2   -1    0    0  501    0  0.00000000000E+00  0.00000000000E+00  0.11185156132E+04  0.11185156132E+04  0.25500000000E-02 0.  1.
         -2   -1    0    0    0  501 -0.00000000000E+00 -0.00000000000E+00 -0.13970044925E+03  0.13970044928E+03  0.25500000000E-02 0. -1.
   -5000001    1    1    2    0    0  0.28098756693E+03  0.12063214155E+03  0.46419318965E+03  0.60949277572E+03  0.25000000000E+03 0.  0.
    5000001    1    1    2    0    0 -0.28098756693E+03 -0.12063214155E+03  0.51462197429E+03  0.64872328675E+03  0.25000000000E+03 0.  0.
<mgrwt>
<rscale>  0 0.79058746E+03</rscale>
<asrwt>0</asrwt>
<pdfrwt beam="1">  1        2 0.17207933E+00 0.79058746E+03</pdfrwt>
<pdfrwt beam="2">  1       -2 0.21492377E-01 0.79058746E+03</pdfrwt>
<totfact> 0.40110758E+02</totfact>
</mgrwt>
</event>
<event>
 4    1  0.1755570E-005  0.6508187E+03  0.7818608E-02  0.9805244E-01
          2   -1    0    0  501    0  0.00000000000E+00  0.00000000000E+00  0.11186945163E+04  0.11186945163E+04  0.25500000000E-02 0.  1.
         -2   -1    0    0    0  501 -0.00000000000E+00 -0.00000000000E+00 -0.94656090944E+02  0.94656090978E+02  0.25500000000E-02 0. -1.
   -5000001    1    1    2    0    0  0.16882955775E+03  0.10337950135E+03  0.39118852700E+03  0.50469714139E+03  0.25000000000E+03 0.  0.
    5000001    1    1    2    0    0 -0.16882955775E+03 -0.10337950135E+03  0.63284989837E+03  0.70865346591E+03  0.25000000000E+03 0.  0.
<mgrwt>
<rscale>  0 0.65081871E+03</rscale>
<asrwt>0</asrwt>
<pdfrwt beam="1">  1        2 0.17210684E+00 0.65081871E+03</pdfrwt>
<pdfrwt beam="2">  1       -2 0.14562476E-01 0.65081871E+03</pdfrwt>
<totfact> 0.78881797E+02</totfact>
</mgrwt>
</event>
<event>
 4    1  0.1755570E-005  0.6497934E+03  0.7818608E-02  0.9807167E-01
          2   -1    0    0  501    0  0.00000000000E+00  0.00000000000E+00  0.49037676946E+04  0.49037676946E+04  0.25500000000E-02 0.  1.
         -2   -1    0    0    0  501 -0.00000000000E+00 -0.00000000000E+00 -0.21525867200E+02  0.21525867351E+02  0.25500000000E-02 0. -1.
   -5000001    1    1    2    0    0  0.16847754653E+03 -0.10862077531E+03  0.20347217395E+04  0.20597999208E+04  0.25000000000E+03 0.  0.
    5000001    1    1    2    0    0 -0.16847754653E+03  0.10862077531E+03  0.28475200879E+04  0.28654936411E+04  0.25000000000E+03 0.  0.
<mgrwt>
<rscale>  0 0.64979336E+03</rscale>
<asrwt>0</asrwt>
<pdfrwt beam="1">  1        2 0.75442523E+00 0.64979336E+03</pdfrwt>
<pdfrwt beam="2">  1       -2 0.33116744E-02 0.64979336E+03</pdfrwt>
<totfact> 0.20912634E+01</totfact>
</mgrwt>
</event>
<event>
 4    1  0.1755570E-005  0.6735243E+03  0.7818608E-02  0.9763612E-01
         -2   -1    0    0    0  501 -0.00000000000E+00  0.00000000000E+00  0.76113321610E+02  0.76113321653E+02  0.25500000000E-02 0. -1.
          2   -1    0    0  501    0  0.00000000000E+00 -0.00000000000E+00 -0.14899987494E+04  0.14899987494E+04  0.25500000000E-02 0.  1.
   -5000001    1    1    2    0    0 -0.55265873755E+02 -0.13683821368E+03 -0.31008222798E+03  0.42477052821E+03  0.25000000000E+03 0.  0.
    5000001    1    1    2    0    0  0.55265873755E+02  0.13683821368E+03 -0.11038031998E+04  0.11413415428E+04  0.25000000000E+03 0.  0.
<mgrwt>
<rscale>  0 0.67352432E+03</rscale>
<asrwt>0</asrwt>
<pdfrwt beam="1">  1        2 0.22923056E+00 0.67352432E+03</pdfrwt>
<pdfrwt beam="2">  1       -2 0.11709743E-01 0.67352432E+03</pdfrwt>
<totfact> 0.69235963E+02</totfact>
</mgrwt>
</event>
<event>
 4    1  0.1755570E-005  0.6111357E+03  0.7818608E-02  0.9882569E-01
          2   -1    0    0  501    0  0.00000000000E+00  0.00000000000E+00  0.22851432217E+03  0.22851432218E+03  0.25500000000E-02 0.  1.
         -2   -1    0    0    0  501 -0.00000000000E+00 -0.00000000000E+00 -0.40860326837E+03  0.40860326838E+03  0.25500000000E-02 0. -1.
   -5000001    1    1    2    0    0 -0.57430703379E+02  0.51074236485E+02  0.74675523614E+02  0.27199870799E+03  0.25000000000E+03 0.  0.
    5000001    1    1    2    0    0  0.57430703379E+02 -0.51074236485E+02 -0.25476446982E+03  0.36511888256E+03  0.25000000000E+03 0.  0.
<mgrwt>
<rscale>  0 0.61113566E+03</rscale>
<asrwt>0</asrwt>
<pdfrwt beam="1">  1        2 0.35156050E-01 0.61113566E+03</pdfrwt>
<pdfrwt beam="2">  1       -2 0.62862041E-01 0.61113566E+03</pdfrwt>
<totfact> 0.35258606E+02</totfact>
</mgrwt>
</event>
<event>
 4    1  0.1755570E-005  0.7961241E+03  0.7818608E-02  0.9565644E-01
          2   -1    0    0  501    0  0.00000000000E+00  0.00000000000E+00  0.65344918871E+03  0.65344918872E+03  0.25500000000E-02 0.  1.
         -2   -1    0    0    0  501 -0.00000000000E+00 -0.00000000000E+00 -0.24248771897E+03  0.24248771898E+03  0.25500000000E-02 0. -1.
   -5000001    1    1    2    0    0 -0.65506472410E+02 -0.24022307274E+03  0.41285252121E+03  0.54308878360E+03  0.25000000000E+03 0.  0.
    5000001    1    1    2    0    0  0.65506472410E+02  0.24022307274E+03 -0.18910514698E+01  0.35284812410E+03  0.25000000000E+03 0.  0.
<mgrwt>
<rscale>  0 0.79612412E+03</rscale>
<asrwt>0</asrwt>
<pdfrwt beam="1">  1        2 0.10053064E+00 0.79612412E+03</pdfrwt>
<pdfrwt beam="2">  1       -2 0.37305803E-01 0.79612412E+03</pdfrwt>
<totfact> 0.30432586E+02</totfact>
</mgrwt>
</event>
<event>
 4    1  0.1755570E-005  0.9301063E+03  0.7818608E-02  0.9388710E-01
         -2   -1    0    0    0  501 -0.00000000000E+00  0.00000000000E+00  0.26335182921E+03  0.26335182922E+03  0.25500000000E-02 0. -1.
          2   -1    0    0  501    0  0.00000000000E+00 -0.00000000000E+00 -0.82123770068E+03  0.82123770068E+03  0.25500000000E-02 0.  1.
   -5000001    1    1    2    0    0 -0.36683347297E+03 -0.67689932091E+02 -0.41996645001E+03  0.61483375227E+03  0.25000000000E+03 0.  0.
    5000001    1    1    2    0    0  0.36683347297E+03  0.67689932091E+02 -0.13791942146E+03  0.46975577763E+03  0.25000000000E+03 0.  0.
<mgrwt>
<rscale>  0 0.93010634E+03</rscale>
<asrwt>0</asrwt>
<pdfrwt beam="1">  1        2 0.12634426E+00 0.93010634E+03</pdfrwt>
<pdfrwt beam="2">  1       -2 0.40515666E-01 0.93010634E+03</pdfrwt>
<totfact> 0.19200015E+02</totfact>
</mgrwt>
</event>
<event>
 4    1  0.1755570E-005  0.8046563E+03  0.7818608E-02  0.9553302E-01
         -2   -1    0    0    0  501 -0.00000000000E+00  0.00000000000E+00  0.13068684455E+03  0.13068684458E+03  0.25500000000E-02 0. -1.
          2   -1    0    0  501    0  0.00000000000E+00 -0.00000000000E+00 -0.12385941337E+04  0.12385941337E+04  0.25500000000E-02 0.  1.
   -5000001    1    1    2    0    0 -0.62835160648E+02  0.25569441204E+03 -0.25901437599E+03  0.44600037750E+03  0.25000000000E+03 0.  0.
    5000001    1    1    2    0    0  0.62835160648E+02 -0.25569441204E+03 -0.84889291312E+03  0.92328060074E+03  0.25000000000E+03 0.  0.
<mgrwt>
<rscale>  0 0.80465635E+03</rscale>
<asrwt>0</asrwt>
<pdfrwt beam="1">  1        2 0.19055293E+00 0.80465635E+03</pdfrwt>
<pdfrwt beam="2">  1       -2 0.20105669E-01 0.80465635E+03</pdfrwt>
<totfact> 0.38217024E+02</totfact>
</mgrwt>
</event>
<event>
 4    1  0.1755570E-005  0.1016234E+04  0.7818608E-02  0.9290917E-01
         -2   -1    0    0    0  501 -0.00000000000E+00  0.00000000000E+00  0.78483580578E+02  0.78483580619E+02  0.25500000000E-02 0. -1.
          2   -1    0    0  501    0  0.00000000000E+00 -0.00000000000E+00 -0.32896428426E+04  0.32896428426E+04  0.25500000000E-02 0.  1.
   -5000001    1    1    2    0    0 -0.19986863369E+03  0.38815938137E+03 -0.13696387531E+04  0.14591180521E+04  0.25000000000E+03 0.  0.
    5000001    1    1    2    0    0  0.19986863369E+03 -0.38815938137E+03 -0.18415205090E+04  0.19090083711E+04  0.25000000000E+03 0.  0.
<mgrwt>
<rscale>  0 0.10162341E+04</rscale>
<asrwt>0</asrwt>
<pdfrwt beam="1">  1        2 0.50609879E+00 0.10162341E+04</pdfrwt>
<pdfrwt beam="2">  1       -2 0.12074400E-01 0.10162341E+04</pdfrwt>
<totfact> 0.58825536E+01</totfact>
</mgrwt>
</event>
<event>
 4    1  0.1755570E-005  0.1125313E+04  0.7818608E-02  0.9180865E-01
         -2   -1    0    0    0  501 -0.00000000000E+00  0.00000000000E+00  0.47417711596E+03  0.47417711597E+03  0.25500000000E-02 0. -1.
          2   -1    0    0  501    0  0.00000000000E+00 -0.00000000000E+00 -0.66764577191E+03  0.66764577191E+03  0.25500000000E-02 0.  1.
   -5000001    1    1    2    0    0  0.47741486213E+03  0.16170964256E+03 -0.99492206099E+02  0.57137873443E+03  0.25000000000E+03 0.  0.
    5000001    1    1    2    0    0 -0.47741486213E+03 -0.16170964256E+03 -0.93976449846E+02  0.57044415345E+03  0.25000000000E+03 0.  0.
<mgrwt>
<rscale>  0 0.11253130E+04</rscale>
<asrwt>0</asrwt>
<pdfrwt beam="1">  1        2 0.10271473E+00 0.11253130E+04</pdfrwt>
<pdfrwt beam="2">  1       -2 0.72950325E-01 0.11253130E+04</pdfrwt>
<totfact> 0.73240181E+01</totfact>
</mgrwt>
</event>
<event>
 4    1  0.1755570E-005  0.7945723E+03  0.7818608E-02  0.9567907E-01
         -2   -1    0    0    0  501 -0.00000000000E+00  0.00000000000E+00  0.13133500540E+03  0.13133500542E+03  0.25500000000E-02 0. -1.
          2   -1    0    0  501    0  0.00000000000E+00 -0.00000000000E+00 -0.12017839721E+04  0.12017839721E+04  0.25500000000E-02 0.  1.
   -5000001    1    1    2    0    0 -0.18359916388E+03  0.24184854485E+03 -0.44125473263E+03  0.59110499126E+03  0.25000000000E+03 0.  0.
    5000001    1    1    2    0    0  0.18359916388E+03 -0.24184854485E+03 -0.62919423409E+03  0.74201398628E+03  0.25000000000E+03 0.  0.
<mgrwt>
<rscale>  0 0.79457235E+03</rscale>
<asrwt>0</asrwt>
<pdfrwt beam="1">  1        2 0.18488983E+00 0.79457235E+03</pdfrwt>
<pdfrwt beam="2">  1       -2 0.20205386E-01 0.79457235E+03</pdfrwt>
<totfact> 0.39848533E+02</totfact>
</mgrwt>
</event>
<event>
 4    1  0.1755570E-005  0.6653758E+03  0.7818608E-02  0.9778348E-01
         -2   -1    0    0    0  501 -0.00000000000E+00  0.00000000000E+00  0.19437721594E+03  0.19437721595E+03  0.25500000000E-02 0. -1.
          2   -1    0    0  501    0  0.00000000000E+00 -0.00000000000E+00 -0.56941461383E+03  0.56941461384E+03  0.25500000000E-02 0.  1.
   -5000001    1    1    2    0    0  0.72012365583E+02  0.10594960864E+03  0.17086895823E+02  0.28143038638E+03  0.25000000000E+03 0.  0.
    5000001    1    1    2    0    0 -0.72012365583E+02 -0.10594960864E+03 -0.39212429372E+03  0.48236144341E+03  0.25000000000E+03 0.  0.
<mgrwt>
<rscale>  0 0.66537577E+03</rscale>
<asrwt>0</asrwt>
<pdfrwt beam="1">  1        2 0.87602248E-01 0.66537577E+03</pdfrwt>
<pdfrwt beam="2">  1       -2 0.29904187E-01 0.66537577E+03</pdfrwt>
<totfact> 0.54819424E+02</totfact>
</mgrwt>
</event>
<event>
 4    1  0.1755570E-005  0.6937019E+03  0.7818608E-02  0.9728064E-01
          2   -1    0    0  501    0  0.00000000000E+00  0.00000000000E+00  0.15267112480E+04  0.15267112480E+04  0.25500000000E-02 0.  1.
         -2   -1    0    0    0  501 -0.00000000000E+00 -0.00000000000E+00 -0.78800492025E+02  0.78800492066E+02  0.25500000000E-02 0. -1.
   -5000001    1    1    2    0    0 -0.22782520993E+03  0.57197252060E+02  0.60526993807E+03  0.69572088503E+03  0.25000000000E+03 0.  0.
    5000001    1    1    2    0    0  0.22782520993E+03 -0.57197252060E+02  0.84264081787E+03  0.90979085501E+03  0.25000000000E+03 0.  0.
<mgrwt>
<rscale>  0 0.69370195E+03</rscale>
<asrwt>0</asrwt>
<pdfrwt beam="1">  1        2 0.23487865E+00 0.69370195E+03</pdfrwt>
<pdfrwt beam="2">  1       -2 0.12123153E-01 0.69370195E+03</pdfrwt>
<totfact> 0.62322411E+02</totfact>
</mgrwt>
</event>
<event>
 4    1  0.1755570E-005  0.6646020E+03  0.7818608E-02  0.9779759E-01
          2   -1    0    0  501    0  0.00000000000E+00  0.00000000000E+00  0.99976219973E+03  0.99976219974E+03  0.25500000000E-02 0.  1.
         -2   -1    0    0    0  501 -0.00000000000E+00 -0.00000000000E+00 -0.11045022482E+03  0.11045022485E+03  0.25500000000E-02 0. -1.
   -5000001    1    1    2    0    0  0.19149934309E+02  0.18322255670E+03  0.64221761461E+03  0.71335873849E+03  0.25000000000E+03 0.  0.
    5000001    1    1    2    0    0 -0.19149934309E+02 -0.18322255670E+03  0.24709436031E+03  0.39685368609E+03  0.25000000000E+03 0.  0.
<mgrwt>
<rscale>  0 0.66460202E+03</rscale>
<asrwt>0</asrwt>
<pdfrwt beam="1">  1        2 0.15380957E+00 0.66460202E+03</pdfrwt>
<pdfrwt beam="2">  1       -2 0.16992342E-01 0.66460202E+03</pdfrwt>
<totfact> 0.71899759E+02</totfact>
</mgrwt>
</event>
<event>
 4    1  0.1755570E-005  0.8309402E+03  0.7818608E-02  0.9516282E-01
         -2   -1    0    0    0  501 -0.00000000000E+00  0.00000000000E+00  0.15172203630E+03  0.15172203632E+03  0.25500000000E-02 0. -1.
          2   -1    0    0  501    0  0.00000000000E+00 -0.00000000000E+00 -0.11377082632E+04  0.11377082632E+04  0.25500000000E-02 0.  1.
   -5000001    1    1    2    0    0 -0.20972576622E+03 -0.24967072375E+03 -0.58858844284E+03  0.71781384938E+03  0.25000000000E+03 0.  0.
    5000001    1    1    2    0    0  0.20972576622E+03  0.24967072375E+03 -0.39739778407E+03  0.57161645017E+03  0.25000000000E+03 0.  0.
<mgrwt>
<rscale>  0 0.83094023E+03</rscale>
<asrwt>0</asrwt>
<pdfrwt beam="1">  1        2 0.17503203E+00 0.83094023E+03</pdfrwt>
<pdfrwt beam="2">  1       -2 0.23341853E-01 0.83094023E+03</pdfrwt>
<totfact> 0.33651797E+02</totfact>
</mgrwt>
</event>
<event>
 4    1  0.1755570E-005  0.6608362E+03  0.7818608E-02  0.9786656E-01
          2   -1    0    0  501    0  0.00000000000E+00  0.00000000000E+00  0.27584633424E+03  0.27584633425E+03  0.25500000000E-02 0.  1.
         -2   -1    0    0    0  501 -0.00000000000E+00 -0.00000000000E+00 -0.39578604994E+03  0.39578604995E+03  0.25500000000E-02 0. -1.
   -5000001    1    1    2    0    0  0.13670819235E+03 -0.11306401199E+03  0.65347146810E+02  0.31343715520E+03  0.25000000000E+03 0.  0.
    5000001    1    1    2    0    0 -0.13670819235E+03  0.11306401199E+03 -0.18528686251E+03  0.35819522900E+03  0.25000000000E+03 0.  0.
<mgrwt>
<rscale>  0 0.66083623E+03</rscale>
<asrwt>0</asrwt>
<pdfrwt beam="1">  1        2 0.42437897E-01 0.66083623E+03</pdfrwt>
<pdfrwt beam="2">  1       -2 0.60890162E-01 0.66083623E+03</pdfrwt>
<totfact> 0.30568987E+02</totfact>
</mgrwt>
</event>
<event>
 4    1  0.1755570E-005  0.9262191E+03  0.7818608E-02  0.9393387E-01
          2   -1    0    0  501    0  0.00000000000E+00  0.00000000000E+00  0.73756692490E+03  0.73756692491E+03  0.25500000000E-02 0.  1.
         -2   -1    0    0    0  501 -0.00000000000E+00 -0.00000000000E+00 -0.29078100206E+03  0.29078100207E+03  0.25500000000E-02 0. -1.
   -5000001    1    1    2    0    0 -0.79218569271E+02 -0.29437940429E+03  0.49315663463E+03  0.63137808140E+03  0.25000000000E+03 0.  0.
    5000001    1    1    2    0    0  0.79218569271E+02  0.29437940429E+03 -0.46370711787E+02  0.39696984558E+03  0.25000000000E+03 0.  0.
<mgrwt>
<rscale>  0 0.92621909E+03</rscale>
<asrwt>0</asrwt>
<pdfrwt beam="1">  1        2 0.11347183E+00 0.92621909E+03</pdfrwt>
<pdfrwt beam="2">  1       -2 0.44735539E-01 0.92621909E+03</pdfrwt>
<totfact> 0.18189276E+02</totfact>
</mgrwt>
</event>
<event>
 4    1  0.1755570E-005  0.9271630E+03  0.7818608E-02  0.9392249E-01
         -2   -1    0    0    0  501 -0.00000000000E+00  0.00000000000E+00  0.39144761045E+03  0.39144761046E+03  0.25500000000E-02 0. -1.
          2   -1    0    0  501    0  0.00000000000E+00 -0.00000000000E+00 -0.54900782610E+03  0.54900782610E+03  0.25500000000E-02 0.  1.
   -5000001    1    1    2    0    0  0.17627530376E+03  0.18286506113E+03  0.22194153513E+03  0.41984599357E+03  0.25000000000E+03 0.  0.
    5000001    1    1    2    0    0 -0.17627530376E+03 -0.18286506113E+03 -0.37950175077E+03  0.52060944300E+03  0.25000000000E+03 0.  0.
<mgrwt>
<rscale>  0 0.92716299E+03</rscale>
<asrwt>0</asrwt>
<pdfrwt beam="1">  1        2 0.84462743E-01 0.92716299E+03</pdfrwt>
<pdfrwt beam="2">  1       -2 0.60222709E-01 0.92716299E+03</pdfrwt>
<totfact> 0.14214444E+02</totfact>
</mgrwt>
</event>
<event>
 4    1  0.1755570E-005  0.6120071E+03  0.7818608E-02  0.9880804E-01
          2   -1    0    0  501    0  0.00000000000E+00  0.00000000000E+00  0.14142342063E+03  0.14142342065E+03  0.25500000000E-02 0.  1.
         -2   -1    0    0    0  501 -0.00000000000E+00 -0.00000000000E+00 -0.66211218690E+03  0.66211218691E+03  0.25500000000E-02 0. -1.
   -5000001    1    1    2    0    0 -0.89993423140E+02  0.10690859377E+03 -0.11887481226E+03  0.31009592809E+03  0.25000000000E+03 0.  0.
    5000001    1    1    2    0    0  0.89993423140E+02 -0.10690859377E+03 -0.40181395402E+03  0.49343967947E+03  0.25000000000E+03 0.  0.
<mgrwt>
<rscale>  0 0.61200709E+03</rscale>
<asrwt>0</asrwt>
<pdfrwt beam="1">  1        2 0.21757450E-01 0.61200709E+03</pdfrwt>
<pdfrwt beam="2">  1       -2 0.10186341E+00 0.61200709E+03</pdfrwt>
<totfact> 0.20596333E+02</totfact>
</mgrwt>
</event>
<event>
 4    1  0.1755570E-005  0.6902853E+03  0.7818608E-02  0.9733991E-01
          2   -1    0    0  501    0  0.00000000000E+00  0.00000000000E+00  0.59915038608E+02  0.59915038662E+02  0.25500000000E-02 0.  1.
         -2   -1    0    0    0  501 -0.00000000000E+00 -0.00000000000E+00 -0.19882063057E+04  0.19882063057E+04  0.25500000000E-02 0. -1.
   -5000001    1    1    2    0    0 -0.19929425660E+03  0.60323573793E+02 -0.13058907616E+04  0.13458112109E+04  0.25000000000E+03 0.  0.
    5000001    1    1    2    0    0  0.19929425660E+03 -0.60323573793E+02 -0.62240050552E+03  0.70231013345E+03  0.25000000000E+03 0.  0.
<mgrwt>
<rscale>  0 0.69028533E+03</rscale>
<asrwt>0</asrwt>
<pdfrwt beam="1">  1        2 0.92176998E-02 0.69028533E+03</pdfrwt>
<pdfrwt beam="2">  1       -2 0.30587784E+00 0.69028533E+03</pdfrwt>
<totfact> 0.22629493E+01</totfact>
</mgrwt>
</event>
<event>
 4    1  0.1755570E-005  0.6493413E+03  0.7818608E-02  0.9808016E-01
         -2   -1    0    0    0  501 -0.00000000000E+00  0.00000000000E+00  0.46484628501E+02  0.46484628571E+02  0.25500000000E-02 0. -1.
          2   -1    0    0  501    0  0.00000000000E+00 -0.00000000000E+00 -0.22676533091E+04  0.22676533091E+04  0.25500000000E-02 0.  1.
   -5000001    1    1    2    0    0 -0.13671673372E+02  0.50133526603E+02 -0.39594445814E+03  0.47113936269E+03  0.25000000000E+03 0.  0.
    5000001    1    1    2    0    0  0.13671673372E+02 -0.50133526603E+02 -0.18252242224E+04  0.18429985750E+04  0.25000000000E+03 0.  0.
<mgrwt>
<rscale>  0 0.64934127E+03</rscale>
<asrwt>0</asrwt>
<pdfrwt beam="1">  1        2 0.34886965E+00 0.64934127E+03</pdfrwt>
<pdfrwt beam="2">  1       -2 0.71514831E-02 0.64934127E+03</pdfrwt>
<totfact> 0.57809786E+02</totfact>
</mgrwt>
</event>
<event>
 4    1  0.1755570E-005  0.7328647E+03  0.7818608E-02  0.9662623E-01
          2   -1    0    0  501    0  0.00000000000E+00  0.00000000000E+00  0.72656109047E+03  0.72656109047E+03  0.25500000000E-02 0.  1.
         -2   -1    0    0    0  501 -0.00000000000E+00 -0.00000000000E+00 -0.18480574443E+03  0.18480574444E+03  0.25500000000E-02 0. -1.
   -5000001    1    1    2    0    0 -0.89274465907E+02  0.24045138130E+03  0.36709048876E+03  0.51287642173E+03  0.25000000000E+03 0.  0.
    5000001    1    1    2    0    0  0.89274465907E+02 -0.24045138130E+03  0.17466485728E+03  0.39849041318E+03  0.25000000000E+03 0.  0.
<mgrwt>
<rscale>  0 0.73286469E+03</rscale>
<asrwt>0</asrwt>
<pdfrwt beam="1">  1        2 0.11177863E+00 0.73286469E+03</pdfrwt>
<pdfrwt beam="2">  1       -2 0.28431654E-01 0.73286469E+03</pdfrwt>
<totfact> 0.44509975E+02</totfact>
</mgrwt>
</event>
<event>
 4    1  0.1755570E-005  0.6098733E+03  0.7818608E-02  0.9885131E-01
          2   -1    0    0  501    0  0.00000000000E+00  0.00000000000E+00  0.10455881406E+04  0.10455881406E+04  0.25500000000E-02 0.  1.
         -2   -1    0    0    0  501 -0.00000000000E+00 -0.00000000000E+00 -0.88932121492E+02  0.88932121529E+02  0.25500000000E-02 0. -1.
   -5000001    1    1    2    0    0 -0.10166293283E+03 -0.13172880941E+03  0.57673782175E+03  0.65024175979E+03  0.25000000000E+03 0.  0.
    5000001    1    1    2    0    0  0.10166293283E+03  0.13172880941E+03  0.37991819733E+03  0.48427850232E+03  0.25000000000E+03 0.  0.
<mgrwt>
<rscale>  0 0.60987334E+03</rscale>
<asrwt>0</asrwt>
<pdfrwt beam="1">  1        2 0.16085971E+00 0.60987334E+03</pdfrwt>
<pdfrwt beam="2">  1       -2 0.13681865E-01 0.60987334E+03</pdfrwt>
<totfact> 0.97216453E+02</totfact>
</mgrwt>
</event>
<event>
 4    1  0.1755570E-005  0.5745281E+03  0.7818608E-02  0.9959708E-01
         -2   -1    0    0    0  501 -0.00000000000E+00  0.00000000000E+00  0.11637813115E+03  0.11637813118E+03  0.25500000000E-02 0. -1.
          2   -1    0    0  501    0  0.00000000000E+00 -0.00000000000E+00 -0.70907338324E+03  0.70907338324E+03  0.25500000000E-02 0.  1.
   -5000001    1    1    2    0    0  0.75049960237E+02  0.36442023455E+02 -0.13215492940E+03  0.29483121098E+03  0.25000000000E+03 0.  0.
    5000001    1    1    2    0    0 -0.75049960237E+02 -0.36442023455E+02 -0.46054032269E+03  0.53062030344E+03  0.25000000000E+03 0.  0.
<mgrwt>
<rscale>  0 0.57452810E+03</rscale>
<asrwt>0</asrwt>
<pdfrwt beam="1">  1        2 0.10908821E+00 0.57452810E+03</pdfrwt>
<pdfrwt beam="2">  1       -2 0.17904328E-01 0.57452810E+03</pdfrwt>
<totfact> 0.10475001E+03</totfact>
</mgrwt>
</event>
<event>
 4    1  0.1755570E-005  0.1227296E+04  0.7818608E-02  0.9089294E-01
          2   -1    0    0  501    0  0.00000000000E+00  0.00000000000E+00  0.11099160307E+04  0.11099160307E+04  0.25500000000E-02 0.  1.
         -2   -1    0    0    0  501 -0.00000000000E+00 -0.00000000000E+00 -0.33927228636E+03  0.33927228637E+03  0.25500000000E-02 0. -1.
   -5000001    1    1    2    0    0  0.14401241568E+03  0.51669306572E+03  0.57700596225E+03  0.82652718074E+03  0.25000000000E+03 0.  0.
    5000001    1    1    2    0    0 -0.14401241568E+03 -0.51669306572E+03  0.19363778208E+03  0.62266113632E+03  0.25000000000E+03 0.  0.
<mgrwt>
<rscale>  0 0.12272958E+04</rscale>
<asrwt>0</asrwt>
<pdfrwt beam="1">  1        2 0.17075632E+00 0.12272958E+04</pdfrwt>
<pdfrwt beam="2">  1       -2 0.52195735E-01 0.12272958E+04</pdfrwt>
<totfact> 0.73300857E+01</totfact>
</mgrwt>
</event>
<event>
 4    1  0.1755570E-005  0.9205407E+03  0.7818608E-02  0.9400263E-01
          2   -1    0    0  501    0  0.00000000000E+00  0.00000000000E+00  0.39401594316E+04  0.39401594316E+04  0.25500000000E-02 0.  1.
         -2   -1    0    0    0  501 -0.00000000000E+00 -0.00000000000E+00 -0.53766557875E+02  0.53766557935E+02  0.25500000000E-02 0. -1.
   -5000001    1    1    2    0    0 -0.22819250046E+03  0.31086248929E+03  0.20530862085E+04  0.21038940762E+04  0.25000000000E+03 0.  0.
    5000001    1    1    2    0    0  0.22819250046E+03 -0.31086248929E+03  0.18333066653E+04  0.18900319133E+04  0.25000000000E+03 0.  0.
<mgrwt>
<rscale>  0 0.92054073E+03</rscale>
<asrwt>0</asrwt>
<pdfrwt beam="1">  1        2 0.60617854E+00 0.92054073E+03</pdfrwt>
<pdfrwt beam="2">  1       -2 0.82717758E-02 0.92054073E+03</pdfrwt>
<totfact> 0.38131088E+01</totfact>
</mgrwt>
</event>
<event>
 4    1  0.1755570E-005  0.5894154E+03  0.7818608E-02  0.9927612E-01
          2   -1    0    0  501    0  0.00000000000E+00  0.00000000000E+00  0.56757907613E+03  0.56757907614E+03  0.25500000000E-02 0.  1.
         -2   -1    0    0    0  501 -0.00000000000E+00 -0.00000000000E+00 -0.15302296177E+03  0.15302296179E+03  0.25500000000E-02 0. -1.
   -5000001    1    1    2    0    0 -0.61680297594E+02  0.11353338368E+03  0.31426761822E+03  0.42185118725E+03  0.25000000000E+03 0.  0.
    5000001    1    1    2    0    0  0.61680297594E+02 -0.11353338368E+03  0.10028849614E+03  0.29875085068E+03  0.25000000000E+03 0.  0.
<mgrwt>
<rscale>  0 0.58941541E+03</rscale>
<asrwt>0</asrwt>
<pdfrwt beam="1">  1        2 0.87319859E-01 0.58941541E+03</pdfrwt>
<pdfrwt beam="2">  1       -2 0.23541994E-01 0.58941541E+03</pdfrwt>
<totfact> 0.85081600E+02</totfact>
</mgrwt>
</event>
<event>
 4    1  0.1755570E-005  0.6729625E+03  0.7818608E-02  0.9764621E-01
          2   -1    0    0  501    0  0.00000000000E+00  0.00000000000E+00  0.50288077987E+03  0.50288077987E+03  0.25500000000E-02 0.  1.
         -2   -1    0    0    0  501 -0.00000000000E+00 -0.00000000000E+00 -0.22514207817E+03  0.22514207818E+03  0.25500000000E-02 0. -1.
   -5000001    1    1    2    0    0 -0.14550993619E+03 -0.15820973795E+03  0.66168602598E+02  0.33627629515E+03  0.25000000000E+03 0.  0.
    5000001    1    1    2    0    0  0.14550993619E+03  0.15820973795E+03  0.21157009910E+03  0.39174656290E+03  0.25000000000E+03 0.  0.
<mgrwt>
<rscale>  0 0.67296248E+03</rscale>
<asrwt>0</asrwt>
<pdfrwt beam="1">  1        2 0.77366273E-01 0.67296248E+03</pdfrwt>
<pdfrwt beam="2">  1       -2 0.34637243E-01 0.67296248E+03</pdfrwt>
<totfact> 0.48143989E+02</totfact>
</mgrwt>
</event>
<event>
 4    1  0.1755570E-005  0.1508180E+04  0.7818608E-02  0.8879032E-01
         -2   -1    0    0    0  501 -0.00000000000E+00  0.00000000000E+00  0.24945974056E+03  0.24945974057E+03  0.25500000000E-02 0. -1.
          2   -1    0    0  501    0  0.00000000000E+00 -0.00000000000E+00 -0.22795324774E+04  0.22795324774E+04  0.25500000000E-02 0.  1.
   -5000001    1    1    2    0    0  0.17749165253E+03 -0.40531014564E+03 -0.80845484251E+02  0.51460236416E+03  0.25000000000E+03 0.  0.
    5000001    1    1    2    0    0 -0.17749165253E+03  0.40531014564E+03 -0.19492272526E+04  0.20143898538E+04  0.25000000000E+03 0.  0.
<mgrwt>
<rscale>  0 0.15081798E+04</rscale>
<asrwt>0</asrwt>
<pdfrwt beam="1">  1        2 0.35069729E+00 0.15081798E+04</pdfrwt>
<pdfrwt beam="2">  1       -2 0.38378423E-01 0.15081798E+04</pdfrwt>
<totfact> 0.28871978E+01</totfact>
</mgrwt>
</event>
<event>
 4    1  0.1755570E-005  0.6261931E+03  0.7818608E-02  0.9852506E-01
          2   -1    0    0  501    0  0.00000000000E+00  0.00000000000E+00  0.12801227905E+04  0.12801227905E+04  0.25500000000E-02 0.  1.
         -2   -1    0    0    0  501 -0.00000000000E+00 -0.00000000000E+00 -0.76578156883E+02  0.76578156926E+02  0.25500000000E-02 0. -1.
   -5000001    1    1    2    0    0 -0.18372470545E+03  0.41909751591E+02  0.61102778230E+03  0.68656110100E+03  0.25000000000E+03 0.  0.
    5000001    1    1    2    0    0  0.18372470545E+03 -0.41909751591E+02  0.59251685134E+03  0.67013984645E+03  0.25000000000E+03 0.  0.
<mgrwt>
<rscale>  0 0.62619308E+03</rscale>
<asrwt>0</asrwt>
<pdfrwt beam="1">  1        2 0.19694196E+00 0.62619308E+03</pdfrwt>
<pdfrwt beam="2">  1       -2 0.11781256E-01 0.62619308E+03</pdfrwt>
<totfact> 0.90239505E+02</totfact>
</mgrwt>
</event>
<event>
 4    1  0.1755570E-005  0.1010060E+04  0.7818608E-02  0.9297579E-01
         -2   -1    0    0    0  501 -0.00000000000E+00  0.00000000000E+00  0.26285771003E+03  0.26285771004E+03  0.25500000000E-02 0. -1.
          2   -1    0    0  501    0  0.00000000000E+00 -0.00000000000E+00 -0.97031699827E+03  0.97031699827E+03  0.25500000000E-02 0.  1.
   -5000001    1    1    2    0    0 -0.15683640803E+03  0.38622782350E+03 -0.18639291235E+03  0.52058804087E+03  0.25000000000E+03 0.  0.
    5000001    1    1    2    0    0  0.15683640803E+03 -0.38622782350E+03 -0.52106637589E+03  0.71258666744E+03  0.25000000000E+03 0.  0.
<mgrwt>
<rscale>  0 0.10100600E+04</rscale>
<asrwt>0</asrwt>
<pdfrwt beam="1">  1        2 0.14927954E+00 0.10100600E+04</pdfrwt>
<pdfrwt beam="2">  1       -2 0.40439648E-01 0.10100600E+04</pdfrwt>
<totfact> 0.15196345E+02</totfact>
</mgrwt>
</event>
<event>
 4    1  0.1755570E-005  0.6635051E+03  0.7818608E-02  0.9781763E-01
          2   -1    0    0  501    0  0.00000000000E+00  0.00000000000E+00  0.13335352249E+04  0.13335352249E+04  0.25500000000E-02 0.  1.
         -2   -1    0    0    0  501 -0.00000000000E+00 -0.00000000000E+00 -0.82532315311E+02  0.82532315351E+02  0.25500000000E-02 0. -1.
   -5000001    1    1    2    0    0 -0.11554377421E+03  0.16785066749E+03  0.79130650509E+03  0.85451167069E+03  0.25000000000E+03 0.  0.
    5000001    1    1    2    0    0  0.11554377421E+03 -0.16785066749E+03  0.45969640448E+03  0.56155586955E+03  0.25000000000E+03 0.  0.
<mgrwt>
<rscale>  0 0.66350509E+03</rscale>
<asrwt>0</asrwt>
<pdfrwt beam="1">  1        2 0.20515925E+00 0.66350509E+03</pdfrwt>
<pdfrwt beam="2">  1       -2 0.12697280E-01 0.66350509E+03</pdfrwt>
<totfact> 0.74195779E+02</totfact>
</mgrwt>
</event>
<event>
 4    1  0.1755570E-005  0.5394698E+03  0.7818608E-02  0.1003961E+00
          2   -1    0    0  501    0  0.00000000000E+00  0.00000000000E+00  0.89999459263E+03  0.89999459263E+03  0.25500000000E-02 0.  1.
         -2   -1    0    0    0  501 -0.00000000000E+00 -0.00000000000E+00 -0.80841506261E+02  0.80841506301E+02  0.25500000000E-02 0. -1.
   -5000001    1    1    2    0    0 -0.54735872024E+02 -0.51440617819E+02  0.28606597384E+03  0.38726721296E+03  0.25000000000E+03 0.  0.
    5000001    1    1    2    0    0  0.54735872024E+02  0.51440617819E+02  0.53308711252E+03  0.59356888597E+03  0.25000000000E+03 0.  0.
<mgrwt>
<rscale>  0 0.53946981E+03</rscale>
<asrwt>0</asrwt>
<pdfrwt beam="1">  1        2 0.13846072E+00 0.53946981E+03</pdfrwt>
<pdfrwt beam="2">  1       -2 0.12437153E-01 0.53946981E+03</pdfrwt>
<totfact> 0.14142481E+03</totfact>
</mgrwt>
</event>
<event>
 4    1  0.1755570E-005  0.9285869E+03  0.7818608E-02  0.9390535E-01
         -2   -1    0    0    0  501 -0.00000000000E+00  0.00000000000E+00  0.83766029954E+02  0.83766029992E+02  0.25500000000E-02 0. -1.
          2   -1    0    0  501    0  0.00000000000E+00 -0.00000000000E+00 -0.25734587979E+04  0.25734587979E+04  0.25500000000E-02 0.  1.
   -5000001    1    1    2    0    0  0.35272603027E+03 -0.14204339579E+03 -0.15083051680E+04  0.15754607131E+04  0.25000000000E+03 0.  0.
    5000001    1    1    2    0    0 -0.35272603027E+03  0.14204339579E+03 -0.98138759998E+03  0.10817641148E+04  0.25000000000E+03 0.  0.
<mgrwt>
<rscale>  0 0.92858694E+03</rscale>
<asrwt>0</asrwt>
<pdfrwt beam="1">  1        2 0.39591668E+00 0.92858694E+03</pdfrwt>
<pdfrwt beam="2">  1       -2 0.12887083E-01 0.92858694E+03</pdfrwt>
<totfact> 0.14575213E+02</totfact>
</mgrwt>
</event>
<event>
 4    1  0.1755570E-005  0.8204318E+03  0.7818608E-02  0.9530905E-01
          2   -1    0    0  501    0  0.00000000000E+00  0.00000000000E+00  0.19459429302E+04  0.19459429302E+04  0.25500000000E-02 0.  1.
         -2   -1    0    0    0  501 -0.00000000000E+00 -0.00000000000E+00 -0.86475859279E+02  0.86475859317E+02  0.25500000000E-02 0. -1.
   -5000001    1    1    2    0    0  0.21564300878E+03 -0.24345823513E+03  0.92525555915E+03  0.10121124785E+04  0.25000000000E+03 0.  0.
    5000001    1    1    2    0    0 -0.21564300878E+03  0.24345823513E+03  0.93421151178E+03  0.10203063110E+04  0.25000000000E+03 0.  0.
<mgrwt>
<rscale>  0 0.82043181E+03</rscale>
<asrwt>0</asrwt>
<pdfrwt beam="1">  1        2 0.29937584E+00 0.82043181E+03</pdfrwt>
<pdfrwt beam="2">  1       -2 0.13303978E-01 0.82043181E+03</pdfrwt>
<totfact> 0.31216126E+02</totfact>
</mgrwt>
</event>
<event>
 4    1  0.1755570E-005  0.5705466E+03  0.7818608E-02  0.9968470E-01
          2   -1    0    0  501    0  0.00000000000E+00  0.00000000000E+00  0.62754287826E+02  0.62754287878E+02  0.25500000000E-02 0.  1.
         -2   -1    0    0    0  501 -0.00000000000E+00 -0.00000000000E+00 -0.12968172485E+04  0.12968172485E+04  0.25500000000E-02 0. -1.
   -5000001    1    1    2    0    0 -0.11463897594E+03 -0.63447426896E+02 -0.51840092571E+03  0.59026027358E+03  0.25000000000E+03 0.  0.
    5000001    1    1    2    0    0  0.11463897594E+03  0.63447426896E+02 -0.71566203493E+03  0.76931126277E+03  0.25000000000E+03 0.  0.
<mgrwt>
<rscale>  0 0.57054656E+03</rscale>
<asrwt>0</asrwt>
<pdfrwt beam="1">  1        2 0.96545068E-02 0.57054656E+03</pdfrwt>
<pdfrwt beam="2">  1       -2 0.19951033E+00 0.57054656E+03</pdfrwt>
<totfact> 0.95638716E+01</totfact>
</mgrwt>
</event>
<event>
 4    1  0.1755570E-005  0.1475183E+04  0.7818608E-02  0.8901125E-01
          2   -1    0    0  501    0  0.00000000000E+00  0.00000000000E+00  0.13415936195E+04  0.13415936195E+04  0.25500000000E-02 0.  1.
         -2   -1    0    0    0  501 -0.00000000000E+00 -0.00000000000E+00 -0.40551884529E+03  0.40551884529E+03  0.25500000000E-02 0. -1.
   -5000001    1    1    2    0    0 -0.52179228516E+03 -0.35543371544E+03  0.80912029740E+03  0.10563029729E+04  0.25000000000E+03 0.  0.
    5000001    1    1    2    0    0  0.52179228516E+03  0.35543371544E+03  0.12695447684E+03  0.69080949191E+03  0.25000000000E+03 0.  0.
<mgrwt>
<rscale>  0 0.14751834E+04</rscale>
<asrwt>0</asrwt>
<pdfrwt beam="1">  1        2 0.20639902E+00 0.14751834E+04</pdfrwt>
<pdfrwt beam="2">  1       -2 0.62387515E-01 0.14751834E+04</pdfrwt>
<totfact> 0.36077358E+01</totfact>
</mgrwt>
</event>
<event>
 4    1  0.1755570E-005  0.5884298E+03  0.7818608E-02  0.9929706E-01
          2   -1    0    0  501    0  0.00000000000E+00  0.00000000000E+00  0.20555215894E+04  0.20555215894E+04  0.25500000000E-02 0.  1.
         -2   -1    0    0    0  501 -0.00000000000E+00 -0.00000000000E+00 -0.42112133223E+02  0.42112133300E+02  0.25500000000E-02 0. -1.
   -5000001    1    1    2    0    0 -0.12072071286E+03  0.10071526207E+02  0.13520944165E+04  0.13803384502E+04  0.25000000000E+03 0.  0.
    5000001    1    1    2    0    0  0.12072071286E+03 -0.10071526207E+02  0.66131503967E+03  0.71729527243E+03  0.25000000000E+03 0.  0.
<mgrwt>
<rscale>  0 0.58842977E+03</rscale>
<asrwt>0</asrwt>
<pdfrwt beam="1">  1        2 0.31623415E+00 0.58842977E+03</pdfrwt>
<pdfrwt beam="2">  1       -2 0.64787886E-02 0.58842977E+03</pdfrwt>
<totfact> 0.88648156E+02</totfact>
</mgrwt>
</event>
<event>
 4    1  0.1755570E-005  0.5954911E+03  0.7818608E-02  0.9914805E-01
         -2   -1    0    0    0  501 -0.00000000000E+00  0.00000000000E+00  0.20268515998E+03  0.20268516000E+03  0.25500000000E-02 0. -1.
          2   -1    0    0  501    0  0.00000000000E+00 -0.00000000000E+00 -0.43738975960E+03  0.43738975961E+03  0.25500000000E-02 0.  1.
   -5000001    1    1    2    0    0  0.14376529754E+03 -0.97706761724E+01 -0.38450132352E+02  0.29110537537E+03  0.25000000000E+03 0.  0.
    5000001    1    1    2    0    0 -0.14376529754E+03  0.97706761724E+01 -0.19625446727E+03  0.34896954425E+03  0.25000000000E+03 0.  0.
<mgrwt>
<rscale>  0 0.59549110E+03</rscale>
<asrwt>0</asrwt>
<pdfrwt beam="1">  1        2 0.67290732E-01 0.59549110E+03</pdfrwt>
<pdfrwt beam="2">  1       -2 0.31182332E-01 0.59549110E+03</pdfrwt>
<totfact> 0.68904875E+02</totfact>
</mgrwt>
</event>
<event>
 4    1  0.1755570E-005  0.8727133E+03  0.7818608E-02  0.9460349E-01
         -2   -1    0    0    0  501 -0.00000000000E+00  0.00000000000E+00  0.18663768451E+03  0.18663768453E+03  0.25500000000E-02 0. -1.
          2   -1    0    0  501    0  0.00000000000E+00 -0.00000000000E+00 -0.10201965012E+04  0.10201965012E+04  0.25500000000E-02 0.  1.
   -5000001    1    1    2    0    0  0.21464433560E+03  0.12180665964E+03 -0.58841960796E+02  0.35619015917E+03  0.25000000000E+03 0.  0.
    5000001    1    1    2    0    0 -0.21464433560E+03 -0.12180665964E+03 -0.77471685593E+03  0.85064402660E+03  0.25000000000E+03 0.  0.
<mgrwt>
<rscale>  0 0.87271327E+03</rscale>
<asrwt>0</asrwt>
<pdfrwt beam="1">  1        2 0.15695330E+00 0.87271327E+03</pdfrwt>
<pdfrwt beam="2">  1       -2 0.28713491E-01 0.87271327E+03</pdfrwt>
<totfact> 0.27256960E+02</totfact>
</mgrwt>
</event>
<event>
 4    1  0.1755570E-005  0.7657127E+03  0.7818608E-02  0.9611017E-01
          2   -1    0    0  501    0  0.00000000000E+00  0.00000000000E+00  0.17571275115E+04  0.17571275115E+04  0.25500000000E-02 0.  1.
         -2   -1    0    0    0  501 -0.00000000000E+00 -0.00000000000E+00 -0.83419652131E+02  0.83419652170E+02  0.25500000000E-02 0. -1.
   -5000001    1    1    2    0    0  0.85937878562E+02 -0.23923725291E+03  0.11721615602E+04  0.12251867227E+04  0.25000000000E+03 0.  0.
    5000001    1    1    2    0    0 -0.85937878562E+02  0.23923725291E+03  0.50154629911E+03  0.61536044096E+03  0.25000000000E+03 0.  0.
<mgrwt>
<rscale>  0 0.76571265E+03</rscale>
<asrwt>0</asrwt>
<pdfrwt beam="1">  1        2 0.27032730E+00 0.76571265E+03</pdfrwt>
<pdfrwt beam="2">  1       -2 0.12833793E-01 0.76571265E+03</pdfrwt>
<totfact> 0.42189321E+02</totfact>
</mgrwt>
</event>
<event>
 4    1  0.1755570E-005  0.1092443E+04  0.7818608E-02  0.9212589E-01
         -2   -1    0    0    0  501 -0.00000000000E+00  0.00000000000E+00  0.78377743977E+03  0.78377743978E+03  0.25500000000E-02 0. -1.
          2   -1    0    0  501    0  0.00000000000E+00 -0.00000000000E+00 -0.38066667797E+03  0.38066667798E+03  0.25500000000E-02 0.  1.
   -5000001    1    1    2    0    0 -0.65068930610E+02  0.48109761012E+03  0.21541538935E+03  0.58702015822E+03  0.25000000000E+03 0.  0.
    5000001    1    1    2    0    0  0.65068930610E+02 -0.48109761012E+03  0.18769537246E+03  0.57742395953E+03  0.25000000000E+03 0.  0.
<mgrwt>
<rscale>  0 0.10924430E+04</rscale>
<asrwt>0</asrwt>
<pdfrwt beam="1">  1        2 0.58564105E-01 0.10924430E+04</pdfrwt>
<pdfrwt beam="2">  1       -2 0.12058114E+00 0.10924430E+04</pdfrwt>
<totfact> 0.43803652E+01</totfact>
</mgrwt>
</event>
<event>
 4    1  0.1755570E-005  0.6752776E+03  0.7818608E-02  0.9760470E-01
         -2   -1    0    0    0  501 -0.00000000000E+00  0.00000000000E+00  0.31372833881E+02  0.31372833985E+02  0.25500000000E-02 0. -1.
          2   -1    0    0  501    0  0.00000000000E+00 -0.00000000000E+00 -0.36337161000E+04  0.36337161000E+04  0.25500000000E-02 0.  1.
   -5000001    1    1    2    0    0  0.49411565868E+02  0.20975642540E+03 -0.14150644198E+04  0.14530473403E+04  0.25000000000E+03 0.  0.
    5000001    1    1    2    0    0 -0.49411565868E+02 -0.20975642540E+03 -0.21872788463E+04  0.22120415937E+04  0.25000000000E+03 0.  0.
<mgrwt>
<rscale>  0 0.67527764E+03</rscale>
<asrwt>0</asrwt>
<pdfrwt beam="1">  1        2 0.55903291E+00 0.67527764E+03</pdfrwt>
<pdfrwt beam="2">  1       -2 0.48265927E-02 0.67527764E+03</pdfrwt>
<totfact> 0.15577561E+02</totfact>
</mgrwt>
</event>
<event>
 4    1  0.1755570E-005  0.1011318E+04  0.7818608E-02  0.9296218E-01
         -2   -1    0    0    0  501 -0.00000000000E+00  0.00000000000E+00  0.23505468289E+03  0.23505468290E+03  0.25500000000E-02 0.  1.
          2   -1    0    0  501    0  0.00000000000E+00 -0.00000000000E+00 -0.10877927687E+04  0.10877927687E+04  0.25500000000E-02 0. -1.
   -5000001    1    1    2    0    0 -0.77222676972E+02 -0.93144209554E+02 -0.97908767293E+03  0.10177189479E+04  0.25000000000E+03 0.  0.
    5000001    1    1    2    0    0  0.77222676972E+02  0.93144209554E+02  0.12634958712E+03  0.30512850371E+03  0.25000000000E+03 0.  0.
<mgrwt>
<rscale>  0 0.10113175E+04</rscale>
<asrwt>0</asrwt>
<pdfrwt beam="1">  1        2 0.16735273E+00 0.10113175E+04</pdfrwt>
<pdfrwt beam="2">  1       -2 0.36162260E-01 0.10113175E+04</pdfrwt>
<totfact> 0.15896269E+02</totfact>
</mgrwt>
</event>
<event>
 4    1  0.1755570E-005  0.1046975E+04  0.7818608E-02  0.9258473E-01
          2   -1    0    0  501    0  0.00000000000E+00  0.00000000000E+00  0.13088181909E+04  0.13088181909E+04  0.25500000000E-02 0.  1.
         -2   -1    0    0    0  501 -0.00000000000E+00 -0.00000000000E+00 -0.20937899665E+03  0.20937899667E+03  0.25500000000E-02 0. -1.
   -5000001    1    1    2    0    0  0.13631556032E+03  0.33679099611E+03  0.14078434985E+03  0.46295824888E+03  0.25000000000E+03 0.  0.
    5000001    1    1    2    0    0 -0.13631556032E+03 -0.33679099611E+03  0.95865484444E+03  0.10552389387E+04  0.25000000000E+03 0.  0.
<mgrwt>
<rscale>  0 0.10469748E+04</rscale>
<asrwt>0</asrwt>
<pdfrwt beam="1">  1        2 0.20135664E+00 0.10469748E+04</pdfrwt>
<pdfrwt beam="2">  1       -2 0.32212153E-01 0.10469748E+04</pdfrwt>
<totfact> 0.14578564E+02</totfact>
</mgrwt>
</event>
<event>
 4    1  0.1755570E-005  0.6177149E+03  0.7818608E-02  0.9869320E-01
         -2   -1    0    0    0  501 -0.00000000000E+00  0.00000000000E+00  0.54873899530E+02  0.54873899589E+02  0.25500000000E-02 0. -1.
          2   -1    0    0  501    0  0.00000000000E+00 -0.00000000000E+00 -0.17384022628E+04  0.17384022628E+04  0.25500000000E-02 0.  1.
   -5000001    1    1    2    0    0 -0.14645709765E+03  0.64373886926E+01 -0.11517527245E+04  0.11876554466E+04  0.25000000000E+03 0.  0.
    5000001    1    1    2    0    0  0.14645709765E+03 -0.64373886926E+01 -0.53177563882E+03  0.60562071585E+03  0.25000000000E+03 0.  0.
<mgrwt>
<rscale>  0 0.61771486E+03</rscale>
<asrwt>0</asrwt>
<pdfrwt beam="1">  1        2 0.26744646E+00 0.61771486E+03</pdfrwt>
<pdfrwt beam="2">  1       -2 0.84421397E-02 0.61771486E+03</pdfrwt>
<totfact> 0.86336377E+02</totfact>
</mgrwt>
</event>
<event>
 4    1  0.1755570E-005  0.1417906E+04  0.7818608E-02  0.8940958E-01
         -2   -1    0    0    0  501 -0.00000000000E+00  0.00000000000E+00  0.20345642246E+03  0.20345642247E+03  0.25500000000E-02 0. -1.
          2   -1    0    0  501    0  0.00000000000E+00 -0.00000000000E+00 -0.24703778482E+04  0.24703778483E+04  0.25500000000E-02 0.  1.
   -5000001    1    1    2    0    0 -0.39160829455E+02  0.53567264963E+03 -0.18677843574E+04  0.19594890058E+04  0.25000000000E+03 0.  0.
    5000001    1    1    2    0    0  0.39160829455E+02 -0.53567264963E+03 -0.39913706835E+03  0.71434526488E+03  0.25000000000E+03 0.  0.
<mgrwt>
<rscale>  0 0.14179058E+04</rscale>
<asrwt>0</asrwt>
<pdfrwt beam="1">  1        2 0.38005811E+00 0.14179058E+04</pdfrwt>
<pdfrwt beam="2">  1       -2 0.31300990E-01 0.14179058E+04</pdfrwt>
<totfact> 0.33445052E+01</totfact>
</mgrwt>
</event>
<event>
 4    1  0.1755570E-005  0.7307501E+03  0.7818608E-02  0.9666044E-01
         -2   -1    0    0    0  501 -0.00000000000E+00  0.00000000000E+00  0.26085331922E+04  0.26085331922E+04  0.25500000000E-02 0. -1.
          2   -1    0    0  501    0  0.00000000000E+00 -0.00000000000E+00 -0.51177775250E+02  0.51177775314E+02  0.25500000000E-02 0.  1.
   -5000001    1    1    2    0    0 -0.19411508397E+03 -0.74590853144E+02  0.67231569246E+03  0.74682852887E+03  0.25000000000E+03 0.  0.
    5000001    1    1    2    0    0  0.19411508397E+03  0.74590853144E+02  0.18850397245E+04  0.19128824387E+04  0.25000000000E+03 0.  0.
<mgrwt>
<rscale>  0 0.73075010E+03</rscale>
<asrwt>0</asrwt>
<pdfrwt beam="1">  1        2 0.78735018E-02 0.73075010E+03</pdfrwt>
<pdfrwt beam="2">  1       -2 0.40131290E+00 0.73075010E+03</pdfrwt>
<totfact> 0.70276480E+00</totfact>
</mgrwt>
</event>
<event>
 4    1  0.1755570E-005  0.9074082E+03  0.7818608E-02  0.9416368E-01
         -2   -1    0    0    0  501 -0.00000000000E+00  0.00000000000E+00  0.12915408194E+03  0.12915408197E+03  0.25500000000E-02 0. -1.
          2   -1    0    0  501    0  0.00000000000E+00 -0.00000000000E+00 -0.15938124946E+04  0.15938124946E+04  0.25500000000E-02 0.  1.
   -5000001    1    1    2    0    0 -0.35280725810E+03 -0.82013220727E+02 -0.52304752731E+03  0.68357724184E+03  0.25000000000E+03 0.  0.
    5000001    1    1    2    0    0  0.35280725810E+03  0.82013220727E+02 -0.94161088538E+03  0.10393893348E+04  0.25000000000E+03 0.  0.
<mgrwt>
<rscale>  0 0.90740815E+03</rscale>
<asrwt>0</asrwt>
<pdfrwt beam="1">  1        2 0.24520191E+00 0.90740815E+03</pdfrwt>
<pdfrwt beam="2">  1       -2 0.19869860E-01 0.90740815E+03</pdfrwt>
<totfact> 0.24381340E+02</totfact>
</mgrwt>
</event>
<event>
 4    1  0.1755570E-005  0.7371474E+03  0.7818608E-02  0.9655733E-01
         -2   -1    0    0    0  501 -0.00000000000E+00  0.00000000000E+00  0.48000137037E+02  0.48000137105E+02  0.25500000000E-02 0. -1.
          2   -1    0    0  501    0  0.00000000000E+00 -0.00000000000E+00 -0.28301284719E+04  0.28301284719E+04  0.25500000000E-02 0.  1.
   -5000001    1    1    2    0    0  0.17235021650E+03 -0.11754742642E+03 -0.20653482526E+04  0.20908575751E+04  0.25000000000E+03 0.  0.
    5000001    1    1    2    0    0 -0.17235021650E+03  0.11754742642E+03 -0.71678008219E+03  0.78727103390E+03  0.25000000000E+03 0.  0.
<mgrwt>
<rscale>  0 0.73714735E+03</rscale>
<asrwt>0</asrwt>
<pdfrwt beam="1">  1        2 0.43540425E+00 0.73714735E+03</pdfrwt>
<pdfrwt beam="2">  1       -2 0.73846387E-02 0.73714735E+03</pdfrwt>
<totfact> 0.26038201E+02</totfact>
</mgrwt>
</event>
<event>
 4    1  0.1755570E-005  0.9818647E+03  0.7818608E-02  0.9328662E-01
         -2   -1    0    0    0  501 -0.00000000000E+00  0.00000000000E+00  0.18870271088E+03  0.18870271090E+03  0.25500000000E-02 0. -1.
          2   -1    0    0  501    0  0.00000000000E+00 -0.00000000000E+00 -0.12772183157E+04  0.12772183157E+04  0.25500000000E-02 0.  1.
   -5000001    1    1    2    0    0  0.41594225447E+03  0.45777526943E+02 -0.63145467682E+03  0.79770831129E+03  0.25000000000E+03 0.  0.
    5000001    1    1    2    0    0 -0.41594225447E+03 -0.45777526943E+02 -0.45706092804E+03  0.66821271536E+03  0.25000000000E+03 0.  0.
<mgrwt>
<rscale>  0 0.98186467E+03</rscale>
<asrwt>0</asrwt>
<pdfrwt beam="1">  1        2 0.19649512E+00 0.98186467E+03</pdfrwt>
<pdfrwt beam="2">  1       -2 0.29031187E-01 0.98186467E+03</pdfrwt>
<totfact> 0.18542686E+02</totfact>
</mgrwt>
</event>
<event>
 4    1  0.1755570E-005  0.1240726E+04  0.7818608E-02  0.9077937E-01
         -2   -1    0    0    0  501 -0.00000000000E+00  0.00000000000E+00  0.66200089531E+03  0.66200089531E+03  0.25500000000E-02 0.  1.
          2   -1    0    0  501    0  0.00000000000E+00 -0.00000000000E+00 -0.58134407729E+03  0.58134407729E+03  0.25500000000E-02 0. -1.
   -5000001    1    1    2    0    0  0.54897934211E+03 -0.11976171003E+03  0.12191964075E+03  0.62696537707E+03  0.25000000000E+03 0.  0.
    5000001    1    1    2    0    0 -0.54897934211E+03  0.11976171003E+03 -0.41262822727E+02  0.61637959553E+03  0.25000000000E+03 0.  0.
<mgrwt>
<rscale>  0 0.12407261E+04</rscale>
<asrwt>0</asrwt>
<pdfrwt beam="1">  1        2 0.89437550E-01 0.12407261E+04</pdfrwt>
<pdfrwt beam="2">  1       -2 0.10184629E+00 0.12407261E+04</pdfrwt>
<totfact> 0.40105369E+01</totfact>
</mgrwt>
</event>
<event>
 4    1  0.1755570E-005  0.6736784E+03  0.7818608E-02  0.9763335E-01
         -2   -1    0    0    0  501 -0.00000000000E+00  0.00000000000E+00  0.53167692013E+02  0.53167692074E+02  0.25500000000E-02 0. -1.
          2   -1    0    0  501    0  0.00000000000E+00 -0.00000000000E+00 -0.21340150460E+04  0.21340150460E+04  0.25500000000E-02 0.  1.
   -5000001    1    1    2    0    0 -0.76605692578E+02  0.20752687740E+03 -0.11865153313E+04  0.12325804105E+04  0.25000000000E+03 0.  0.
    5000001    1    1    2    0    0  0.76605692578E+02 -0.20752687740E+03 -0.89433202268E+03  0.95460232755E+03  0.25000000000E+03 0.  0.
<mgrwt>
<rscale>  0 0.67367842E+03</rscale>
<asrwt>0</asrwt>
<pdfrwt beam="1">  1        2 0.32830994E+00 0.67367842E+03</pdfrwt>
<pdfrwt beam="2">  1       -2 0.81796466E-02 0.67367842E+03</pdfrwt>
<totfact> 0.55160974E+02</totfact>
</mgrwt>
</event>
<event>
 4    1  0.1755570E-005  0.9731340E+03  0.7818608E-02  0.9338512E-01
          2   -1    0    0  501    0  0.00000000000E+00  0.00000000000E+00  0.79415771559E+03  0.79415771559E+03  0.25500000000E-02 0.  1.
         -2   -1    0    0    0  501 -0.00000000000E+00 -0.00000000000E+00 -0.29811138468E+03  0.29811138469E+03  0.25500000000E-02 0. -1.
   -5000001    1    1    2    0    0 -0.23545974735E+03  0.31952056373E+03  0.39312778825E+03  0.61203279419E+03  0.25000000000E+03 0.  0.
    5000001    1    1    2    0    0  0.23545974735E+03 -0.31952056373E+03  0.10291854265E+03  0.48023630609E+03  0.25000000000E+03 0.  0.
<mgrwt>
<rscale>  0 0.97313402E+03</rscale>
<asrwt>0</asrwt>
<pdfrwt beam="1">  1        2 0.12217811E+00 0.97313402E+03</pdfrwt>
<pdfrwt beam="2">  1       -2 0.45863291E-01 0.97313402E+03</pdfrwt>
<totfact> 0.15672187E+02</totfact>
</mgrwt>
</event>
<event>
 4    1  0.1755570E-005  0.1237970E+04  0.7818608E-02  0.9080255E-01
          2   -1    0    0  501    0  0.00000000000E+00  0.00000000000E+00  0.17585614021E+04  0.17585614021E+04  0.25500000000E-02 0.  1.
         -2   -1    0    0    0  501 -0.00000000000E+00 -0.00000000000E+00 -0.21787273652E+03  0.21787273653E+03  0.25500000000E-02 0. -1.
   -5000001    1    1    2    0    0 -0.47770951922E+03  0.19600693982E+03  0.39928847018E+03  0.69896808770E+03  0.25000000000E+03 0.  0.
    5000001    1    1    2    0    0  0.47770951922E+03 -0.19600693982E+03  0.11414001954E+04  0.12774660509E+04  0.25000000000E+03 0.  0.
<mgrwt>
<rscale>  0 0.12379703E+04</rscale>
<asrwt>0</asrwt>
<pdfrwt beam="1">  1        2 0.27054791E+00 0.12379703E+04</pdfrwt>
<pdfrwt beam="2">  1       -2 0.33518883E-01 0.12379703E+04</pdfrwt>
<totfact> 0.74509572E+01</totfact>
</mgrwt>
</event>
<event>
 4    1  0.1755570E-005  0.9518073E+03  0.7818608E-02  0.9363041E-01
          2   -1    0    0  501    0  0.00000000000E+00  0.00000000000E+00  0.47813143301E+03  0.47813143302E+03  0.25500000000E-02 0.  1.
         -2   -1    0    0    0  501 -0.00000000000E+00 -0.00000000000E+00 -0.47368629444E+03  0.47368629445E+03  0.25500000000E-02 0. -1.
   -5000001    1    1    2    0    0  0.17113525412E+03 -0.98430866937E+02  0.35579168917E+03  0.47756008716E+03  0.25000000000E+03 0.  0.
    5000001    1    1    2    0    0 -0.17113525412E+03  0.98430866937E+02 -0.35134655060E+03  0.47425764030E+03  0.25000000000E+03 0.  0.
<mgrwt>
<rscale>  0 0.95180735E+03</rscale>
<asrwt>0</asrwt>
<pdfrwt beam="1">  1        2 0.73558682E-01 0.95180735E+03</pdfrwt>
<pdfrwt beam="2">  1       -2 0.72874815E-01 0.95180735E+03</pdfrwt>
<totfact> 0.11055128E+02</totfact>
</mgrwt>
</event>
<event>
 4    1  0.1755570E-005  0.7045341E+03  0.7818608E-02  0.9709510E-01
          2   -1    0    0  501    0  0.00000000000E+00  0.00000000000E+00  0.13797064407E+04  0.13797064407E+04  0.25500000000E-02 0.  1.
         -2   -1    0    0    0  501 -0.00000000000E+00 -0.00000000000E+00 -0.89940931600E+02  0.89940931636E+02  0.25500000000E-02 0. -1.
   -5000001    1    1    2    0    0 -0.12179897402E+03  0.38720631207E+02  0.10886526682E+04  0.11242770608E+04  0.25000000000E+03 0.  0.
    5000001    1    1    2    0    0  0.12179897402E+03 -0.38720631207E+02  0.20111284091E+03  0.34537031160E+03  0.25000000000E+03 0.  0.
<mgrwt>
<rscale>  0 0.70453412E+03</rscale>
<asrwt>0</asrwt>
<pdfrwt beam="1">  1        2 0.21226253E+00 0.70453412E+03</pdfrwt>
<pdfrwt beam="2">  1       -2 0.13837066E-01 0.70453412E+03</pdfrwt>
<totfact> 0.60402526E+02</totfact>
</mgrwt>
</event>
<event>
 4    1  0.1755570E-005  0.6200536E+03  0.7818608E-02  0.9864653E-01
         -2   -1    0    0    0  501 -0.00000000000E+00  0.00000000000E+00  0.46896052784E+02  0.46896052854E+02  0.25500000000E-02 0. -1.
          2   -1    0    0  501    0  0.00000000000E+00 -0.00000000000E+00 -0.20495674329E+04  0.20495674329E+04  0.25500000000E-02 0.  1.
   -5000001    1    1    2    0    0  0.12181576584E+03  0.12261250121E+03 -0.79445996986E+03  0.85061128018E+03  0.25000000000E+03 0.  0.
    5000001    1    1    2    0    0 -0.12181576584E+03 -0.12261250121E+03 -0.12082114102E+04  0.12458522056E+04  0.25000000000E+03 0.  0.
<mgrwt>
<rscale>  0 0.62005362E+03</rscale>
<asrwt>0</asrwt>
<pdfrwt beam="1">  1        2 0.31531800E+00 0.62005362E+03</pdfrwt>
<pdfrwt beam="2">  1       -2 0.72147790E-02 0.62005362E+03</pdfrwt>
<totfact> 0.75193388E+02</totfact>
</mgrwt>
</event>
<event>
 4    1  0.1755570E-005  0.5816999E+03  0.7818608E-02  0.9944118E-01
          2   -1    0    0  501    0  0.00000000000E+00  0.00000000000E+00  0.42488053326E+03  0.42488053327E+03  0.25500000000E-02 0.  1.
         -2   -1    0    0    0  501 -0.00000000000E+00 -0.00000000000E+00 -0.19909994920E+03  0.19909994922E+03  0.25500000000E-02 0. -1.
   -5000001    1    1    2    0    0 -0.39635035258E+02 -0.13449988456E+03  0.16579591131E+03  0.33113356697E+03  0.25000000000E+03 0.  0.
    5000001    1    1    2    0    0  0.39635035258E+02  0.13449988456E+03  0.59984672748E+02  0.29284691552E+03  0.25000000000E+03 0.  0.
<mgrwt>
<rscale>  0 0.58169990E+03</rscale>
<asrwt>0</asrwt>
<pdfrwt beam="1">  1        2 0.65366236E-01 0.58169990E+03</pdfrwt>
<pdfrwt beam="2">  1       -2 0.30630762E-01 0.58169990E+03</pdfrwt>
<totfact> 0.73608498E+02</totfact>
</mgrwt>
</event>
<event>
 4    1  0.1755570E-005  0.6692210E+03  0.7818608E-02  0.9771366E-01
          2   -1    0    0  501    0  0.00000000000E+00  0.00000000000E+00  0.11283336590E+04  0.11283336590E+04  0.25500000000E-02 0.  1.
         -2   -1    0    0    0  501 -0.00000000000E+00 -0.00000000000E+00 -0.99229664964E+02  0.99229664997E+02  0.25500000000E-02 0. -1.
   -5000001    1    1    2    0    0  0.19967431885E+03  0.65202345804E+02  0.38047119018E+03  0.50137760826E+03  0.25000000000E+03 0.  0.
    5000001    1    1    2    0    0 -0.19967431885E+03 -0.65202345804E+02  0.64863280387E+03  0.72618571575E+03  0.25000000000E+03 0.  0.
<mgrwt>
<rscale>  0 0.66922095E+03</rscale>
<asrwt>0</asrwt>
<pdfrwt beam="1">  1        2 0.17358978E+00 0.66922095E+03</pdfrwt>
<pdfrwt beam="2">  1       -2 0.15266103E-01 0.66922095E+03</pdfrwt>
<totfact> 0.71827271E+02</totfact>
</mgrwt>
</event>
<event>
 4    1  0.1755570E-005  0.5413742E+03  0.7818608E-02  0.1003510E+00
         -2   -1    0    0    0  501 -0.00000000000E+00  0.00000000000E+00  0.21919744128E+02  0.21919744276E+02  0.25500000000E-02 0. -1.
          2   -1    0    0  501    0  0.00000000000E+00 -0.00000000000E+00 -0.33427174809E+04  0.33427174809E+04  0.25500000000E-02 0.  1.
   -5000001    1    1    2    0    0 -0.52391142190E+02 -0.12052696412E+02 -0.11086483986E+04  0.11377571670E+04  0.25000000000E+03 0.  0.
    5000001    1    1    2    0    0  0.52391142190E+02  0.12052696412E+02 -0.22121493382E+04  0.22268800582E+04  0.25000000000E+03 0.  0.
<mgrwt>
<rscale>  0 0.54137422E+03</rscale>
<asrwt>0</asrwt>
<pdfrwt beam="1">  1        2 0.51426382E+00 0.54137422E+03</pdfrwt>
<pdfrwt beam="2">  1       -2 0.33722710E-02 0.54137422E+03</pdfrwt>
<totfact> 0.43347023E+02</totfact>
</mgrwt>
</event>
<event>
 4    1  0.1755570E-005  0.5562737E+03  0.7818608E-02  0.1000052E+00
          2   -1    0    0  501    0  0.00000000000E+00  0.00000000000E+00  0.16662196741E+04  0.16662196741E+04  0.25500000000E-02 0.  1.
         -2   -1    0    0    0  501 -0.00000000000E+00 -0.00000000000E+00 -0.46428520040E+02  0.46428520110E+02  0.25500000000E-02 0. -1.
   -5000001    1    1    2    0    0 -0.10866304006E+03  0.10506239369E+02  0.64289938118E+03  0.69838216735E+03  0.25000000000E+03 0.  0.
    5000001    1    1    2    0    0  0.10866304006E+03 -0.10506239369E+02  0.97689177291E+03  0.10142660269E+04  0.25000000000E+03 0.  0.
<mgrwt>
<rscale>  0 0.55627372E+03</rscale>
<asrwt>0</asrwt>
<pdfrwt beam="1">  1        2 0.25634151E+00 0.55627372E+03</pdfrwt>
<pdfrwt beam="2">  1       -2 0.71428488E-02 0.55627372E+03</pdfrwt>
<totfact> 0.12365969E+03</totfact>
</mgrwt>
</event>
<event>
 4    1  0.1755570E-005  0.8593415E+03  0.7818608E-02  0.9477884E-01
         -2   -1    0    0    0  501 -0.00000000000E+00  0.00000000000E+00  0.31291377309E+03  0.31291377310E+03  0.25500000000E-02 0. -1.
          2   -1    0    0  501    0  0.00000000000E+00 -0.00000000000E+00 -0.58999306292E+03  0.58999306293E+03  0.25500000000E-02 0.  1.
   -5000001    1    1    2    0    0  0.13125766257E+03 -0.32225975990E+03 -0.17237513869E+03  0.46183667597E+03  0.25000000000E+03 0.  0.
    5000001    1    1    2    0    0 -0.13125766257E+03  0.32225975990E+03 -0.10470415114E+03  0.44107016006E+03  0.25000000000E+03 0.  0.
<mgrwt>
<rscale>  0 0.85934150E+03</rscale>
<asrwt>0</asrwt>
<pdfrwt beam="1">  1        2 0.90768164E-01 0.85934150E+03</pdfrwt>
<pdfrwt beam="2">  1       -2 0.48140580E-01 0.85934150E+03</pdfrwt>
<totfact> 0.20790947E+02</totfact>
</mgrwt>
</event>
<event>
 4    1  0.1755570E-005  0.6896145E+03  0.7818608E-02  0.9735160E-01
          2   -1    0    0  501    0  0.00000000000E+00  0.00000000000E+00  0.10976358897E+04  0.10976358897E+04  0.25500000000E-02 0.  1.
         -2   -1    0    0    0  501 -0.00000000000E+00 -0.00000000000E+00 -0.10831645207E+03  0.10831645210E+03  0.25500000000E-02 0. -1.
   -5000001    1    1    2    0    0  0.22618762923E+03  0.63361740466E+02  0.43366745494E+03  0.55294033606E+03  0.25000000000E+03 0.  0.
    5000001    1    1    2    0    0 -0.22618762923E+03 -0.63361740466E+02  0.55565198265E+03  0.65301200570E+03  0.25000000000E+03 0.  0.
<mgrwt>
<rscale>  0 0.68961446E+03</rscale>
<asrwt>0</asrwt>
<pdfrwt beam="1">  1        2 0.16886706E+00 0.68961446E+03</pdfrwt>
<pdfrwt beam="2">  1       -2 0.16664069E-01 0.68961446E+03</pdfrwt>
<totfact> 0.64548912E+02</totfact>
</mgrwt>
</event>
<event>
 4    1  0.1755570E-005  0.6273804E+03  0.7818608E-02  0.9850174E-01
          2   -1    0    0  501    0  0.00000000000E+00  0.00000000000E+00  0.42217038987E+03  0.42217038988E+03  0.25500000000E-02 0.  1.
         -2   -1    0    0    0  501 -0.00000000000E+00 -0.00000000000E+00 -0.23308488522E+03  0.23308488523E+03  0.25500000000E-02 0. -1.
   -5000001    1    1    2    0    0  0.16624954338E+03 -0.89327385355E+02  0.11212038047E+03  0.33269997320E+03  0.25000000000E+03 0.  0.
    5000001    1    1    2    0    0 -0.16624954338E+03  0.89327385355E+02  0.76965124186E+02  0.32255530191E+03  0.25000000000E+03 0.  0.
<mgrwt>
<rscale>  0 0.62738039E+03</rscale>
<asrwt>0</asrwt>
<pdfrwt beam="1">  1        2 0.64949290E-01 0.62738039E+03</pdfrwt>
<pdfrwt beam="2">  1       -2 0.35859213E-01 0.62738039E+03</pdfrwt>
<totfact> 0.55090870E+02</totfact>
</mgrwt>
</event>
<event>
 4    1  0.1755570E-005  0.1179984E+04  0.7818608E-02  0.9130559E-01
         -2   -1    0    0    0  501 -0.00000000000E+00  0.00000000000E+00  0.52258233253E+03  0.52258233254E+03  0.25500000000E-02 0. -1.
          2   -1    0    0  501    0  0.00000000000E+00 -0.00000000000E+00 -0.66609722463E+03  0.66609722463E+03  0.25500000000E-02 0.  1.
   -5000001    1    1    2    0    0 -0.49039335519E+02 -0.20672448108E+03 -0.56572874287E+03  0.65397926421E+03  0.25000000000E+03 0.  0.
    5000001    1    1    2    0    0  0.49039335519E+02  0.20672448108E+03  0.42221385078E+03  0.53470029296E+03  0.25000000000E+03 0.  0.
<mgrwt>
<rscale>  0 0.11799841E+04</rscale>
<asrwt>0</asrwt>
<pdfrwt beam="1">  1        2 0.10247650E+00 0.11799841E+04</pdfrwt>
<pdfrwt beam="2">  1       -2 0.80397282E-01 0.11799841E+04</pdfrwt>
<totfact> 0.58936186E+01</totfact>
</mgrwt>
</event>
<event>
 4    1  0.1755570E-005  0.1548072E+04  0.7818608E-02  0.8853100E-01
          2   -1    0    0  501    0  0.00000000000E+00  0.00000000000E+00  0.34494372747E+04  0.34494372747E+04  0.25500000000E-02 0. -1.
         -2   -1    0    0    0  501 -0.00000000000E+00 -0.00000000000E+00 -0.17368980947E+03  0.17368980949E+03  0.25500000000E-02 0.  1.
   -5000001    1    1    2    0    0 -0.41867105861E+03  0.37580721535E+03  0.53983496740E+03  0.81880297414E+03  0.25000000000E+03 0.  0.
    5000001    1    1    2    0    0  0.41867105861E+03 -0.37580721535E+03  0.27359124978E+04  0.28043241100E+04  0.25000000000E+03 0.  0.
<mgrwt>
<rscale>  0 0.15480725E+04</rscale>
<asrwt>0</asrwt>
<pdfrwt beam="1">  1        2 0.53068261E+00 0.15480725E+04</pdfrwt>
<pdfrwt beam="2">  1       -2 0.26721511E-01 0.15480725E+04</pdfrwt>
<totfact> 0.10915883E+01</totfact>
</mgrwt>
</event>
<event>
 4    1  0.1755570E-005  0.9130530E+03  0.7818608E-02  0.9409410E-01
         -2   -1    0    0    0  501 -0.00000000000E+00  0.00000000000E+00  0.99509870323E+02  0.99509870355E+02  0.25500000000E-02 0. -1.
          2   -1    0    0  501    0  0.00000000000E+00 -0.00000000000E+00 -0.20944301004E+04  0.20944301004E+04  0.25500000000E-02 0.  1.
   -5000001    1    1    2    0    0  0.20274796805E+03  0.31015663238E+03 -0.77446482987E+03  0.89420335934E+03  0.25000000000E+03 0.  0.
    5000001    1    1    2    0    0 -0.20274796805E+03 -0.31015663238E+03 -0.12204554002E+04  0.12997366114E+04  0.25000000000E+03 0.  0.
<mgrwt>
<rscale>  0 0.91305305E+03</rscale>
<asrwt>0</asrwt>
<pdfrwt beam="1">  1        2 0.32221998E+00 0.91305305E+03</pdfrwt>
<pdfrwt beam="2">  1       -2 0.15309212E-01 0.91305305E+03</pdfrwt>
<totfact> 0.20280405E+02</totfact>
</mgrwt>
</event>
<event>
 4    1  0.1755570E-005  0.5928922E+03  0.7818608E-02  0.9920263E-01
          2   -1    0    0  501    0  0.00000000000E+00  0.00000000000E+00  0.16430893816E+04  0.16430893816E+04  0.25500000000E-02 0.  1.
         -2   -1    0    0    0  501 -0.00000000000E+00 -0.00000000000E+00 -0.53484790746E+02  0.53484790807E+02  0.25500000000E-02 0. -1.
   -5000001    1    1    2    0    0 -0.11958797346E+03  0.10001369030E+03  0.88867898381E+03  0.93624481729E+03  0.25000000000E+03 0.  0.
    5000001    1    1    2    0    0  0.11958797346E+03 -0.10001369030E+03  0.70092560709E+03  0.76032935516E+03  0.25000000000E+03 0.  0.
<mgrwt>
<rscale>  0 0.59289221E+03</rscale>
<asrwt>0</asrwt>
<pdfrwt beam="1">  1        2 0.25278299E+00 0.59289221E+03</pdfrwt>
<pdfrwt beam="2">  1       -2 0.82284292E-02 0.59289221E+03</pdfrwt>
<totfact> 0.10148472E+03</totfact>
</mgrwt>
</event>
<event>
 4    1  0.1755570E-005  0.1219326E+04  0.7818608E-02  0.9096106E-01
         -2   -1    0    0    0  501 -0.00000000000E+00  0.00000000000E+00  0.66290418267E+03  0.66290418267E+03  0.25500000000E-02 0. -1.
          2   -1    0    0  501    0  0.00000000000E+00 -0.00000000000E+00 -0.56069813228E+03  0.56069813229E+03  0.25500000000E-02 0.  1.
   -5000001    1    1    2    0    0  0.14982933966E+03 -0.41781835160E+03  0.38719264700E+03  0.63987432504E+03  0.25000000000E+03 0.  0.
    5000001    1    1    2    0    0 -0.14982933966E+03  0.41781835160E+03 -0.28498659662E+03  0.58372798991E+03  0.25000000000E+03 0.  0.
<mgrwt>
<rscale>  0 0.12193263E+04</rscale>
<asrwt>0</asrwt>
<pdfrwt beam="1">  1        2 0.86261252E-01 0.12193263E+04</pdfrwt>
<pdfrwt beam="2">  1       -2 0.10198526E+00 0.12193263E+04</pdfrwt>
<totfact> 0.41802647E+01</totfact>
</mgrwt>
</event>
<event>
 4    1  0.1755570E-005  0.7652016E+03  0.7818608E-02  0.9611799E-01
          2   -1    0    0  501    0  0.00000000000E+00  0.00000000000E+00  0.40834338699E+03  0.40834338700E+03  0.25500000000E-02 0.  1.
         -2   -1    0    0    0  501 -0.00000000000E+00 -0.00000000000E+00 -0.35848108415E+03  0.35848108416E+03  0.25500000000E-02 0. -1.
   -5000001    1    1    2    0    0 -0.79847091689E+02 -0.17942069987E+03  0.23825825259E+03  0.39728370281E+03  0.25000000000E+03 0.  0.
    5000001    1    1    2    0    0  0.79847091689E+02  0.17942069987E+03 -0.18839594975E+03  0.36954076835E+03  0.25000000000E+03 0.  0.
<mgrwt>
<rscale>  0 0.76520162E+03</rscale>
<asrwt>0</asrwt>
<pdfrwt beam="1">  1        2 0.62822059E-01 0.76520162E+03</pdfrwt>
<pdfrwt beam="2">  1       -2 0.55150936E-01 0.76520162E+03</pdfrwt>
<totfact> 0.24215505E+02</totfact>
</mgrwt>
</event>
<event>
 4    1  0.1755570E-005  0.6081936E+03  0.7818608E-02  0.9888551E-01
          2   -1    0    0  501    0  0.00000000000E+00  0.00000000000E+00  0.19993387074E+03  0.19993387075E+03  0.25500000000E-02 0.  1.
         -2   -1    0    0    0  501 -0.00000000000E+00 -0.00000000000E+00 -0.46252726947E+03  0.46252726948E+03  0.25500000000E-02 0. -1.
   -5000001    1    1    2    0    0  0.75549085197E+02 -0.15389332310E+03 -0.10497324511E+03  0.32079619910E+03  0.25000000000E+03 0.  0.
    5000001    1    1    2    0    0 -0.75549085197E+02  0.15389332310E+03 -0.15762015362E+03  0.34166494113E+03  0.25000000000E+03 0.  0.
<mgrwt>
<rscale>  0 0.60819361E+03</rscale>
<asrwt>0</asrwt>
<pdfrwt beam="1">  1        2 0.30759057E-01 0.60819361E+03</pdfrwt>
<pdfrwt beam="2">  1       -2 0.71158041E-01 0.60819361E+03</pdfrwt>
<totfact> 0.31351201E+02</totfact>
</mgrwt>
</event>
<event>
 4    1  0.1755570E-005  0.6299936E+03  0.7818608E-02  0.9845061E-01
         -2   -1    0    0    0  501 -0.00000000000E+00  0.00000000000E+00  0.70525922338E+02  0.70525922384E+02  0.25500000000E-02 0. -1.
          2   -1    0    0  501    0  0.00000000000E+00 -0.00000000000E+00 -0.14069007166E+04  0.14069007166E+04  0.25500000000E-02 0.  1.
   -5000001    1    1    2    0    0  0.15990240805E+03  0.90433905822E+02 -0.54025547299E+03  0.62299522271E+03  0.25000000000E+03 0.  0.
    5000001    1    1    2    0    0 -0.15990240805E+03 -0.90433905822E+02 -0.79611932126E+03  0.85443141627E+03  0.25000000000E+03 0.  0.
<mgrwt>
<rscale>  0 0.62999356E+03</rscale>
<asrwt>0</asrwt>
<pdfrwt beam="1">  1        2 0.21644624E+00 0.62999356E+03</pdfrwt>
<pdfrwt beam="2">  1       -2 0.10850143E-01 0.62999356E+03</pdfrwt>
<totfact> 0.87489803E+02</totfact>
</mgrwt>
</event>
<event>
 4    1  0.1755570E-005  0.9479232E+03  0.7818608E-02  0.9367581E-01
         -2   -1    0    0    0  501 -0.00000000000E+00  0.00000000000E+00  0.10517799974E+03  0.10517799977E+03  0.25500000000E-02 0. -1.
          2   -1    0    0  501    0  0.00000000000E+00 -0.00000000000E+00 -0.21358038355E+04  0.21358038355E+04  0.25500000000E-02 0.  1.
   -5000001    1    1    2    0    0 -0.22747116402E+03  0.28866740646E+03 -0.14042594168E+04  0.14729278705E+04  0.25000000000E+03 0.  0.
    5000001    1    1    2    0    0  0.22747116402E+03 -0.28866740646E+03 -0.62636641897E+03  0.76805396478E+03  0.25000000000E+03 0.  0.
<mgrwt>
<rscale>  0 0.94792315E+03</rscale>
<asrwt>0</asrwt>
<pdfrwt beam="1">  1        2 0.32858517E+00 0.94792315E+03</pdfrwt>
<pdfrwt beam="2">  1       -2 0.16181232E-01 0.94792315E+03</pdfrwt>
<totfact> 0.17459655E+02</totfact>
</mgrwt>
</event>
<event>
 4    1  0.1755570E-005  0.1685210E+04  0.7818608E-02  0.8769845E-01
         -2   -1    0    0    0  501 -0.00000000000E+00  0.00000000000E+00  0.62083801454E+03  0.62083801454E+03  0.25500000000E-02 0. -1.
          2   -1    0    0  501    0  0.00000000000E+00 -0.00000000000E+00 -0.11435882097E+04  0.11435882097E+04  0.25500000000E-02 0.  1.
   -5000001    1    1    2    0    0 -0.10990252255E+02 -0.75002622753E+03  0.43559074980E+02  0.79186963614E+03  0.25000000000E+03 0.  0.
    5000001    1    1    2    0    0  0.10990252255E+02  0.75002622753E+03 -0.56630927016E+03  0.97255658812E+03  0.25000000000E+03 0.  0.
<mgrwt>
<rscale>  0 0.16852098E+04</rscale>
<asrwt>0</asrwt>
<pdfrwt beam="1">  1        2 0.17593665E+00 0.16852098E+04</pdfrwt>
<pdfrwt beam="2">  1       -2 0.95513541E-01 0.16852098E+04</pdfrwt>
<totfact> 0.17963787E+01</totfact>
</mgrwt>
</event>
<event>
 4    1  0.1755570E-005  0.7360572E+03  0.7818608E-02  0.9657482E-01
         -2   -1    0    0    0  501 -0.00000000000E+00  0.00000000000E+00  0.14023129928E+03  0.14023129931E+03  0.25500000000E-02 0. -1.
          2   -1    0    0  501    0  0.00000000000E+00 -0.00000000000E+00 -0.96586881761E+03  0.96586881761E+03  0.25500000000E-02 0.  1.
   -5000001    1    1    2    0    0  0.13182481309E+03  0.23380682793E+03 -0.36769597476E+03  0.51936860127E+03  0.25000000000E+03 0.  0.
    5000001    1    1    2    0    0 -0.13182481309E+03 -0.23380682793E+03 -0.45794154357E+03  0.58673151565E+03  0.25000000000E+03 0.  0.
<mgrwt>
<rscale>  0 0.73605717E+03</rscale>
<asrwt>0</asrwt>
<pdfrwt beam="1">  1        2 0.14859520E+00 0.73605717E+03</pdfrwt>
<pdfrwt beam="2">  1       -2 0.21574047E-01 0.73605717E+03</pdfrwt>
<totfact> 0.49785411E+02</totfact>
</mgrwt>
</event>
<event>
 4    1  0.1755570E-005  0.5744066E+03  0.7818608E-02  0.9959975E-01
          2   -1    0    0  501    0  0.00000000000E+00  0.00000000000E+00  0.11357577591E+04  0.11357577591E+04  0.25500000000E-02 0.  1.
         -2   -1    0    0    0  501 -0.00000000000E+00 -0.00000000000E+00 -0.72626178521E+02  0.72626178565E+02  0.25500000000E-02 0. -1.
   -5000001    1    1    2    0    0 -0.11852581366E+03  0.67392415777E+02  0.61015666731E+03  0.67333592276E+03  0.25000000000E+03 0.  0.
    5000001    1    1    2    0    0  0.11852581366E+03 -0.67392415777E+02  0.45297491324E+03  0.53504801488E+03  0.25000000000E+03 0.  0.
<mgrwt>
<rscale>  0 0.57440664E+03</rscale>
<asrwt>0</asrwt>
<pdfrwt beam="1">  1        2 0.17473196E+00 0.57440664E+03</pdfrwt>
<pdfrwt beam="2">  1       -2 0.11173258E-01 0.57440664E+03</pdfrwt>
<totfact> 0.11982729E+03</totfact>
</mgrwt>
</event>
<event>
 4    1  0.1755570E-005  0.6879603E+03  0.7818608E-02  0.9738046E-01
          2   -1    0    0  501    0  0.00000000000E+00  0.00000000000E+00  0.85232343795E+03  0.85232343796E+03  0.25500000000E-02 0.  1.
         -2   -1    0    0    0  501 -0.00000000000E+00 -0.00000000000E+00 -0.13882327456E+03  0.13882327459E+03  0.25500000000E-02 0. -1.
   -5000001    1    1    2    0    0  0.22609371463E+03 -0.10356159187E+02  0.45442842334E+03  0.56588939712E+03  0.25000000000E+03 0.  0.
    5000001    1    1    2    0    0 -0.22609371463E+03  0.10356159187E+02  0.25907174005E+03  0.42525731543E+03  0.25000000000E+03 0.  0.
<mgrwt>
<rscale>  0 0.68796026E+03</rscale>
<asrwt>0</asrwt>
<pdfrwt beam="1">  1        2 0.13112668E+00 0.68796026E+03</pdfrwt>
<pdfrwt beam="2">  1       -2 0.21357427E-01 0.68796026E+03</pdfrwt>
<totfact> 0.60465374E+02</totfact>
</mgrwt>
</event>
<event>
 4    1  0.1755570E-005  0.6725711E+03  0.7818608E-02  0.9765324E-01
         -2   -1    0    0    0  501 -0.00000000000E+00  0.00000000000E+00  0.96771525235E+02  0.96771525268E+02  0.25500000000E-02 0. -1.
          2   -1    0    0  501    0  0.00000000000E+00 -0.00000000000E+00 -0.11686077657E+04  0.11686077657E+04  0.25500000000E-02 0.  1.
   -5000001    1    1    2    0    0 -0.54997537022E+02  0.21428734870E+03 -0.61220580935E+03  0.69730893433E+03  0.25000000000E+03 0.  0.
    5000001    1    1    2    0    0  0.54997537022E+02 -0.21428734870E+03 -0.45963043112E+03  0.56807035665E+03  0.25000000000E+03 0.  0.
<mgrwt>
<rscale>  0 0.67257105E+03</rscale>
<asrwt>0</asrwt>
<pdfrwt beam="1">  1        2 0.17978580E+00 0.67257105E+03</pdfrwt>
<pdfrwt beam="2">  1       -2 0.14887928E-01 0.67257105E+03</pdfrwt>
<totfact> 0.70876527E+02</totfact>
</mgrwt>
</event>
<event>
 4    1  0.1755570E-005  0.6627212E+03  0.7818608E-02  0.9783197E-01
          2   -1    0    0  501    0  0.00000000000E+00  0.00000000000E+00  0.20891863291E+04  0.20891863291E+04  0.25500000000E-02 0.  1.
         -2   -1    0    0    0  501 -0.00000000000E+00 -0.00000000000E+00 -0.52556275957E+02  0.52556276019E+02  0.25500000000E-02 0. -1.
   -5000001    1    1    2    0    0 -0.12431729279E+03  0.16218050568E+03  0.77771752334E+03  0.84208185577E+03  0.25000000000E+03 0.  0.
    5000001    1    1    2    0    0  0.12431729279E+03 -0.16218050568E+03  0.12589125298E+04  0.12996607494E+04  0.25000000000E+03 0.  0.
<mgrwt>
<rscale>  0 0.66272122E+03</rscale>
<asrwt>0</asrwt>
<pdfrwt beam="1">  1        2 0.32141328E+00 0.66272122E+03</pdfrwt>
<pdfrwt beam="2">  1       -2 0.80855810E-02 0.66272122E+03</pdfrwt>
<totfact> 0.59499097E+02</totfact>
</mgrwt>
</event>
<event>
 4    1  0.1755570E-005  0.6129965E+03  0.7818608E-02  0.9878803E-01
         -2   -1    0    0    0  501 -0.00000000000E+00  0.00000000000E+00  0.93665063567E+02  0.93665063602E+02  0.25500000000E-02 0. -1.
          2   -1    0    0  501    0  0.00000000000E+00 -0.00000000000E+00 -0.10029478912E+04  0.10029478912E+04  0.25500000000E-02 0.  1.
   -5000001    1    1    2    0    0  0.16349612536E+03  0.53544490837E+02 -0.37783817328E+03  0.48462323582E+03  0.25000000000E+03 0.  0.
    5000001    1    1    2    0    0 -0.16349612536E+03 -0.53544490837E+02 -0.53144465433E+03  0.61198971897E+03  0.25000000000E+03 0.  0.
<mgrwt>
<rscale>  0 0.61299650E+03</rscale>
<asrwt>0</asrwt>
<pdfrwt beam="1">  1        2 0.15429967E+00 0.61299650E+03</pdfrwt>
<pdfrwt beam="2">  1       -2 0.14410010E-01 0.61299650E+03</pdfrwt>
<totfact> 0.94782340E+02</totfact>
</mgrwt>
</event>
<event>
 4    1  0.1755570E-005  0.5702882E+03  0.7818608E-02  0.9969041E-01
          2   -1    0    0  501    0  0.00000000000E+00  0.00000000000E+00  0.28948067519E+04  0.28948067519E+04  0.25500000000E-02 0.  1.
         -2   -1    0    0    0  501 -0.00000000000E+00 -0.00000000000E+00 -0.28087247283E+02  0.28087247398E+02  0.25500000000E-02 0. -1.
   -5000001    1    1    2    0    0  0.42294672712E+02  0.11917139182E+03  0.11613571545E+04  0.11946719635E+04  0.25000000000E+03 0.  0.
    5000001    1    1    2    0    0 -0.42294672712E+02 -0.11917139182E+03  0.17053623501E+04  0.17282220358E+04  0.25000000000E+03 0.  0.
<mgrwt>
<rscale>  0 0.57028818E+03</rscale>
<asrwt>0</asrwt>
<pdfrwt beam="1">  1        2 0.44535489E+00 0.57028818E+03</pdfrwt>
<pdfrwt beam="2">  1       -2 0.43211150E-02 0.57028818E+03</pdfrwt>
<totfact> 0.56101250E+02</totfact>
</mgrwt>
</event>
<event>
 4    1  0.1755570E-005  0.5825572E+03  0.7818608E-02  0.9942270E-01
         -2   -1    0    0    0  501 -0.00000000000E+00  0.00000000000E+00  0.70718826852E+02  0.70718826898E+02  0.25500000000E-02 0. -1.
          2   -1    0    0  501    0  0.00000000000E+00 -0.00000000000E+00 -0.11997262459E+04  0.11997262459E+04  0.25500000000E-02 0.  1.
   -5000001    1    1    2    0    0  0.12093068394E+03  0.67568330196E+01 -0.37347012310E+03  0.46545656936E+03  0.25000000000E+03 0.  0.
    5000001    1    1    2    0    0 -0.12093068394E+03 -0.67568330196E+01 -0.75553729596E+03  0.80498850345E+03  0.25000000000E+03 0.  0.
<mgrwt>
<rscale>  0 0.58255723E+03</rscale>
<asrwt>0</asrwt>
<pdfrwt beam="1">  1        2 0.18457325E+00 0.58255723E+03</pdfrwt>
<pdfrwt beam="2">  1       -2 0.10879820E-01 0.58255723E+03</pdfrwt>
<totfact> 0.11466820E+03</totfact>
</mgrwt>
</event>
<event>
 4    1  0.1755570E-005  0.8995204E+03  0.7818608E-02  0.9426181E-01
          2   -1    0    0  501    0  0.00000000000E+00  0.00000000000E+00  0.31200702290E+04  0.31200702290E+04  0.25500000000E-02 0.  1.
         -2   -1    0    0    0  501 -0.00000000000E+00 -0.00000000000E+00 -0.64833234637E+02  0.64833234687E+02  0.25500000000E-02 0. -1.
   -5000001    1    1    2    0    0 -0.18616822375E+03  0.31291942156E+03  0.12270352857E+04  0.13041061169E+04  0.25000000000E+03 0.  0.
    5000001    1    1    2    0    0  0.18616822375E+03 -0.31291942156E+03  0.18282017087E+04  0.18807973468E+04  0.25000000000E+03 0.  0.
<mgrwt>
<rscale>  0 0.89952042E+03</rscale>
<asrwt>0</asrwt>
<pdfrwt beam="1">  1        2 0.48001080E+00 0.89952042E+03</pdfrwt>
<pdfrwt beam="2">  1       -2 0.99743439E-02 0.89952042E+03</pdfrwt>
<totfact> 0.10485120E+02</totfact>
</mgrwt>
</event>
<event>
 4    1  0.1755570E-005  0.1977980E+04  0.7818608E-02  0.8616986E-01
         -2   -1    0    0    0  501 -0.00000000000E+00  0.00000000000E+00  0.79961232490E+03  0.79961232491E+03  0.25500000000E-02 0. -1.
          2   -1    0    0  501    0  0.00000000000E+00 -0.00000000000E+00 -0.12232187500E+04  0.12232187500E+04  0.25500000000E-02 0.  1.
   -5000001    1    1    2    0    0 -0.69270526044E+03  0.51542265551E+03  0.20998028752E+03  0.92308873507E+03  0.25000000000E+03 0.  0.
    5000001    1    1    2    0    0  0.69270526044E+03 -0.51542265551E+03 -0.63358671264E+03  0.10997423399E+04  0.25000000000E+03 0.  0.
<mgrwt>
<rscale>  0 0.19779796E+04</rscale>
<asrwt>0</asrwt>
<pdfrwt beam="1">  1        2 0.18818750E+00 0.19779796E+04</pdfrwt>
<pdfrwt beam="2">  1       -2 0.12301728E+00 0.19779796E+04</pdfrwt>
<totfact> 0.85234413E+00</totfact>
</mgrwt>
</event>
<event>
 4    1  0.1755570E-005  0.1416828E+04  0.7818608E-02  0.8941727E-01
          2   -1    0    0  501    0  0.00000000000E+00  0.00000000000E+00  0.32977757451E+04  0.32977757451E+04  0.25500000000E-02 0.  1.
         -2   -1    0    0    0  501 -0.00000000000E+00 -0.00000000000E+00 -0.15217843545E+03  0.15217843547E+03  0.25500000000E-02 0. -1.
   -5000001    1    1    2    0    0 -0.42977753014E+03  0.50461975572E+03  0.15745715233E+04  0.17265935553E+04  0.25000000000E+03 0.  0.
    5000001    1    1    2    0    0  0.42977753014E+03 -0.50461975572E+03  0.15710257863E+04  0.17233606252E+04  0.25000000000E+03 0.  0.
<mgrwt>
<rscale>  0 0.14168279E+04</rscale>
<asrwt>0</asrwt>
<pdfrwt beam="1">  1        2 0.50735012E+00 0.14168279E+04</pdfrwt>
<pdfrwt beam="2">  1       -2 0.23412067E-01 0.14168279E+04</pdfrwt>
<totfact> 0.17782588E+01</totfact>
</mgrwt>
</event>
<event>
 4    1  0.1755570E-005  0.7804858E+03  0.7818608E-02  0.9588701E-01
          2   -1    0    0  501    0  0.00000000000E+00  0.00000000000E+00  0.80849827074E+03  0.80849827075E+03  0.25500000000E-02 0.  1.
         -2   -1    0    0    0  501 -0.00000000000E+00 -0.00000000000E+00 -0.18836095213E+03  0.18836095215E+03  0.25500000000E-02 0. -1.
   -5000001    1    1    2    0    0 -0.27133694611E+03 -0.10733335936E+03  0.22301711741E+03  0.44427561605E+03  0.25000000000E+03 0.  0.
    5000001    1    1    2    0    0  0.27133694611E+03  0.10733335936E+03  0.39712020120E+03  0.55258360685E+03  0.25000000000E+03 0.  0.
<mgrwt>
<rscale>  0 0.78048576E+03</rscale>
<asrwt>0</asrwt>
<pdfrwt beam="1">  1        2 0.12438435E+00 0.78048576E+03</pdfrwt>
<pdfrwt beam="2">  1       -2 0.28978607E-01 0.78048576E+03</pdfrwt>
<totfact> 0.37319969E+02</totfact>
</mgrwt>
</event>
<event>
 4    1  0.1755570E-005  0.5307200E+03  0.7818608E-02  0.1006058E+00
         -2   -1    0    0    0  501 -0.00000000000E+00  0.00000000000E+00  0.61907975778E+02  0.61907975831E+02  0.25500000000E-02 0. -1.
          2   -1    0    0  501    0  0.00000000000E+00 -0.00000000000E+00 -0.11374288939E+04  0.11374288939E+04  0.25500000000E-02 0.  1.
   -5000001    1    1    2    0    0 -0.58162411325E+02 -0.65175529537E+02 -0.49959644027E+03  0.56544435524E+03  0.25000000000E+03 0.  0.
    5000001    1    1    2    0    0  0.58162411325E+02  0.65175529537E+02 -0.57592447784E+03  0.63389251448E+03  0.25000000000E+03 0.  0.
<mgrwt>
<rscale>  0 0.53071997E+03</rscale>
<asrwt>0</asrwt>
<pdfrwt beam="1">  1        2 0.17498904E+00 0.53071997E+03</pdfrwt>
<pdfrwt beam="2">  1       -2 0.95243048E-02 0.53071997E+03</pdfrwt>
<totfact> 0.15509175E+03</totfact>
</mgrwt>
</event>
<event>
 4    1  0.1755570E-005  0.5844804E+03  0.7818608E-02  0.9938138E-01
         -2   -1    0    0    0  501 -0.00000000000E+00  0.00000000000E+00  0.44288945236E+02  0.44288945309E+02  0.25500000000E-02 0. -1.
          2   -1    0    0  501    0  0.00000000000E+00 -0.00000000000E+00 -0.19283444767E+04  0.19283444767E+04  0.25500000000E-02 0.  1.
   -5000001    1    1    2    0    0 -0.14621991563E+03 -0.26065439546E+02 -0.10401168086E+04  0.10800012252E+04  0.25000000000E+03 0.  0.
    5000001    1    1    2    0    0  0.14621991563E+03  0.26065439546E+02 -0.84393872289E+03  0.89263219686E+03  0.25000000000E+03 0.  0.
<mgrwt>
<rscale>  0 0.58448043E+03</rscale>
<asrwt>0</asrwt>
<pdfrwt beam="1">  1        2 0.29666832E+00 0.58448043E+03</pdfrwt>
<pdfrwt beam="2">  1       -2 0.68136854E-02 0.58448043E+03</pdfrwt>
<totfact> 0.95974156E+02</totfact>
</mgrwt>
</event>
<event>
 4    1  0.1755570E-005  0.9776077E+03  0.7818608E-02  0.9333451E-01
          2   -1    0    0  501    0  0.00000000000E+00  0.00000000000E+00  0.99303163502E+03  0.99303163502E+03  0.25500000000E-02 0.  1.
         -2   -1    0    0    0  501 -0.00000000000E+00 -0.00000000000E+00 -0.24060583060E+03  0.24060583061E+03  0.25500000000E-02 0. -1.
   -5000001    1    1    2    0    0 -0.10887381032E+03 -0.37032664512E+03  0.16720318250E+03  0.48933856878E+03  0.25000000000E+03 0.  0.
    5000001    1    1    2    0    0  0.10887381032E+03  0.37032664512E+03  0.58522262192E+03  0.74429889686E+03  0.25000000000E+03 0.  0.
<mgrwt>
<rscale>  0 0.97760770E+03</rscale>
<asrwt>0</asrwt>
<pdfrwt beam="1">  1        2 0.15277409E+00 0.97760770E+03</pdfrwt>
<pdfrwt beam="2">  1       -2 0.37016283E-01 0.97760770E+03</pdfrwt>
<totfact> 0.17475848E+02</totfact>
</mgrwt>
</event>
<event>
 4    1  0.1755570E-005  0.7507388E+03  0.7818608E-02  0.9634192E-01
          2   -1    0    0  501    0  0.00000000000E+00  0.00000000000E+00  0.15099175242E+04  0.15099175242E+04  0.25500000000E-02 0.  1.
         -2   -1    0    0    0  501 -0.00000000000E+00 -0.00000000000E+00 -0.93317802047E+02  0.93317802082E+02  0.25500000000E-02 0. -1.
   -5000001    1    1    2    0    0  0.24249946886E+03 -0.17076561080E+02  0.10050142657E+04  0.10637909925E+04  0.25000000000E+03 0.  0.
    5000001    1    1    2    0    0 -0.24249946886E+03  0.17076561080E+02  0.41158545639E+03  0.53944433378E+03  0.25000000000E+03 0.  0.
<mgrwt>
<rscale>  0 0.75073880E+03</rscale>
<asrwt>0</asrwt>
<pdfrwt beam="1">  1        2 0.23229500E+00 0.75073880E+03</pdfrwt>
<pdfrwt beam="2">  1       -2 0.14356585E-01 0.75073880E+03</pdfrwt>
<totfact> 0.47872474E+02</totfact>
</mgrwt>
</event>
<event>
 4    1  0.1755570E-005  0.6142937E+03  0.7818608E-02  0.9876187E-01
          2   -1    0    0  501    0  0.00000000000E+00  0.00000000000E+00  0.91992315502E+03  0.91992315502E+03  0.25500000000E-02 0.  1.
         -2   -1    0    0    0  501 -0.00000000000E+00 -0.00000000000E+00 -0.10255116465E+03  0.10255116468E+03  0.25500000000E-02 0. -1.
   -5000001    1    1    2    0    0 -0.24837473700E+02 -0.15530097560E+02  0.70165711096E+03  0.74543999450E+03  0.25000000000E+03 0.  0.
    5000001    1    1    2    0    0  0.24837473700E+02  0.15530097560E+02  0.11571487940E+03  0.27703432521E+03  0.25000000000E+03 0.  0.
<mgrwt>
<rscale>  0 0.61429371E+03</rscale>
<asrwt>0</asrwt>
<pdfrwt beam="1">  1        2 0.14152664E+00 0.61429371E+03</pdfrwt>
<pdfrwt beam="2">  1       -2 0.15777102E-01 0.61429371E+03</pdfrwt>
<totfact> 0.92039578E+02</totfact>
</mgrwt>
</event>
<event>
 4    1  0.1755570E-005  0.8706752E+03  0.7818608E-02  0.9463000E-01
         -2   -1    0    0    0  501 -0.00000000000E+00  0.00000000000E+00  0.24836118004E+03  0.24836118005E+03  0.25500000000E-02 0. -1.
          2   -1    0    0  501    0  0.00000000000E+00 -0.00000000000E+00 -0.76307752882E+03  0.76307752883E+03  0.25500000000E-02 0.  1.
   -5000001    1    1    2    0    0  0.29817256324E+03 -0.10212182606E+03 -0.64076502722E+02  0.40735923093E+03  0.25000000000E+03 0.  0.
    5000001    1    1    2    0    0 -0.29817256324E+03  0.10212182606E+03 -0.45063984606E+03  0.60407947795E+03  0.25000000000E+03 0.  0.
<mgrwt>
<rscale>  0 0.87067522E+03</rscale>
<asrwt>0</asrwt>
<pdfrwt beam="1">  1        2 0.11739654E+00 0.87067522E+03</pdfrwt>
<pdfrwt beam="2">  1       -2 0.38209413E-01 0.87067522E+03</pdfrwt>
<totfact> 0.23789299E+02</totfact>
</mgrwt>
</event>
<event>
 4    1  0.1755570E-005  0.6451472E+03  0.7818608E-02  0.9815928E-01
          2   -1    0    0  501    0  0.00000000000E+00  0.00000000000E+00  0.11925058726E+04  0.11925058726E+04  0.25500000000E-02 0.  1.
         -2   -1    0    0    0  501 -0.00000000000E+00 -0.00000000000E+00 -0.87256351888E+02  0.87256351926E+02  0.25500000000E-02 0. -1.
   -5000001    1    1    2    0    0  0.12083393970E+03 -0.15195200039E+03  0.42932598887E+03  0.53339577813E+03  0.25000000000E+03 0.  0.
    5000001    1    1    2    0    0 -0.12083393970E+03  0.15195200039E+03  0.67592353180E+03  0.74636644636E+03  0.25000000000E+03 0.  0.
<mgrwt>
<rscale>  0 0.64514715E+03</rscale>
<asrwt>0</asrwt>
<pdfrwt beam="1">  1        2 0.18346243E+00 0.64514715E+03</pdfrwt>
<pdfrwt beam="2">  1       -2 0.13424055E-01 0.64514715E+03</pdfrwt>
<totfact> 0.81697095E+02</totfact>
</mgrwt>
</event>
<event>
 4    1  0.1755570E-005  0.5557827E+03  0.7818608E-02  0.1000164E+00
         -2   -1    0    0    0  501 -0.00000000000E+00  0.00000000000E+00  0.17621506815E+03  0.17621506817E+03  0.25500000000E-02 0. -1.
          2   -1    0    0  501    0  0.00000000000E+00 -0.00000000000E+00 -0.43823494911E+03  0.43823494911E+03  0.25500000000E-02 0.  1.
   -5000001    1    1    2    0    0  0.93994204667E+02  0.46852418703E+02 -0.63820187042E+02  0.27857328645E+03  0.25000000000E+03 0.  0.
    5000001    1    1    2    0    0 -0.93994204667E+02 -0.46852418703E+02 -0.19819969391E+03  0.33587673084E+03  0.25000000000E+03 0.  0.
<mgrwt>
<rscale>  0 0.55578270E+03</rscale>
<asrwt>0</asrwt>
<pdfrwt beam="1">  1        2 0.67420761E-01 0.55578270E+03</pdfrwt>
<pdfrwt beam="2">  1       -2 0.27110011E-01 0.55578270E+03</pdfrwt>
<totfact> 0.88963655E+02</totfact>
</mgrwt>
</event>
<event>
 4    1  0.1755570E-005  0.9315112E+03  0.7818608E-02  0.9387026E-01
         -2   -1    0    0    0  501 -0.00000000000E+00  0.00000000000E+00  0.19962446266E+03  0.19962446268E+03  0.25500000000E-02 0. -1.
          2   -1    0    0  501    0  0.00000000000E+00 -0.00000000000E+00 -0.10866817387E+04  0.10866817388E+04  0.25500000000E-02 0.  1.
   -5000001    1    1    2    0    0 -0.80994980422E+02 -0.32693799254E+03 -0.72306626151E+03  0.83592670513E+03  0.25000000000E+03 0.  0.
    5000001    1    1    2    0    0  0.80994980422E+02  0.32693799254E+03 -0.16399101458E+03  0.45037949629E+03  0.25000000000E+03 0.  0.
<mgrwt>
<rscale>  0 0.93151116E+03</rscale>
<asrwt>0</asrwt>
<pdfrwt beam="1">  1        2 0.16718180E+00 0.93151116E+03</pdfrwt>
<pdfrwt beam="2">  1       -2 0.30711456E-01 0.93151116E+03</pdfrwt>
<totfact> 0.21790185E+02</totfact>
</mgrwt>
</event>
<event>
 4    1  0.1755570E-005  0.9107857E+03  0.7818608E-02  0.9412198E-01
          2   -1    0    0  501    0  0.00000000000E+00  0.00000000000E+00  0.28417844430E+03  0.28417844431E+03  0.25500000000E-02 0.  1.
         -2   -1    0    0    0  501 -0.00000000000E+00 -0.00000000000E+00 -0.72976213848E+03  0.72976213849E+03  0.25500000000E-02 0. -1.
   -5000001    1    1    2    0    0  0.24293921358E+03  0.26719867022E+03 -0.88885332339E+02  0.44812408233E+03  0.25000000000E+03 0.  0.
    5000001    1    1    2    0    0 -0.24293921358E+03 -0.26719867022E+03 -0.35669836184E+03  0.56581650047E+03  0.25000000000E+03 0.  0.
<mgrwt>
<rscale>  0 0.91078575E+03</rscale>
<asrwt>0</asrwt>
<pdfrwt beam="1">  1        2 0.43719761E-01 0.91078575E+03</pdfrwt>
<pdfrwt beam="2">  1       -2 0.11227110E+00 0.91078575E+03</pdfrwt>
<totfact> 0.73105239E+01</totfact>
</mgrwt>
</event>
<event>
 4    1  0.1755570E-005  0.6824693E+03  0.7818608E-02  0.9747691E-01
          2   -1    0    0  501    0  0.00000000000E+00  0.00000000000E+00  0.29938452599E+04  0.29938452599E+04  0.25500000000E-02 0.  1.
         -2   -1    0    0    0  501 -0.00000000000E+00 -0.00000000000E+00 -0.38893486420E+02  0.38893486503E+02  0.25500000000E-02 0. -1.
   -5000001    1    1    2    0    0 -0.47565674714E+01  0.23217552717E+03  0.14614661269E+04  0.15007702490E+04  0.25000000000E+03 0.  0.
    5000001    1    1    2    0    0  0.47565674714E+01 -0.23217552717E+03  0.14934856466E+04  0.15319684974E+04  0.25000000000E+03 0.  0.
<mgrwt>
<rscale>  0 0.68246928E+03</rscale>
<asrwt>0</asrwt>
<pdfrwt beam="1">  1        2 0.46059164E+00 0.68246928E+03</pdfrwt>
<pdfrwt beam="2">  1       -2 0.59836125E-02 0.68246928E+03</pdfrwt>
<totfact> 0.29119078E+02</totfact>
</mgrwt>
</event>
<event>
 4    1  0.1755570E-005  0.8060836E+03  0.7818608E-02  0.9551253E-01
         -2   -1    0    0    0  501 -0.00000000000E+00  0.00000000000E+00  0.13680344641E+04  0.13680344641E+04  0.25500000000E-02 0. -1.
          2   -1    0    0  501    0  0.00000000000E+00 -0.00000000000E+00 -0.11874167154E+03  0.11874167157E+03  0.25500000000E-02 0.  1.
   -5000001    1    1    2    0    0  0.16926725210E+03  0.26698674686E+03  0.61899944796E+03  0.73864310882E+03  0.25000000000E+03 0.  0.
    5000001    1    1    2    0    0 -0.16926725210E+03 -0.26698674686E+03  0.63029334460E+03  0.74813302686E+03  0.25000000000E+03 0.  0.
<mgrwt>
<rscale>  0 0.80608362E+03</rscale>
<asrwt>0</asrwt>
<pdfrwt beam="1">  1        2 0.18267950E-01 0.80608362E+03</pdfrwt>
<pdfrwt beam="2">  1       -2 0.21046683E+00 0.80608362E+03</pdfrwt>
<totfact> 0.36516292E+01</totfact>
</mgrwt>
</event>
<event>
 4    1  0.1755570E-005  0.8661214E+03  0.7818608E-02  0.9468951E-01
         -2   -1    0    0    0  501 -0.00000000000E+00  0.00000000000E+00  0.17369192227E+03  0.17369192229E+03  0.25500000000E-02 0. -1.
          2   -1    0    0  501    0  0.00000000000E+00 -0.00000000000E+00 -0.10797368922E+04  0.10797368922E+04  0.25500000000E-02 0.  1.
   -5000001    1    1    2    0    0  0.33349104741E+02 -0.32421031649E+03 -0.65153919186E+03  0.77021283463E+03  0.25000000000E+03 0.  0.
    5000001    1    1    2    0    0 -0.33349104741E+02  0.32421031649E+03 -0.25450577803E+03  0.48321597982E+03  0.25000000000E+03 0.  0.
<mgrwt>
<rscale>  0 0.86612141E+03</rscale>
<asrwt>0</asrwt>
<pdfrwt beam="1">  1        2 0.16611336E+00 0.86612141E+03</pdfrwt>
<pdfrwt beam="2">  1       -2 0.26721835E-01 0.86612141E+03</pdfrwt>
<totfact> 0.28550845E+02</totfact>
</mgrwt>
</event>
<event>
 4    1  0.1755570E-005  0.6822960E+03  0.7818608E-02  0.9747997E-01
         -2   -1    0    0    0  501 -0.00000000000E+00  0.00000000000E+00  0.13356923460E+03  0.13356923462E+03  0.25500000000E-02 0. -1.
          2   -1    0    0  501    0  0.00000000000E+00 -0.00000000000E+00 -0.87132310486E+03  0.87132310487E+03  0.25500000000E-02 0.  1.
   -5000001    1    1    2    0    0 -0.16092437447E+03 -0.87229228207E+02 -0.15863948037E+03  0.34809779845E+03  0.25000000000E+03 0.  0.
    5000001    1    1    2    0    0  0.16092437447E+03  0.87229228207E+02 -0.57911438989E+03  0.65679454104E+03  0.25000000000E+03 0.  0.
<mgrwt>
<rscale>  0 0.68229601E+03</rscale>
<asrwt>0</asrwt>
<pdfrwt beam="1">  1        2 0.13404971E+00 0.68229601E+03</pdfrwt>
<pdfrwt beam="2">  1       -2 0.20549113E-01 0.68229601E+03</pdfrwt>
<totfact> 0.62804644E+02</totfact>
</mgrwt>
</event>
<event>
 4    1  0.1755570E-005  0.8045886E+03  0.7818608E-02  0.9553399E-01
          2   -1    0    0  501    0  0.00000000000E+00  0.00000000000E+00  0.11833127264E+03  0.11833127267E+03  0.25500000000E-02 0.  1.
         -2   -1    0    0    0  501 -0.00000000000E+00 -0.00000000000E+00 -0.13676916359E+04  0.13676916359E+04  0.25500000000E-02 0. -1.
   -5000001    1    1    2    0    0  0.20461057205E+03 -0.16133310563E+03 -0.95220190818E+03  0.10183723931E+04  0.25000000000E+03 0.  0.
    5000001    1    1    2    0    0 -0.20461057205E+03  0.16133310563E+03 -0.29715845508E+03  0.46765051544E+03  0.25000000000E+03 0.  0.
<mgrwt>
<rscale>  0 0.80458857E+03</rscale>
<asrwt>0</asrwt>
<pdfrwt beam="1">  1        2 0.18204812E-01 0.80458857E+03</pdfrwt>
<pdfrwt beam="2">  1       -2 0.21041409E+00 0.80458857E+03</pdfrwt>
<totfact> 0.36699334E+01</totfact>
</mgrwt>
</event>
<event>
 4    1  0.1755570E-005  0.6521051E+03  0.7818608E-02  0.9802837E-01
          2   -1    0    0  501    0  0.00000000000E+00  0.00000000000E+00  0.66880170945E+03  0.66880170945E+03  0.25500000000E-02 0. -1.
         -2   -1    0    0    0  501 -0.00000000000E+00 -0.00000000000E+00 -0.15895633332E+03  0.15895633334E+03  0.25500000000E-02 0.  1.
   -5000001    1    1    2    0    0 -0.20703611072E+03 -0.16129211424E+02  0.22167204535E+03  0.39339877769E+03  0.25000000000E+03 0.  0.
    5000001    1    1    2    0    0  0.20703611072E+03  0.16129211424E+02  0.28817333078E+03  0.43435926509E+03  0.25000000000E+03 0.  0.
<mgrwt>
<rscale>  0 0.65210511E+03</rscale>
<asrwt>0</asrwt>
<pdfrwt beam="1">  1        2 0.10289257E+00 0.65210511E+03</pdfrwt>
<pdfrwt beam="2">  1       -2 0.24454820E-01 0.65210511E+03</pdfrwt>
<totfact> 0.65099766E+02</totfact>
</mgrwt>
</event>
<event>
 4    1  0.1755570E-005  0.7308643E+03  0.7818608E-02  0.9665859E-01
         -2   -1    0    0    0  501 -0.00000000000E+00  0.00000000000E+00  0.99309815054E+02  0.99309815087E+02  0.25500000000E-02 0. -1.
          2   -1    0    0  501    0  0.00000000000E+00 -0.00000000000E+00 -0.13446873394E+04  0.13446873394E+04  0.25500000000E-02 0.  1.
   -5000001    1    1    2    0    0  0.83684373335E+02 -0.22338085195E+03 -0.85761545550E+03  0.92461145832E+03  0.25000000000E+03 0.  0.
    5000001    1    1    2    0    0 -0.83684373335E+02  0.22338085195E+03 -0.38776206890E+03  0.51938569621E+03  0.25000000000E+03 0.  0.
<mgrwt>
<rscale>  0 0.73086429E+03</rscale>
<asrwt>0</asrwt>
<pdfrwt beam="1">  1        2 0.20687496E+00 0.73086429E+03</pdfrwt>
<pdfrwt beam="2">  1       -2 0.15278434E-01 0.73086429E+03</pdfrwt>
<totfact> 0.53442306E+02</totfact>
</mgrwt>
</event>
<event>
 4    1  0.1755570E-005  0.6550219E+03  0.7818608E-02  0.9797401E-01
          2   -1    0    0  501    0  0.00000000000E+00  0.00000000000E+00  0.55404760778E+03  0.55404760779E+03  0.25500000000E-02 0.  1.
         -2   -1    0    0    0  501 -0.00000000000E+00 -0.00000000000E+00 -0.19359966639E+03  0.19359966640E+03  0.25500000000E-02 0. -1.
   -5000001    1    1    2    0    0 -0.28408792821E+02 -0.16326075722E+03  0.30085217821E+02  0.30144030037E+03  0.25000000000E+03 0.  0.
    5000001    1    1    2    0    0  0.28408792821E+02  0.16326075722E+03  0.33036272357E+03  0.44620697382E+03  0.25000000000E+03 0.  0.
<mgrwt>
<rscale>  0 0.65502193E+03</rscale>
<asrwt>0</asrwt>
<pdfrwt beam="1">  1        2 0.85238093E-01 0.65502193E+03</pdfrwt>
<pdfrwt beam="2">  1       -2 0.29784564E-01 0.65502193E+03</pdfrwt>
<totfact> 0.57059404E+02</totfact>
</mgrwt>
</event>
<event>
 4    1  0.1755570E-005  0.5703476E+03  0.7818608E-02  0.9968910E-01
         -2   -1    0    0    0  501 -0.00000000000E+00  0.00000000000E+00  0.76725914711E+02  0.76725914754E+02  0.25500000000E-02 0.  1.
          2   -1    0    0  501    0  0.00000000000E+00 -0.00000000000E+00 -0.10599299767E+04  0.10599299767E+04  0.25500000000E-02 0. -1.
   -5000001    1    1    2    0    0 -0.10664395843E+03  0.51970683282E+02 -0.35424659628E+03  0.44951589156E+03  0.25000000000E+03 0.  0.
    5000001    1    1    2    0    0  0.10664395843E+03 -0.51970683282E+02 -0.62895746574E+03  0.68713999993E+03  0.25000000000E+03 0.  0.
<mgrwt>
<rscale>  0 0.57034760E+03</rscale>
<asrwt>0</asrwt>
<pdfrwt beam="1">  1        2 0.16306614E+00 0.57034760E+03</pdfrwt>
<pdfrwt beam="2">  1       -2 0.11803988E-01 0.57034760E+03</pdfrwt>
<totfact> 0.12176192E+03</totfact>
</mgrwt>
</event>
<event>
 4    1  0.1755570E-005  0.1183290E+04  0.7818608E-02  0.9127610E-01
          2   -1    0    0  501    0  0.00000000000E+00  0.00000000000E+00  0.35709588575E+04  0.35709588575E+04  0.25500000000E-02 0.  1.
         -2   -1    0    0    0  501 -0.00000000000E+00 -0.00000000000E+00 -0.98025177454E+02  0.98025177488E+02  0.25500000000E-02 0. -1.
   -5000001    1    1    2    0    0 -0.33965232339E+03  0.36687850610E+03  0.23375504943E+04  0.24034570628E+04  0.25000000000E+03 0.  0.
    5000001    1    1    2    0    0  0.33965232339E+03 -0.36687850610E+03  0.11353831858E+04  0.12655269723E+04  0.25000000000E+03 0.  0.
<mgrwt>
<rscale>  0 0.11832901E+04</rscale>
<asrwt>0</asrwt>
<pdfrwt beam="1">  1        2 0.54937824E+00 0.11832901E+04</pdfrwt>
<pdfrwt beam="2">  1       -2 0.15080798E-01 0.11832901E+04</pdfrwt>
<totfact> 0.25616726E+01</totfact>
</mgrwt>
</event>
<event>
 4    1  0.1755570E-005  0.7986600E+03  0.7818608E-02  0.9561959E-01
         -2   -1    0    0    0  501 -0.00000000000E+00  0.00000000000E+00  0.30310230586E+03  0.30310230587E+03  0.25500000000E-02 0.  1.
          2   -1    0    0  501    0  0.00000000000E+00 -0.00000000000E+00 -0.52610763293E+03  0.52610763294E+03  0.25500000000E-02 0. -1.
   -5000001    1    1    2    0    0 -0.16486375310E+03 -0.24909325209E+03 -0.20178237065E+02  0.39004444179E+03  0.25000000000E+03 0.  0.
    5000001    1    1    2    0    0  0.16486375310E+03  0.24909325209E+03 -0.20282709001E+03  0.43916549701E+03  0.25000000000E+03 0.  0.
<mgrwt>
<rscale>  0 0.79865997E+03</rscale>
<asrwt>0</asrwt>
<pdfrwt beam="1">  1        2 0.80939636E-01 0.79865997E+03</pdfrwt>
<pdfrwt beam="2">  1       -2 0.46631124E-01 0.79865997E+03</pdfrwt>
<totfact> 0.25466627E+02</totfact>
</mgrwt>
</event>
<event>
 4    1  0.1755570E-005  0.6261912E+03  0.7818608E-02  0.9852510E-01
         -2   -1    0    0    0  501 -0.00000000000E+00  0.00000000000E+00  0.50187951908E+02  0.50187951973E+02  0.25500000000E-02 0.  1.
          2   -1    0    0  501    0  0.00000000000E+00 -0.00000000000E+00 -0.19532348554E+04  0.19532348554E+04  0.25500000000E-02 0. -1.
   -5000001    1    1    2    0    0 -0.13383103641E+02 -0.18592205713E+03 -0.10410339411E+04  0.10867372200E+04  0.25000000000E+03 0.  0.
    5000001    1    1    2    0    0  0.13383103641E+02  0.18592205713E+03 -0.86201296241E+03  0.91668558740E+03  0.25000000000E+03 0.  0.
<mgrwt>
<rscale>  0 0.62619121E+03</rscale>
<asrwt>0</asrwt>
<pdfrwt beam="1">  1        2 0.30049761E+00 0.62619121E+03</pdfrwt>
<pdfrwt beam="2">  1       -2 0.77212249E-02 0.62619121E+03</pdfrwt>
<totfact> 0.76114016E+02</totfact>
</mgrwt>
</event>
<event>
 4    1  0.1755570E-005  0.7084132E+03  0.7818608E-02  0.9702952E-01
          2   -1    0    0  501    0  0.00000000000E+00  0.00000000000E+00  0.65033739870E+03  0.65033739871E+03  0.25500000000E-02 0.  1.
         -2   -1    0    0    0  501 -0.00000000000E+00 -0.00000000000E+00 -0.19291883193E+03  0.19291883195E+03  0.25500000000E-02 0. -1.
   -5000001    1    1    2    0    0 -0.24112676266E+03  0.68573889769E+02  0.21578774335E+03  0.41461891443E+03  0.25000000000E+03 0.  0.
    5000001    1    1    2    0    0  0.24112676266E+03 -0.68573889769E+02  0.24163082343E+03  0.42863731622E+03  0.25000000000E+03 0.  0.
<mgrwt>
<rscale>  0 0.70841324E+03</rscale>
<asrwt>0</asrwt>
<pdfrwt beam="1">  1        2 0.10005191E+00 0.70841324E+03</pdfrwt>
<pdfrwt beam="2">  1       -2 0.29679820E-01 0.70841324E+03</pdfrwt>
<totfact> 0.47284532E+02</totfact>
</mgrwt>
</event>
<event>
 4    1  0.1755570E-005  0.9221519E+03  0.7818608E-02  0.9398306E-01
         -2   -1    0    0    0  501 -0.00000000000E+00  0.00000000000E+00  0.73704854151E+02  0.73704854195E+02  0.25500000000E-02 0. -1.
          2   -1    0    0  501    0  0.00000000000E+00 -0.00000000000E+00 -0.28843560790E+04  0.28843560790E+04  0.25500000000E-02 0.  1.
   -5000001    1    1    2    0    0 -0.34279581180E+03  0.11470531494E+03 -0.95824839515E+03  0.10542325477E+04  0.25000000000E+03 0.  0.
    5000001    1    1    2    0    0  0.34279581180E+03 -0.11470531494E+03 -0.18524028297E+04  0.19038283854E+04  0.25000000000E+03 0.  0.
<mgrwt>
<rscale>  0 0.92215193E+03</rscale>
<asrwt>0</asrwt>
<pdfrwt beam="1">  1        2 0.44374700E+00 0.92215193E+03</pdfrwt>
<pdfrwt beam="2">  1       -2 0.11339211E-01 0.92215193E+03</pdfrwt>
<totfact> 0.11836098E+02</totfact>
</mgrwt>
</event>
<event>
 4    1  0.1755570E-005  0.7690399E+03  0.7818608E-02  0.9605944E-01
          2   -1    0    0  501    0  0.00000000000E+00  0.00000000000E+00  0.12609317389E+04  0.12609317389E+04  0.25500000000E-02 0. -1.
         -2   -1    0    0    0  501 -0.00000000000E+00 -0.00000000000E+00 -0.11725899168E+03  0.11725899171E+03  0.25500000000E-02 0.  1.
   -5000001    1    1    2    0    0  0.24898876823E+03 -0.55228960062E+02  0.31643996930E+03  0.47715814874E+03  0.25000000000E+03 0.  0.
    5000001    1    1    2    0    0 -0.24898876823E+03  0.55228960062E+02  0.82723277791E+03  0.90103258187E+03  0.25000000000E+03 0.  0.
<mgrwt>
<rscale>  0 0.76903988E+03</rscale>
<asrwt>0</asrwt>
<pdfrwt beam="1">  1        2 0.19398950E+00 0.76903988E+03</pdfrwt>
<pdfrwt beam="2">  1       -2 0.18039845E-01 0.76903988E+03</pdfrwt>
<totfact> 0.44865920E+02</totfact>
</mgrwt>
</event>
<event>
 4    1  0.1755570E-005  0.9809471E+03  0.7818608E-02  0.9329692E-01
         -2   -1    0    0    0  501 -0.00000000000E+00  0.00000000000E+00  0.12063520436E+03  0.12063520439E+03  0.25500000000E-02 0. -1.
          2   -1    0    0  501    0  0.00000000000E+00 -0.00000000000E+00 -0.19941468778E+04  0.19941468778E+04  0.25500000000E-02 0.  1.
   -5000001    1    1    2    0    0  0.85228536857E+02 -0.41025507867E+03 -0.82915321665E+03  0.96206454552E+03  0.25000000000E+03 0.  0.
    5000001    1    1    2    0    0 -0.85228536857E+02  0.41025507867E+03 -0.10443584567E+04  0.11527175366E+04  0.25000000000E+03 0.  0.
<mgrwt>
<rscale>  0 0.98094713E+03</rscale>
<asrwt>0</asrwt>
<pdfrwt beam="1">  1        2 0.30679180E+00 0.98094713E+03</pdfrwt>
<pdfrwt beam="2">  1       -2 0.18559264E-01 0.98094713E+03</pdfrwt>
<totfact> 0.16455467E+02</totfact>
</mgrwt>
</event>
<event>
 4    1  0.1755570E-005  0.1147373E+04  0.7818608E-02  0.9160211E-01
          2   -1    0    0  501    0  0.00000000000E+00  0.00000000000E+00  0.54949214409E+03  0.54949214409E+03  0.25500000000E-02 0.  1.
         -2   -1    0    0    0  501 -0.00000000000E+00 -0.00000000000E+00 -0.59894568324E+03  0.59894568324E+03  0.25500000000E-02 0. -1.
   -5000001    1    1    2    0    0 -0.25227736290E+03  0.37703778190E+03  0.22210833490E+03  0.56358980584E+03  0.25000000000E+03 0.  0.
    5000001    1    1    2    0    0  0.25227736290E+03 -0.37703778190E+03 -0.27156187405E+03  0.58484802150E+03  0.25000000000E+03 0.  0.
<mgrwt>
<rscale>  0 0.11473726E+04</rscale>
<asrwt>0</asrwt>
<pdfrwt beam="1">  1        2 0.84537253E-01 0.11473726E+04</pdfrwt>
<pdfrwt beam="2">  1       -2 0.92145490E-01 0.11473726E+04</pdfrwt>
<totfact> 0.54623328E+01</totfact>
</mgrwt>
</event>
<event>
 4    1  0.1755570E-005  0.1684314E+04  0.7818608E-02  0.8770361E-01
          2   -1    0    0  501    0  0.00000000000E+00  0.00000000000E+00  0.17901876129E+04  0.17901876129E+04  0.25500000000E-02 0.  1.
         -2   -1    0    0    0  501 -0.00000000000E+00 -0.00000000000E+00 -0.39617553201E+03  0.39617553201E+03  0.25500000000E-02 0. -1.
   -5000001    1    1    2    0    0  0.12676071434E+03 -0.64393679484E+03  0.13003038723E+04  0.14778406663E+04  0.25000000000E+03 0.  0.
    5000001    1    1    2    0    0 -0.12676071434E+03  0.64393679484E+03  0.93708208593E+02  0.70852247869E+03  0.25000000000E+03 0.  0.
<mgrwt>
<rscale>  0 0.16843141E+04</rscale>
<asrwt>0</asrwt>
<pdfrwt beam="1">  1        2 0.27541348E+00 0.16843141E+04</pdfrwt>
<pdfrwt beam="2">  1       -2 0.60950082E-01 0.16843141E+04</pdfrwt>
<totfact> 0.20851878E+01</totfact>
</mgrwt>
</event>
<event>
 4    1  0.1755570E-005  0.8902385E+03  0.7818608E-02  0.9437867E-01
         -2   -1    0    0    0  501 -0.00000000000E+00  0.00000000000E+00  0.87439240336E+03  0.87439240336E+03  0.25500000000E-02 0. -1.
          2   -1    0    0  501    0  0.00000000000E+00 -0.00000000000E+00 -0.22659292925E+03  0.22659292926E+03  0.25500000000E-02 0.  1.
   -5000001    1    1    2    0    0 -0.56796981210E+02  0.29644932821E+03  0.58485589650E+03  0.70403446005E+03  0.25000000000E+03 0.  0.
    5000001    1    1    2    0    0  0.56796981210E+02 -0.29644932821E+03  0.62943577609E+02  0.39695087257E+03  0.25000000000E+03 0.  0.
<mgrwt>
<rscale>  0 0.89023848E+03</rscale>
<asrwt>0</asrwt>
<pdfrwt beam="1">  1        2 0.34860451E-01 0.89023848E+03</pdfrwt>
<pdfrwt beam="2">  1       -2 0.13452191E+00 0.89023848E+03</pdfrwt>
<totfact> 0.60012624E+01</totfact>
</mgrwt>
</event>
<event>
 4    1  0.1755570E-005  0.7463420E+03  0.7818608E-02  0.9641107E-01
          2   -1    0    0  501    0  0.00000000000E+00  0.00000000000E+00  0.63037330419E+03  0.63037330420E+03  0.25500000000E-02 0.  1.
         -2   -1    0    0    0  501 -0.00000000000E+00 -0.00000000000E+00 -0.22091130071E+03  0.22091130072E+03  0.25500000000E-02 0. -1.
   -5000001    1    1    2    0    0 -0.22620518771E+03  0.15884978049E+03  0.22620800740E+03  0.43597259355E+03  0.25000000000E+03 0.  0.
    5000001    1    1    2    0    0  0.22620518771E+03 -0.15884978049E+03  0.18325399608E+03  0.41531201137E+03  0.25000000000E+03 0.  0.
<mgrwt>
<rscale>  0 0.74634198E+03</rscale>
<asrwt>0</asrwt>
<pdfrwt beam="1">  1        2 0.96980505E-01 0.74634198E+03</pdfrwt>
<pdfrwt beam="2">  1       -2 0.33986355E-01 0.74634198E+03</pdfrwt>
<totfact> 0.38074605E+02</totfact>
</mgrwt>
</event>
<event>
 4    1  0.1755570E-005  0.6037924E+03  0.7818608E-02  0.9897569E-01
          2   -1    0    0  501    0  0.00000000000E+00  0.00000000000E+00  0.33996333174E+03  0.33996333175E+03  0.25500000000E-02 0.  1.
         -2   -1    0    0    0  501 -0.00000000000E+00 -0.00000000000E+00 -0.26809156849E+03  0.26809156850E+03  0.25500000000E-02 0. -1.
   -5000001    1    1    2    0    0 -0.33227430374E+02 -0.13824401328E+03  0.12837623935E+03  0.31495385085E+03  0.25000000000E+03 0.  0.
    5000001    1    1    2    0    0  0.33227430374E+02  0.13824401328E+03 -0.56504476095E+02  0.29310104939E+03  0.25000000000E+03 0.  0.
<mgrwt>
<rscale>  0 0.60379236E+03</rscale>
<asrwt>0</asrwt>
<pdfrwt beam="1">  1        2 0.52302051E-01 0.60379236E+03</pdfrwt>
<pdfrwt beam="2">  1       -2 0.41244857E-01 0.60379236E+03</pdfrwt>
<totfact> 0.53579062E+02</totfact>
</mgrwt>
</event>
<event>
 4    1  0.1755570E-005  0.8808042E+03  0.7818608E-02  0.9449900E-01
         -2   -1    0    0    0  501 -0.00000000000E+00  0.00000000000E+00  0.12300668377E+03  0.12300668380E+03  0.25500000000E-02 0. -1.
          2   -1    0    0  501    0  0.00000000000E+00 -0.00000000000E+00 -0.15767760247E+04  0.15767760248E+04  0.25500000000E-02 0.  1.
   -5000001    1    1    2    0    0 -0.24097264679E+03 -0.62237990471E+02 -0.12356831880E+04  0.12850503200E+04  0.25000000000E+03 0.  0.
    5000001    1    1    2    0    0  0.24097264679E+03  0.62237990471E+02 -0.21808615302E+03  0.41473238853E+03  0.25000000000E+03 0.  0.
<mgrwt>
<rscale>  0 0.88080416E+03</rscale>
<asrwt>0</asrwt>
<pdfrwt beam="1">  1        2 0.24258091E+00 0.88080416E+03</pdfrwt>
<pdfrwt beam="2">  1       -2 0.18924106E-01 0.88080416E+03</pdfrwt>
<totfact> 0.27179932E+02</totfact>
</mgrwt>
</event>
<event>
 4    1  0.1755570E-005  0.1321456E+04  0.7818608E-02  0.9012721E-01
         -2   -1    0    0    0  501 -0.00000000000E+00  0.00000000000E+00  0.66150226530E+03  0.66150226530E+03  0.25500000000E-02 0. -1.
          2   -1    0    0  501    0  0.00000000000E+00 -0.00000000000E+00 -0.65995494254E+03  0.65995494255E+03  0.25500000000E-02 0.  1.
   -5000001    1    1    2    0    0 -0.14459363719E+03 -0.22469227490E+03  0.55092651846E+03  0.66137278977E+03  0.25000000000E+03 0.  0.
    5000001    1    1    2    0    0  0.14459363719E+03  0.22469227490E+03 -0.54937919570E+03  0.66008441807E+03  0.25000000000E+03 0.  0.
<mgrwt>
<rscale>  0 0.13214563E+04</rscale>
<asrwt>0</asrwt>
<pdfrwt beam="1">  1        2 0.10153153E+00 0.13214563E+04</pdfrwt>
<pdfrwt beam="2">  1       -2 0.10176958E+00 0.13214563E+04</pdfrwt>
<totfact> 0.34216924E+01</totfact>
</mgrwt>
</event>
<event>
 4    1  0.1755570E-005  0.9572179E+03  0.7818608E-02  0.9356754E-01
         -2   -1    0    0    0  501 -0.00000000000E+00  0.00000000000E+00  0.81666564057E+03  0.81666564057E+03  0.25500000000E-02 0. -1.
          2   -1    0    0  501    0  0.00000000000E+00 -0.00000000000E+00 -0.28048996778E+03  0.28048996779E+03  0.25500000000E-02 0.  1.
   -5000001    1    1    2    0    0  0.33436782977E+03 -0.18415948295E+03  0.43359241798E+03  0.62945924862E+03  0.25000000000E+03 0.  0.
    5000001    1    1    2    0    0 -0.33436782977E+03  0.18415948295E+03  0.10258325481E+03  0.46769635974E+03  0.25000000000E+03 0.  0.
<mgrwt>
<rscale>  0 0.95721788E+03</rscale>
<asrwt>0</asrwt>
<pdfrwt beam="1">  1        2 0.43152304E-01 0.95721788E+03</pdfrwt>
<pdfrwt beam="2">  1       -2 0.12564087E+00 0.95721788E+03</pdfrwt>
<totfact> 0.56019443E+01</totfact>
</mgrwt>
</event>
<event>
 4    1  0.1755570E-005  0.9893057E+03  0.7818608E-02  0.9320352E-01
         -2   -1    0    0    0  501 -0.00000000000E+00  0.00000000000E+00  0.20597574722E+03  0.20597574723E+03  0.25500000000E-02 0. -1.
          2   -1    0    0  501    0  0.00000000000E+00 -0.00000000000E+00 -0.11879138417E+04  0.11879138417E+04  0.25500000000E-02 0.  1.
   -5000001    1    1    2    0    0  0.45615941267E+02 -0.42392165095E+03 -0.51883154753E+03  0.71657278413E+03  0.25000000000E+03 0.  0.
    5000001    1    1    2    0    0 -0.45615941267E+02  0.42392165095E+03 -0.46310654695E+03  0.67731680481E+03  0.25000000000E+03 0.  0.
<mgrwt>
<rscale>  0 0.98930570E+03</rscale>
<asrwt>0</asrwt>
<pdfrwt beam="1">  1        2 0.18275597E+00 0.98930570E+03</pdfrwt>
<pdfrwt beam="2">  1       -2 0.31688577E-01 0.98930570E+03</pdfrwt>
<totfact> 0.17775930E+02</totfact>
</mgrwt>
</event>
<event>
 4    1  0.1755570E-005  0.9411666E+03  0.7818608E-02  0.9375535E-01
         -2   -1    0    0    0  501 -0.00000000000E+00  0.00000000000E+00  0.71949101410E+02  0.71949101455E+02  0.25500000000E-02 0. -1.
          2   -1    0    0  501    0  0.00000000000E+00 -0.00000000000E+00 -0.30778513123E+04  0.30778513123E+04  0.25500000000E-02 0.  1.
   -5000001    1    1    2    0    0  0.34470446504E+02 -0.35322692563E+03 -0.21108276018E+04  0.21550059483E+04  0.25000000000E+03 0.  0.
    5000001    1    1    2    0    0 -0.34470446504E+02  0.35322692563E+03 -0.89507460907E+03  0.99479446544E+03  0.25000000000E+03 0.  0.
<mgrwt>
<rscale>  0 0.94116659E+03</rscale>
<asrwt>0</asrwt>
<pdfrwt beam="1">  1        2 0.47351548E+00 0.94116659E+03</pdfrwt>
<pdfrwt beam="2">  1       -2 0.11069095E-01 0.94116659E+03</pdfrwt>
<totfact> 0.93525914E+01</totfact>
</mgrwt>
</event>
<event>
 4    1  0.1755570E-005  0.6568181E+03  0.7818608E-02  0.9794069E-01
          2   -1    0    0  501    0  0.00000000000E+00  0.00000000000E+00  0.86905917268E+03  0.86905917269E+03  0.25500000000E-02 0.  1.
         -2   -1    0    0    0  501 -0.00000000000E+00 -0.00000000000E+00 -0.12410260172E+03  0.12410260174E+03  0.25500000000E-02 0. -1.
   -5000001    1    1    2    0    0 -0.45019075594E+02  0.93198227880E+02  0.65390353321E+03  0.70767397691E+03  0.25000000000E+03 0.  0.
    5000001    1    1    2    0    0  0.45019075594E+02 -0.93198227880E+02  0.91053037755E+02  0.28548779752E+03  0.25000000000E+03 0.  0.
<mgrwt>
<rscale>  0 0.65681810E+03</rscale>
<asrwt>0</asrwt>
<pdfrwt beam="1">  1        2 0.13370141E+00 0.65681810E+03</pdfrwt>
<pdfrwt beam="2">  1       -2 0.19092708E-01 0.65681810E+03</pdfrwt>
<totfact> 0.71709628E+02</totfact>
</mgrwt>
</event>
<event>
 4    1  0.1755570E-005  0.1204736E+04  0.7818608E-02  0.9108722E-01
          2   -1    0    0  501    0  0.00000000000E+00  0.00000000000E+00  0.14300032825E+04  0.14300032825E+04  0.25500000000E-02 0.  1.
         -2   -1    0    0    0  501 -0.00000000000E+00 -0.00000000000E+00 -0.25373853157E+03  0.25373853158E+03  0.25500000000E-02 0. -1.
   -5000001    1    1    2    0    0  0.10874255163E+03 -0.31491193399E+03  0.11962943386E+04  0.12667338368E+04  0.25000000000E+03 0.  0.
    5000001    1    1    2    0    0 -0.10874255163E+03  0.31491193399E+03 -0.20029587722E+02  0.41700797724E+03  0.25000000000E+03 0.  0.
<mgrwt>
<rscale>  0 0.12047355E+04</rscale>
<asrwt>0</asrwt>
<pdfrwt beam="1">  1        2 0.22000050E+00 0.12047355E+04</pdfrwt>
<pdfrwt beam="2">  1       -2 0.39036698E-01 0.12047355E+04</pdfrwt>
<totfact> 0.85066218E+01</totfact>
</mgrwt>
</event>
<event>
 4    1  0.1755570E-005  0.5692703E+03  0.7818608E-02  0.9971295E-01
          2   -1    0    0  501    0  0.00000000000E+00  0.00000000000E+00  0.70046498717E+03  0.70046498717E+03  0.25500000000E-02 0.  1.
         -2   -1    0    0    0  501 -0.00000000000E+00 -0.00000000000E+00 -0.11566198495E+03  0.11566198498E+03  0.25500000000E-02 0. -1.
   -5000001    1    1    2    0    0 -0.51065777301E+02  0.11661541202E+03  0.22349286424E+03  0.35868639269E+03  0.25000000000E+03 0.  0.
    5000001    1    1    2    0    0  0.51065777301E+02 -0.11661541202E+03  0.36131013798E+03  0.45744057947E+03  0.25000000000E+03 0.  0.
<mgrwt>
<rscale>  0 0.56927031E+03</rscale>
<asrwt>0</asrwt>
<pdfrwt beam="1">  1        2 0.10776384E+00 0.56927031E+03</pdfrwt>
<pdfrwt beam="2">  1       -2 0.17794152E-01 0.56927031E+03</pdfrwt>
<totfact> 0.10750731E+03</totfact>
</mgrwt>
</event>
<event>
 4    1  0.1755570E-005  0.1056227E+04  0.7818608E-02  0.9248939E-01
         -2   -1    0    0    0  501 -0.00000000000E+00  0.00000000000E+00  0.42601266865E+03  0.42601266866E+03  0.25500000000E-02 0. -1.
          2   -1    0    0  501    0  0.00000000000E+00 -0.00000000000E+00 -0.65468409497E+03  0.65468409497E+03  0.25500000000E-02 0.  1.
   -5000001    1    1    2    0    0 -0.33500834874E+03 -0.31956692607E+03 -0.68008657532E+02  0.53054574870E+03  0.25000000000E+03 0.  0.
    5000001    1    1    2    0    0  0.33500834874E+03  0.31956692607E+03 -0.16066276878E+03  0.55015101493E+03  0.25000000000E+03 0.  0.
<mgrwt>
<rscale>  0 0.10562267E+04</rscale>
<asrwt>0</asrwt>
<pdfrwt beam="1">  1        2 0.10072063E+00 0.10562267E+04</pdfrwt>
<pdfrwt beam="2">  1       -2 0.65540411E-01 0.10562267E+04</pdfrwt>
<totfact> 0.95185805E+01</totfact>
</mgrwt>
</event>
<event>
 4    1  0.1755570E-005  0.1032422E+04  0.7818608E-02  0.9273682E-01
         -2   -1    0    0    0  501 -0.00000000000E+00  0.00000000000E+00  0.29265096307E+03  0.29265096308E+03  0.25500000000E-02 0.  1.
          2   -1    0    0  501    0  0.00000000000E+00 -0.00000000000E+00 -0.91055228945E+03  0.91055228945E+03  0.25500000000E-02 0. -1.
   -5000001    1    1    2    0    0  0.31547253337E+03 -0.14953964185E+03  0.24955172107E+02  0.43012531245E+03  0.25000000000E+03 0.  0.
    5000001    1    1    2    0    0 -0.31547253337E+03  0.14953964185E+03 -0.64285649849E+03  0.77307794008E+03  0.25000000000E+03 0.  0.
<mgrwt>
<rscale>  0 0.10324224E+04</rscale>
<asrwt>0</asrwt>
<pdfrwt beam="1">  1        2 0.14008497E+00 0.10324224E+04</pdfrwt>
<pdfrwt beam="2">  1       -2 0.45023226E-01 0.10324224E+04</pdfrwt>
<totfact> 0.13443640E+02</totfact>
</mgrwt>
</event>
<event>
 4    1  0.1755570E-005  0.5982967E+03  0.7818608E-02  0.9908946E-01
         -2   -1    0    0    0  501 -0.00000000000E+00  0.00000000000E+00  0.47137366873E+02  0.47137366942E+02  0.25500000000E-02 0. -1.
          2   -1    0    0  501    0  0.00000000000E+00 -0.00000000000E+00 -0.18984885189E+04  0.18984885189E+04  0.25500000000E-02 0.  1.
   -5000001    1    1    2    0    0  0.11812351640E+03  0.10717388871E+03 -0.10537187694E+04  0.10946518407E+04  0.25000000000E+03 0.  0.
    5000001    1    1    2    0    0 -0.11812351640E+03 -0.10717388871E+03 -0.79763238264E+03  0.85097404507E+03  0.25000000000E+03 0.  0.
<mgrwt>
<rscale>  0 0.59829675E+03</rscale>
<asrwt>0</asrwt>
<pdfrwt beam="1">  1        2 0.29207510E+00 0.59829675E+03</pdfrwt>
<pdfrwt beam="2">  1       -2 0.72519041E-02 0.59829675E+03</pdfrwt>
<totfact> 0.90183428E+02</totfact>
</mgrwt>
</event>
<event>
 4    1  0.1755570E-005  0.8198869E+03  0.7818608E-02  0.9531669E-01
         -2   -1    0    0    0  501 -0.00000000000E+00  0.00000000000E+00  0.87110820294E+02  0.87110820331E+02  0.25500000000E-02 0. -1.
          2   -1    0    0  501    0  0.00000000000E+00 -0.00000000000E+00 -0.19291936635E+04  0.19291936635E+04  0.25500000000E-02 0.  1.
   -5000001    1    1    2    0    0 -0.24991288077E+03  0.20170093563E+03 -0.80021435402E+03  0.89776540800E+03  0.25000000000E+03 0.  0.
    5000001    1    1    2    0    0  0.24991288077E+03 -0.20170093563E+03 -0.10418684891E+04  0.11185390758E+04  0.25000000000E+03 0.  0.
<mgrwt>
<rscale>  0 0.81988693E+03</rscale>
<asrwt>0</asrwt>
<pdfrwt beam="1">  1        2 0.29679899E+00 0.81988693E+03</pdfrwt>
<pdfrwt beam="2">  1       -2 0.13401666E-01 0.81988693E+03</pdfrwt>
<totfact> 0.31494397E+02</totfact>
</mgrwt>
</event>
<event>
 4    1  0.1755570E-005  0.7974846E+03  0.7818608E-02  0.9563665E-01
         -2   -1    0    0    0  501 -0.00000000000E+00  0.00000000000E+00  0.61624868860E+02  0.61624868913E+02  0.25500000000E-02 0. -1.
          2   -1    0    0  501    0  0.00000000000E+00 -0.00000000000E+00 -0.25800529448E+04  0.25800529448E+04  0.25500000000E-02 0.  1.
   -5000001    1    1    2    0    0 -0.23897700540E+03  0.48820161407E+01 -0.19164083686E+04  0.19473712739E+04  0.25000000000E+03 0.  0.
    5000001    1    1    2    0    0  0.23897700540E+03 -0.48820161407E+01 -0.60201970733E+03  0.69430653980E+03  0.25000000000E+03 0.  0.
<mgrwt>
<rscale>  0 0.79748461E+03</rscale>
<asrwt>0</asrwt>
<pdfrwt beam="1">  1        2 0.39693114E+00 0.79748461E+03</pdfrwt>
<pdfrwt beam="2">  1       -2 0.94807511E-02 0.79748461E+03</pdfrwt>
<totfact> 0.24237760E+02</totfact>
</mgrwt>
</event>
<event>
 4    1  0.1755570E-005  0.8886096E+03  0.7818608E-02  0.9439933E-01
          2   -1    0    0  501    0  0.00000000000E+00  0.00000000000E+00  0.36062073342E+04  0.36062073342E+04  0.25500000000E-02 0.  1.
         -2   -1    0    0    0  501 -0.00000000000E+00 -0.00000000000E+00 -0.54740824948E+02  0.54740825007E+02  0.25500000000E-02 0. -1.
   -5000001    1    1    2    0    0 -0.90943561292E+02  0.25188816272E+03  0.74011141206E+03  0.82582278978E+03  0.25000000000E+03 0.  0.
    5000001    1    1    2    0    0  0.90943561292E+02 -0.25188816272E+03  0.28113550972E+04  0.28351253694E+04  0.25000000000E+03 0.  0.
<mgrwt>
<rscale>  0 0.88860962E+03</rscale>
<asrwt>0</asrwt>
<pdfrwt beam="1">  1        2 0.55480132E+00 0.88860962E+03</pdfrwt>
<pdfrwt beam="2">  1       -2 0.84216625E-02 0.88860962E+03</pdfrwt>
<totfact> 0.65667597E+01</totfact>
</mgrwt>
</event>
<event>
 4    1  0.1755570E-005  0.9205395E+03  0.7818608E-02  0.9400264E-01
          2   -1    0    0  501    0  0.00000000000E+00  0.00000000000E+00  0.30706503822E+04  0.30706503822E+04  0.25500000000E-02 0.  1.
         -2   -1    0    0    0  501 -0.00000000000E+00 -0.00000000000E+00 -0.68991331661E+02  0.68991331708E+02  0.25500000000E-02 0. -1.
   -5000001    1    1    2    0    0  0.82031737388E+02 -0.23328166748E+03  0.48792437745E+03  0.60143140958E+03  0.25000000000E+03 0.  0.
    5000001    1    1    2    0    0 -0.82031737388E+02  0.23328166748E+03  0.25137346731E+04  0.25382103044E+04  0.25000000000E+03 0.  0.
<mgrwt>
<rscale>  0 0.92053954E+03</rscale>
<asrwt>0</asrwt>
<pdfrwt beam="1">  1        2 0.47240771E+00 0.92053954E+03</pdfrwt>
<pdfrwt beam="2">  1       -2 0.10614052E-01 0.92053954E+03</pdfrwt>
<totfact> 0.10147452E+02</totfact>
</mgrwt>
</event>
<event>
 4    1  0.1755570E-005  0.1271970E+04  0.7818608E-02  0.9052093E-01
          2   -1    0    0  501    0  0.00000000000E+00  0.00000000000E+00  0.99885941197E+03  0.99885941197E+03  0.25500000000E-02 0.  1.
         -2   -1    0    0    0  501 -0.00000000000E+00 -0.00000000000E+00 -0.40493875258E+03  0.40493875259E+03  0.25500000000E-02 0. -1.
   -5000001    1    1    2    0    0  0.41625759412E+03 -0.38808999468E+03  0.44540991205E+03  0.76470531473E+03  0.25000000000E+03 0.  0.
    5000001    1    1    2    0    0 -0.41625759412E+03  0.38808999468E+03  0.14851074734E+03  0.63909284983E+03  0.25000000000E+03 0.  0.
<mgrwt>
<rscale>  0 0.12719699E+04</rscale>
<asrwt>0</asrwt>
<pdfrwt beam="1">  1        2 0.15367068E+00 0.12719699E+04</pdfrwt>
<pdfrwt beam="2">  1       -2 0.62298269E-01 0.12719699E+04</pdfrwt>
<totfact> 0.59256074E+01</totfact>
</mgrwt>
</event>
<event>
 4    1  0.1755570E-005  0.6483448E+03  0.7818608E-02  0.9809890E-01
          2   -1    0    0  501    0  0.00000000000E+00  0.00000000000E+00  0.21005420588E+04  0.21005420588E+04  0.25500000000E-02 0.  1.
         -2   -1    0    0    0  501 -0.00000000000E+00 -0.00000000000E+00 -0.50028874859E+02  0.50028874924E+02  0.25500000000E-02 0. -1.
   -5000001    1    1    2    0    0 -0.18256778254E+03 -0.14125494947E+02  0.13409354089E+04  0.13762769691E+04  0.25000000000E+03 0.  0.
    5000001    1    1    2    0    0  0.18256778254E+03  0.14125494947E+02  0.70957777508E+03  0.77429396466E+03  0.25000000000E+03 0.  0.
<mgrwt>
<rscale>  0 0.64834483E+03</rscale>
<asrwt>0</asrwt>
<pdfrwt beam="1">  1        2 0.32316021E+00 0.64834483E+03</pdfrwt>
<pdfrwt beam="2">  1       -2 0.76967524E-02 0.64834483E+03</pdfrwt>
<totfact> 0.63523226E+02</totfact>
</mgrwt>
</event>
<event>
 4    1  0.1755570E-005  0.1213247E+04  0.7818608E-02  0.9101340E-01
         -2   -1    0    0    0  501 -0.00000000000E+00  0.00000000000E+00  0.14741742387E+03  0.14741742389E+03  0.25500000000E-02 0. -1.
          2   -1    0    0  501    0  0.00000000000E+00 -0.00000000000E+00 -0.24962578720E+04  0.24962578720E+04  0.25500000000E-02 0.  1.
   -5000001    1    1    2    0    0 -0.82014230343E+02  0.53688454766E+03 -0.95091983886E+03  0.11232630553E+04  0.25000000000E+03 0.  0.
    5000001    1    1    2    0    0  0.82014230343E+02 -0.53688454766E+03 -0.13979206093E+04  0.15204122406E+04  0.25000000000E+03 0.  0.
<mgrwt>
<rscale>  0 0.12132467E+04</rscale>
<asrwt>0</asrwt>
<pdfrwt beam="1">  1        2 0.38403964E+00 0.12132467E+04</pdfrwt>
<pdfrwt beam="2">  1       -2 0.22679606E-01 0.12132467E+04</pdfrwt>
<totfact> 0.59344022E+01</totfact>
</mgrwt>
</event>
<event>
 4    1  0.1755570E-005  0.5434979E+03  0.7818608E-02  0.1003010E+00
          2   -1    0    0  501    0  0.00000000000E+00  0.00000000000E+00  0.76774006718E+03  0.76774006718E+03  0.25500000000E-02 0.  1.
         -2   -1    0    0    0  501 -0.00000000000E+00 -0.00000000000E+00 -0.96188155612E+02  0.96188155645E+02  0.25500000000E-02 0. -1.
   -5000001    1    1    2    0    0 -0.93295154992E+02 -0.95843589874E+01  0.41607137268E+03  0.49437964465E+03  0.25000000000E+03 0.  0.
    5000001    1    1    2    0    0  0.93295154992E+02  0.95843589874E+01  0.25548053889E+03  0.36954857818E+03  0.25000000000E+03 0.  0.
<mgrwt>
<rscale>  0 0.54349793E+03</rscale>
<asrwt>0</asrwt>
<pdfrwt beam="1">  1        2 0.11811386E+00 0.54349793E+03</pdfrwt>
<pdfrwt beam="2">  1       -2 0.14798178E-01 0.54349793E+03</pdfrwt>
<totfact> 0.13087308E+03</totfact>
</mgrwt>
</event>
<event>
 4    1  0.1755570E-005  0.1003874E+04  0.7818608E-02  0.9304306E-01
          2   -1    0    0  501    0  0.00000000000E+00  0.00000000000E+00  0.63729779791E+03  0.63729779792E+03  0.25500000000E-02 0.  1.
         -2   -1    0    0    0  501 -0.00000000000E+00 -0.00000000000E+00 -0.39532665735E+03  0.39532665735E+03  0.25500000000E-02 0. -1.
   -5000001    1    1    2    0    0  0.23655150174E+03  0.18086359563E+03  0.44752398968E+03  0.59282879024E+03  0.25000000000E+03 0.  0.
    5000001    1    1    2    0    0 -0.23655150174E+03 -0.18086359563E+03 -0.20555284911E+03  0.43979566503E+03  0.25000000000E+03 0.  0.
<mgrwt>
<rscale>  0 0.10038741E+04</rscale>
<asrwt>0</asrwt>
<pdfrwt beam="1">  1        2 0.98045815E-01 0.10038741E+04</pdfrwt>
<pdfrwt beam="2">  1       -2 0.60819485E-01 0.10038741E+04</pdfrwt>
<totfact> 0.11580156E+02</totfact>
</mgrwt>
</event>
<event>
 4    1  0.1755570E-005  0.9962497E+03  0.7818608E-02  0.9312668E-01
         -2   -1    0    0    0  501 -0.00000000000E+00  0.00000000000E+00  0.13258830668E+03  0.13258830670E+03  0.25500000000E-02 0. -1.
          2   -1    0    0  501    0  0.00000000000E+00 -0.00000000000E+00 -0.18714197440E+04  0.18714197440E+04  0.25500000000E-02 0.  1.
   -5000001    1    1    2    0    0  0.22289574366E+03  0.63224503213E+02 -0.16001063178E+04  0.16360073590E+04  0.25000000000E+03 0.  0.
    5000001    1    1    2    0    0 -0.22289574366E+03 -0.63224503213E+02 -0.13872511956E+03  0.36800069177E+03  0.25000000000E+03 0.  0.
<mgrwt>
<rscale>  0 0.99624972E+03</rscale>
<asrwt>0</asrwt>
<pdfrwt beam="1">  1        2 0.28791071E+00 0.99624972E+03</pdfrwt>
<pdfrwt beam="2">  1       -2 0.20398202E-01 0.99624972E+03</pdfrwt>
<totfact> 0.16272519E+02</totfact>
</mgrwt>
</event>
<event>
 4    1  0.1755570E-005  0.5813422E+03  0.7818608E-02  0.9944889E-01
         -2   -1    0    0    0  501 -0.00000000000E+00  0.00000000000E+00  0.65439648545E+02  0.65439648594E+02  0.25500000000E-02 0. -1.
          2   -1    0    0  501    0  0.00000000000E+00 -0.00000000000E+00 -0.12911086924E+04  0.12911086924E+04  0.25500000000E-02 0.  1.
   -5000001    1    1    2    0    0 -0.10632293768E+03 -0.97493360746E+02 -0.69299806480E+03  0.75070356353E+03  0.25000000000E+03 0.  0.
    5000001    1    1    2    0    0  0.10632293768E+03  0.97493360746E+02 -0.53267097905E+03  0.60584477747E+03  0.25000000000E+03 0.  0.
<mgrwt>
<rscale>  0 0.58134224E+03</rscale>
<asrwt>0</asrwt>
<pdfrwt beam="1">  1        2 0.19863209E+00 0.58134224E+03</pdfrwt>
<pdfrwt beam="2">  1       -2 0.10067639E-01 0.58134224E+03</pdfrwt>
<totfact> 0.11516773E+03</totfact>
</mgrwt>
</event>
<event>
 4    1  0.1755570E-005  0.8928765E+03  0.7818608E-02  0.9434530E-01
          2   -1    0    0  501    0  0.00000000000E+00  0.00000000000E+00  0.12655323882E+04  0.12655323882E+04  0.25500000000E-02 0.  1.
         -2   -1    0    0    0  501 -0.00000000000E+00 -0.00000000000E+00 -0.15748874115E+03  0.15748874117E+03  0.25500000000E-02 0. -1.
   -5000001    1    1    2    0    0 -0.29769490444E+02 -0.26230480664E+03  0.14112983621E+03  0.39000982656E+03  0.25000000000E+03 0.  0.
    5000001    1    1    2    0    0  0.29769490444E+02  0.26230480664E+03  0.96691381089E+03  0.10330113029E+04  0.25000000000E+03 0.  0.
<mgrwt>
<rscale>  0 0.89287648E+03</rscale>
<asrwt>0</asrwt>
<pdfrwt beam="1">  1        2 0.19469729E+00 0.89287648E+03</pdfrwt>
<pdfrwt beam="2">  1       -2 0.24229037E-01 0.89287648E+03</pdfrwt>
<totfact> 0.26336051E+02</totfact>
</mgrwt>
</event>
<event>
 4    1  0.1755570E-005  0.6713480E+03  0.7818608E-02  0.9767526E-01
         -2   -1    0    0    0  501 -0.00000000000E+00  0.00000000000E+00  0.10327517301E+03  0.10327517304E+03  0.25500000000E-02 0. -1.
          2   -1    0    0  501    0  0.00000000000E+00 -0.00000000000E+00 -0.10910371102E+04  0.10910371102E+04  0.25500000000E-02 0.  1.
   -5000001    1    1    2    0    0 -0.16647284253E+03 -0.13381916080E+03 -0.37379978458E+03  0.49784239881E+03  0.25000000000E+03 0.  0.
    5000001    1    1    2    0    0  0.16647284253E+03  0.13381916080E+03 -0.61396215265E+03  0.69646988448E+03  0.25000000000E+03 0.  0.
<mgrwt>
<rscale>  0 0.67134804E+03</rscale>
<asrwt>0</asrwt>
<pdfrwt beam="1">  1        2 0.16785185E+00 0.67134804E+03</pdfrwt>
<pdfrwt beam="2">  1       -2 0.15888489E-01 0.67134804E+03</pdfrwt>
<totfact> 0.70711455E+02</totfact>
</mgrwt>
</event>
<event>
 4    1  0.1755570E-005  0.7547163E+03  0.7818608E-02  0.9627980E-01
         -2   -1    0    0    0  501 -0.00000000000E+00  0.00000000000E+00  0.10766605970E+03  0.10766605973E+03  0.25500000000E-02 0. -1.
          2   -1    0    0  501    0  0.00000000000E+00 -0.00000000000E+00 -0.13226002335E+04  0.13226002335E+04  0.25500000000E-02 0.  1.
   -5000001    1    1    2    0    0 -0.23801450119E+03  0.73565400404E+02 -0.35437030820E+03  0.50014106635E+03  0.25000000000E+03 0.  0.
    5000001    1    1    2    0    0  0.23801450119E+03 -0.73565400404E+02 -0.86056386563E+03  0.93012522691E+03  0.25000000000E+03 0.  0.
<mgrwt>
<rscale>  0 0.75471625E+03</rscale>
<asrwt>0</asrwt>
<pdfrwt beam="1">  1        2 0.20347695E+00 0.75471625E+03</pdfrwt>
<pdfrwt beam="2">  1       -2 0.16564010E-01 0.75471625E+03</pdfrwt>
<totfact> 0.47894698E+02</totfact>
</mgrwt>
</event>
<event>
 4    1  0.1755570E-005  0.6374781E+03  0.7818608E-02  0.9830564E-01
         -2   -1    0    0    0  501 -0.00000000000E+00  0.00000000000E+00  0.14785597771E+03  0.14785597773E+03  0.25500000000E-02 0. -1.
          2   -1    0    0  501    0  0.00000000000E+00 -0.00000000000E+00 -0.68711854211E+03  0.68711854212E+03  0.25500000000E-02 0.  1.
   -5000001    1    1    2    0    0 -0.77745994051E+02 -0.17680582832E+03 -0.21421779790E+03  0.38169884131E+03  0.25000000000E+03 0.  0.
    5000001    1    1    2    0    0  0.77745994051E+02  0.17680582832E+03 -0.32504476651E+03  0.45327567854E+03  0.25000000000E+03 0.  0.
<mgrwt>
<rscale>  0 0.63747811E+03</rscale>
<asrwt>0</asrwt>
<pdfrwt beam="1">  1        2 0.10571054E+00 0.63747811E+03</pdfrwt>
<pdfrwt beam="2">  1       -2 0.22747074E-01 0.63747811E+03</pdfrwt>
<totfact> 0.71654476E+02</totfact>
</mgrwt>
</event>
<event>
 4    1  0.1755570E-005  0.6756153E+03  0.7818608E-02  0.9759867E-01
          2   -1    0    0  501    0  0.00000000000E+00  0.00000000000E+00  0.32706458317E+04  0.32706458317E+04  0.25500000000E-02 0.  1.
         -2   -1    0    0    0  501 -0.00000000000E+00 -0.00000000000E+00 -0.34890358256E+02  0.34890358350E+02  0.25500000000E-02 0. -1.
   -5000001    1    1    2    0    0 -0.55904242897E+01 -0.18332760029E+03  0.22738141060E+04  0.22948574794E+04  0.25000000000E+03 0.  0.
    5000001    1    1    2    0    0  0.55904242897E+01  0.18332760029E+03  0.96194136745E+03  0.10106787107E+04  0.25000000000E+03 0.  0.
<mgrwt>
<rscale>  0 0.67561529E+03</rscale>
<asrwt>0</asrwt>
<pdfrwt beam="1">  1        2 0.50317637E+00 0.67561529E+03</pdfrwt>
<pdfrwt beam="2">  1       -2 0.53677465E-02 0.67561529E+03</pdfrwt>
<totfact> 0.23174341E+02</totfact>
</mgrwt>
</event>
<event>
 4    1  0.1755570E-005  0.7779084E+03  0.7818608E-02  0.9592556E-01
          2   -1    0    0  501    0  0.00000000000E+00  0.00000000000E+00  0.37709478102E+04  0.37709478102E+04  0.25500000000E-02 0.  1.
         -2   -1    0    0    0  501 -0.00000000000E+00 -0.00000000000E+00 -0.40118661726E+02  0.40118661807E+02  0.25500000000E-02 0. -1.
   -5000001    1    1    2    0    0 -0.13306545237E+03  0.15257878572E+03  0.29365046531E+04  0.29540728288E+04  0.25000000000E+03 0.  0.
    5000001    1    1    2    0    0  0.13306545237E+03 -0.15257878572E+03  0.79432449539E+03  0.85699364317E+03  0.25000000000E+03 0.  0.
<mgrwt>
<rscale>  0 0.77790843E+03</rscale>
<asrwt>0</asrwt>
<pdfrwt beam="1">  1        2 0.58014585E+00 0.77790843E+03</pdfrwt>
<pdfrwt beam="2">  1       -2 0.61721015E-02 0.77790843E+03</pdfrwt>
<totfact> 0.83248152E+01</totfact>
</mgrwt>
</event>
<event>
 4    1  0.1755570E-005  0.5981705E+03  0.7818608E-02  0.9909209E-01
         -2   -1    0    0    0  501 -0.00000000000E+00  0.00000000000E+00  0.33087663508E+02  0.33087663606E+02  0.25500000000E-02 0. -1.
          2   -1    0    0  501    0  0.00000000000E+00 -0.00000000000E+00 -0.27034844297E+04  0.27034844297E+04  0.25500000000E-02 0.  1.
   -5000001    1    1    2    0    0 -0.13049544109E+03  0.92108031167E+02 -0.11616512705E+04  0.11989356212E+04  0.25000000000E+03 0.  0.
    5000001    1    1    2    0    0  0.13049544109E+03 -0.92108031167E+02 -0.15087454957E+04  0.15376364721E+04  0.25000000000E+03 0.  0.
<mgrwt>
<rscale>  0 0.59817049E+03</rscale>
<asrwt>0</asrwt>
<pdfrwt beam="1">  1        2 0.41592051E+00 0.59817049E+03</pdfrwt>
<pdfrwt beam="2">  1       -2 0.50904119E-02 0.59817049E+03</pdfrwt>
<totfact> 0.56225456E+02</totfact>
</mgrwt>
</event>
<event>
 4    1  0.1755570E-005  0.7095158E+03  0.7818608E-02  0.9701096E-01
         -2   -1    0    0    0  501 -0.00000000000E+00  0.00000000000E+00  0.43417701540E+02  0.43417701615E+02  0.25500000000E-02 0. -1.
          2   -1    0    0  501    0  0.00000000000E+00 -0.00000000000E+00 -0.28986604530E+04  0.28986604530E+04  0.25500000000E-02 0.  1.
   -5000001    1    1    2    0    0 -0.20737024737E+03 -0.11726780594E+03 -0.17644676411E+04  0.17979433290E+04  0.25000000000E+03 0.  0.
    5000001    1    1    2    0    0  0.20737024737E+03  0.11726780594E+03 -0.10907751103E+04  0.11441348256E+04  0.25000000000E+03 0.  0.
<mgrwt>
<rscale>  0 0.70951582E+03</rscale>
<asrwt>0</asrwt>
<pdfrwt beam="1">  1        2 0.44594761E+00 0.70951582E+03</pdfrwt>
<pdfrwt beam="2">  1       -2 0.66796487E-02 0.70951582E+03</pdfrwt>
<totfact> 0.27868879E+02</totfact>
</mgrwt>
</event>
<event>
 4    1  0.1755570E-005  0.6500287E+03  0.7818608E-02  0.9806725E-01
         -2   -1    0    0    0  501 -0.00000000000E+00  0.00000000000E+00  0.30151718932E+03  0.30151718933E+03  0.25500000000E-02 0. -1.
          2   -1    0    0  501    0  0.00000000000E+00 -0.00000000000E+00 -0.35034263529E+03  0.35034263530E+03  0.25500000000E-02 0.  1.
   -5000001    1    1    2    0    0 -0.57627518561E+02  0.19919690729E+03 -0.12804799795E+02  0.32506045848E+03  0.25000000000E+03 0.  0.
    5000001    1    1    2    0    0  0.57627518561E+02 -0.19919690729E+03 -0.36020646182E+02  0.32679936615E+03  0.25000000000E+03 0.  0.
<mgrwt>
<rscale>  0 0.65002870E+03</rscale>
<asrwt>0</asrwt>
<pdfrwt beam="1">  1        2 0.53898867E-01 0.65002870E+03</pdfrwt>
<pdfrwt beam="2">  1       -2 0.46387260E-01 0.65002870E+03</pdfrwt>
<totfact> 0.41038473E+02</totfact>
</mgrwt>
</event>
<event>
 4    1  0.1755570E-005  0.6666418E+03  0.7818608E-02  0.9776044E-01
          2   -1    0    0  501    0  0.00000000000E+00  0.00000000000E+00  0.76664052777E+03  0.76664052778E+03  0.25500000000E-02 0.  1.
         -2   -1    0    0    0  501 -0.00000000000E+00 -0.00000000000E+00 -0.14492168035E+03  0.14492168038E+03  0.25500000000E-02 0. -1.
   -5000001    1    1    2    0    0 -0.14658723808E+03  0.29124859774E+02  0.89245530917E+02  0.30463230395E+03  0.25000000000E+03 0.  0.
    5000001    1    1    2    0    0  0.14658723808E+03 -0.29124859774E+02  0.53247331650E+03  0.60692990420E+03  0.25000000000E+03 0.  0.
<mgrwt>
<rscale>  0 0.66664183E+03</rscale>
<asrwt>0</asrwt>
<pdfrwt beam="1">  1        2 0.11794470E+00 0.66664183E+03</pdfrwt>
<pdfrwt beam="2">  1       -2 0.22295643E-01 0.66664183E+03</pdfrwt>
<totfact> 0.64541077E+02</totfact>
</mgrwt>
</event>
<event>
 4    1  0.1755570E-005  0.7174662E+03  0.7818608E-02  0.9687820E-01
         -2   -1    0    0    0  501 -0.00000000000E+00  0.00000000000E+00  0.93802500780E+02  0.93802500814E+02  0.25500000000E-02 0. -1.
          2   -1    0    0  501    0  0.00000000000E+00 -0.00000000000E+00 -0.13719190570E+04  0.13719190570E+04  0.25500000000E-02 0.  1.
   -5000001    1    1    2    0    0  0.22177629629E+03  0.86428854259E+02 -0.83854089020E+03  0.90681061803E+03  0.25000000000E+03 0.  0.
    5000001    1    1    2    0    0 -0.22177629629E+03 -0.86428854259E+02 -0.43957566599E+03  0.55891093975E+03  0.25000000000E+03 0.  0.
<mgrwt>
<rscale>  0 0.71746620E+03</rscale>
<asrwt>0</asrwt>
<pdfrwt beam="1">  1        2 0.21106446E+00 0.71746620E+03</pdfrwt>
<pdfrwt beam="2">  1       -2 0.14431155E-01 0.71746620E+03</pdfrwt>
<totfact> 0.56823087E+02</totfact>
</mgrwt>
</event>
<event>
 4    1  0.1755570E-005  0.7467305E+03  0.7818608E-02  0.9640494E-01
          2   -1    0    0  501    0  0.00000000000E+00  0.00000000000E+00  0.90583310271E+03  0.90583310271E+03  0.25500000000E-02 0.  1.
         -2   -1    0    0    0  501 -0.00000000000E+00 -0.00000000000E+00 -0.15389325004E+03  0.15389325006E+03  0.25500000000E-02 0. -1.
   -5000001    1    1    2    0    0  0.11555977144E+03 -0.11994649414E+03  0.69062697559E+03  0.75313135750E+03  0.25000000000E+03 0.  0.
    5000001    1    1    2    0    0 -0.11555977144E+03  0.11994649414E+03  0.61312877073E+02  0.30659499527E+03  0.25000000000E+03 0.  0.
<mgrwt>
<rscale>  0 0.74673047E+03</rscale>
<asrwt>0</asrwt>
<pdfrwt beam="1">  1        2 0.13935894E+00 0.74673047E+03</pdfrwt>
<pdfrwt beam="2">  1       -2 0.23675885E-01 0.74673047E+03</pdfrwt>
<totfact> 0.46205100E+02</totfact>
</mgrwt>
</event>
<event>
 4    1  0.1755570E-005  0.6505337E+03  0.7818608E-02  0.9805778E-01
          2   -1    0    0  501    0  0.00000000000E+00  0.00000000000E+00  0.17570645147E+04  0.17570645147E+04  0.25500000000E-02 0.  1.
         -2   -1    0    0    0  501 -0.00000000000E+00 -0.00000000000E+00 -0.60213233727E+02  0.60213233781E+02  0.25500000000E-02 0. -1.
   -5000001    1    1    2    0    0  0.17112224464E+03 -0.63889911485E+02  0.11268511579E+04  0.11686138265E+04  0.25000000000E+03 0.  0.
    5000001    1    1    2    0    0 -0.17112224464E+03  0.63889911485E+02  0.57000012314E+03  0.64866392206E+03  0.25000000000E+03 0.  0.
<mgrwt>
<rscale>  0 0.65053374E+03</rscale>
<asrwt>0</asrwt>
<pdfrwt beam="1">  1        2 0.27031764E+00 0.65053374E+03</pdfrwt>
<pdfrwt beam="2">  1       -2 0.92635737E-02 0.65053374E+03</pdfrwt>
<totfact> 0.72508376E+02</totfact>
</mgrwt>
</event>
<event>
 4    1  0.1755570E-005  0.6254562E+03  0.7818608E-02  0.9853956E-01
         -2   -1    0    0    0  501 -0.00000000000E+00  0.00000000000E+00  0.12915301664E+03  0.12915301667E+03  0.25500000000E-02 0. -1.
          2   -1    0    0  501    0  0.00000000000E+00 -0.00000000000E+00 -0.75723242657E+03  0.75723242657E+03  0.25500000000E-02 0.  1.
   -5000001    1    1    2    0    0  0.84839249327E+02  0.13221534472E+03 -0.46008690848E+03  0.54667957613E+03  0.25000000000E+03 0.  0.
    5000001    1    1    2    0    0 -0.84839249327E+02 -0.13221534472E+03 -0.16799250145E+03  0.33970586711E+03  0.25000000000E+03 0.  0.
<mgrwt>
<rscale>  0 0.62545616E+03</rscale>
<asrwt>0</asrwt>
<pdfrwt beam="1">  1        2 0.11649729E+00 0.62545616E+03</pdfrwt>
<pdfrwt beam="2">  1       -2 0.19869695E-01 0.62545616E+03</pdfrwt>
<totfact> 0.80381068E+02</totfact>
</mgrwt>
</event>
<event>
 4    1  0.1755570E-005  0.7814832E+03  0.7818608E-02  0.9587213E-01
         -2   -1    0    0    0  501 -0.00000000000E+00  0.00000000000E+00  0.67207885931E+02  0.67207885980E+02  0.25500000000E-02 0. -1.
          2   -1    0    0  501    0  0.00000000000E+00 -0.00000000000E+00 -0.22717423625E+04  0.22717423625E+04  0.25500000000E-02 0.  1.
   -5000001    1    1    2    0    0 -0.23516338898E+03  0.47795475841E+02 -0.56193360740E+03  0.66019361263E+03  0.25000000000E+03 0.  0.
    5000001    1    1    2    0    0  0.23516338898E+03 -0.47795475841E+02 -0.16426008692E+04  0.16787566359E+04  0.25000000000E+03 0.  0.
<mgrwt>
<rscale>  0 0.78148321E+03</rscale>
<asrwt>0</asrwt>
<pdfrwt beam="1">  1        2 0.34949877E+00 0.78148321E+03</pdfrwt>
<pdfrwt beam="2">  1       -2 0.10339677E-01 0.78148321E+03</pdfrwt>
<totfact> 0.31440885E+02</totfact>
</mgrwt>
</event>
<event>
 4    1  0.1755570E-005  0.7583611E+03  0.7818608E-02  0.9622324E-01
          2   -1    0    0  501    0  0.00000000000E+00  0.00000000000E+00  0.10365599679E+04  0.10365599679E+04  0.25500000000E-02 0.  1.
         -2   -1    0    0    0  501 -0.00000000000E+00 -0.00000000000E+00 -0.13870675973E+03  0.13870675975E+03  0.25500000000E-02 0. -1.
   -5000001    1    1    2    0    0  0.25926737852E+03 -0.72256931524E+02  0.59461288617E+03  0.69893141446E+03  0.25000000000E+03 0.  0.
    5000001    1    1    2    0    0 -0.25926737852E+03  0.72256931524E+02  0.30324032205E+03  0.47633531324E+03  0.25000000000E+03 0.  0.
<mgrwt>
<rscale>  0 0.75836106E+03</rscale>
<asrwt>0</asrwt>
<pdfrwt beam="1">  1        2 0.15947077E+00 0.75836106E+03</pdfrwt>
<pdfrwt beam="2">  1       -2 0.21339501E-01 0.75836106E+03</pdfrwt>
<totfact> 0.45709170E+02</totfact>
</mgrwt>
</event>
<event>
 4    1  0.1755570E-005  0.6334977E+03  0.7818608E-02  0.9838247E-01
          2   -1    0    0  501    0  0.00000000000E+00  0.00000000000E+00  0.28862634591E+03  0.28862634592E+03  0.25500000000E-02 0.  1.
         -2   -1    0    0    0  501 -0.00000000000E+00 -0.00000000000E+00 -0.34761143738E+03  0.34761143739E+03  0.25500000000E-02 0. -1.
   -5000001    1    1    2    0    0 -0.92144965650E+02  0.16837871116E+03  0.20716281981E+01  0.31519260256E+03  0.25000000000E+03 0.  0.
    5000001    1    1    2    0    0  0.92144965650E+02 -0.16837871116E+03 -0.61056719665E+02  0.32104518075E+03  0.25000000000E+03 0.  0.
<mgrwt>
<rscale>  0 0.63349765E+03</rscale>
<asrwt>0</asrwt>
<pdfrwt beam="1">  1        2 0.44404053E-01 0.63349765E+03</pdfrwt>
<pdfrwt beam="2">  1       -2 0.53478683E-01 0.63349765E+03</pdfrwt>
<totfact> 0.38135089E+02</totfact>
</mgrwt>
</event>
<event>
 4    1  0.1755570E-005  0.6326787E+03  0.7818608E-02  0.9839835E-01
          2   -1    0    0  501    0  0.00000000000E+00  0.00000000000E+00  0.20395042856E+04  0.20395042856E+04  0.25500000000E-02 0.  1.
         -2   -1    0    0    0  501 -0.00000000000E+00 -0.00000000000E+00 -0.49066134204E+02  0.49066134271E+02  0.25500000000E-02 0. -1.
   -5000001    1    1    2    0    0 -0.73279928916E+02  0.12956313674E+03  0.58536987852E+03  0.65369293178E+03  0.25000000000E+03 0.  0.
    5000001    1    1    2    0    0  0.73279928916E+02 -0.12956313674E+03  0.14050682729E+04  0.14348774881E+04  0.25000000000E+03 0.  0.
<mgrwt>
<rscale>  0 0.63267872E+03</rscale>
<asrwt>0</asrwt>
<pdfrwt beam="1">  1        2 0.31376997E+00 0.63267872E+03</pdfrwt>
<pdfrwt beam="2">  1       -2 0.75486340E-02 0.63267872E+03</pdfrwt>
<totfact> 0.70807535E+02</totfact>
</mgrwt>
</event>
<event>
 4    1  0.1755570E-005  0.5942189E+03  0.7818608E-02  0.9917473E-01
         -2   -1    0    0    0  501 -0.00000000000E+00  0.00000000000E+00  0.87694550277E+02  0.87694550314E+02  0.25500000000E-02 0. -1.
          2   -1    0    0  501    0  0.00000000000E+00 -0.00000000000E+00 -0.10066077438E+04  0.10066077438E+04  0.25500000000E-02 0.  1.
   -5000001    1    1    2    0    0  0.63422301943E+02  0.77825928516E+02 -0.69016747761E+03  0.74088488355E+03  0.25000000000E+03 0.  0.
    5000001    1    1    2    0    0 -0.63422301943E+02 -0.77825928516E+02 -0.22874571589E+03  0.35341741054E+03  0.25000000000E+03 0.  0.
<mgrwt>
<rscale>  0 0.59421886E+03</rscale>
<asrwt>0</asrwt>
<pdfrwt beam="1">  1        2 0.15486272E+00 0.59421886E+03</pdfrwt>
<pdfrwt beam="2">  1       -2 0.13491470E-01 0.59421886E+03</pdfrwt>
<totfact> 0.10531152E+03</totfact>
</mgrwt>
</event>
<event>
 4    1  0.1755570E-005  0.7498111E+03  0.7818608E-02  0.9635647E-01
         -2   -1    0    0    0  501 -0.00000000000E+00  0.00000000000E+00  0.49166078501E+03  0.49166078501E+03  0.25500000000E-02 0. -1.
          2   -1    0    0  501    0  0.00000000000E+00 -0.00000000000E+00 -0.28587632618E+03  0.28587632619E+03  0.25500000000E-02 0.  1.
   -5000001    1    1    2    0    0  0.22831344716E+03  0.37861997296E+02  0.26518370897E+03  0.43172092895E+03  0.25000000000E+03 0.  0.
    5000001    1    1    2    0    0 -0.22831344716E+03 -0.37861997296E+02 -0.59399250141E+02  0.34581618225E+03  0.25000000000E+03 0.  0.
<mgrwt>
<rscale>  0 0.74981112E+03</rscale>
<asrwt>0</asrwt>
<pdfrwt beam="1">  1        2 0.43980973E-01 0.74981112E+03</pdfrwt>
<pdfrwt beam="2">  1       -2 0.75640121E-01 0.74981112E+03</pdfrwt>
<totfact> 0.18317669E+02</totfact>
</mgrwt>
</event>
<event>
 4    1  0.1755570E-005  0.6030699E+03  0.7818608E-02  0.9899057E-01
          2   -1    0    0  501    0  0.00000000000E+00  0.00000000000E+00  0.52969944489E+03  0.52969944489E+03  0.25500000000E-02 0.  1.
         -2   -1    0    0    0  501 -0.00000000000E+00 -0.00000000000E+00 -0.17165081246E+03  0.17165081248E+03  0.25500000000E-02 0. -1.
   -5000001    1    1    2    0    0  0.45063287752E+02  0.15112185837E+03  0.10968551445E+03  0.31527674837E+03  0.25000000000E+03 0.  0.
    5000001    1    1    2    0    0 -0.45063287752E+02 -0.15112185837E+03  0.24836311798E+03  0.38607350900E+03  0.25000000000E+03 0.  0.
<mgrwt>
<rscale>  0 0.60306995E+03</rscale>
<asrwt>0</asrwt>
<pdfrwt beam="1">  1        2 0.81492221E-01 0.60306995E+03</pdfrwt>
<pdfrwt beam="2">  1       -2 0.26407818E-01 0.60306995E+03</pdfrwt>
<totfact> 0.75049081E+02</totfact>
</mgrwt>
</event>
<event>
 4    1  0.1755570E-005  0.7198807E+03  0.7818608E-02  0.9683825E-01
         -2   -1    0    0    0  501 -0.00000000000E+00  0.00000000000E+00  0.25961881675E+03  0.25961881676E+03  0.25500000000E-02 0. -1.
          2   -1    0    0  501    0  0.00000000000E+00 -0.00000000000E+00 -0.49902801318E+03  0.49902801319E+03  0.25500000000E-02 0.  1.
   -5000001    1    1    2    0    0  0.15495084733E+03 -0.14541069532E+03  0.36261847136E+02  0.33010446371E+03  0.25000000000E+03 0.  0.
    5000001    1    1    2    0    0 -0.15495084733E+03  0.14541069532E+03 -0.27567104357E+03  0.42854236624E+03  0.25000000000E+03 0.  0.
<mgrwt>
<rscale>  0 0.71988072E+03</rscale>
<asrwt>0</asrwt>
<pdfrwt beam="1">  1        2 0.76773540E-01 0.71988072E+03</pdfrwt>
<pdfrwt beam="2">  1       -2 0.39941356E-01 0.71988072E+03</pdfrwt>
<totfact> 0.36890523E+02</totfact>
</mgrwt>
</event>
<event>
 4    1  0.1755570E-005  0.8862650E+03  0.7818608E-02  0.9442916E-01
          2   -1    0    0  501    0  0.00000000000E+00  0.00000000000E+00  0.50980684744E+03  0.50980684744E+03  0.25500000000E-02 0.  1.
         -2   -1    0    0    0  501 -0.00000000000E+00 -0.00000000000E+00 -0.38517806310E+03  0.38517806310E+03  0.25500000000E-02 0. -1.
   -5000001    1    1    2    0    0  0.20508011147E+03  0.23655166003E+03  0.25352326616E+03  0.47411874723E+03  0.25000000000E+03 0.  0.
    5000001    1    1    2    0    0 -0.20508011147E+03 -0.23655166003E+03 -0.12889448182E+03  0.42086616332E+03  0.25000000000E+03 0.  0.
<mgrwt>
<rscale>  0 0.88626500E+03</rscale>
<asrwt>0</asrwt>
<pdfrwt beam="1">  1        2 0.78431822E-01 0.88626500E+03</pdfrwt>
<pdfrwt beam="2">  1       -2 0.59258164E-01 0.88626500E+03</pdfrwt>
<totfact> 0.16078127E+02</totfact>
</mgrwt>
</event>
<event>
 4    1  0.1755570E-005  0.1098764E+04  0.7818608E-02  0.9206397E-01
         -2   -1    0    0    0  501 -0.00000000000E+00  0.00000000000E+00  0.13644090938E+03  0.13644090940E+03  0.25500000000E-02 0. -1.
          2   -1    0    0  501    0  0.00000000000E+00 -0.00000000000E+00 -0.22120985963E+04  0.22120985963E+04  0.25500000000E-02 0.  1.
   -5000001    1    1    2    0    0 -0.92552617093E+02 -0.38618942029E+03 -0.42720797471E+03  0.63459822639E+03  0.25000000000E+03 0.  0.
    5000001    1    1    2    0    0  0.92552617093E+02  0.38618942029E+03 -0.16484497122E+04  0.17139412793E+04  0.25000000000E+03 0.  0.
<mgrwt>
<rscale>  0 0.10987643E+04</rscale>
<asrwt>0</asrwt>
<pdfrwt beam="1">  1        2 0.34032284E+00 0.10987643E+04</pdfrwt>
<pdfrwt beam="2">  1       -2 0.20990911E-01 0.10987643E+04</pdfrwt>
<totfact> 0.99517961E+01</totfact>
</mgrwt>
</event>
<event>
 4    1  0.1755570E-005  0.3800004E+04  0.7818608E-02  0.8046154E-01
         -2   -1    0    0    0  501 -0.00000000000E+00  0.00000000000E+00  0.19044338425E+04  0.19044338425E+04  0.25500000000E-02 0. -1.
          2   -1    0    0  501    0  0.00000000000E+00 -0.00000000000E+00 -0.18955800672E+04  0.18955800672E+04  0.25500000000E-02 0.  1.
   -5000001    1    1    2    0    0  0.82022759604E+03 -0.13381504865E+04  0.10456246031E+04  0.19024328751E+04  0.25000000000E+03 0.  0.
    5000001    1    1    2    0    0 -0.82022759604E+03  0.13381504865E+04 -0.10367708278E+04  0.18975810347E+04  0.25000000000E+03 0.  0.
<mgrwt>
<rscale>  0 0.38000036E+04</rscale>
<asrwt>0</asrwt>
<pdfrwt beam="1">  1        2 0.29162770E+00 0.38000036E+04</pdfrwt>
<pdfrwt beam="2">  1       -2 0.29298982E+00 0.38000036E+04</pdfrwt>
<totfact> 0.21481176E-01</totfact>
</mgrwt>
</event>
<event>
 4    1  0.1755570E-005  0.7931769E+03  0.7818608E-02  0.9569946E-01
          2   -1    0    0  501    0  0.00000000000E+00  0.00000000000E+00  0.12630468688E+04  0.12630468688E+04  0.25500000000E-02 0.  1.
         -2   -1    0    0    0  501 -0.00000000000E+00 -0.00000000000E+00 -0.12452616991E+03  0.12452616994E+03  0.25500000000E-02 0. -1.
   -5000001    1    1    2    0    0  0.16580870489E+03 -0.25895161180E+03  0.54250416008E+03  0.67183273779E+03  0.25000000000E+03 0.  0.
    5000001    1    1    2    0    0 -0.16580870489E+03  0.25895161180E+03  0.59601653880E+03  0.71574030094E+03  0.25000000000E+03 0.  0.
<mgrwt>
<rscale>  0 0.79317688E+03</rscale>
<asrwt>0</asrwt>
<pdfrwt beam="1">  1        2 0.19431491E+00 0.79317688E+03</pdfrwt>
<pdfrwt beam="2">  1       -2 0.19157871E-01 0.79317688E+03</pdfrwt>
<totfact> 0.40258680E+02</totfact>
</mgrwt>
</event>
<event>
 4    1  0.1755570E-005  0.7777188E+03  0.7818608E-02  0.9592840E-01
         -2   -1    0    0    0  501 -0.00000000000E+00  0.00000000000E+00  0.16206658761E+03  0.16206658763E+03  0.25500000000E-02 0. -1.
          2   -1    0    0  501    0  0.00000000000E+00 -0.00000000000E+00 -0.93302155348E+03  0.93302155349E+03  0.25500000000E-02 0.  1.
   -5000001    1    1    2    0    0  0.20731088150E+03 -0.20945562607E+03 -0.44623986860E+03  0.59032150665E+03  0.25000000000E+03 0.  0.
    5000001    1    1    2    0    0 -0.20731088150E+03  0.20945562607E+03 -0.32471509727E+03  0.50476663447E+03  0.25000000000E+03 0.  0.
<mgrwt>
<rscale>  0 0.77771876E+03</rscale>
<asrwt>0</asrwt>
<pdfrwt beam="1">  1        2 0.14354177E+00 0.77771876E+03</pdfrwt>
<pdfrwt beam="2">  1       -2 0.24933322E-01 0.77771876E+03</pdfrwt>
<totfact> 0.40333632E+02</totfact>
</mgrwt>
</event>
<event>
 4    1  0.1755570E-005  0.6222485E+03  0.7818608E-02  0.9860293E-01
          2   -1    0    0  501    0  0.00000000000E+00  0.00000000000E+00  0.33748205972E+03  0.33748205973E+03  0.25500000000E-02 0.  1.
         -2   -1    0    0    0  501 -0.00000000000E+00 -0.00000000000E+00 -0.28682501486E+03  0.28682501487E+03  0.25500000000E-02 0. -1.
   -5000001    1    1    2    0    0  0.11045497282E+03 -0.10982044873E+03  0.12584712004E+03  0.32030974010E+03  0.25000000000E+03 0.  0.
    5000001    1    1    2    0    0 -0.11045497282E+03  0.10982044873E+03 -0.75190075175E+02  0.30399733450E+03  0.25000000000E+03 0.  0.
<mgrwt>
<rscale>  0 0.62224849E+03</rscale>
<asrwt>0</asrwt>
<pdfrwt beam="1">  1        2 0.51920316E-01 0.62224849E+03</pdfrwt>
<pdfrwt beam="2">  1       -2 0.44126926E-01 0.62224849E+03</pdfrwt>
<totfact> 0.47279796E+02</totfact>
</mgrwt>
</event>
<event>
 4    1  0.1755570E-005  0.8242752E+03  0.7818608E-02  0.9525530E-01
         -2   -1    0    0    0  501 -0.00000000000E+00  0.00000000000E+00  0.37735201176E+02  0.37735201262E+02  0.25500000000E-02 0. -1.
          2   -1    0    0  501    0  0.00000000000E+00 -0.00000000000E+00 -0.45012985847E+04  0.45012985847E+04  0.25500000000E-02 0.  1.
   -5000001    1    1    2    0    0 -0.22928253597E+03  0.60156296440E+01 -0.94327652200E+03  0.10024356668E+04  0.25000000000E+03 0.  0.
    5000001    1    1    2    0    0  0.22928253597E+03 -0.60156296440E+01 -0.35202868616E+04  0.35365981192E+04  0.25000000000E+03 0.  0.
<mgrwt>
<rscale>  0 0.82427522E+03</rscale>
<asrwt>0</asrwt>
<pdfrwt beam="1">  1        2 0.69250705E+00 0.82427522E+03</pdfrwt>
<pdfrwt beam="2">  1       -2 0.58054191E-02 0.82427522E+03</pdfrwt>
<totfact> 0.22413116E+01</totfact>
</mgrwt>
</event>
<event>
 4    1  0.1755570E-005  0.7558336E+03  0.7818608E-02  0.9626242E-01
          2   -1    0    0  501    0  0.00000000000E+00  0.00000000000E+00  0.65506463814E+03  0.65506463815E+03  0.25500000000E-02 0.  1.
         -2   -1    0    0    0  501 -0.00000000000E+00 -0.00000000000E+00 -0.21802600280E+03  0.21802600281E+03  0.25500000000E-02 0. -1.
   -5000001    1    1    2    0    0 -0.16261578805E+03 -0.22680588166E+03  0.16150282871E+03  0.40800486046E+03  0.25000000000E+03 0.  0.
    5000001    1    1    2    0    0  0.16261578805E+03  0.22680588166E+03  0.27553580664E+03  0.46508578050E+03  0.25000000000E+03 0.  0.
<mgrwt>
<rscale>  0 0.75583364E+03</rscale>
<asrwt>0</asrwt>
<pdfrwt beam="1">  1        2 0.10077917E+00 0.75583364E+03</pdfrwt>
<pdfrwt beam="2">  1       -2 0.33542463E-01 0.75583364E+03</pdfrwt>
<totfact> 0.37220184E+02</totfact>
</mgrwt>
</event>
<event>
 4    1  0.1755570E-005  0.6806283E+03  0.7818608E-02  0.9750946E-01
         -2   -1    0    0    0  501 -0.00000000000E+00  0.00000000000E+00  0.61893979224E+02  0.61893979276E+02  0.25500000000E-02 0. -1.
          2   -1    0    0  501    0  0.00000000000E+00 -0.00000000000E+00 -0.18711631552E+04  0.18711631552E+04  0.25500000000E-02 0.  1.
   -5000001    1    1    2    0    0 -0.34695386357E+02 -0.13727396488E+03 -0.14226394008E+04  0.14513616972E+04  0.25000000000E+03 0.  0.
    5000001    1    1    2    0    0  0.34695386357E+02  0.13727396488E+03 -0.38662977511E+03  0.48169543725E+03  0.25000000000E+03 0.  0.
<mgrwt>
<rscale>  0 0.68062834E+03</rscale>
<asrwt>0</asrwt>
<pdfrwt beam="1">  1        2 0.28787121E+00 0.68062834E+03</pdfrwt>
<pdfrwt beam="2">  1       -2 0.95221521E-02 0.68062834E+03</pdfrwt>
<totfact> 0.60015701E+02</totfact>
</mgrwt>
</event>
<event>
 4    1  0.1755570E-005  0.7639909E+03  0.7818608E-02  0.9613653E-01
          2   -1    0    0  501    0  0.00000000000E+00  0.00000000000E+00  0.11260106407E+03  0.11260106410E+03  0.25500000000E-02 0.  1.
         -2   -1    0    0    0  501 -0.00000000000E+00 -0.00000000000E+00 -0.12959073010E+04  0.12959073010E+04  0.25500000000E-02 0. -1.
   -5000001    1    1    2    0    0 -0.12094414689E+02  0.27498186994E+03 -0.75300126634E+03  0.83980486470E+03  0.25000000000E+03 0.  0.
    5000001    1    1    2    0    0  0.12094414689E+02 -0.27498186994E+03 -0.43030497062E+03  0.56870350044E+03  0.25000000000E+03 0.  0.
<mgrwt>
<rscale>  0 0.76399095E+03</rscale>
<asrwt>0</asrwt>
<pdfrwt beam="1">  1        2 0.17323241E-01 0.76399095E+03</pdfrwt>
<pdfrwt beam="2">  1       -2 0.19937034E+00 0.76399095E+03</pdfrwt>
<totfact> 0.45984379E+01</totfact>
</mgrwt>
</event>
<event>
 4    1  0.1755570E-005  0.9267529E+03  0.7818608E-02  0.9392743E-01
         -2   -1    0    0    0  501 -0.00000000000E+00  0.00000000000E+00  0.12558713876E+03  0.12558713878E+03  0.25500000000E-02 0. -1.
          2   -1    0    0  501    0  0.00000000000E+00 -0.00000000000E+00 -0.17097110987E+04  0.17097110987E+04  0.25500000000E-02 0.  1.
   -5000001    1    1    2    0    0  0.35143343562E+03 -0.50814416338E+02 -0.47194129210E+03  0.64133933901E+03  0.25000000000E+03 0.  0.
    5000001    1    1    2    0    0 -0.35143343562E+03  0.50814416338E+02 -0.11121826678E+04  0.11939588985E+04  0.25000000000E+03 0.  0.
<mgrwt>
<rscale>  0 0.92675288E+03</rscale>
<asrwt>0</asrwt>
<pdfrwt beam="1">  1        2 0.26303246E+00 0.92675288E+03</pdfrwt>
<pdfrwt beam="2">  1       -2 0.19321100E-01 0.92675288E+03</pdfrwt>
<totfact> 0.22068784E+02</totfact>
</mgrwt>
</event>
<event>
 4    1  0.1755570E-005  0.6068924E+03  0.7818608E-02  0.9891209E-01
         -2   -1    0    0    0  501 -0.00000000000E+00  0.00000000000E+00  0.95489023367E+03  0.95489023367E+03  0.25500000000E-02 0. -1.
          2   -1    0    0  501    0  0.00000000000E+00 -0.00000000000E+00 -0.96429518869E+02  0.96429518903E+02  0.25500000000E-02 0.  1.
   -5000001    1    1    2    0    0  0.16822490148E+03  0.34884720793E+02  0.41547578628E+03  0.51442850835E+03  0.25000000000E+03 0.  0.
    5000001    1    1    2    0    0 -0.16822490148E+03 -0.34884720793E+02  0.44298492852E+03  0.53689124422E+03  0.25000000000E+03 0.  0.
<mgrwt>
<rscale>  0 0.60689243E+03</rscale>
<asrwt>0</asrwt>
<pdfrwt beam="1">  1        2 0.14835310E-01 0.60689243E+03</pdfrwt>
<pdfrwt beam="2">  1       -2 0.14690619E+00 0.60689243E+03</pdfrwt>
<totfact> 0.13075022E+02</totfact>
</mgrwt>
</event>
<event>
 4    1  0.1755570E-005  0.5998002E+03  0.7818608E-02  0.9905821E-01
          2   -1    0    0  501    0  0.00000000000E+00  0.00000000000E+00  0.44257694271E+03  0.44257694272E+03  0.25500000000E-02 0.  1.
         -2   -1    0    0    0  501 -0.00000000000E+00 -0.00000000000E+00 -0.20321903284E+03  0.20321903286E+03  0.25500000000E-02 0. -1.
   -5000001    1    1    2    0    0 -0.68894840254E+02  0.14384663950E+03  0.71507625040E+02  0.30504375940E+03  0.25000000000E+03 0.  0.
    5000001    1    1    2    0    0  0.68894840254E+02 -0.14384663950E+03  0.16785028483E+03  0.34075221617E+03  0.25000000000E+03 0.  0.
<mgrwt>
<rscale>  0 0.59980016E+03</rscale>
<asrwt>0</asrwt>
<pdfrwt beam="1">  1        2 0.68088760E-01 0.59980016E+03</pdfrwt>
<pdfrwt beam="2">  1       -2 0.31264467E-01 0.59980016E+03</pdfrwt>
<totfact> 0.67655692E+02</totfact>
</mgrwt>
</event>
<event>
 4    1  0.1755570E-005  0.6353077E+03  0.7818608E-02  0.9834746E-01
          2   -1    0    0  501    0  0.00000000000E+00  0.00000000000E+00  0.61235870672E+03  0.61235870672E+03  0.25500000000E-02 0.  1.
         -2   -1    0    0    0  501 -0.00000000000E+00 -0.00000000000E+00 -0.16477920859E+03  0.16477920861E+03  0.25500000000E-02 0. -1.
   -5000001    1    1    2    0    0 -0.91293716548E+02  0.15676314246E+03  0.31446488493E+03  0.44079177553E+03  0.25000000000E+03 0.  0.
    5000001    1    1    2    0    0  0.91293716548E+02 -0.15676314246E+03  0.13311461320E+03  0.33634613981E+03  0.25000000000E+03 0.  0.
<mgrwt>
<rscale>  0 0.63530775E+03</rscale>
<asrwt>0</asrwt>
<pdfrwt beam="1">  1        2 0.94209034E-01 0.63530775E+03</pdfrwt>
<pdfrwt beam="2">  1       -2 0.25350647E-01 0.63530775E+03</pdfrwt>
<totfact> 0.67994558E+02</totfact>
</mgrwt>
</event>
<event>
 4    1  0.1755570E-005  0.9156710E+03  0.7818608E-02  0.9406201E-01
         -2   -1    0    0    0  501 -0.00000000000E+00  0.00000000000E+00  0.89827846076E+03  0.89827846076E+03  0.25500000000E-02 0. -1.
          2   -1    0    0  501    0  0.00000000000E+00 -0.00000000000E+00 -0.23335007462E+03  0.23335007464E+03  0.25500000000E-02 0.  1.
   -5000001    1    1    2    0    0  0.34269915591E+03 -0.40714608140E+02  0.12561973385E+03  0.44427548695E+03  0.25000000000E+03 0.  0.
    5000001    1    1    2    0    0 -0.34269915591E+03  0.40714608140E+02  0.53930865229E+03  0.68735304845E+03  0.25000000000E+03 0.  0.
<mgrwt>
<rscale>  0 0.91567100E+03</rscale>
<asrwt>0</asrwt>
<pdfrwt beam="1">  1        2 0.35900012E-01 0.91567100E+03</pdfrwt>
<pdfrwt beam="2">  1       -2 0.13819669E+00 0.91567100E+03</pdfrwt>
<totfact> 0.54109946E+01</totfact>
</mgrwt>
</event>
<event>
 4    1  0.1755570E-005  0.5293901E+03  0.7818608E-02  0.1006380E+00
          2   -1    0    0  501    0  0.00000000000E+00  0.00000000000E+00  0.39403319997E+03  0.39403319998E+03  0.25500000000E-02 0.  1.
         -2   -1    0    0    0  501 -0.00000000000E+00 -0.00000000000E+00 -0.17781111225E+03  0.17781111226E+03  0.25500000000E-02 0. -1.
   -5000001    1    1    2    0    0  0.21069740357E+02  0.57313906457E+02  0.17500172150E+03  0.31121442826E+03  0.25000000000E+03 0.  0.
    5000001    1    1    2    0    0 -0.21069740357E+02 -0.57313906457E+02  0.41220366229E+02  0.26062988398E+03  0.25000000000E+03 0.  0.
<mgrwt>
<rscale>  0 0.52939015E+03</rscale>
<asrwt>0</asrwt>
<pdfrwt beam="1">  1        2 0.60620492E-01 0.52939015E+03</pdfrwt>
<pdfrwt beam="2">  1       -2 0.27355556E-01 0.52939015E+03</pdfrwt>
<totfact> 0.98600500E+02</totfact>
</mgrwt>
</event>
<event>
 4    1  0.1755570E-005  0.6204613E+03  0.7818608E-02  0.9863842E-01
         -2   -1    0    0    0  501 -0.00000000000E+00  0.00000000000E+00  0.13530227936E+03  0.13530227939E+03  0.25500000000E-02 0. -1.
          2   -1    0    0  501    0  0.00000000000E+00 -0.00000000000E+00 -0.71131870757E+03  0.71131870757E+03  0.25500000000E-02 0.  1.
   -5000001    1    1    2    0    0 -0.17697018596E+03 -0.42352997166E+02 -0.32227922285E+03  0.44662749643E+03  0.25000000000E+03 0.  0.
    5000001    1    1    2    0    0  0.17697018596E+03  0.42352997166E+02 -0.25373720535E+03  0.39999349053E+03  0.25000000000E+03 0.  0.
<mgrwt>
<rscale>  0 0.62046126E+03</rscale>
<asrwt>0</asrwt>
<pdfrwt beam="1">  1        2 0.10943365E+00 0.62046126E+03</pdfrwt>
<pdfrwt beam="2">  1       -2 0.20815736E-01 0.62046126E+03</pdfrwt>
<totfact> 0.80265436E+02</totfact>
</mgrwt>
</event>
<event>
 4    1  0.1755570E-005  0.6482721E+03  0.7818608E-02  0.9810027E-01
          2   -1    0    0  501    0  0.00000000000E+00  0.00000000000E+00  0.15981154199E+04  0.15981154199E+04  0.25500000000E-02 0.  1.
         -2   -1    0    0    0  501 -0.00000000000E+00 -0.00000000000E+00 -0.65742546649E+02  0.65742546699E+02  0.25500000000E-02 0. -1.
   -5000001    1    1    2    0    0 -0.12094155539E+03 -0.16013279178E+03  0.88913741326E+03  0.94516385377E+03  0.25000000000E+03 0.  0.
    5000001    1    1    2    0    0  0.12094155539E+03  0.16013279178E+03  0.64323546001E+03  0.71869411285E+03  0.25000000000E+03 0.  0.
<mgrwt>
<rscale>  0 0.64827210E+03</rscale>
<asrwt>0</asrwt>
<pdfrwt beam="1">  1        2 0.24586391E+00 0.64827210E+03</pdfrwt>
<pdfrwt beam="2">  1       -2 0.10114238E-01 0.64827210E+03</pdfrwt>
<totfact> 0.76796030E+02</totfact>
</mgrwt>
</event>
<event>
 4    1  0.1755570E-005  0.8695417E+03  0.7818608E-02  0.9464478E-01
          2   -1    0    0  501    0  0.00000000000E+00  0.00000000000E+00  0.16419880204E+04  0.16419880204E+04  0.25500000000E-02 0.  1.
         -2   -1    0    0    0  501 -0.00000000000E+00 -0.00000000000E+00 -0.11512000608E+03  0.11512000610E+03  0.25500000000E-02 0. -1.
   -5000001    1    1    2    0    0  0.68567129532E+02  0.34903065196E+03  0.76616285073E+03  0.88092528690E+03  0.25000000000E+03 0.  0.
    5000001    1    1    2    0    0 -0.68567129532E+02 -0.34903065196E+03  0.76070516355E+03  0.87618273957E+03  0.25000000000E+03 0.  0.
<mgrwt>
<rscale>  0 0.86954165E+03</rscale>
<asrwt>0</asrwt>
<pdfrwt beam="1">  1        2 0.25261352E+00 0.86954165E+03</pdfrwt>
<pdfrwt beam="2">  1       -2 0.17710772E-01 0.86954165E+03</pdfrwt>
<totfact> 0.28078394E+02</totfact>
</mgrwt>
</event>
<event>
 4    1  0.1755570E-005  0.6188708E+03  0.7818608E-02  0.9867011E-01
          2   -1    0    0  501    0  0.00000000000E+00  0.00000000000E+00  0.56872273020E+03  0.56872273021E+03  0.25500000000E-02 0.  1.
         -2   -1    0    0    0  501 -0.00000000000E+00 -0.00000000000E+00 -0.16836018066E+03  0.16836018068E+03  0.25500000000E-02 0. -1.
   -5000001    1    1    2    0    0  0.73407850394E+01 -0.18199802101E+03  0.18999865102E+03  0.36301054278E+03  0.25000000000E+03 0.  0.
    5000001    1    1    2    0    0 -0.73407850394E+01  0.18199802101E+03  0.21036389853E+03  0.37407236811E+03  0.25000000000E+03 0.  0.
<mgrwt>
<rscale>  0 0.61887078E+03</rscale>
<asrwt>0</asrwt>
<pdfrwt beam="1">  1        2 0.87495805E-01 0.61887078E+03</pdfrwt>
<pdfrwt beam="2">  1       -2 0.25901566E-01 0.61887078E+03</pdfrwt>
<totfact> 0.71475690E+02</totfact>
</mgrwt>
</event>
<event>
 4    1  0.1755570E-005  0.1011184E+04  0.7818608E-02  0.9296362E-01
          2   -1    0    0  501    0  0.00000000000E+00  0.00000000000E+00  0.20543898520E+04  0.20543898520E+04  0.25500000000E-02 0.  1.
         -2   -1    0    0    0  501 -0.00000000000E+00 -0.00000000000E+00 -0.12442789180E+03  0.12442789183E+03  0.25500000000E-02 0. -1.
   -5000001    1    1    2    0    0 -0.35792044960E+03  0.20155854657E+03  0.62846865291E+03  0.79133162684E+03  0.25000000000E+03 0.  0.
    5000001    1    1    2    0    0  0.35792044960E+03 -0.20155854657E+03  0.13014933073E+04  0.13874861170E+04  0.25000000000E+03 0.  0.
<mgrwt>
<rscale>  0 0.10111843E+04</rscale>
<asrwt>0</asrwt>
<pdfrwt beam="1">  1        2 0.31605995E+00 0.10111843E+04</pdfrwt>
<pdfrwt beam="2">  1       -2 0.19142754E-01 0.10111843E+04</pdfrwt>
<totfact> 0.14410931E+02</totfact>
</mgrwt>
</event>
<event>
 4    1  0.1755570E-005  0.5422014E+03  0.7818608E-02  0.1003315E+00
          2   -1    0    0  501    0  0.00000000000E+00  0.00000000000E+00  0.47261236737E+03  0.47261236738E+03  0.25500000000E-02 0.  1.
         -2   -1    0    0    0  501 -0.00000000000E+00 -0.00000000000E+00 -0.15550924177E+03  0.15550924179E+03  0.25500000000E-02 0. -1.
   -5000001    1    1    2    0    0  0.67904238489E+02 -0.79762888326E+02  0.16404505341E+03  0.31683415773E+03  0.25000000000E+03 0.  0.
    5000001    1    1    2    0    0 -0.67904238489E+02  0.79762888326E+02  0.15305807219E+03  0.31128745143E+03  0.25000000000E+03 0.  0.
<mgrwt>
<rscale>  0 0.54220141E+03</rscale>
<asrwt>0</asrwt>
<pdfrwt beam="1">  1        2 0.72709593E-01 0.54220141E+03</pdfrwt>
<pdfrwt beam="2">  1       -2 0.23924499E-01 0.54220141E+03</pdfrwt>
<totfact> 0.10226726E+03</totfact>
</mgrwt>
</event>
<event>
 4    1  0.1755570E-005  0.1146618E+04  0.7818608E-02  0.9160909E-01
         -2   -1    0    0    0  501 -0.00000000000E+00  0.00000000000E+00  0.35200269294E+03  0.35200269295E+03  0.25500000000E-02 0. -1.
          2   -1    0    0  501    0  0.00000000000E+00 -0.00000000000E+00 -0.93375241940E+03  0.93375241940E+03  0.25500000000E-02 0.  1.
   -5000001    1    1    2    0    0 -0.46355257813E+03 -0.22584506420E+03 -0.31017961317E+03  0.65161213781E+03  0.25000000000E+03 0.  0.
    5000001    1    1    2    0    0  0.46355257813E+03  0.22584506420E+03 -0.27157011329E+03  0.63414297453E+03  0.25000000000E+03 0.  0.
<mgrwt>
<rscale>  0 0.11466183E+04</rscale>
<asrwt>0</asrwt>
<pdfrwt beam="1">  1        2 0.14365422E+00 0.11466183E+04</pdfrwt>
<pdfrwt beam="2">  1       -2 0.54154261E-01 0.11466183E+04</pdfrwt>
<totfact> 0.88473543E+01</totfact>
</mgrwt>
</event>
<event>
 4    1  0.1755570E-005  0.1189772E+04  0.7818608E-02  0.9121856E-01
          2   -1    0    0  501    0  0.00000000000E+00  0.00000000000E+00  0.18476573828E+04  0.18476573828E+04  0.25500000000E-02 0.  1.
         -2   -1    0    0    0  501 -0.00000000000E+00 -0.00000000000E+00 -0.19153409038E+03  0.19153409040E+03  0.25500000000E-02 0. -1.
   -5000001    1    1    2    0    0  0.28749325919E+03  0.19792008209E+03  0.15338295408E+04  0.15927830340E+04  0.25000000000E+03 0.  0.
    5000001    1    1    2    0    0 -0.28749325919E+03 -0.19792008209E+03  0.12229375163E+03  0.44640843928E+03  0.25000000000E+03 0.  0.
<mgrwt>
<rscale>  0 0.11897720E+04</rscale>
<asrwt>0</asrwt>
<pdfrwt beam="1">  1        2 0.28425499E+00 0.11897720E+04</pdfrwt>
<pdfrwt beam="2">  1       -2 0.29466782E-01 0.11897720E+04</pdfrwt>
<totfact> 0.85043305E+01</totfact>
</mgrwt>
</event>
<event>
 4    1  0.1755570E-005  0.5842034E+03  0.7818608E-02  0.9938732E-01
          2   -1    0    0  501    0  0.00000000000E+00  0.00000000000E+00  0.10496438003E+04  0.10496438004E+04  0.25500000000E-02 0.  1.
         -2   -1    0    0    0  501 -0.00000000000E+00 -0.00000000000E+00 -0.81287952852E+02  0.81287952892E+02  0.25500000000E-02 0. -1.
   -5000001    1    1    2    0    0 -0.45751825837E+02 -0.13731860150E+03  0.40038058371E+03  0.49371473514E+03  0.25000000000E+03 0.  0.
    5000001    1    1    2    0    0  0.45751825837E+02  0.13731860150E+03  0.56797526379E+03  0.63721701810E+03  0.25000000000E+03 0.  0.
<mgrwt>
<rscale>  0 0.58420337E+03</rscale>
<asrwt>0</asrwt>
<pdfrwt beam="1">  1        2 0.16148366E+00 0.58420337E+03</pdfrwt>
<pdfrwt beam="2">  1       -2 0.12505839E-01 0.58420337E+03</pdfrwt>
<totfact> 0.11229829E+03</totfact>
</mgrwt>
</event>
<event>
 4    1  0.1755570E-005  0.6551912E+03  0.7818608E-02  0.9797087E-01
         -2   -1    0    0    0  501 -0.00000000000E+00  0.00000000000E+00  0.54099964294E+02  0.54099964354E+02  0.25500000000E-02 0. -1.
          2   -1    0    0  501    0  0.00000000000E+00 -0.00000000000E+00 -0.19837143596E+04  0.19837143596E+04  0.25500000000E-02 0.  1.
   -5000001    1    1    2    0    0 -0.99798192218E+02 -0.51290878695E+02 -0.40644473092E+03  0.49019154695E+03  0.25000000000E+03 0.  0.
    5000001    1    1    2    0    0  0.99798192218E+02  0.51290878695E+02 -0.15231696644E+04  0.15476227770E+04  0.25000000000E+03 0.  0.
<mgrwt>
<rscale>  0 0.65519120E+03</rscale>
<asrwt>0</asrwt>
<pdfrwt beam="1">  1        2 0.30518677E+00 0.65519120E+03</pdfrwt>
<pdfrwt beam="2">  1       -2 0.83230730E-02 0.65519120E+03</pdfrwt>
<totfact> 0.64867083E+02</totfact>
</mgrwt>
</event>
<event>
 4    1  0.1755570E-005  0.6279344E+03  0.7818608E-02  0.9849088E-01
          2   -1    0    0  501    0  0.00000000000E+00  0.00000000000E+00  0.32212290542E+04  0.32212290542E+04  0.25500000000E-02 0.  1.
         -2   -1    0    0    0  501 -0.00000000000E+00 -0.00000000000E+00 -0.30601798219E+02  0.30601798325E+02  0.25500000000E-02 0. -1.
   -5000001    1    1    2    0    0 -0.11511525680E+03  0.14214883653E+03  0.13303634052E+04  0.13659519040E+04  0.25000000000E+03 0.  0.
    5000001    1    1    2    0    0  0.11511525680E+03 -0.14214883653E+03  0.18602638508E+04  0.18858789485E+04  0.25000000000E+03 0.  0.
<mgrwt>
<rscale>  0 0.62793440E+03</rscale>
<asrwt>0</asrwt>
<pdfrwt beam="1">  1        2 0.49557382E+00 0.62793440E+03</pdfrwt>
<pdfrwt beam="2">  1       -2 0.47079678E-02 0.62793440E+03</pdfrwt>
<totfact> 0.30745293E+02</totfact>
</mgrwt>
</event>
<event>
 4    1  0.1755570E-005  0.6386079E+03  0.7818608E-02  0.9828394E-01
         -2   -1    0    0    0  501 -0.00000000000E+00  0.00000000000E+00  0.41700182091E+02  0.41700182169E+02  0.25500000000E-02 0. -1.
          2   -1    0    0  501    0  0.00000000000E+00 -0.00000000000E+00 -0.24449535452E+04  0.24449535452E+04  0.25500000000E-02 0.  1.
   -5000001    1    1    2    0    0 -0.15115306254E+03 -0.60706575793E+01 -0.70037692512E+03  0.75888862058E+03  0.25000000000E+03 0.  0.
    5000001    1    1    2    0    0  0.15115306254E+03  0.60706575793E+01 -0.17028764380E+04  0.17277651068E+04  0.25000000000E+03 0.  0.
<mgrwt>
<rscale>  0 0.63860789E+03</rscale>
<asrwt>0</asrwt>
<pdfrwt beam="1">  1        2 0.37614659E+00 0.63860789E+03</pdfrwt>
<pdfrwt beam="2">  1       -2 0.64154145E-02 0.63860789E+03</pdfrwt>
<totfact> 0.54748601E+02</totfact>
</mgrwt>
</event>
<event>
 4    1  0.1755570E-005  0.6907784E+03  0.7818608E-02  0.9733134E-01
          2   -1    0    0  501    0  0.00000000000E+00  0.00000000000E+00  0.33399838301E+03  0.33399838302E+03  0.25500000000E-02 0.  1.
         -2   -1    0    0    0  501 -0.00000000000E+00 -0.00000000000E+00 -0.35716852557E+03  0.35716852558E+03  0.25500000000E-02 0. -1.
   -5000001    1    1    2    0    0 -0.78880133813E+02 -0.22090124071E+03 -0.53730919714E+02  0.34699631899E+03  0.25000000000E+03 0.  0.
    5000001    1    1    2    0    0  0.78880133813E+02  0.22090124071E+03  0.30560777156E+02  0.34417058962E+03  0.25000000000E+03 0.  0.
<mgrwt>
<rscale>  0 0.69077843E+03</rscale>
<asrwt>0</asrwt>
<pdfrwt beam="1">  1        2 0.51384366E-01 0.69077843E+03</pdfrwt>
<pdfrwt beam="2">  1       -2 0.54949004E-01 0.69077843E+03</pdfrwt>
<totfact> 0.30625642E+02</totfact>
</mgrwt>
</event>
<event>
 4    1  0.1755570E-005  0.1153028E+04  0.7818608E-02  0.9154995E-01
          2   -1    0    0  501    0  0.00000000000E+00  0.00000000000E+00  0.19766268355E+04  0.19766268355E+04  0.25500000000E-02 0.  1.
         -2   -1    0    0    0  501 -0.00000000000E+00 -0.00000000000E+00 -0.16814919262E+03  0.16814919264E+03  0.25500000000E-02 0. -1.
   -5000001    1    1    2    0    0  0.43388603417E+03 -0.25626044960E+03  0.11390990619E+04  0.12704224422E+04  0.25000000000E+03 0.  0.
    5000001    1    1    2    0    0 -0.43388603417E+03  0.25626044960E+03  0.66937858093E+03  0.87435358596E+03  0.25000000000E+03 0.  0.
<mgrwt>
<rscale>  0 0.11530277E+04</rscale>
<asrwt>0</asrwt>
<pdfrwt beam="1">  1        2 0.30409640E+00 0.11530277E+04</pdfrwt>
<pdfrwt beam="2">  1       -2 0.25869109E-01 0.11530277E+04</pdfrwt>
<totfact> 0.91987463E+01</totfact>
</mgrwt>
</event>
<event>
 4    1  0.1755570E-005  0.1938813E+04  0.7818608E-02  0.8635774E-01
         -2   -1    0    0    0  501 -0.00000000000E+00  0.00000000000E+00  0.17896841776E+04  0.17896841776E+04  0.25500000000E-02 0. -1.
          2   -1    0    0  501    0  0.00000000000E+00 -0.00000000000E+00 -0.52509195725E+03  0.52509195725E+03  0.25500000000E-02 0.  1.
   -5000001    1    1    2    0    0 -0.46355067217E+03 -0.78985020480E+03  0.86657784243E+03  0.12853792159E+04  0.25000000000E+03 0.  0.
    5000001    1    1    2    0    0  0.46355067217E+03  0.78985020480E+03  0.39801437791E+03  0.10293969189E+04  0.25000000000E+03 0.  0.
<mgrwt>
<rscale>  0 0.19388128E+04</rscale>
<asrwt>0</asrwt>
<pdfrwt beam="1">  1        2 0.80783377E-01 0.19388128E+04</pdfrwt>
<pdfrwt beam="2">  1       -2 0.27533603E+00 0.19388128E+04</pdfrwt>
<totfact> 0.24423166E+00</totfact>
</mgrwt>
</event>
<event>
 4    1  0.1755570E-005  0.7301745E+03  0.7818608E-02  0.9666977E-01
         -2   -1    0    0    0  501 -0.00000000000E+00  0.00000000000E+00  0.14887368775E+03  0.14887368777E+03  0.25500000000E-02 0. -1.
          2   -1    0    0  501    0  0.00000000000E+00 -0.00000000000E+00 -0.89531409102E+03  0.89531409103E+03  0.25500000000E-02 0.  1.
   -5000001    1    1    2    0    0 -0.23188728428E+03  0.99597503362E+02 -0.49369593651E+03  0.60821628802E+03  0.25000000000E+03 0.  0.
    5000001    1    1    2    0    0  0.23188728428E+03 -0.99597503362E+02 -0.25274446677E+03  0.43597149077E+03  0.25000000000E+03 0.  0.
<mgrwt>
<rscale>  0 0.73017453E+03</rscale>
<asrwt>0</asrwt>
<pdfrwt beam="1">  1        2 0.13774063E+00 0.73017453E+03</pdfrwt>
<pdfrwt beam="2">  1       -2 0.22903645E-01 0.73017453E+03</pdfrwt>
<totfact> 0.49859585E+02</totfact>
</mgrwt>
</event>
<event>
 4    1  0.1755570E-005  0.8640741E+03  0.7818608E-02  0.9471640E-01
          2   -1    0    0  501    0  0.00000000000E+00  0.00000000000E+00  0.64343549213E+03  0.64343549213E+03  0.25500000000E-02 0.  1.
         -2   -1    0    0    0  501 -0.00000000000E+00 -0.00000000000E+00 -0.29009279396E+03  0.29009279397E+03  0.25500000000E-02 0. -1.
   -5000001    1    1    2    0    0 -0.24097333483E+03  0.21525919072E+03  0.24835365346E+02  0.40929385857E+03  0.25000000000E+03 0.  0.
    5000001    1    1    2    0    0  0.24097333483E+03 -0.21525919072E+03  0.32850733282E+03  0.52423442753E+03  0.25000000000E+03 0.  0.
<mgrwt>
<rscale>  0 0.86407407E+03</rscale>
<asrwt>0</asrwt>
<pdfrwt beam="1">  1        2 0.98990074E-01 0.86407407E+03</pdfrwt>
<pdfrwt beam="2">  1       -2 0.44629661E-01 0.86407407E+03</pdfrwt>
<totfact> 0.21772026E+02</totfact>
</mgrwt>
</event>
<event>
 4    1  0.1755570E-005  0.7650979E+03  0.7818608E-02  0.9611957E-01
          2   -1    0    0  501    0  0.00000000000E+00  0.00000000000E+00  0.28287223941E+04  0.28287223941E+04  0.25500000000E-02 0.  1.
         -2   -1    0    0    0  501 -0.00000000000E+00 -0.00000000000E+00 -0.51734914279E+02  0.51734914342E+02  0.25500000000E-02 0. -1.
   -5000001    1    1    2    0    0  0.87482037655E+02  0.26029939374E+03  0.17342599637E+04  0.17735744989E+04  0.25000000000E+03 0.  0.
    5000001    1    1    2    0    0 -0.87482037655E+02 -0.26029939374E+03  0.10427275161E+04  0.11068828096E+04  0.25000000000E+03 0.  0.
<mgrwt>
<rscale>  0 0.76509793E+03</rscale>
<asrwt>0</asrwt>
<pdfrwt beam="1">  1        2 0.43518811E+00 0.76509793E+03</pdfrwt>
<pdfrwt beam="2">  1       -2 0.79592167E-02 0.76509793E+03</pdfrwt>
<totfact> 0.23080684E+02</totfact>
</mgrwt>
</event>
<event>
 4    1  0.1755570E-005  0.5751547E+03  0.7818608E-02  0.9958336E-01
          2   -1    0    0  501    0  0.00000000000E+00  0.00000000000E+00  0.54876134042E+03  0.54876134043E+03  0.25500000000E-02 0.  1.
         -2   -1    0    0    0  501 -0.00000000000E+00 -0.00000000000E+00 -0.15070436442E+03  0.15070436444E+03  0.25500000000E-02 0. -1.
   -5000001    1    1    2    0    0 -0.13071564517E+03  0.48501722487E+02  0.16546377960E+03  0.33063160668E+03  0.25000000000E+03 0.  0.
    5000001    1    1    2    0    0  0.13071564517E+03 -0.48501722487E+02  0.23259319640E+03  0.36883409819E+03  0.25000000000E+03 0.  0.
<mgrwt>
<rscale>  0 0.57515469E+03</rscale>
<asrwt>0</asrwt>
<pdfrwt beam="1">  1        2 0.84424823E-01 0.57515469E+03</pdfrwt>
<pdfrwt beam="2">  1       -2 0.23185287E-01 0.57515469E+03</pdfrwt>
<totfact> 0.90979730E+02</totfact>
</mgrwt>
</event>
<event>
 4    1  0.1755570E-005  0.5178992E+03  0.7818608E-02  0.1009210E+00
          2   -1    0    0  501    0  0.00000000000E+00  0.00000000000E+00  0.10053340361E+04  0.10053340361E+04  0.25500000000E-02 0.  1.
         -2   -1    0    0    0  501 -0.00000000000E+00 -0.00000000000E+00 -0.66699112993E+02  0.66699113042E+02  0.25500000000E-02 0. -1.
   -5000001    1    1    2    0    0 -0.65887116664E+02 -0.14209975210E+02  0.46219095906E+03  0.52977685697E+03  0.25000000000E+03 0.  0.
    5000001    1    1    2    0    0  0.65887116664E+02  0.14209975210E+02  0.47644396408E+03  0.54225629221E+03  0.25000000000E+03 0.  0.
<mgrwt>
<rscale>  0 0.51789917E+03</rscale>
<asrwt>0</asrwt>
<pdfrwt beam="1">  1        2 0.15466677E+00 0.51789917E+03</pdfrwt>
<pdfrwt beam="2">  1       -2 0.10261402E-01 0.51789917E+03</pdfrwt>
<totfact> 0.16562294E+03</totfact>
</mgrwt>
</event>
<event>
 4    1  0.1755570E-005  0.6182628E+03  0.7818608E-02  0.9868225E-01
          2   -1    0    0  501    0  0.00000000000E+00  0.00000000000E+00  0.80350393735E+03  0.80350393735E+03  0.25500000000E-02 0.  1.
         -2   -1    0    0    0  501 -0.00000000000E+00 -0.00000000000E+00 -0.11893187153E+03  0.11893187155E+03  0.25500000000E-02 0. -1.
   -5000001    1    1    2    0    0 -0.12573668888E+03  0.12955856738E+03  0.31004097249E+03  0.43728771070E+03  0.25000000000E+03 0.  0.
    5000001    1    1    2    0    0  0.12573668888E+03 -0.12955856738E+03  0.37453109333E+03  0.48514809820E+03  0.25000000000E+03 0.  0.
<mgrwt>
<rscale>  0 0.61826281E+03</rscale>
<asrwt>0</asrwt>
<pdfrwt beam="1">  1        2 0.12361599E+00 0.61826281E+03</pdfrwt>
<pdfrwt beam="2">  1       -2 0.18297211E-01 0.61826281E+03</pdfrwt>
<totfact> 0.85844397E+02</totfact>
</mgrwt>
</event>
<event>
 4    1  0.1755570E-005  0.8575978E+03  0.7818608E-02  0.9480196E-01
          2   -1    0    0  501    0  0.00000000000E+00  0.00000000000E+00  0.50410346771E+03  0.50410346771E+03  0.25500000000E-02 0.  1.
         -2   -1    0    0    0  501 -0.00000000000E+00 -0.00000000000E+00 -0.36474352567E+03  0.36474352568E+03  0.25500000000E-02 0. -1.
   -5000001    1    1    2    0    0 -0.21934965875E+03 -0.24476229999E+03  0.18671855078E+03  0.45319606519E+03  0.25000000000E+03 0.  0.
    5000001    1    1    2    0    0  0.21934965875E+03  0.24476229999E+03 -0.47358608747E+02  0.41565092820E+03  0.25000000000E+03 0.  0.
<mgrwt>
<rscale>  0 0.85759775E+03</rscale>
<asrwt>0</asrwt>
<pdfrwt beam="1">  1        2 0.77554379E-01 0.85759775E+03</pdfrwt>
<pdfrwt beam="2">  1       -2 0.56114389E-01 0.85759775E+03</pdfrwt>
<totfact> 0.18286101E+02</totfact>
</mgrwt>
</event>
<event>
 4    1  0.1755570E-005  0.8473878E+03  0.7818608E-02  0.9493850E-01
          2   -1    0    0  501    0  0.00000000000E+00  0.00000000000E+00  0.34896292197E+04  0.34896292197E+04  0.25500000000E-02 0.  1.
         -2   -1    0    0    0  501 -0.00000000000E+00 -0.00000000000E+00 -0.51442863652E+02  0.51442863715E+02  0.25500000000E-02 0. -1.
   -5000001    1    1    2    0    0 -0.66306731029E+02  0.33414682518E+03  0.15892244883E+04  0.16444406823E+04  0.25000000000E+03 0.  0.
    5000001    1    1    2    0    0  0.66306731029E+02 -0.33414682518E+03  0.18489618678E+04  0.18966314011E+04  0.25000000000E+03 0.  0.
<mgrwt>
<rscale>  0 0.84738780E+03</rscale>
<asrwt>0</asrwt>
<pdfrwt beam="1">  1        2 0.53686614E+00 0.84738780E+03</pdfrwt>
<pdfrwt beam="2">  1       -2 0.79142851E-02 0.84738780E+03</pdfrwt>
<totfact> 0.87864732E+01</totfact>
</mgrwt>
</event>
<event>
 4    1  0.1755570E-005  0.6522758E+03  0.7818608E-02  0.9802518E-01
         -2   -1    0    0    0  501 -0.00000000000E+00  0.00000000000E+00  0.17509269067E+03  0.17509269069E+03  0.25500000000E-02 0. -1.
          2   -1    0    0  501    0  0.00000000000E+00 -0.00000000000E+00 -0.60748347286E+03  0.60748347287E+03  0.25500000000E-02 0.  1.
   -5000001    1    1    2    0    0 -0.18935259774E+03 -0.49694461434E+02 -0.12687976129E+03  0.34193920453E+03  0.25000000000E+03 0.  0.
    5000001    1    1    2    0    0  0.18935259774E+03  0.49694461434E+02 -0.30551102090E+03  0.44063695903E+03  0.25000000000E+03 0.  0.
<mgrwt>
<rscale>  0 0.65227576E+03</rscale>
<asrwt>0</asrwt>
<pdfrwt beam="1">  1        2 0.93458995E-01 0.65227576E+03</pdfrwt>
<pdfrwt beam="2">  1       -2 0.26937337E-01 0.65227576E+03</pdfrwt>
<totfact> 0.61481331E+02</totfact>
</mgrwt>
</event>
<event>
 4    1  0.1755570E-005  0.1190507E+04  0.7818608E-02  0.9121206E-01
          2   -1    0    0  501    0  0.00000000000E+00  0.00000000000E+00  0.89674816002E+03  0.89674816002E+03  0.25500000000E-02 0.  1.
         -2   -1    0    0    0  501 -0.00000000000E+00 -0.00000000000E+00 -0.39512415702E+03  0.39512415703E+03  0.25500000000E-02 0. -1.
   -5000001    1    1    2    0    0  0.50342061492E+03  0.16965530973E+03  0.14442565853E+03  0.60462716651E+03  0.25000000000E+03 0.  0.
    5000001    1    1    2    0    0 -0.50342061492E+03 -0.16965530973E+03  0.35719834447E+03  0.68724515054E+03  0.25000000000E+03 0.  0.
<mgrwt>
<rscale>  0 0.11905072E+04</rscale>
<asrwt>0</asrwt>
<pdfrwt beam="1">  1        2 0.13796125E+00 0.11905072E+04</pdfrwt>
<pdfrwt beam="2">  1       -2 0.60788332E-01 0.11905072E+04</pdfrwt>
<totfact> 0.73322301E+01</totfact>
</mgrwt>
</event>
<event>
 4    1  0.1755570E-005  0.1275723E+04  0.7818608E-02  0.9049042E-01
          2   -1    0    0  501    0  0.00000000000E+00  0.00000000000E+00  0.13687736758E+04  0.13687736758E+04  0.25500000000E-02 0.  1.
         -2   -1    0    0    0  501 -0.00000000000E+00 -0.00000000000E+00 -0.29724938735E+03  0.29724938736E+03  0.25500000000E-02 0. -1.
   -5000001    1    1    2    0    0  0.34048220383E+03 -0.46021867383E+03  0.70421266812E+03  0.94135266549E+03  0.25000000000E+03 0.  0.
    5000001    1    1    2    0    0 -0.34048220383E+03  0.46021867383E+03  0.36731162036E+03  0.72467039771E+03  0.25000000000E+03 0.  0.
<mgrwt>
<rscale>  0 0.12757228E+04</rscale>
<asrwt>0</asrwt>
<pdfrwt beam="1">  1        2 0.21058056E+00 0.12757228E+04</pdfrwt>
<pdfrwt beam="2">  1       -2 0.45730676E-01 0.12757228E+04</pdfrwt>
<totfact> 0.67110202E+01</totfact>
</mgrwt>
</event>
<event>
 4    1  0.1755570E-005  0.8163673E+03  0.7818608E-02  0.9536624E-01
          2   -1    0    0  501    0  0.00000000000E+00  0.00000000000E+00  0.15160002068E+04  0.15160002068E+04  0.25500000000E-02 0.  1.
         -2   -1    0    0    0  501 -0.00000000000E+00 -0.00000000000E+00 -0.10990361708E+03  0.10990361711E+03  0.25500000000E-02 0. -1.
   -5000001    1    1    2    0    0 -0.26536029363E+03 -0.52064835657E+02  0.10536382881E+04  0.11161453645E+04  0.25000000000E+03 0.  0.
    5000001    1    1    2    0    0  0.26536029363E+03  0.52064835657E+02  0.35245830157E+03  0.50975845936E+03  0.25000000000E+03 0.  0.
<mgrwt>
<rscale>  0 0.81636733E+03</rscale>
<asrwt>0</asrwt>
<pdfrwt beam="1">  1        2 0.23323081E+00 0.81636733E+03</pdfrwt>
<pdfrwt beam="2">  1       -2 0.16908248E-01 0.81636733E+03</pdfrwt>
<totfact> 0.35834545E+02</totfact>
</mgrwt>
</event>
<event>
 4    1  0.1755570E-005  0.7104385E+03  0.7818608E-02  0.9699546E-01
          2   -1    0    0  501    0  0.00000000000E+00  0.00000000000E+00  0.91033070383E+03  0.91033070383E+03  0.25500000000E-02 0.  1.
         -2   -1    0    0    0  501 -0.00000000000E+00 -0.00000000000E+00 -0.13860975341E+03  0.13860975343E+03  0.25500000000E-02 0. -1.
   -5000001    1    1    2    0    0  0.24686112726E+03 -0.43552769985E+02  0.34298043628E+03  0.49292275216E+03  0.25000000000E+03 0.  0.
    5000001    1    1    2    0    0 -0.24686112726E+03  0.43552769985E+02  0.42874051413E+03  0.55601770510E+03  0.25000000000E+03 0.  0.
<mgrwt>
<rscale>  0 0.71043850E+03</rscale>
<asrwt>0</asrwt>
<pdfrwt beam="1">  1        2 0.14005088E+00 0.71043850E+03</pdfrwt>
<pdfrwt beam="2">  1       -2 0.21324577E-01 0.71043850E+03</pdfrwt>
<totfact> 0.55330561E+02</totfact>
</mgrwt>
</event>
<event>
 4    1  0.1755570E-005  0.7590946E+03  0.7818608E-02  0.9621189E-01
          2   -1    0    0  501    0  0.00000000000E+00  0.00000000000E+00  0.11187287872E+04  0.11187287872E+04  0.25500000000E-02 0.  1.
         -2   -1    0    0    0  501 -0.00000000000E+00 -0.00000000000E+00 -0.12876772067E+03  0.12876772070E+03  0.25500000000E-02 0. -1.
   -5000001    1    1    2    0    0  0.19682046865E+02 -0.28354484182E+03  0.54061548280E+03  0.65996224175E+03  0.25000000000E+03 0.  0.
    5000001    1    1    2    0    0 -0.19682046865E+02  0.28354484182E+03  0.44934558373E+03  0.58753426616E+03  0.25000000000E+03 0.  0.
<mgrwt>
<rscale>  0 0.75909461E+03</rscale>
<asrwt>0</asrwt>
<pdfrwt beam="1">  1        2 0.17211212E+00 0.75909461E+03</pdfrwt>
<pdfrwt beam="2">  1       -2 0.19810419E-01 0.75909461E+03</pdfrwt>
<totfact> 0.46342202E+02</totfact>
</mgrwt>
</event>
<event>
 4    1  0.1755570E-005  0.5898681E+03  0.7818608E-02  0.9926652E-01
         -2   -1    0    0    0  501 -0.00000000000E+00  0.00000000000E+00  0.90717444468E+02  0.90717444504E+02  0.25500000000E-02 0. -1.
          2   -1    0    0  501    0  0.00000000000E+00 -0.00000000000E+00 -0.95886831498E+03  0.95886831498E+03  0.25500000000E-02 0.  1.
   -5000001    1    1    2    0    0 -0.66206207634E+02 -0.14132478451E+03 -0.41377777848E+03  0.50800394350E+03  0.25000000000E+03 0.  0.
    5000001    1    1    2    0    0  0.66206207634E+02  0.14132478451E+03 -0.45437309203E+03  0.54158181598E+03  0.25000000000E+03 0.  0.
<mgrwt>
<rscale>  0 0.58986806E+03</rscale>
<asrwt>0</asrwt>
<pdfrwt beam="1">  1        2 0.14751820E+00 0.58986806E+03</pdfrwt>
<pdfrwt beam="2">  1       -2 0.13956531E-01 0.58986806E+03</pdfrwt>
<totfact> 0.10676504E+03</totfact>
</mgrwt>
</event>
<event>
 4    1  0.1755570E-005  0.8833070E+03  0.7818608E-02  0.9446692E-01
          2   -1    0    0  501    0  0.00000000000E+00  0.00000000000E+00  0.30686928966E+03  0.30686928967E+03  0.25500000000E-02 0.  1.
         -2   -1    0    0    0  501 -0.00000000000E+00 -0.00000000000E+00 -0.63563816165E+03  0.63563816166E+03  0.25500000000E-02 0. -1.
   -5000001    1    1    2    0    0 -0.35041770933E+03  0.64549853168E+02 -0.84546019732E+02  0.44340419936E+03  0.25000000000E+03 0.  0.
    5000001    1    1    2    0    0  0.35041770933E+03 -0.64549853168E+02 -0.24422285226E+03  0.49910325197E+03  0.25000000000E+03 0.  0.
<mgrwt>
<rscale>  0 0.88330704E+03</rscale>
<asrwt>0</asrwt>
<pdfrwt beam="1">  1        2 0.47210660E-01 0.88330704E+03</pdfrwt>
<pdfrwt beam="2">  1       -2 0.97790486E-01 0.88330704E+03</pdfrwt>
<totfact> 0.93604851E+01</totfact>
</mgrwt>
</event>
<event>
 4    1  0.1755570E-005  0.1075190E+04  0.7818608E-02  0.9229716E-01
         -2   -1    0    0    0  501 -0.00000000000E+00  0.00000000000E+00  0.91865814918E+02  0.91865814953E+02  0.25500000000E-02 0. -1.
          2   -1    0    0  501    0  0.00000000000E+00 -0.00000000000E+00 -0.31459850123E+04  0.31459850123E+04  0.25500000000E-02 0.  1.
   -5000001    1    1    2    0    0  0.10221499699E+03  0.13825344320E+03 -0.28634881528E+04  0.28795184183E+04  0.25000000000E+03 0.  0.
    5000001    1    1    2    0    0 -0.10221499699E+03 -0.13825344320E+03 -0.19063104466E+03  0.35833240902E+03  0.25000000000E+03 0.  0.
<mgrwt>
<rscale>  0 0.10751902E+04</rscale>
<asrwt>0</asrwt>
<pdfrwt beam="1">  1        2 0.48399761E+00 0.10751902E+04</pdfrwt>
<pdfrwt beam="2">  1       -2 0.14133205E-01 0.10751902E+04</pdfrwt>
<totfact> 0.55573710E+01</totfact>
</mgrwt>
</event>
<event>
 4    1  0.1755570E-005  0.6602936E+03  0.7818608E-02  0.9787653E-01
         -2   -1    0    0    0  501 -0.00000000000E+00  0.00000000000E+00  0.26746484367E+03  0.26746484369E+03  0.25500000000E-02 0. -1.
          2   -1    0    0  501    0  0.00000000000E+00 -0.00000000000E+00 -0.40751863682E+03  0.40751863683E+03  0.25500000000E-02 0.  1.
   -5000001    1    1    2    0    0 -0.10979014947E+03 -0.16271341779E+03 -0.16127286701E+03  0.35642456549E+03  0.25000000000E+03 0.  0.
    5000001    1    1    2    0    0  0.10979014947E+03  0.16271341779E+03  0.21219073863E+02  0.31855891503E+03  0.25000000000E+03 0.  0.
<mgrwt>
<rscale>  0 0.66029360E+03</rscale>
<asrwt>0</asrwt>
<pdfrwt beam="1">  1        2 0.62695175E-01 0.66029360E+03</pdfrwt>
<pdfrwt beam="2">  1       -2 0.41148438E-01 0.66029360E+03</pdfrwt>
<totfact> 0.43920059E+02</totfact>
</mgrwt>
</event>
<event>
 4    1  0.1755570E-005  0.5466876E+03  0.7818608E-02  0.1002264E+00
         -2   -1    0    0    0  501 -0.00000000000E+00  0.00000000000E+00  0.58546104007E+03  0.58546104007E+03  0.25500000000E-02 0. -1.
          2   -1    0    0  501    0  0.00000000000E+00 -0.00000000000E+00 -0.12762048946E+03  0.12762048948E+03  0.25500000000E-02 0.  1.
   -5000001    1    1    2    0    0  0.69756958990E+00 -0.10897416735E+03  0.20483468599E+03  0.34107639077E+03  0.25000000000E+03 0.  0.
    5000001    1    1    2    0    0 -0.69756958990E+00  0.10897416735E+03  0.25300586462E+03  0.37200513879E+03  0.25000000000E+03 0.  0.
<mgrwt>
<rscale>  0 0.54668757E+03</rscale>
<asrwt>0</asrwt>
<pdfrwt beam="1">  1        2 0.19633922E-01 0.54668757E+03</pdfrwt>
<pdfrwt beam="2">  1       -2 0.90070929E-01 0.54668757E+03</pdfrwt>
<totfact> 0.30984535E+02</totfact>
</mgrwt>
</event>
<event>
 4    1  0.1755570E-005  0.9136516E+03  0.7818608E-02  0.9408675E-01
          2   -1    0    0  501    0  0.00000000000E+00  0.00000000000E+00  0.14517256622E+04  0.14517256622E+04  0.25500000000E-02 0.  1.
         -2   -1    0    0    0  501 -0.00000000000E+00 -0.00000000000E+00 -0.14375292721E+03  0.14375292723E+03  0.25500000000E-02 0. -1.
   -5000001    1    1    2    0    0  0.30928459617E+03  0.43947661786E+02  0.26900918013E+03  0.48213514433E+03  0.25000000000E+03 0.  0.
    5000001    1    1    2    0    0 -0.30928459617E+03 -0.43947661786E+02  0.10389635549E+04  0.11133434451E+04  0.25000000000E+03 0.  0.
<mgrwt>
<rscale>  0 0.91365160E+03</rscale>
<asrwt>0</asrwt>
<pdfrwt beam="1">  1        2 0.22334241E+00 0.91365160E+03</pdfrwt>
<pdfrwt beam="2">  1       -2 0.22115835E-01 0.91365160E+03</pdfrwt>
<totfact> 0.24220979E+02</totfact>
</mgrwt>
</event>
<event>
 4    1  0.1755570E-005  0.6310313E+03  0.7818608E-02  0.9843038E-01
          2   -1    0    0  501    0  0.00000000000E+00  0.00000000000E+00  0.44303920031E+03  0.44303920032E+03  0.25500000000E-02 0. -1.
         -2   -1    0    0    0  501 -0.00000000000E+00 -0.00000000000E+00 -0.22469820526E+03  0.22469820528E+03  0.25500000000E-02 0.  1.
   -5000001    1    1    2    0    0  0.14217567461E+03  0.11416401293E+03  0.43916849469E+02  0.31253165274E+03  0.25000000000E+03 0.  0.
    5000001    1    1    2    0    0 -0.14217567461E+03 -0.11416401293E+03  0.17442414557E+03  0.35520575285E+03  0.25000000000E+03 0.  0.
<mgrwt>
<rscale>  0 0.63103126E+03</rscale>
<asrwt>0</asrwt>
<pdfrwt beam="1">  1        2 0.68159876E-01 0.63103126E+03</pdfrwt>
<pdfrwt beam="2">  1       -2 0.34568955E-01 0.63103126E+03</pdfrwt>
<totfact> 0.55925274E+02</totfact>
</mgrwt>
</event>
<event>
 4    1  0.1755570E-005  0.6074470E+03  0.7818608E-02  0.9890075E-01
         -2   -1    0    0    0  501 -0.00000000000E+00  0.00000000000E+00  0.31416888652E+03  0.31416888653E+03  0.25500000000E-02 0. -1.
          2   -1    0    0  501    0  0.00000000000E+00 -0.00000000000E+00 -0.29362538053E+03  0.29362538054E+03  0.25500000000E-02 0.  1.
   -5000001    1    1    2    0    0  0.15308369392E+03 -0.72366942041E+02 -0.22555039627E+02  0.30278758472E+03  0.25000000000E+03 0.  0.
    5000001    1    1    2    0    0 -0.15308369392E+03  0.72366942041E+02  0.43098545612E+02  0.30500668235E+03  0.25000000000E+03 0.  0.
<mgrwt>
<rscale>  0 0.60744698E+03</rscale>
<asrwt>0</asrwt>
<pdfrwt beam="1">  1        2 0.45173136E-01 0.60744698E+03</pdfrwt>
<pdfrwt beam="2">  1       -2 0.48333674E-01 0.60744698E+03</pdfrwt>
<totfact> 0.45998448E+02</totfact>
</mgrwt>
</event>
<event>
 4    1  0.1755570E-005  0.1003010E+04  0.7818608E-02  0.9305250E-01
          2   -1    0    0  501    0  0.00000000000E+00  0.00000000000E+00  0.46832167001E+03  0.46832167002E+03  0.25500000000E-02 0.  1.
         -2   -1    0    0    0  501 -0.00000000000E+00 -0.00000000000E+00 -0.53703940096E+03  0.53703940097E+03  0.25500000000E-02 0. -1.
   -5000001    1    1    2    0    0  0.39575738819E+03 -0.11852899088E+03  0.10136222549E+03  0.49340382319E+03  0.25000000000E+03 0.  0.
    5000001    1    1    2    0    0 -0.39575738819E+03  0.11852899088E+03 -0.17007995645E+03  0.51195724779E+03  0.25000000000E+03 0.  0.
<mgrwt>
<rscale>  0 0.10030098E+04</rscale>
<asrwt>0</asrwt>
<pdfrwt beam="1">  1        2 0.72049488E-01 0.10030098E+04</pdfrwt>
<pdfrwt beam="2">  1       -2 0.82621446E-01 0.10030098E+04</pdfrwt>
<totfact> 0.85284922E+01</totfact>
</mgrwt>
</event>
<event>
 4    1  0.1755570E-005  0.5768401E+03  0.7818608E-02  0.9954656E-01
          2   -1    0    0  501    0  0.00000000000E+00  0.00000000000E+00  0.46307786360E+03  0.46307786361E+03  0.25500000000E-02 0.  1.
         -2   -1    0    0    0  501 -0.00000000000E+00 -0.00000000000E+00 -0.17963742161E+03  0.17963742163E+03  0.25500000000E-02 0. -1.
   -5000001    1    1    2    0    0  0.13919828260E+03 -0.23464181292E+02  0.11101629825E+03  0.30781706931E+03  0.25000000000E+03 0.  0.
    5000001    1    1    2    0    0 -0.13919828260E+03  0.23464181292E+02  0.17242414374E+03  0.33489821592E+03  0.25000000000E+03 0.  0.
<mgrwt>
<rscale>  0 0.57684006E+03</rscale>
<asrwt>0</asrwt>
<pdfrwt beam="1">  1        2 0.71242748E-01 0.57684006E+03</pdfrwt>
<pdfrwt beam="2">  1       -2 0.27636527E-01 0.57684006E+03</pdfrwt>
<totfact> 0.80686402E+02</totfact>
</mgrwt>
</event>
<event>
 4    1  0.1755570E-005  0.8101154E+03  0.7818608E-02  0.9545490E-01
         -2   -1    0    0    0  501 -0.00000000000E+00  0.00000000000E+00  0.88889207122E+03  0.88889207122E+03  0.25500000000E-02 0. -1.
          2   -1    0    0  501    0  0.00000000000E+00 -0.00000000000E+00 -0.18458005264E+03  0.18458005266E+03  0.25500000000E-02 0.  1.
   -5000001    1    1    2    0    0  0.15891265931E+03 -0.11658816088E+03  0.68402500336E+03  0.75447746008E+03  0.25000000000E+03 0.  0.
    5000001    1    1    2    0    0 -0.15891265931E+03  0.11658816088E+03  0.20287015210E+02  0.31899466380E+03  0.25000000000E+03 0.  0.
<mgrwt>
<rscale>  0 0.81011541E+03</rscale>
<asrwt>0</asrwt>
<pdfrwt beam="1">  1        2 0.28396931E-01 0.81011541E+03</pdfrwt>
<pdfrwt beam="2">  1       -2 0.13675263E+00 0.81011541E+03</pdfrwt>
<totfact> 0.72821890E+01</totfact>
</mgrwt>
</event>
<event>
 4    1  0.1755570E-005  0.7678568E+03  0.7818608E-02  0.9607745E-01
         -2   -1    0    0    0  501 -0.00000000000E+00  0.00000000000E+00  0.51817786170E+03  0.51817786170E+03  0.25500000000E-02 0. -1.
          2   -1    0    0  501    0  0.00000000000E+00 -0.00000000000E+00 -0.28446025503E+03  0.28446025504E+03  0.25500000000E-02 0.  1.
   -5000001    1    1    2    0    0  0.41406231049E+02 -0.25084439024E+03 -0.31939542769E+02  0.35799094748E+03  0.25000000000E+03 0.  0.
    5000001    1    1    2    0    0 -0.41406231049E+02  0.25084439024E+03  0.26565714944E+03  0.44464716926E+03  0.25000000000E+03 0.  0.
<mgrwt>
<rscale>  0 0.76785677E+03</rscale>
<asrwt>0</asrwt>
<pdfrwt beam="1">  1        2 0.43763117E-01 0.76785677E+03</pdfrwt>
<pdfrwt beam="2">  1       -2 0.79719670E-01 0.76785677E+03</pdfrwt>
<totfact> 0.16369835E+02</totfact>
</mgrwt>
</event>
<event>
 4    1  0.1755570E-005  0.1121657E+04  0.7818608E-02  0.9184336E-01
          2   -1    0    0  501    0  0.00000000000E+00  0.00000000000E+00  0.18839570667E+04  0.18839570667E+04  0.25500000000E-02 0.  1.
         -2   -1    0    0    0  501 -0.00000000000E+00 -0.00000000000E+00 -0.16695119567E+03  0.16695119569E+03  0.25500000000E-02 0. -1.
   -5000001    1    1    2    0    0 -0.29438536748E+03 -0.36436731346E+03  0.52835233068E+03  0.74905438323E+03  0.25000000000E+03 0.  0.
    5000001    1    1    2    0    0  0.29438536748E+03  0.36436731346E+03  0.11886535404E+04  0.13018538792E+04  0.25000000000E+03 0.  0.
<mgrwt>
<rscale>  0 0.11216575E+04</rscale>
<asrwt>0</asrwt>
<pdfrwt beam="1">  1        2 0.28983956E+00 0.11216575E+04</pdfrwt>
<pdfrwt beam="2">  1       -2 0.25684798E-01 0.11216575E+04</pdfrwt>
<totfact> 0.10507563E+02</totfact>
</mgrwt>
</event>
<event>
 4    1  0.1755570E-005  0.1043426E+04  0.7818608E-02  0.9262157E-01
          2   -1    0    0  501    0  0.00000000000E+00  0.00000000000E+00  0.17213948971E+04  0.17213948971E+04  0.25500000000E-02 0.  1.
         -2   -1    0    0    0  501 -0.00000000000E+00 -0.00000000000E+00 -0.15811868874E+03  0.15811868876E+03  0.25500000000E-02 0. -1.
   -5000001    1    1    2    0    0  0.44624717101E+02  0.32050592613E+03  0.19803882665E+03  0.45435095567E+03  0.25000000000E+03 0.  0.
    5000001    1    1    2    0    0 -0.44624717101E+02 -0.32050592613E+03  0.13652373817E+04  0.14251626302E+04  0.25000000000E+03 0.  0.
<mgrwt>
<rscale>  0 0.10434265E+04</rscale>
<asrwt>0</asrwt>
<pdfrwt beam="1">  1        2 0.26482997E+00 0.10434265E+04</pdfrwt>
<pdfrwt beam="2">  1       -2 0.24325953E-01 0.10434265E+04</pdfrwt>
<totfact> 0.14331578E+02</totfact>
</mgrwt>
</event>
<event>
 4    1  0.1755570E-005  0.6360765E+03  0.7818608E-02  0.9833262E-01
          2   -1    0    0  501    0  0.00000000000E+00  0.00000000000E+00  0.51924705310E+03  0.51924705311E+03  0.25500000000E-02 0.  1.
         -2   -1    0    0    0  501 -0.00000000000E+00 -0.00000000000E+00 -0.19479808654E+03  0.19479808655E+03  0.25500000000E-02 0. -1.
   -5000001    1    1    2    0    0  0.17986267466E+03 -0.29231766874E+02  0.79402499864E+02  0.31938978524E+03  0.25000000000E+03 0.  0.
    5000001    1    1    2    0    0 -0.17986267466E+03  0.29231766874E+02  0.24504646670E+03  0.39465535442E+03  0.25000000000E+03 0.  0.
<mgrwt>
<rscale>  0 0.63607651E+03</rscale>
<asrwt>0</asrwt>
<pdfrwt beam="1">  1        2 0.79884160E-01 0.63607651E+03</pdfrwt>
<pdfrwt beam="2">  1       -2 0.29968937E-01 0.63607651E+03</pdfrwt>
<totfact> 0.60891246E+02</totfact>
</mgrwt>
</event>
<event>
 4    1  0.1755570E-005  0.7459582E+03  0.7818608E-02  0.9641713E-01
         -2   -1    0    0    0  501 -0.00000000000E+00  0.00000000000E+00  0.32522865962E+03  0.32522865963E+03  0.25500000000E-02 0. -1.
          2   -1    0    0  501    0  0.00000000000E+00 -0.00000000000E+00 -0.42774028603E+03  0.42774028604E+03  0.25500000000E-02 0.  1.
   -5000001    1    1    2    0    0 -0.27151790327E+03  0.41308657331E+02 -0.86003505260E+02  0.38121513596E+03  0.25000000000E+03 0.  0.
    5000001    1    1    2    0    0  0.27151790327E+03 -0.41308657331E+02 -0.16508121150E+02  0.37175380971E+03  0.25000000000E+03 0.  0.
<mgrwt>
<rscale>  0 0.74595818E+03</rscale>
<asrwt>0</asrwt>
<pdfrwt beam="1">  1        2 0.65806198E-01 0.74595818E+03</pdfrwt>
<pdfrwt beam="2">  1       -2 0.50035179E-01 0.74595818E+03</pdfrwt>
<totfact> 0.28084582E+02</totfact>
</mgrwt>
</event>
<event>
 4    1  0.1755570E-005  0.1718860E+04  0.7818608E-02  0.8750680E-01
         -2   -1    0    0    0  501 -0.00000000000E+00  0.00000000000E+00  0.66089834357E+03  0.66089834358E+03  0.25500000000E-02 0. -1.
          2   -1    0    0  501    0  0.00000000000E+00 -0.00000000000E+00 -0.11176003259E+04  0.11176003259E+04  0.25500000000E-02 0.  1.
   -5000001    1    1    2    0    0 -0.37626311080E+03  0.68501703914E+03  0.36049751154E+02  0.82135367353E+03  0.25000000000E+03 0.  0.
    5000001    1    1    2    0    0  0.37626311080E+03 -0.68501703914E+03 -0.49275173351E+03  0.95714499599E+03  0.25000000000E+03 0.  0.
<mgrwt>
<rscale>  0 0.17188603E+04</rscale>
<asrwt>0</asrwt>
<pdfrwt beam="1">  1        2 0.17193851E+00 0.17188603E+04</pdfrwt>
<pdfrwt beam="2">  1       -2 0.10167667E+00 0.17188603E+04</pdfrwt>
<totfact> 0.16032185E+01</totfact>
</mgrwt>
</event>
<event>
 4    1  0.1755570E-005  0.6140041E+03  0.7818608E-02  0.9876770E-01
         -2   -1    0    0    0  501 -0.00000000000E+00  0.00000000000E+00  0.34322037134E+03  0.34322037135E+03  0.25500000000E-02 0. -1.
          2   -1    0    0  501    0  0.00000000000E+00 -0.00000000000E+00 -0.27460569829E+03  0.27460569830E+03  0.25500000000E-02 0.  1.
   -5000001    1    1    2    0    0  0.72884379296E+02 -0.16174927893E+03  0.17611654571E+02  0.30705884185E+03  0.25000000000E+03 0.  0.
    5000001    1    1    2    0    0 -0.72884379296E+02  0.16174927893E+03  0.51003018482E+02  0.31076722780E+03  0.25000000000E+03 0.  0.
<mgrwt>
<rscale>  0 0.61400414E+03</rscale>
<asrwt>0</asrwt>
<pdfrwt beam="1">  1        2 0.42247031E-01 0.61400414E+03</pdfrwt>
<pdfrwt beam="2">  1       -2 0.52803134E-01 0.61400414E+03</pdfrwt>
<totfact> 0.41378044E+02</totfact>
</mgrwt>
</event>
<event>
 4    1  0.1755570E-005  0.5469423E+03  0.7818608E-02  0.1002204E+00
         -2   -1    0    0    0  501 -0.00000000000E+00  0.00000000000E+00  0.41710038018E+02  0.41710038096E+02  0.25500000000E-02 0. -1.
          2   -1    0    0  501    0  0.00000000000E+00 -0.00000000000E+00 -0.17930087778E+04  0.17930087778E+04  0.25500000000E-02 0.  1.
   -5000001    1    1    2    0    0  0.79998765764E+02  0.15604287144E+02 -0.62365577018E+03  0.67682332700E+03  0.25000000000E+03 0.  0.
    5000001    1    1    2    0    0 -0.79998765764E+02 -0.15604287144E+02 -0.11276429696E+04  0.11578954889E+04  0.25000000000E+03 0.  0.
<mgrwt>
<rscale>  0 0.54694228E+03</rscale>
<asrwt>0</asrwt>
<pdfrwt beam="1">  1        2 0.27584744E+00 0.54694228E+03</pdfrwt>
<pdfrwt beam="2">  1       -2 0.64169303E-02 0.54694228E+03</pdfrwt>
<totfact> 0.12507004E+03</totfact>
</mgrwt>
</event>
<event>
 4    1  0.1755570E-005  0.7683010E+03  0.7818608E-02  0.9607069E-01
         -2   -1    0    0    0  501 -0.00000000000E+00  0.00000000000E+00  0.17304316041E+03  0.17304316043E+03  0.25500000000E-02 0. -1.
          2   -1    0    0  501    0  0.00000000000E+00 -0.00000000000E+00 -0.85280224518E+03  0.85280224519E+03  0.25500000000E-02 0.  1.
   -5000001    1    1    2    0    0  0.28301484453E+03 -0.53659566440E+02 -0.27876755275E+03  0.47242787784E+03  0.25000000000E+03 0.  0.
    5000001    1    1    2    0    0 -0.28301484453E+03  0.53659566440E+02 -0.40099153203E+03  0.55341752778E+03  0.25000000000E+03 0.  0.
<mgrwt>
<rscale>  0 0.76830097E+03</rscale>
<asrwt>0</asrwt>
<pdfrwt beam="1">  1        2 0.13120034E+00 0.76830097E+03</pdfrwt>
<pdfrwt beam="2">  1       -2 0.26622025E-01 0.76830097E+03</pdfrwt>
<totfact> 0.40598521E+02</totfact>
</mgrwt>
</event>
<event>
 4    1  0.1755570E-005  0.1105869E+04  0.7818608E-02  0.9199490E-01
         -2   -1    0    0    0  501 -0.00000000000E+00  0.00000000000E+00  0.94765649065E+02  0.94765649099E+02  0.25500000000E-02 0. -1.
          2   -1    0    0  501    0  0.00000000000E+00 -0.00000000000E+00 -0.32262396370E+04  0.32262396370E+04  0.25500000000E-02 0.  1.
   -5000001    1    1    2    0    0 -0.31847796938E+03 -0.23769183468E+03 -0.24428761097E+04  0.24875830263E+04  0.25000000000E+03 0.  0.
    5000001    1    1    2    0    0  0.31847796938E+03  0.23769183468E+03 -0.68859787820E+03  0.83342225980E+03  0.25000000000E+03 0.  0.
<mgrwt>
<rscale>  0 0.11058692E+04</rscale>
<asrwt>0</asrwt>
<pdfrwt beam="1">  1        2 0.49634447E+00 0.11058692E+04</pdfrwt>
<pdfrwt beam="2">  1       -2 0.14579333E-01 0.11058692E+04</pdfrwt>
<totfact> 0.46689424E+01</totfact>
</mgrwt>
</event>
<event>
 4    1  0.1755570E-005  0.8178893E+03  0.7818608E-02  0.9534478E-01
         -2   -1    0    0    0  501 -0.00000000000E+00  0.00000000000E+00  0.77050902506E+02  0.77050902549E+02  0.25500000000E-02 0. -1.
          2   -1    0    0  501    0  0.00000000000E+00 -0.00000000000E+00 -0.21704578595E+04  0.21704578595E+04  0.25500000000E-02 0.  1.
   -5000001    1    1    2    0    0  0.13128065850E+03  0.26646001661E+03 -0.69372253188E+03  0.79497578767E+03  0.25000000000E+03 0.  0.
    5000001    1    1    2    0    0 -0.13128065850E+03 -0.26646001661E+03 -0.13996844251E+04  0.14525329744E+04  0.25000000000E+03 0.  0.
<mgrwt>
<rscale>  0 0.81788932E+03</rscale>
<asrwt>0</asrwt>
<pdfrwt beam="1">  1        2 0.33391655E+00 0.81788932E+03</pdfrwt>
<pdfrwt beam="2">  1       -2 0.11853987E-01 0.81788932E+03</pdfrwt>
<totfact> 0.28487576E+02</totfact>
</mgrwt>
</event>
<event>
 4    1  0.1755570E-005  0.6480722E+03  0.7818608E-02  0.9810403E-01
          2   -1    0    0  501    0  0.00000000000E+00  0.00000000000E+00  0.15025599262E+03  0.15025599264E+03  0.25500000000E-02 0.  1.
         -2   -1    0    0    0  501 -0.00000000000E+00 -0.00000000000E+00 -0.69880341251E+03  0.69880341252E+03  0.25500000000E-02 0. -1.
   -5000001    1    1    2    0    0  0.72682023196E+01 -0.93191540605E+02 -0.33544839308E+02  0.26900324580E+03  0.25000000000E+03 0.  0.
    5000001    1    1    2    0    0 -0.72682023196E+01  0.93191540605E+02 -0.51500258058E+03  0.58005615936E+03  0.25000000000E+03 0.  0.
<mgrwt>
<rscale>  0 0.64807222E+03</rscale>
<asrwt>0</asrwt>
<pdfrwt beam="1">  1        2 0.23116307E-01 0.64807222E+03</pdfrwt>
<pdfrwt beam="2">  1       -2 0.10750822E+00 0.64807222E+03</pdfrwt>
<totfact> 0.16858398E+02</totfact>
</mgrwt>
</event>
<event>
 4    1  0.1755570E-005  0.7006440E+03  0.7818608E-02  0.9716131E-01
         -2   -1    0    0    0  501 -0.00000000000E+00  0.00000000000E+00  0.13111802339E+04  0.13111802339E+04  0.25500000000E-02 0. -1.
          2   -1    0    0  501    0  0.00000000000E+00 -0.00000000000E+00 -0.93599274961E+02  0.93599274996E+02  0.25500000000E-02 0.  1.
   -5000001    1    1    2    0    0  0.11265435488E+03  0.18919741886E+03  0.39155860599E+03  0.51410583434E+03  0.25000000000E+03 0.  0.
    5000001    1    1    2    0    0 -0.11265435488E+03 -0.18919741886E+03  0.82602235295E+03  0.89067367456E+03  0.25000000000E+03 0.  0.
<mgrwt>
<rscale>  0 0.70064404E+03</rscale>
<asrwt>0</asrwt>
<pdfrwt beam="1">  1        2 0.14399888E-01 0.70064404E+03</pdfrwt>
<pdfrwt beam="2">  1       -2 0.20172004E+00 0.70064404E+03</pdfrwt>
<totfact> 0.55747202E+01</totfact>
</mgrwt>
</event>
<event>
 4    1  0.1755570E-005  0.5473925E+03  0.7818608E-02  0.1002099E+00
         -2   -1    0    0    0  501 -0.00000000000E+00  0.00000000000E+00  0.73570057309E+02  0.73570057353E+02  0.25500000000E-02 0. -1.
          2   -1    0    0  501    0  0.00000000000E+00 -0.00000000000E+00 -0.10182083536E+04  0.10182083536E+04  0.25500000000E-02 0.  1.
   -5000001    1    1    2    0    0  0.73769340217E+02  0.78065459223E+02 -0.41337089598E+03  0.49488547072E+03  0.25000000000E+03 0.  0.
    5000001    1    1    2    0    0 -0.73769340217E+02 -0.78065459223E+02 -0.53126740032E+03  0.59689294025E+03  0.25000000000E+03 0.  0.
<mgrwt>
<rscale>  0 0.54739254E+03</rscale>
<asrwt>0</asrwt>
<pdfrwt beam="1">  1        2 0.15664743E+00 0.54739254E+03</pdfrwt>
<pdfrwt beam="2">  1       -2 0.11318471E-01 0.54739254E+03</pdfrwt>
<totfact> 0.13852333E+03</totfact>
</mgrwt>
</event>
<event>
 4    1  0.1755570E-005  0.6926618E+03  0.7818608E-02  0.9729864E-01
          2   -1    0    0  501    0  0.00000000000E+00  0.00000000000E+00  0.48115306103E+03  0.48115306104E+03  0.25500000000E-02 0.  1.
         -2   -1    0    0    0  501 -0.00000000000E+00 -0.00000000000E+00 -0.24928678015E+03  0.24928678016E+03  0.25500000000E-02 0. -1.
   -5000001    1    1    2    0    0  0.87245847008E+02  0.16883836633E+03  0.26993526880E+03  0.41410539855E+03  0.25000000000E+03 0.  0.
    5000001    1    1    2    0    0 -0.87245847008E+02 -0.16883836633E+03 -0.38068987917E+02  0.31633444265E+03  0.25000000000E+03 0.  0.
<mgrwt>
<rscale>  0 0.69266181E+03</rscale>
<asrwt>0</asrwt>
<pdfrwt beam="1">  1        2 0.74023548E-01 0.69266181E+03</pdfrwt>
<pdfrwt beam="2">  1       -2 0.38351812E-01 0.69266181E+03</pdfrwt>
<totfact> 0.41663806E+02</totfact>
</mgrwt>
</event>
<event>
 4    1  0.1755570E-005  0.8797053E+03  0.7818608E-02  0.9451312E-01
         -2   -1    0    0    0  501 -0.00000000000E+00  0.00000000000E+00  0.12410824040E+03  0.12410824043E+03  0.25500000000E-02 0. -1.
          2   -1    0    0  501    0  0.00000000000E+00 -0.00000000000E+00 -0.15588840358E+04  0.15588840358E+04  0.25500000000E-02 0.  1.
   -5000001    1    1    2    0    0 -0.50878166977E+02  0.34857031926E+03 -0.55869594926E+03  0.70620890611E+03  0.25000000000E+03 0.  0.
    5000001    1    1    2    0    0  0.50878166977E+02 -0.34857031926E+03 -0.87607984613E+03  0.97678337012E+03  0.25000000000E+03 0.  0.
<mgrwt>
<rscale>  0 0.87970530E+03</rscale>
<asrwt>0</asrwt>
<pdfrwt beam="1">  1        2 0.23982830E+00 0.87970530E+03</pdfrwt>
<pdfrwt beam="2">  1       -2 0.19093577E-01 0.87970530E+03</pdfrwt>
<totfact> 0.27382213E+02</totfact>
</mgrwt>
</event>
<event>
 4    1  0.1755570E-005  0.9054787E+03  0.7818608E-02  0.9418759E-01
         -2   -1    0    0    0  501 -0.00000000000E+00  0.00000000000E+00  0.15436017159E+03  0.15436017161E+03  0.25500000000E-02 0. -1.
          2   -1    0    0  501    0  0.00000000000E+00 -0.00000000000E+00 -0.13278874578E+04  0.13278874578E+04  0.25500000000E-02 0.  1.
   -5000001    1    1    2    0    0  0.18235484211E+03 -0.28678622328E+03 -0.31791389976E+03  0.52826969814E+03  0.25000000000E+03 0.  0.
    5000001    1    1    2    0    0 -0.18235484211E+03  0.28678622328E+03 -0.85561338646E+03  0.95397793129E+03  0.25000000000E+03 0.  0.
<mgrwt>
<rscale>  0 0.90547874E+03</rscale>
<asrwt>0</asrwt>
<pdfrwt beam="1">  1        2 0.20429037E+00 0.90547874E+03</pdfrwt>
<pdfrwt beam="2">  1       -2 0.23747720E-01 0.90547874E+03</pdfrwt>
<totfact> 0.25102881E+02</totfact>
</mgrwt>
</event>
<event>
 4    1  0.1755570E-005  0.7028136E+03  0.7818608E-02  0.9712433E-01
         -2   -1    0    0    0  501 -0.00000000000E+00  0.00000000000E+00  0.11299292483E+03  0.11299292486E+03  0.25500000000E-02 0. -1.
          2   -1    0    0  501    0  0.00000000000E+00 -0.00000000000E+00 -0.10928715422E+04  0.10928715423E+04  0.25500000000E-02 0.  1.
   -5000001    1    1    2    0    0  0.12452881878E+03  0.20799546763E+03 -0.57073009020E+03  0.66858236375E+03  0.25000000000E+03 0.  0.
    5000001    1    1    2    0    0 -0.12452881878E+03 -0.20799546763E+03 -0.40914852723E+03  0.53728210336E+03  0.25000000000E+03 0.  0.
<mgrwt>
<rscale>  0 0.70281364E+03</rscale>
<asrwt>0</asrwt>
<pdfrwt beam="1">  1        2 0.16813408E+00 0.70281364E+03</pdfrwt>
<pdfrwt beam="2">  1       -2 0.17383528E-01 0.70281364E+03</pdfrwt>
<totfact> 0.60412651E+02</totfact>
</mgrwt>
</event>
<event>
 4    1  0.1755570E-005  0.9667953E+03  0.7818608E-02  0.9345732E-01
         -2   -1    0    0    0  501 -0.00000000000E+00  0.00000000000E+00  0.28844120843E+03  0.28844120844E+03  0.25500000000E-02 0. -1.
          2   -1    0    0  501    0  0.00000000000E+00 -0.00000000000E+00 -0.81012454341E+03  0.81012454342E+03  0.25500000000E-02 0.  1.
   -5000001    1    1    2    0    0  0.16676949111E+03 -0.21871248088E+03 -0.61204005440E+03  0.71605882486E+03  0.25000000000E+03 0.  0.
    5000001    1    1    2    0    0 -0.16676949111E+03  0.21871248088E+03  0.90356719420E+02  0.38250692700E+03  0.25000000000E+03 0.  0.
<mgrwt>
<rscale>  0 0.96679533E+03</rscale>
<asrwt>0</asrwt>
<pdfrwt beam="1">  1        2 0.12463454E+00 0.96679533E+03</pdfrwt>
<pdfrwt beam="2">  1       -2 0.44375571E-01 0.96679533E+03</pdfrwt>
<totfact> 0.16306721E+02</totfact>
</mgrwt>
</event>
<event>
 4    1  0.1755570E-005  0.5619282E+03  0.7818608E-02  0.9987701E-01
          2   -1    0    0  501    0  0.00000000000E+00  0.00000000000E+00  0.73150986555E+03  0.73150986555E+03  0.25500000000E-02 0.  1.
         -2   -1    0    0    0  501 -0.00000000000E+00 -0.00000000000E+00 -0.10791490996E+03  0.10791490999E+03  0.25500000000E-02 0. -1.
   -5000001    1    1    2    0    0 -0.68252021837E+02  0.99439124323E+02  0.24677997015E+03  0.37141194326E+03  0.25000000000E+03 0.  0.
    5000001    1    1    2    0    0  0.68252021837E+02 -0.99439124323E+02  0.37681498544E+03  0.46801283228E+03  0.25000000000E+03 0.  0.
<mgrwt>
<rscale>  0 0.56192819E+03</rscale>
<asrwt>0</asrwt>
<pdfrwt beam="1">  1        2 0.11253998E+00 0.56192819E+03</pdfrwt>
<pdfrwt beam="2">  1       -2 0.16602294E-01 0.56192819E+03</pdfrwt>
<totfact> 0.11459974E+03</totfact>
</mgrwt>
</event>
<event>
 4    1  0.1755570E-005  0.8521709E+03  0.7818608E-02  0.9487428E-01
          2   -1    0    0  501    0  0.00000000000E+00  0.00000000000E+00  0.20856614297E+03  0.20856614299E+03  0.25500000000E-02 0.  1.
         -2   -1    0    0    0  501 -0.00000000000E+00 -0.00000000000E+00 -0.87046158179E+03  0.87046158179E+03  0.25500000000E-02 0. -1.
   -5000001    1    1    2    0    0  0.34311836974E+03 -0.36242100834E+02 -0.32808563498E+03  0.53775820720E+03  0.25000000000E+03 0.  0.
    5000001    1    1    2    0    0 -0.34311836974E+03  0.36242100834E+02 -0.33380980383E+03  0.54126951758E+03  0.25000000000E+03 0.  0.
<mgrwt>
<rscale>  0 0.85217091E+03</rscale>
<asrwt>0</asrwt>
<pdfrwt beam="1">  1        2 0.32087099E-01 0.85217091E+03</pdfrwt>
<pdfrwt beam="2">  1       -2 0.13391717E+00 0.85217091E+03</pdfrwt>
<totfact> 0.66767480E+01</totfact>
</mgrwt>
</event>
<event>
 4    1  0.1755570E-005  0.8297260E+03  0.7818608E-02  0.9517959E-01
          2   -1    0    0  501    0  0.00000000000E+00  0.00000000000E+00  0.18275933444E+04  0.18275933444E+04  0.25500000000E-02 0.  1.
         -2   -1    0    0    0  501 -0.00000000000E+00 -0.00000000000E+00 -0.94173753560E+02  0.94173753595E+02  0.25500000000E-02 0. -1.
   -5000001    1    1    2    0    0  0.27481453290E+03  0.24292353194E+02  0.12906226981E+04  0.13432498259E+04  0.25000000000E+03 0.  0.
    5000001    1    1    2    0    0 -0.27481453290E+03 -0.24292353194E+02  0.44279689282E+03  0.57851727218E+03  0.25000000000E+03 0.  0.
<mgrwt>
<rscale>  0 0.82972604E+03</rscale>
<asrwt>0</asrwt>
<pdfrwt beam="1">  1        2 0.28116819E+00 0.82972604E+03</pdfrwt>
<pdfrwt beam="2">  1       -2 0.14488270E-01 0.82972604E+03</pdfrwt>
<totfact> 0.31371922E+02</totfact>
</mgrwt>
</event>
<event>
 4    1  0.1755570E-005  0.5847700E+03  0.7818608E-02  0.9937517E-01
         -2   -1    0    0    0  501 -0.00000000000E+00  0.00000000000E+00  0.41167718252E+02  0.41167718331E+02  0.25500000000E-02 0. -1.
          2   -1    0    0  501    0  0.00000000000E+00 -0.00000000000E+00 -0.20766025567E+04  0.20766025567E+04  0.25500000000E-02 0.  1.
   -5000001    1    1    2    0    0 -0.14418665110E+03 -0.41306463381E+02 -0.10981266883E+04  0.11361682261E+04  0.25000000000E+03 0.  0.
    5000001    1    1    2    0    0  0.14418665110E+03  0.41306463381E+02 -0.93730815006E+03  0.98160204892E+03  0.25000000000E+03 0.  0.
<mgrwt>
<rscale>  0 0.58477000E+03</rscale>
<asrwt>0</asrwt>
<pdfrwt beam="1">  1        2 0.31947723E+00 0.58477000E+03</pdfrwt>
<pdfrwt beam="2">  1       -2 0.63334967E-02 0.58477000E+03</pdfrwt>
<totfact> 0.89499779E+02</totfact>
</mgrwt>
</event>
<event>
 4    1  0.1755570E-005  0.6058650E+03  0.7818608E-02  0.9893312E-01
         -2   -1    0    0    0  501 -0.00000000000E+00  0.00000000000E+00  0.76810091942E+02  0.76810091984E+02  0.25500000000E-02 0. -1.
          2   -1    0    0  501    0  0.00000000000E+00 -0.00000000000E+00 -0.11947401396E+04  0.11947401396E+04  0.25500000000E-02 0.  1.
   -5000001    1    1    2    0    0  0.16495218731E+03 -0.30118611406E+02 -0.48773946737E+03  0.57315455410E+03  0.25000000000E+03 0.  0.
    5000001    1    1    2    0    0 -0.16495218731E+03  0.30118611406E+02 -0.63019058026E+03  0.69839567746E+03  0.25000000000E+03 0.  0.
<mgrwt>
<rscale>  0 0.60586500E+03</rscale>
<asrwt>0</asrwt>
<pdfrwt beam="1">  1        2 0.18380616E+00 0.60586500E+03</pdfrwt>
<pdfrwt beam="2">  1       -2 0.11816938E-01 0.60586500E+03</pdfrwt>
<totfact> 0.10074854E+03</totfact>
</mgrwt>
</event>
<event>
 4    1  0.1755570E-005  0.7580253E+03  0.7818608E-02  0.9622843E-01
          2   -1    0    0  501    0  0.00000000000E+00  0.00000000000E+00  0.42224352308E+03  0.42224352309E+03  0.25500000000E-02 0.  1.
         -2   -1    0    0    0  501 -0.00000000000E+00 -0.00000000000E+00 -0.34020791157E+03  0.34020791158E+03  0.25500000000E-02 0. -1.
   -5000001    1    1    2    0    0 -0.24092256919E+03  0.11852864408E+03 -0.54710719811E+02  0.37092585064E+03  0.25000000000E+03 0.  0.
    5000001    1    1    2    0    0  0.24092256919E+03 -0.11852864408E+03  0.13674633132E+03  0.39152558402E+03  0.25000000000E+03 0.  0.
<mgrwt>
<rscale>  0 0.75802530E+03</rscale>
<asrwt>0</asrwt>
<pdfrwt beam="1">  1        2 0.64960542E-01 0.75802530E+03</pdfrwt>
<pdfrwt beam="2">  1       -2 0.52339679E-01 0.75802530E+03</pdfrwt>
<totfact> 0.25982560E+02</totfact>
</mgrwt>
</event>
<event>
 4    1  0.1755570E-005  0.1035063E+04  0.7818608E-02  0.9270903E-01
          2   -1    0    0  501    0  0.00000000000E+00  0.00000000000E+00  0.86571024448E+03  0.86571024449E+03  0.25500000000E-02 0.  1.
         -2   -1    0    0    0  501 -0.00000000000E+00 -0.00000000000E+00 -0.30938606924E+03  0.30938606925E+03  0.25500000000E-02 0. -1.
   -5000001    1    1    2    0    0 -0.42694994242E+03 -0.93688807656E+02  0.41380355906E+03  0.65176470563E+03  0.25000000000E+03 0.  0.
    5000001    1    1    2    0    0  0.42694994242E+03  0.93688807656E+02  0.14252061618E+03  0.52333160811E+03  0.25000000000E+03 0.  0.
<mgrwt>
<rscale>  0 0.10350627E+04</rscale>
<asrwt>0</asrwt>
<pdfrwt beam="1">  1        2 0.13318619E+00 0.10350627E+04</pdfrwt>
<pdfrwt beam="2">  1       -2 0.47597857E-01 0.10350627E+04</pdfrwt>
<totfact> 0.12898039E+02</totfact>
</mgrwt>
</event>
<event>
 4    1  0.1755570E-005  0.6975426E+03  0.7818608E-02  0.9721444E-01
          2   -1    0    0  501    0  0.00000000000E+00  0.00000000000E+00  0.13805967251E+04  0.13805967251E+04  0.25500000000E-02 0.  1.
         -2   -1    0    0    0  501 -0.00000000000E+00 -0.00000000000E+00 -0.88107845966E+02  0.88107846003E+02  0.25500000000E-02 0. -1.
   -5000001    1    1    2    0    0  0.17760723609E+03  0.24330841446E+02  0.99225272743E+03  0.10388463771E+04  0.25000000000E+03 0.  0.
    5000001    1    1    2    0    0 -0.17760723609E+03 -0.24330841446E+02  0.30023615173E+03  0.42985819402E+03  0.25000000000E+03 0.  0.
<mgrwt>
<rscale>  0 0.69754255E+03</rscale>
<asrwt>0</asrwt>
<pdfrwt beam="1">  1        2 0.21239949E+00 0.69754255E+03</pdfrwt>
<pdfrwt beam="2">  1       -2 0.13555054E-01 0.69754255E+03</pdfrwt>
<totfact> 0.62469722E+02</totfact>
</mgrwt>
</event>
<event>
 4    1  0.1755570E-005  0.1267955E+04  0.7818608E-02  0.9055370E-01
         -2   -1    0    0    0  501 -0.00000000000E+00  0.00000000000E+00  0.38101344798E+03  0.38101344799E+03  0.25500000000E-02 0. -1.
          2   -1    0    0  501    0  0.00000000000E+00 -0.00000000000E+00 -0.10548906042E+04  0.10548906042E+04  0.25500000000E-02 0.  1.
   -5000001    1    1    2    0    0  0.11212635423E+03 -0.52182572481E+03 -0.60144198984E+03  0.84208483748E+03  0.25000000000E+03 0.  0.
    5000001    1    1    2    0    0 -0.11212635423E+03  0.52182572481E+03 -0.72435166347E+02  0.59381921467E+03  0.25000000000E+03 0.  0.
<mgrwt>
<rscale>  0 0.12679551E+04</rscale>
<asrwt>0</asrwt>
<pdfrwt beam="1">  1        2 0.16229086E+00 0.12679551E+04</pdfrwt>
<pdfrwt beam="2">  1       -2 0.58617454E-01 0.12679551E+04</pdfrwt>
<totfact> 0.62121128E+01</totfact>
</mgrwt>
</event>
<event>
 4    1  0.1755570E-005  0.8756675E+03  0.7818608E-02  0.9456520E-01
          2   -1    0    0  501    0  0.00000000000E+00  0.00000000000E+00  0.42103739518E+03  0.42103739519E+03  0.25500000000E-02 0.  1.
         -2   -1    0    0    0  501 -0.00000000000E+00 -0.00000000000E+00 -0.45530011500E+03  0.45530011500E+03  0.25500000000E-02 0. -1.
   -5000001    1    1    2    0    0  0.23926963243E+03 -0.26332464318E+03  0.33981684803E+02  0.43617035618E+03  0.25000000000E+03 0.  0.
    5000001    1    1    2    0    0 -0.23926963243E+03  0.26332464318E+03 -0.68244404617E+02  0.44016715401E+03  0.25000000000E+03 0.  0.
<mgrwt>
<rscale>  0 0.87566746E+03</rscale>
<asrwt>0</asrwt>
<pdfrwt beam="1">  1        2 0.64774984E-01 0.87566746E+03</pdfrwt>
<pdfrwt beam="2">  1       -2 0.70046171E-01 0.87566746E+03</pdfrwt>
<totfact> 0.13998431E+02</totfact>
</mgrwt>
</event>
<event>
 4    1  0.1755570E-005  0.8359151E+03  0.7818608E-02  0.9509439E-01
         -2   -1    0    0    0  501 -0.00000000000E+00  0.00000000000E+00  0.11818687197E+03  0.11818687200E+03  0.25500000000E-02 0. -1.
          2   -1    0    0  501    0  0.00000000000E+00 -0.00000000000E+00 -0.14780704913E+04  0.14780704913E+04  0.25500000000E-02 0.  1.
   -5000001    1    1    2    0    0  0.22882446640E+03 -0.15221163689E+03 -0.31431835486E+03  0.48664673740E+03  0.25000000000E+03 0.  0.
    5000001    1    1    2    0    0 -0.22882446640E+03  0.15221163689E+03 -0.10455652645E+04  0.11096106259E+04  0.25000000000E+03 0.  0.
<mgrwt>
<rscale>  0 0.83591513E+03</rscale>
<asrwt>0</asrwt>
<pdfrwt beam="1">  1        2 0.22739545E+00 0.83591513E+03</pdfrwt>
<pdfrwt beam="2">  1       -2 0.18182597E-01 0.83591513E+03</pdfrwt>
<totfact> 0.33159305E+02</totfact>
</mgrwt>
</event>
<event>
 4    1  0.1755570E-005  0.6141148E+03  0.7818608E-02  0.9876548E-01
         -2   -1    0    0    0  501 -0.00000000000E+00  0.00000000000E+00  0.10996022363E+04  0.10996022363E+04  0.25500000000E-02 0. -1.
          2   -1    0    0  501    0  0.00000000000E+00 -0.00000000000E+00 -0.85743946043E+02  0.85743946081E+02  0.25500000000E-02 0.  1.
   -5000001    1    1    2    0    0 -0.10789936260E+03  0.58372504252E+02  0.25723778922E+03  0.37910539683E+03  0.25000000000E+03 0.  0.
    5000001    1    1    2    0    0  0.10789936260E+03 -0.58372504252E+02  0.75662050103E+03  0.80624078555E+03  0.25000000000E+03 0.  0.
<mgrwt>
<rscale>  0 0.61411476E+03</rscale>
<asrwt>0</asrwt>
<pdfrwt beam="1">  1        2 0.13191378E-01 0.61411476E+03</pdfrwt>
<pdfrwt beam="2">  1       -2 0.16916956E+00 0.61411476E+03</pdfrwt>
<totfact> 0.10336273E+02</totfact>
</mgrwt>
</event>
<event>
 4    1  0.1755570E-005  0.8247105E+03  0.7818608E-02  0.9524923E-01
         -2   -1    0    0    0  501 -0.00000000000E+00  0.00000000000E+00  0.17199412701E+03  0.17199412703E+03  0.25500000000E-02 0. -1.
          2   -1    0    0  501    0  0.00000000000E+00 -0.00000000000E+00 -0.98862012182E+03  0.98862012182E+03  0.25500000000E-02 0.  1.
   -5000001    1    1    2    0    0  0.27342547905E+03 -0.40031078720E+02 -0.15984251707E+03  0.40547948175E+03  0.25000000000E+03 0.  0.
    5000001    1    1    2    0    0 -0.27342547905E+03  0.40031078720E+02 -0.65678347773E+03  0.75513476710E+03  0.25000000000E+03 0.  0.
<mgrwt>
<rscale>  0 0.82471051E+03</rscale>
<asrwt>0</asrwt>
<pdfrwt beam="1">  1        2 0.15209540E+00 0.82471051E+03</pdfrwt>
<pdfrwt beam="2">  1       -2 0.26460635E-01 0.82471051E+03</pdfrwt>
<totfact> 0.33245096E+02</totfact>
</mgrwt>
</event>
<event>
 4    1  0.1755570E-005  0.6872038E+03  0.7818608E-02  0.9739369E-01
         -2   -1    0    0    0  501 -0.00000000000E+00  0.00000000000E+00  0.40824355217E+02  0.40824355297E+02  0.25500000000E-02 0. -1.
          2   -1    0    0  501    0  0.00000000000E+00 -0.00000000000E+00 -0.28919564229E+04  0.28919564229E+04  0.25500000000E-02 0.  1.
   -5000001    1    1    2    0    0 -0.18538829164E+03 -0.10344906810E+03 -0.98842902313E+03  0.10414232867E+04  0.25000000000E+03 0.  0.
    5000001    1    1    2    0    0  0.18538829164E+03  0.10344906810E+03 -0.18627030445E+04  0.18913574915E+04  0.25000000000E+03 0.  0.
<mgrwt>
<rscale>  0 0.68720377E+03</rscale>
<asrwt>0</asrwt>
<pdfrwt beam="1">  1        2 0.44491621E+00 0.68720377E+03</pdfrwt>
<pdfrwt beam="2">  1       -2 0.62806723E-02 0.68720377E+03</pdfrwt>
<totfact> 0.31074319E+02</totfact>
</mgrwt>
</event>
<event>
 4    1  0.1755570E-005  0.1306039E+04  0.7818608E-02  0.9024790E-01
          2   -1    0    0  501    0  0.00000000000E+00  0.00000000000E+00  0.10883645522E+04  0.10883645522E+04  0.25500000000E-02 0.  1.
         -2   -1    0    0    0  501 -0.00000000000E+00 -0.00000000000E+00 -0.39181209259E+03  0.39181209260E+03  0.25500000000E-02 0. -1.
   -5000001    1    1    2    0    0 -0.30111526351E+03  0.52236622508E+03  0.37087244310E+03  0.75072181537E+03  0.25000000000E+03 0.  0.
    5000001    1    1    2    0    0  0.30111526351E+03 -0.52236622508E+03  0.32568001650E+03  0.72945482942E+03  0.25000000000E+03 0.  0.
<mgrwt>
<rscale>  0 0.13060389E+04</rscale>
<asrwt>0</asrwt>
<pdfrwt beam="1">  1        2 0.16744070E+00 0.13060389E+04</pdfrwt>
<pdfrwt beam="2">  1       -2 0.60278783E-01 0.13060389E+04</pdfrwt>
<totfact> 0.55662335E+01</totfact>
</mgrwt>
</event>
<event>
 4    1  0.1755570E-005  0.1050459E+04  0.7818608E-02  0.9254870E-01
         -2   -1    0    0    0  501 -0.00000000000E+00  0.00000000000E+00  0.24905520295E+03  0.24905520297E+03  0.25500000000E-02 0. -1.
          2   -1    0    0  501    0  0.00000000000E+00 -0.00000000000E+00 -0.11076505244E+04  0.11076505244E+04  0.25500000000E-02 0.  1.
   -5000001    1    1    2    0    0  0.43627383571E+03 -0.11696546683E+03 -0.55418554710E+03  0.75738854017E+03  0.25000000000E+03 0.  0.
    5000001    1    1    2    0    0 -0.43627383571E+03  0.11696546683E+03 -0.30440977433E+03  0.59931718719E+03  0.25000000000E+03 0.  0.
<mgrwt>
<rscale>  0 0.10504592E+04</rscale>
<asrwt>0</asrwt>
<pdfrwt beam="1">  1        2 0.17040777E+00 0.10504592E+04</pdfrwt>
<pdfrwt beam="2">  1       -2 0.38316186E-01 0.10504592E+04</pdfrwt>
<totfact> 0.13789300E+02</totfact>
</mgrwt>
</event>
<event>
 4    1  0.1755570E-005  0.7043731E+03  0.7818608E-02  0.9709783E-01
          2   -1    0    0  501    0  0.00000000000E+00  0.00000000000E+00  0.16167149918E+04  0.16167149918E+04  0.25500000000E-02 0.  1.
         -2   -1    0    0    0  501 -0.00000000000E+00 -0.00000000000E+00 -0.76720621498E+02  0.76720621541E+02  0.25500000000E-02 0. -1.
   -5000001    1    1    2    0    0  0.15323584170E+03  0.14429258927E+03  0.45438302111E+03  0.55970126351E+03  0.25000000000E+03 0.  0.
    5000001    1    1    2    0    0 -0.15323584170E+03 -0.14429258927E+03  0.10856113492E+04  0.11337343498E+04  0.25000000000E+03 0.  0.
<mgrwt>
<rscale>  0 0.70437314E+03</rscale>
<asrwt>0</asrwt>
<pdfrwt beam="1">  1        2 0.24872536E+00 0.70437314E+03</pdfrwt>
<pdfrwt beam="2">  1       -2 0.11803174E-01 0.70437314E+03</pdfrwt>
<totfact> 0.58070229E+02</totfact>
</mgrwt>
</event>
<event>
 4    1  0.1755570E-005  0.9564031E+03  0.7818608E-02  0.9357697E-01
          2   -1    0    0  501    0  0.00000000000E+00  0.00000000000E+00  0.16148954098E+04  0.16148954098E+04  0.25500000000E-02 0.  1.
         -2   -1    0    0    0  501 -0.00000000000E+00 -0.00000000000E+00 -0.14160467823E+03  0.14160467825E+03  0.25500000000E-02 0. -1.
   -5000001    1    1    2    0    0  0.32562290023E+03  0.13983980117E+03  0.11066640625E+04  0.11886087625E+04  0.25000000000E+03 0.  0.
    5000001    1    1    2    0    0 -0.32562290023E+03 -0.13983980117E+03  0.36662666912E+03  0.56789132557E+03  0.25000000000E+03 0.  0.
<mgrwt>
<rscale>  0 0.95640315E+03</rscale>
<asrwt>0</asrwt>
<pdfrwt beam="1">  1        2 0.24844545E+00 0.95640315E+03</pdfrwt>
<pdfrwt beam="2">  1       -2 0.21785335E-01 0.95640315E+03</pdfrwt>
<totfact> 0.20113214E+02</totfact>
</mgrwt>
</event>
<event>
 4    1  0.1755570E-005  0.8893535E+03  0.7818608E-02  0.9438989E-01
          2   -1    0    0  501    0  0.00000000000E+00  0.00000000000E+00  0.15115252904E+04  0.15115252904E+04  0.25500000000E-02 0.  1.
         -2   -1    0    0    0  501 -0.00000000000E+00 -0.00000000000E+00 -0.13081979245E+03  0.13081979248E+03  0.25500000000E-02 0. -1.
   -5000001    1    1    2    0    0  0.12128610302E+03 -0.34615143203E+03  0.64127527977E+03  0.77991353183E+03  0.25000000000E+03 0.  0.
    5000001    1    1    2    0    0 -0.12128610302E+03  0.34615143203E+03  0.73943021815E+03  0.86243155102E+03  0.25000000000E+03 0.  0.
<mgrwt>
<rscale>  0 0.88935353E+03</rscale>
<asrwt>0</asrwt>
<pdfrwt beam="1">  1        2 0.23254237E+00 0.88935353E+03</pdfrwt>
<pdfrwt beam="2">  1       -2 0.20126120E-01 0.88935353E+03</pdfrwt>
<totfact> 0.26521114E+02</totfact>
</mgrwt>
</event>
<event>
 4    1  0.1755570E-005  0.6436569E+03  0.7818608E-02  0.9818755E-01
         -2   -1    0    0    0  501 -0.00000000000E+00  0.00000000000E+00  0.38971983401E+02  0.38971983484E+02  0.25500000000E-02 0. -1.
          2   -1    0    0  501    0  0.00000000000E+00 -0.00000000000E+00 -0.26576412902E+04  0.26576412902E+04  0.25500000000E-02 0.  1.
   -5000001    1    1    2    0    0  0.13793158035E+03 -0.14611079038E+03 -0.14201843442E+04  0.14559522847E+04  0.25000000000E+03 0.  0.
    5000001    1    1    2    0    0 -0.13793158035E+03  0.14611079038E+03 -0.11984849626E+04  0.12406609890E+04  0.25000000000E+03 0.  0.
<mgrwt>
<rscale>  0 0.64365690E+03</rscale>
<asrwt>0</asrwt>
<pdfrwt beam="1">  1        2 0.40886775E+00 0.64365690E+03</pdfrwt>
<pdfrwt beam="2">  1       -2 0.59956918E-02 0.64365690E+03</pdfrwt>
<totfact> 0.46084175E+02</totfact>
</mgrwt>
</event>
<event>
 4    1  0.1755570E-005  0.1638767E+04  0.7818608E-02  0.8797080E-01
          2   -1    0    0  501    0  0.00000000000E+00  0.00000000000E+00  0.25828860307E+04  0.25828860307E+04  0.25500000000E-02 0.  1.
         -2   -1    0    0    0  501 -0.00000000000E+00 -0.00000000000E+00 -0.25993753521E+03  0.25993753522E+03  0.25500000000E-02 0. -1.
   -5000001    1    1    2    0    0 -0.68970903496E+03 -0.75890760669E+02  0.54221792022E+03  0.91540058634E+03  0.25000000000E+03 0.  0.
    5000001    1    1    2    0    0  0.68970903496E+03  0.75890760669E+02  0.17807305752E+04  0.19274229795E+04  0.25000000000E+03 0.  0.
<mgrwt>
<rscale>  0 0.16387666E+04</rscale>
<asrwt>0</asrwt>
<pdfrwt beam="1">  1        2 0.39736709E+00 0.16387666E+04</pdfrwt>
<pdfrwt beam="2">  1       -2 0.39990389E-01 0.16387666E+04</pdfrwt>
<totfact> 0.17661527E+01</totfact>
</mgrwt>
</event>
<event>
 4    1  0.1755570E-005  0.7739215E+03  0.7818608E-02  0.9598551E-01
          2   -1    0    0  501    0  0.00000000000E+00  0.00000000000E+00  0.63633259438E+03  0.63633259439E+03  0.25500000000E-02 0.  1.
         -2   -1    0    0    0  501 -0.00000000000E+00 -0.00000000000E+00 -0.23531500491E+03  0.23531500492E+03  0.25500000000E-02 0. -1.
   -5000001    1    1    2    0    0 -0.25609168970E+03 -0.12731570431E+03  0.11739034428E+03  0.39758362017E+03  0.25000000000E+03 0.  0.
    5000001    1    1    2    0    0  0.25609168970E+03  0.12731570431E+03  0.28362724519E+03  0.47406397914E+03  0.25000000000E+03 0.  0.
<mgrwt>
<rscale>  0 0.77392146E+03</rscale>
<asrwt>0</asrwt>
<pdfrwt beam="1">  1        2 0.97897320E-01 0.77392146E+03</pdfrwt>
<pdfrwt beam="2">  1       -2 0.36202309E-01 0.77392146E+03</pdfrwt>
<totfact> 0.33339150E+02</totfact>
</mgrwt>
</event>
<event>
 4    1  0.1755570E-005  0.7679747E+03  0.7818608E-02  0.9607565E-01
         -2   -1    0    0    0  501 -0.00000000000E+00  0.00000000000E+00  0.28319995811E+03  0.28319995812E+03  0.25500000000E-02 0.  1.
          2   -1    0    0  501    0  0.00000000000E+00 -0.00000000000E+00 -0.52064367715E+03  0.52064367716E+03  0.25500000000E-02 0. -1.
   -5000001    1    1    2    0    0 -0.83006550781E+02 -0.17569583562E+03  0.10864992993E+03  0.33475949785E+03  0.25000000000E+03 0.  0.
    5000001    1    1    2    0    0  0.83006550781E+02  0.17569583562E+03 -0.34609364898E+03  0.46908413743E+03  0.25000000000E+03 0.  0.
<mgrwt>
<rscale>  0 0.76797465E+03</rscale>
<asrwt>0</asrwt>
<pdfrwt beam="1">  1        2 0.80099027E-01 0.76797465E+03</pdfrwt>
<pdfrwt beam="2">  1       -2 0.43569224E-01 0.76797465E+03</pdfrwt>
<totfact> 0.29553302E+02</totfact>
</mgrwt>
</event>
<event>
 4    1  0.1755570E-005  0.9822967E+03  0.7818608E-02  0.9328177E-01
          2   -1    0    0  501    0  0.00000000000E+00  0.00000000000E+00  0.53393643963E+03  0.53393643964E+03  0.25500000000E-02 0.  1.
         -2   -1    0    0    0  501 -0.00000000000E+00 -0.00000000000E+00 -0.45178919510E+03  0.45178919511E+03  0.25500000000E-02 0. -1.
   -5000001    1    1    2    0    0 -0.37789747973E+03 -0.16301292412E+03  0.13809096509E+03  0.50094793468E+03  0.25000000000E+03 0.  0.
    5000001    1    1    2    0    0  0.37789747973E+03  0.16301292412E+03 -0.55943720561E+02  0.48477770007E+03  0.25000000000E+03 0.  0.
<mgrwt>
<rscale>  0 0.98229673E+03</rscale>
<asrwt>0</asrwt>
<pdfrwt beam="1">  1        2 0.82144068E-01 0.98229673E+03</pdfrwt>
<pdfrwt beam="2">  1       -2 0.69506030E-01 0.98229673E+03</pdfrwt>
<totfact> 0.10765317E+02</totfact>
</mgrwt>
</event>
<event>
 4    1  0.1755570E-005  0.7643366E+03  0.7818608E-02  0.9613123E-01
         -2   -1    0    0    0  501 -0.00000000000E+00  0.00000000000E+00  0.45902800228E+02  0.45902800299E+02  0.25500000000E-02 0. -1.
          2   -1    0    0  501    0  0.00000000000E+00 -0.00000000000E+00 -0.31817800406E+04  0.31817800406E+04  0.25500000000E-02 0.  1.
   -5000001    1    1    2    0    0 -0.16682061639E+03 -0.17836167545E+03 -0.22209210628E+04  0.22482509586E+04  0.25000000000E+03 0.  0.
    5000001    1    1    2    0    0  0.16682061639E+03  0.17836167545E+03 -0.91495617749E+03  0.97943188229E+03  0.25000000000E+03 0.  0.
<mgrwt>
<rscale>  0 0.76433661E+03</rscale>
<asrwt>0</asrwt>
<pdfrwt beam="1">  1        2 0.48950445E+00 0.76433661E+03</pdfrwt>
<pdfrwt beam="2">  1       -2 0.70619718E-02 0.76433661E+03</pdfrwt>
<totfact> 0.16967567E+02</totfact>
</mgrwt>
</event>
<event>
 4    1  0.1755570E-005  0.1450227E+04  0.7818608E-02  0.8918243E-01
         -2   -1    0    0    0  501 -0.00000000000E+00  0.00000000000E+00  0.61528420852E+03  0.61528420852E+03  0.25500000000E-02 0.  1.
          2   -1    0    0  501    0  0.00000000000E+00 -0.00000000000E+00 -0.85454760242E+03  0.85454760242E+03  0.25500000000E-02 0. -1.
   -5000001    1    1    2    0    0 -0.38820364976E+03 -0.55666201358E+03 -0.17244149193E+03  0.74351243378E+03  0.25000000000E+03 0.  0.
    5000001    1    1    2    0    0  0.38820364976E+03  0.55666201358E+03 -0.66821901968E+02  0.72631937716E+03  0.25000000000E+03 0.  0.
<mgrwt>
<rscale>  0 0.14502271E+04</rscale>
<asrwt>0</asrwt>
<pdfrwt beam="1">  1        2 0.13146886E+00 0.14502271E+04</pdfrwt>
<pdfrwt beam="2">  1       -2 0.94659109E-01 0.14502271E+04</pdfrwt>
<totfact> 0.28725430E+01</totfact>
</mgrwt>
</event>
<event>
 4    1  0.1755570E-005  0.9846409E+03  0.7818608E-02  0.9325553E-01
         -2   -1    0    0    0  501 -0.00000000000E+00  0.00000000000E+00  0.12291569988E+03  0.12291569991E+03  0.25500000000E-02 0. -1.
          2   -1    0    0  501    0  0.00000000000E+00 -0.00000000000E+00 -0.19719158311E+04  0.19719158311E+04  0.25500000000E-02 0.  1.
   -5000001    1    1    2    0    0 -0.32324663914E+03  0.27346360915E+03 -0.87201140455E+03  0.10010867220E+04  0.25000000000E+03 0.  0.
    5000001    1    1    2    0    0  0.32324663914E+03 -0.27346360915E+03 -0.97698872662E+03  0.10937448090E+04  0.25000000000E+03 0.  0.
<mgrwt>
<rscale>  0 0.98464088E+03</rscale>
<asrwt>0</asrwt>
<pdfrwt beam="1">  1        2 0.30337164E+00 0.98464088E+03</pdfrwt>
<pdfrwt beam="2">  1       -2 0.18910109E-01 0.98464088E+03</pdfrwt>
<totfact> 0.16377623E+02</totfact>
</mgrwt>
</event>
<event>
 4    1  0.1755570E-005  0.1265408E+04  0.7818608E-02  0.9057456E-01
          2   -1    0    0  501    0  0.00000000000E+00  0.00000000000E+00  0.23364426764E+04  0.23364426764E+04  0.25500000000E-02 0.  1.
         -2   -1    0    0    0  501 -0.00000000000E+00 -0.00000000000E+00 -0.17133494652E+03  0.17133494654E+03  0.25500000000E-02 0. -1.
   -5000001    1    1    2    0    0 -0.29000563684E+03 -0.91909555534E+02  0.10108828225E+03  0.40653348768E+03  0.25000000000E+03 0.  0.
    5000001    1    1    2    0    0  0.29000563684E+03  0.91909555534E+02  0.20640194476E+04  0.21012441353E+04  0.25000000000E+03 0.  0.
<mgrwt>
<rscale>  0 0.12654079E+04</rscale>
<asrwt>0</asrwt>
<pdfrwt beam="1">  1        2 0.35945271E+00 0.12654079E+04</pdfrwt>
<pdfrwt beam="2">  1       -2 0.26359223E-01 0.12654079E+04</pdfrwt>
<totfact> 0.55513463E+01</totfact>
</mgrwt>
</event>
<event>
 4    1  0.1755570E-005  0.6205203E+03  0.7818608E-02  0.9863724E-01
          2   -1    0    0  501    0  0.00000000000E+00  0.00000000000E+00  0.81933308817E+03  0.81933308817E+03  0.25500000000E-02 0.  1.
         -2   -1    0    0    0  501 -0.00000000000E+00 -0.00000000000E+00 -0.11748745636E+03  0.11748745639E+03  0.25500000000E-02 0. -1.
   -5000001    1    1    2    0    0  0.10728248522E+03  0.14763437785E+03  0.31868657436E+03  0.44425957934E+03  0.25000000000E+03 0.  0.
    5000001    1    1    2    0    0 -0.10728248522E+03 -0.14763437785E+03  0.38315905745E+03  0.49256096523E+03  0.25000000000E+03 0.  0.
<mgrwt>
<rscale>  0 0.62052030E+03</rscale>
<asrwt>0</asrwt>
<pdfrwt beam="1">  1        2 0.12605125E+00 0.62052030E+03</pdfrwt>
<pdfrwt beam="2">  1       -2 0.18074993E-01 0.62052030E+03</pdfrwt>
<totfact> 0.85430034E+02</totfact>
</mgrwt>
</event>
<event>
 4    1  0.1755570E-005  0.7956256E+03  0.7818608E-02  0.9566371E-01
         -2   -1    0    0    0  501 -0.00000000000E+00  0.00000000000E+00  0.25378841182E+03  0.25378841183E+03  0.25500000000E-02 0. -1.
          2   -1    0    0  501    0  0.00000000000E+00 -0.00000000000E+00 -0.62357071693E+03  0.62357071693E+03  0.25500000000E-02 0.  1.
   -5000001    1    1    2    0    0 -0.16261098423E+03 -0.25074096358E+03 -0.96386211814E+02  0.40137721016E+03  0.25000000000E+03 0.  0.
    5000001    1    1    2    0    0  0.16261098423E+03  0.25074096358E+03 -0.27339609329E+03  0.47598191861E+03  0.25000000000E+03 0.  0.
<mgrwt>
<rscale>  0 0.79562560E+03</rscale>
<asrwt>0</asrwt>
<pdfrwt beam="1">  1        2 0.95933956E-01 0.79562560E+03</pdfrwt>
<pdfrwt beam="2">  1       -2 0.39044371E-01 0.79562560E+03</pdfrwt>
<totfact> 0.29516393E+02</totfact>
</mgrwt>
</event>
<event>
 4    1  0.1755570E-005  0.7741255E+03  0.7818608E-02  0.9598243E-01
         -2   -1    0    0    0  501 -0.00000000000E+00  0.00000000000E+00  0.11851522925E+04  0.11851522925E+04  0.25500000000E-02 0. -1.
          2   -1    0    0  501    0  0.00000000000E+00 -0.00000000000E+00 -0.12641208965E+03  0.12641208968E+03  0.25500000000E-02 0.  1.
   -5000001    1    1    2    0    0  0.12154610414E+03 -0.16766013502E+03  0.17223139347E+03  0.36748745448E+03  0.25000000000E+03 0.  0.
    5000001    1    1    2    0    0 -0.12154610414E+03  0.16766013502E+03  0.88650880939E+03  0.94407692771E+03  0.25000000000E+03 0.  0.
<mgrwt>
<rscale>  0 0.77412551E+03</rscale>
<asrwt>0</asrwt>
<pdfrwt beam="1">  1        2 0.19448014E-01 0.77412551E+03</pdfrwt>
<pdfrwt beam="2">  1       -2 0.18233112E+00 0.77412551E+03</pdfrwt>
<totfact> 0.51988058E+01</totfact>
</mgrwt>
</event>
<event>
 4    1  0.1755570E-005  0.5297332E+03  0.7818608E-02  0.1006297E+00
          2   -1    0    0  501    0  0.00000000000E+00  0.00000000000E+00  0.44690783798E+04  0.44690783798E+04  0.25500000000E-02 0.  1.
         -2   -1    0    0    0  501 -0.00000000000E+00 -0.00000000000E+00 -0.15697716138E+02  0.15697716345E+02  0.25500000000E-02 0. -1.
   -5000001    1    1    2    0    0 -0.29580343537E+01  0.32685760023E+02  0.29132915654E+04  0.29241827668E+04  0.25000000000E+03 0.  0.
    5000001    1    1    2    0    0  0.29580343537E+01 -0.32685760023E+02  0.15400890983E+04  0.15605933293E+04  0.25000000000E+03 0.  0.
<mgrwt>
<rscale>  0 0.52973323E+03</rscale>
<asrwt>0</asrwt>
<pdfrwt beam="1">  1        2 0.68755171E+00 0.52973323E+03</pdfrwt>
<pdfrwt beam="2">  1       -2 0.24150291E-02 0.52973323E+03</pdfrwt>
<totfact> 0.97963284E+01</totfact>
</mgrwt>
</event>
<event>
 4    1  0.1755570E-005  0.6319969E+03  0.7818608E-02  0.9841160E-01
         -2   -1    0    0    0  501 -0.00000000000E+00  0.00000000000E+00  0.72500727867E+02  0.72500727911E+02  0.25500000000E-02 0. -1.
          2   -1    0    0  501    0  0.00000000000E+00 -0.00000000000E+00 -0.13772966581E+04  0.13772966581E+04  0.25500000000E-02 0.  1.
   -5000001    1    1    2    0    0 -0.14070183710E+03  0.11310437579E+03 -0.81075677310E+03  0.86741924806E+03  0.25000000000E+03 0.  0.
    5000001    1    1    2    0    0  0.14070183710E+03 -0.11310437579E+03 -0.49403915715E+03  0.58237813797E+03  0.25000000000E+03 0.  0.
<mgrwt>
<rscale>  0 0.63199687E+03</rscale>
<asrwt>0</asrwt>
<pdfrwt beam="1">  1        2 0.21189177E+00 0.63199687E+03</pdfrwt>
<pdfrwt beam="2">  1       -2 0.11153959E-01 0.63199687E+03</pdfrwt>
<totfact> 0.86886284E+02</totfact>
</mgrwt>
</event>
<event>
 4    1  0.1755570E-005  0.6423608E+03  0.7818608E-02  0.9821220E-01
          2   -1    0    0  501    0  0.00000000000E+00  0.00000000000E+00  0.21770212290E+03  0.21770212291E+03  0.25500000000E-02 0. -1.
         -2   -1    0    0    0  501 -0.00000000000E+00 -0.00000000000E+00 -0.47384398076E+03  0.47384398077E+03  0.25500000000E-02 0.  1.
   -5000001    1    1    2    0    0 -0.16171686944E+03  0.11560556065E+03 -0.16441769648E+03  0.35923553615E+03  0.25000000000E+03 0.  0.
    5000001    1    1    2    0    0  0.16171686944E+03 -0.11560556065E+03 -0.91724161387E+02  0.33231056754E+03  0.25000000000E+03 0.  0.
<mgrwt>
<rscale>  0 0.64236077E+03</rscale>
<asrwt>0</asrwt>
<pdfrwt beam="1">  1        2 0.33492634E-01 0.64236077E+03</pdfrwt>
<pdfrwt beam="2">  1       -2 0.72899074E-01 0.64236077E+03</pdfrwt>
<totfact> 0.27005095E+02</totfact>
</mgrwt>
</event>
<event>
 4    1  0.1755570E-005  0.7118865E+03  0.7818608E-02  0.9697118E-01
         -2   -1    0    0    0  501 -0.00000000000E+00  0.00000000000E+00  0.99698681410E+02  0.99698681443E+02  0.25500000000E-02 0. -1.
          2   -1    0    0  501    0  0.00000000000E+00 -0.00000000000E+00 -0.12707849928E+04  0.12707849928E+04  0.25500000000E-02 0.  1.
   -5000001    1    1    2    0    0  0.19717415042E+03  0.12750177382E+03 -0.76879862592E+03  0.84183470773E+03  0.25000000000E+03 0.  0.
    5000001    1    1    2    0    0 -0.19717415042E+03 -0.12750177382E+03 -0.40228768548E+03  0.52864896653E+03  0.25000000000E+03 0.  0.
<mgrwt>
<rscale>  0 0.71188647E+03</rscale>
<asrwt>0</asrwt>
<pdfrwt beam="1">  1        2 0.19550537E+00 0.71188647E+03</pdfrwt>
<pdfrwt beam="2">  1       -2 0.15338260E-01 0.71188647E+03</pdfrwt>
<totfact> 0.58600109E+02</totfact>
</mgrwt>
</event>
<event>
 4    1  0.1755570E-005  0.1368054E+04  0.7818608E-02  0.8977273E-01
         -2   -1    0    0    0  501 -0.00000000000E+00  0.00000000000E+00  0.53015739688E+03  0.53015739689E+03  0.25500000000E-02 0. -1.
          2   -1    0    0  501    0  0.00000000000E+00 -0.00000000000E+00 -0.88255436595E+03  0.88255436596E+03  0.25500000000E-02 0.  1.
   -5000001    1    1    2    0    0  0.48021394243E+03  0.17890772431E+02 -0.60752616857E+03  0.81394935698E+03  0.25000000000E+03 0.  0.
    5000001    1    1    2    0    0 -0.48021394243E+03 -0.17890772431E+02  0.25512919949E+03  0.59876240586E+03  0.25000000000E+03 0.  0.
<mgrwt>
<rscale>  0 0.13680537E+04</rscale>
<asrwt>0</asrwt>
<pdfrwt beam="1">  1        2 0.13577759E+00 0.13680537E+04</pdfrwt>
<pdfrwt beam="2">  1       -2 0.81562677E-01 0.13680537E+04</pdfrwt>
<totfact> 0.38914272E+01</totfact>
</mgrwt>
</event>
<event>
 4    1  0.1755570E-005  0.6994471E+03  0.7818608E-02  0.9718178E-01
          2   -1    0    0  501    0  0.00000000000E+00  0.00000000000E+00  0.10483784670E+04  0.10483784670E+04  0.25500000000E-02 0.  1.
         -2   -1    0    0    0  501 -0.00000000000E+00 -0.00000000000E+00 -0.11666260851E+03  0.11666260854E+03  0.25500000000E-02 0. -1.
   -5000001    1    1    2    0    0 -0.13440969238E+03  0.20360881465E+03  0.43778516464E+03  0.56006996455E+03  0.25000000000E+03 0.  0.
    5000001    1    1    2    0    0  0.13440969238E+03 -0.20360881465E+03  0.49393069388E+03  0.60497111102E+03  0.25000000000E+03 0.  0.
<mgrwt>
<rscale>  0 0.69944712E+03</rscale>
<asrwt>0</asrwt>
<pdfrwt beam="1">  1        2 0.16128900E+00 0.69944712E+03</pdfrwt>
<pdfrwt beam="2">  1       -2 0.17948093E-01 0.69944712E+03</pdfrwt>
<totfact> 0.60921944E+02</totfact>
</mgrwt>
</event>
<event>
 4    1  0.1755570E-005  0.8871740E+03  0.7818608E-02  0.9441758E-01
          2   -1    0    0  501    0  0.00000000000E+00  0.00000000000E+00  0.26823802398E+04  0.26823802398E+04  0.25500000000E-02 0.  1.
         -2   -1    0    0    0  501 -0.00000000000E+00 -0.00000000000E+00 -0.73356279590E+02  0.73356279635E+02  0.25500000000E-02 0. -1.
   -5000001    1    1    2    0    0 -0.16577620111E+02  0.31928253176E+03  0.74839631197E+03  0.85135961400E+03  0.25000000000E+03 0.  0.
    5000001    1    1    2    0    0  0.16577620111E+02 -0.31928253176E+03  0.18606276482E+04  0.19043769054E+04  0.25000000000E+03 0.  0.
<mgrwt>
<rscale>  0 0.88717402E+03</rscale>
<asrwt>0</asrwt>
<pdfrwt beam="1">  1        2 0.41267389E+00 0.88717402E+03</pdfrwt>
<pdfrwt beam="2">  1       -2 0.11285581E-01 0.88717402E+03</pdfrwt>
<totfact> 0.15768901E+02</totfact>
</mgrwt>
</event>
<event>
 4    1  0.1755570E-005  0.7247820E+03  0.7818608E-02  0.9675766E-01
          2   -1    0    0  501    0  0.00000000000E+00  0.00000000000E+00  0.87730804188E+03  0.87730804188E+03  0.25500000000E-02 0.  1.
         -2   -1    0    0    0  501 -0.00000000000E+00 -0.00000000000E+00 -0.14969342852E+03  0.14969342854E+03  0.25500000000E-02 0. -1.
   -5000001    1    1    2    0    0  0.24510521106E+03 -0.85232412818E+02  0.41843219783E+03  0.55220162338E+03  0.25000000000E+03 0.  0.
    5000001    1    1    2    0    0 -0.24510521106E+03  0.85232412818E+02  0.30918241553E+03  0.47479984705E+03  0.25000000000E+03 0.  0.
<mgrwt>
<rscale>  0 0.72478203E+03</rscale>
<asrwt>0</asrwt>
<pdfrwt beam="1">  1        2 0.13497047E+00 0.72478203E+03</pdfrwt>
<pdfrwt beam="2">  1       -2 0.23029758E-01 0.72478203E+03</pdfrwt>
<totfact> 0.50791245E+02</totfact>
</mgrwt>
</event>
<event>
 4    1  0.1755570E-005  0.6308838E+03  0.7818608E-02  0.9843326E-01
          2   -1    0    0  501    0  0.00000000000E+00  0.00000000000E+00  0.11916690048E+04  0.11916690048E+04  0.25500000000E-02 0.  1.
         -2   -1    0    0    0  501 -0.00000000000E+00 -0.00000000000E+00 -0.83499365641E+02  0.83499365680E+02  0.25500000000E-02 0. -1.
   -5000001    1    1    2    0    0  0.18739276809E+02  0.19143057487E+03  0.54882163366E+03  0.63301027721E+03  0.25000000000E+03 0.  0.
    5000001    1    1    2    0    0 -0.18739276809E+02 -0.19143057487E+03  0.55934800551E+03  0.64215809327E+03  0.25000000000E+03 0.  0.
<mgrwt>
<rscale>  0 0.63088384E+03</rscale>
<asrwt>0</asrwt>
<pdfrwt beam="1">  1        2 0.18333368E+00 0.63088384E+03</pdfrwt>
<pdfrwt beam="2">  1       -2 0.12846057E-01 0.63088384E+03</pdfrwt>
<totfact> 0.88051965E+02</totfact>
</mgrwt>
</event>
<event>
 4    1  0.1755570E-005  0.8736509E+03  0.7818608E-02  0.9459132E-01
         -2   -1    0    0    0  501 -0.00000000000E+00  0.00000000000E+00  0.26746858132E+03  0.26746858134E+03  0.25500000000E-02 0. -1.
          2   -1    0    0  501    0  0.00000000000E+00 -0.00000000000E+00 -0.71341636833E+03  0.71341636833E+03  0.25500000000E-02 0.  1.
   -5000001    1    1    2    0    0 -0.32057550446E+03  0.15912968797E+03 -0.20611209982E+03  0.48277645897E+03  0.25000000000E+03 0.  0.
    5000001    1    1    2    0    0  0.32057550446E+03 -0.15912968797E+03 -0.23983568719E+03  0.49810849069E+03  0.25000000000E+03 0.  0.
<mgrwt>
<rscale>  0 0.87365088E+03</rscale>
<asrwt>0</asrwt>
<pdfrwt beam="1">  1        2 0.10975636E+00 0.87365088E+03</pdfrwt>
<pdfrwt beam="2">  1       -2 0.41149013E-01 0.87365088E+03</pdfrwt>
<totfact> 0.22451940E+02</totfact>
</mgrwt>
</event>
<event>
 4    1  0.1755570E-005  0.1097089E+04  0.7818608E-02  0.9208034E-01
          2   -1    0    0  501    0  0.00000000000E+00  0.00000000000E+00  0.16217919869E+04  0.16217919869E+04  0.25500000000E-02 0.  1.
         -2   -1    0    0    0  501 -0.00000000000E+00 -0.00000000000E+00 -0.18553604996E+03  0.18553604998E+03  0.25500000000E-02 0. -1.
   -5000001    1    1    2    0    0  0.34772307108E+03  0.22852392210E+02  0.12815418185E+04  0.13514003843E+04  0.25000000000E+03 0.  0.
    5000001    1    1    2    0    0 -0.34772307108E+03 -0.22852392210E+02  0.15471411844E+03  0.45592765264E+03  0.25000000000E+03 0.  0.
<mgrwt>
<rscale>  0 0.10970887E+04</rscale>
<asrwt>0</asrwt>
<pdfrwt beam="1">  1        2 0.24950646E+00 0.10970887E+04</pdfrwt>
<pdfrwt beam="2">  1       -2 0.28544008E-01 0.10970887E+04</pdfrwt>
<totfact> 0.12108061E+02</totfact>
</mgrwt>
</event>
<event>
 4    1  0.1755570E-005  0.5918129E+03  0.7818608E-02  0.9922539E-01
         -2   -1    0    0    0  501 -0.00000000000E+00  0.00000000000E+00  0.72161497126E+02  0.72161497171E+02  0.25500000000E-02 0. -1.
          2   -1    0    0  501    0  0.00000000000E+00 -0.00000000000E+00 -0.12133983529E+04  0.12133983529E+04  0.25500000000E-02 0.  1.
   -5000001    1    1    2    0    0 -0.14994232970E+03  0.50537146201E+02 -0.55999077717E+03  0.63334538437E+03  0.25000000000E+03 0.  0.
    5000001    1    1    2    0    0  0.14994232970E+03 -0.50537146201E+02 -0.58124607857E+03  0.65221446567E+03  0.25000000000E+03 0.  0.
<mgrwt>
<rscale>  0 0.59181295E+03</rscale>
<asrwt>0</asrwt>
<pdfrwt beam="1">  1        2 0.18667666E+00 0.59181295E+03</pdfrwt>
<pdfrwt beam="2">  1       -2 0.11101770E-01 0.59181295E+03</pdfrwt>
<totfact> 0.10888721E+03</totfact>
</mgrwt>
</event>
<event>
 4    1  0.1755570E-005  0.7240697E+03  0.7818608E-02  0.9676933E-01
          2   -1    0    0  501    0  0.00000000000E+00  0.00000000000E+00  0.77604131623E+03  0.77604131623E+03  0.25500000000E-02 0.  1.
         -2   -1    0    0    0  501 -0.00000000000E+00 -0.00000000000E+00 -0.16889466750E+03  0.16889466752E+03  0.25500000000E-02 0. -1.
   -5000001    1    1    2    0    0  0.55571366769E+02  0.23908947558E+03  0.42259137076E+03  0.54894027068E+03  0.25000000000E+03 0.  0.
    5000001    1    1    2    0    0 -0.55571366769E+02 -0.23908947558E+03  0.18455527797E+03  0.39599571306E+03  0.25000000000E+03 0.  0.
<mgrwt>
<rscale>  0 0.72406972E+03</rscale>
<asrwt>0</asrwt>
<pdfrwt beam="1">  1        2 0.11939097E+00 0.72406972E+03</pdfrwt>
<pdfrwt beam="2">  1       -2 0.25983795E-01 0.72406972E+03</pdfrwt>
<totfact> 0.48196947E+02</totfact>
</mgrwt>
</event>
<event>
 4    1  0.1755570E-005  0.7388376E+03  0.7818608E-02  0.9653027E-01
          2   -1    0    0  501    0  0.00000000000E+00  0.00000000000E+00  0.93519771485E+03  0.93519771486E+03  0.25500000000E-02 0.  1.
         -2   -1    0    0    0  501 -0.00000000000E+00 -0.00000000000E+00 -0.14592662304E+03  0.14592662306E+03  0.25500000000E-02 0. -1.
   -5000001    1    1    2    0    0  0.12087570380E+03  0.10209419628E+03  0.70936611973E+02  0.30424687936E+03  0.25000000000E+03 0.  0.
    5000001    1    1    2    0    0 -0.12087570380E+03 -0.10209419628E+03  0.71833447984E+03  0.77687745856E+03  0.25000000000E+03 0.  0.
<mgrwt>
<rscale>  0 0.73883759E+03</rscale>
<asrwt>0</asrwt>
<pdfrwt beam="1">  1        2 0.14387658E+00 0.73883759E+03</pdfrwt>
<pdfrwt beam="2">  1       -2 0.22450249E-01 0.73883759E+03</pdfrwt>
<totfact> 0.48581543E+02</totfact>
</mgrwt>
</event>
<event>
 4    1  0.1755570E-005  0.1047818E+04  0.7818608E-02  0.9257600E-01
         -2   -1    0    0    0  501 -0.00000000000E+00  0.00000000000E+00  0.71949612757E+03  0.71949612757E+03  0.25500000000E-02 0. -1.
          2   -1    0    0  501    0  0.00000000000E+00 -0.00000000000E+00 -0.38148991185E+03  0.38148991186E+03  0.25500000000E-02 0.  1.
   -5000001    1    1    2    0    0  0.45803523949E+03  0.54469749155E+01  0.21777569240E+03  0.56546635829E+03  0.25000000000E+03 0.  0.
    5000001    1    1    2    0    0 -0.45803523949E+03 -0.54469749155E+01  0.12023052332E+03  0.53551968114E+03  0.25000000000E+03 0.  0.
<mgrwt>
<rscale>  0 0.10478178E+04</rscale>
<asrwt>0</asrwt>
<pdfrwt beam="1">  1        2 0.58690756E-01 0.10478178E+04</pdfrwt>
<pdfrwt beam="2">  1       -2 0.11069171E+00 0.10478178E+04</pdfrwt>
<totfact> 0.54051329E+01</totfact>
</mgrwt>
</event>
<event>
 4    1  0.1755570E-005  0.8923037E+03  0.7818608E-02  0.9435254E-01
         -2   -1    0    0    0  501 -0.00000000000E+00  0.00000000000E+00  0.90609585140E+02  0.90609585176E+02  0.25500000000E-02 0. -1.
          2   -1    0    0  501    0  0.00000000000E+00 -0.00000000000E+00 -0.21968038833E+04  0.21968038833E+04  0.25500000000E-02 0.  1.
   -5000001    1    1    2    0    0  0.73325054317E+02 -0.31277057742E+03 -0.58495626882E+03  0.71265407746E+03  0.25000000000E+03 0.  0.
    5000001    1    1    2    0    0 -0.73325054317E+02  0.31277057742E+03 -0.15212380294E+04  0.15747593911E+04  0.25000000000E+03 0.  0.
<mgrwt>
<rscale>  0 0.89230373E+03</rscale>
<asrwt>0</asrwt>
<pdfrwt beam="1">  1        2 0.33796979E+00 0.89230373E+03</pdfrwt>
<pdfrwt beam="2">  1       -2 0.13939938E-01 0.89230373E+03</pdfrwt>
<totfact> 0.20895756E+02</totfact>
</mgrwt>
</event>
<event>
 4    1  0.1755570E-005  0.6444017E+03  0.7818608E-02  0.9817341E-01
          2   -1    0    0  501    0  0.00000000000E+00  0.00000000000E+00  0.92617053739E+03  0.92617053740E+03  0.25500000000E-02 0.  1.
         -2   -1    0    0    0  501 -0.00000000000E+00 -0.00000000000E+00 -0.11208885261E+03  0.11208885264E+03  0.25500000000E-02 0. -1.
   -5000001    1    1    2    0    0  0.10592255138E+03  0.12326367085E+03  0.60371190714E+03  0.67333616141E+03  0.25000000000E+03 0.  0.
    5000001    1    1    2    0    0 -0.10592255138E+03 -0.12326367085E+03  0.21036977765E+03  0.36492322862E+03  0.25000000000E+03 0.  0.
<mgrwt>
<rscale>  0 0.64440172E+03</rscale>
<asrwt>0</asrwt>
<pdfrwt beam="1">  1        2 0.14248777E+00 0.64440172E+03</pdfrwt>
<pdfrwt beam="2">  1       -2 0.17244439E-01 0.64440172E+03</pdfrwt>
<totfact> 0.78284036E+02</totfact>
</mgrwt>
</event>
<event>
 4    1  0.1755570E-005  0.5782783E+03  0.7818608E-02  0.9951525E-01
          2   -1    0    0  501    0  0.00000000000E+00  0.00000000000E+00  0.22482285201E+03  0.22482285203E+03  0.25500000000E-02 0.  1.
         -2   -1    0    0    0  501 -0.00000000000E+00 -0.00000000000E+00 -0.37185476505E+03  0.37185476506E+03  0.25500000000E-02 0. -1.
   -5000001    1    1    2    0    0  0.13200372988E+03 -0.83525632306E+01 -0.11549339495E+02  0.28306913865E+03  0.25000000000E+03 0.  0.
    5000001    1    1    2    0    0 -0.13200372988E+03  0.83525632306E+01 -0.13548257354E+03  0.31360847844E+03  0.25000000000E+03 0.  0.
<mgrwt>
<rscale>  0 0.57827830E+03</rscale>
<asrwt>0</asrwt>
<pdfrwt beam="1">  1        2 0.34588131E-01 0.57827830E+03</pdfrwt>
<pdfrwt beam="2">  1       -2 0.57208425E-01 0.57827830E+03</pdfrwt>
<totfact> 0.43802328E+02</totfact>
</mgrwt>
</event>
<event>
 4    1  0.1755570E-005  0.1033765E+04  0.7818608E-02  0.9272268E-01
         -2   -1    0    0    0  501 -0.00000000000E+00  0.00000000000E+00  0.73831723636E+03  0.73831723636E+03  0.25500000000E-02 0. -1.
          2   -1    0    0  501    0  0.00000000000E+00 -0.00000000000E+00 -0.36186023186E+03  0.36186023187E+03  0.25500000000E-02 0.  1.
   -5000001    1    1    2    0    0  0.21326881756E+03 -0.33758453712E+03  0.41454157523E+03  0.62752818729E+03  0.25000000000E+03 0.  0.
    5000001    1    1    2    0    0 -0.21326881756E+03  0.33758453712E+03 -0.38084570733E+02  0.47264928094E+03  0.25000000000E+03 0.  0.
<mgrwt>
<rscale>  0 0.10337652E+04</rscale>
<asrwt>0</asrwt>
<pdfrwt beam="1">  1        2 0.55670805E-01 0.10337652E+04</pdfrwt>
<pdfrwt beam="2">  1       -2 0.11358727E+00 0.10337652E+04</pdfrwt>
<totfact> 0.53903042E+01</totfact>
</mgrwt>
</event>
<event>
 4    1  0.1755570E-005  0.1023547E+04  0.7818608E-02  0.9283089E-01
          2   -1    0    0  501    0  0.00000000000E+00  0.00000000000E+00  0.22253830975E+04  0.22253830975E+04  0.25500000000E-02 0.  1.
         -2   -1    0    0    0  501 -0.00000000000E+00 -0.00000000000E+00 -0.11769302484E+03  0.11769302487E+03  0.25500000000E-02 0. -1.
   -5000001    1    1    2    0    0  0.18384160723E+03  0.39183860759E+03  0.80227711874E+03  0.94524272343E+03  0.25000000000E+03 0.  0.
    5000001    1    1    2    0    0 -0.18384160723E+03 -0.39183860759E+03  0.13054129539E+04  0.13978333989E+04  0.25000000000E+03 0.  0.
<mgrwt>
<rscale>  0 0.10235469E+04</rscale>
<asrwt>0</asrwt>
<pdfrwt beam="1">  1        2 0.34236661E+00 0.10235469E+04</pdfrwt>
<pdfrwt beam="2">  1       -2 0.18106620E-01 0.10235469E+04</pdfrwt>
<totfact> 0.12752218E+02</totfact>
</mgrwt>
</event>
<event>
 4    1  0.1755570E-005  0.8149006E+03  0.7818608E-02  0.9538696E-01
         -2   -1    0    0    0  501 -0.00000000000E+00  0.00000000000E+00  0.16276892800E+03  0.16276892802E+03  0.25500000000E-02 0. -1.
          2   -1    0    0  501    0  0.00000000000E+00 -0.00000000000E+00 -0.10199473256E+04  0.10199473256E+04  0.25500000000E-02 0.  1.
   -5000001    1    1    2    0    0  0.25463949530E+03  0.70360200985E+02 -0.16205996071E+03  0.39818998144E+03  0.25000000000E+03 0.  0.
    5000001    1    1    2    0    0 -0.25463949530E+03 -0.70360200985E+02 -0.69511843692E+03  0.78452627222E+03  0.25000000000E+03 0.  0.
<mgrwt>
<rscale>  0 0.81490057E+03</rscale>
<asrwt>0</asrwt>
<pdfrwt beam="1">  1        2 0.15691497E+00 0.81490057E+03</pdfrwt>
<pdfrwt beam="2">  1       -2 0.25041374E-01 0.81490057E+03</pdfrwt>
<totfact> 0.35103462E+02</totfact>
</mgrwt>
</event>
<event>
 4    1  0.1755570E-005  0.6988351E+03  0.7818608E-02  0.9719226E-01
          2   -1    0    0  501    0  0.00000000000E+00  0.00000000000E+00  0.26375103810E+04  0.26375103810E+04  0.25500000000E-02 0.  1.
         -2   -1    0    0    0  501 -0.00000000000E+00 -0.00000000000E+00 -0.46290855292E+02  0.46290855362E+02  0.25500000000E-02 0. -1.
   -5000001    1    1    2    0    0 -0.17881383773E+03 -0.14982741050E+03  0.15717436278E+04  0.16085088353E+04  0.25000000000E+03 0.  0.
    5000001    1    1    2    0    0  0.17881383773E+03  0.14982741050E+03  0.10194758979E+04  0.10752924011E+04  0.25000000000E+03 0.  0.
<mgrwt>
<rscale>  0 0.69883506E+03</rscale>
<asrwt>0</asrwt>
<pdfrwt beam="1">  1        2 0.40577098E+00 0.69883506E+03</pdfrwt>
<pdfrwt beam="2">  1       -2 0.71216674E-02 0.69883506E+03</pdfrwt>
<totfact> 0.35882780E+02</totfact>
</mgrwt>
</event>
<event>
 4    1  0.1755570E-005  0.6239384E+03  0.7818608E-02  0.9856950E-01
         -2   -1    0    0    0  501 -0.00000000000E+00  0.00000000000E+00  0.96425419845E+03  0.96425419845E+03  0.25500000000E-02 0. -1.
          2   -1    0    0  501    0  0.00000000000E+00 -0.00000000000E+00 -0.10093268959E+03  0.10093268962E+03  0.25500000000E-02 0.  1.
   -5000001    1    1    2    0    0  0.17392423540E+03 -0.38703270669E+02  0.33695833795E+03  0.45583824360E+03  0.25000000000E+03 0.  0.
    5000001    1    1    2    0    0 -0.17392423540E+03  0.38703270669E+02  0.52636317091E+03  0.60934864447E+03  0.25000000000E+03 0.  0.
<mgrwt>
<rscale>  0 0.62393836E+03</rscale>
<asrwt>0</asrwt>
<pdfrwt beam="1">  1        2 0.15528106E-01 0.62393836E+03</pdfrwt>
<pdfrwt beam="2">  1       -2 0.14834680E+00 0.62393836E+03</pdfrwt>
<totfact> 0.12050767E+02</totfact>
</mgrwt>
</event>
<event>
 4    1  0.1755570E-005  0.8138216E+03  0.7818608E-02  0.9540224E-01
          2   -1    0    0  501    0  0.00000000000E+00  0.00000000000E+00  0.20604452997E+03  0.20604452998E+03  0.25500000000E-02 0.  1.
         -2   -1    0    0    0  501 -0.00000000000E+00 -0.00000000000E+00 -0.80359520128E+03  0.80359520128E+03  0.25500000000E-02 0. -1.
   -5000001    1    1    2    0    0  0.41579131105E+02 -0.18939405071E+03  0.18680381788E+02  0.31693514676E+03  0.25000000000E+03 0.  0.
    5000001    1    1    2    0    0 -0.41579131105E+02  0.18939405071E+03 -0.61623105310E+03  0.69270458450E+03  0.25000000000E+03 0.  0.
<mgrwt>
<rscale>  0 0.81382159E+03</rscale>
<asrwt>0</asrwt>
<pdfrwt beam="1">  1        2 0.31699159E-01 0.81382159E+03</pdfrwt>
<pdfrwt beam="2">  1       -2 0.12363003E+00 0.81382159E+03</pdfrwt>
<totfact> 0.82982371E+01</totfact>
</mgrwt>
</event>
<event>
 4    1  0.1755570E-005  0.6850312E+03  0.7818608E-02  0.9743179E-01
          2   -1    0    0  501    0  0.00000000000E+00  0.00000000000E+00  0.13666209681E+04  0.13666209681E+04  0.25500000000E-02 0.  1.
         -2   -1    0    0    0  501 -0.00000000000E+00 -0.00000000000E+00 -0.85844543439E+02  0.85844543477E+02  0.25500000000E-02 0. -1.
   -5000001    1    1    2    0    0 -0.81722276900E+02  0.21684966427E+03  0.71117689976E+03  0.78865384687E+03  0.25000000000E+03 0.  0.
    5000001    1    1    2    0    0  0.81722276900E+02 -0.21684966427E+03  0.56959952492E+03  0.66381166473E+03  0.25000000000E+03 0.  0.
<mgrwt>
<rscale>  0 0.68503125E+03</rscale>
<asrwt>0</asrwt>
<pdfrwt beam="1">  1        2 0.21024938E+00 0.68503125E+03</pdfrwt>
<pdfrwt beam="2">  1       -2 0.13206853E-01 0.68503125E+03</pdfrwt>
<totfact> 0.66483907E+02</totfact>
</mgrwt>
</event>
<event>
 4    1  0.1755570E-005  0.9986593E+03  0.7818608E-02  0.9310016E-01
         -2   -1    0    0    0  501 -0.00000000000E+00  0.00000000000E+00  0.25521966418E+03  0.25521966420E+03  0.25500000000E-02 0. -1.
          2   -1    0    0  501    0  0.00000000000E+00 -0.00000000000E+00 -0.97692357625E+03  0.97692357625E+03  0.25500000000E-02 0.  1.
   -5000001    1    1    2    0    0  0.23943798703E+03 -0.35385510630E+03 -0.28007712386E+03  0.56875933504E+03  0.25000000000E+03 0.  0.
    5000001    1    1    2    0    0 -0.23943798703E+03  0.35385510630E+03 -0.44162678821E+03  0.66338390541E+03  0.25000000000E+03 0.  0.
<mgrwt>
<rscale>  0 0.99865932E+03</rscale>
<asrwt>0</asrwt>
<pdfrwt beam="1">  1        2 0.15029593E+00 0.99865932E+03</pdfrwt>
<pdfrwt beam="2">  1       -2 0.39264564E-01 0.99865932E+03</pdfrwt>
<totfact> 0.15949037E+02</totfact>
</mgrwt>
</event>
<event>
 4    1  0.1755570E-005  0.8375371E+03  0.7818608E-02  0.9507219E-01
         -2   -1    0    0    0  501 -0.00000000000E+00  0.00000000000E+00  0.10963570197E+03  0.10963570200E+03  0.25500000000E-02 0. -1.
          2   -1    0    0  501    0  0.00000000000E+00 -0.00000000000E+00 -0.15995437224E+04  0.15995437224E+04  0.25500000000E-02 0.  1.
   -5000001    1    1    2    0    0  0.10810768429E+03 -0.29998293220E+03 -0.96082782279E+03  0.10427689754E+04  0.25000000000E+03 0.  0.
    5000001    1    1    2    0    0 -0.10810768429E+03  0.29998293220E+03 -0.52908019763E+03  0.66641044900E+03  0.25000000000E+03 0.  0.
<mgrwt>
<rscale>  0 0.83753710E+03</rscale>
<asrwt>0</asrwt>
<pdfrwt beam="1">  1        2 0.24608363E+00 0.83753710E+03</pdfrwt>
<pdfrwt beam="2">  1       -2 0.16867032E-01 0.83753710E+03</pdfrwt>
<totfact> 0.32299260E+02</totfact>
</mgrwt>
</event>
<event>
 4    1  0.1755570E-005  0.6187399E+03  0.7818608E-02  0.9867272E-01
          2   -1    0    0  501    0  0.00000000000E+00  0.00000000000E+00  0.33281057730E+03  0.33281057731E+03  0.25500000000E-02 0.  1.
         -2   -1    0    0    0  501 -0.00000000000E+00 -0.00000000000E+00 -0.28758027110E+03  0.28758027111E+03  0.25500000000E-02 0. -1.
   -5000001    1    1    2    0    0 -0.71081556215E+02  0.15251650843E+03 -0.47542136253E+02  0.30508052658E+03  0.25000000000E+03 0.  0.
    5000001    1    1    2    0    0  0.71081556215E+02 -0.15251650843E+03  0.92772442457E+02  0.31531032184E+03  0.25000000000E+03 0.  0.
<mgrwt>
<rscale>  0 0.61873987E+03</rscale>
<asrwt>0</asrwt>
<pdfrwt beam="1">  1        2 0.51201627E-01 0.61873987E+03</pdfrwt>
<pdfrwt beam="2">  1       -2 0.44243119E-01 0.61873987E+03</pdfrwt>
<totfact> 0.47770291E+02</totfact>
</mgrwt>
</event>
<event>
 4    1  0.1755570E-005  0.8593220E+03  0.7818608E-02  0.9477910E-01
          2   -1    0    0  501    0  0.00000000000E+00  0.00000000000E+00  0.20679595071E+03  0.20679595072E+03  0.25500000000E-02 0.  1.
         -2   -1    0    0    0  501 -0.00000000000E+00 -0.00000000000E+00 -0.89270880990E+03  0.89270880991E+03  0.25500000000E-02 0. -1.
   -5000001    1    1    2    0    0  0.17241183991E+03  0.30356947420E+03 -0.32362370535E+03  0.53769189214E+03  0.25000000000E+03 0.  0.
    5000001    1    1    2    0    0 -0.17241183991E+03 -0.30356947420E+03 -0.36228915385E+03  0.56181286849E+03  0.25000000000E+03 0.  0.
<mgrwt>
<rscale>  0 0.85932198E+03</rscale>
<asrwt>0</asrwt>
<pdfrwt beam="1">  1        2 0.31814762E-01 0.85932198E+03</pdfrwt>
<pdfrwt beam="2">  1       -2 0.13733982E+00 0.85932198E+03</pdfrwt>
<totfact> 0.63171335E+01</totfact>
</mgrwt>
</event>
<event>
 4    1  0.1755570E-005  0.7130036E+03  0.7818608E-02  0.9695249E-01
          2   -1    0    0  501    0  0.00000000000E+00  0.00000000000E+00  0.51157917472E+03  0.51157917473E+03  0.25500000000E-02 0.  1.
         -2   -1    0    0    0  501 -0.00000000000E+00 -0.00000000000E+00 -0.24843374878E+03  0.24843374880E+03  0.25500000000E-02 0. -1.
   -5000001    1    1    2    0    0 -0.11342392412E+03  0.22723284397E+03  0.14189521384E+03  0.38358050479E+03  0.25000000000E+03 0.  0.
    5000001    1    1    2    0    0  0.11342392412E+03 -0.22723284397E+03  0.12125021210E+03  0.37643241874E+03  0.25000000000E+03 0.  0.
<mgrwt>
<rscale>  0 0.71300360E+03</rscale>
<asrwt>0</asrwt>
<pdfrwt beam="1">  1        2 0.78704487E-01 0.71300360E+03</pdfrwt>
<pdfrwt beam="2">  1       -2 0.38220577E-01 0.71300360E+03</pdfrwt>
<totfact> 0.39045777E+02</totfact>
</mgrwt>
</event>
<event>
 4    1  0.1755570E-005  0.8800482E+03  0.7818608E-02  0.9450872E-01
          2   -1    0    0  501    0  0.00000000000E+00  0.00000000000E+00  0.38217613533E+03  0.38217613534E+03  0.25500000000E-02 0.  1.
         -2   -1    0    0    0  501 -0.00000000000E+00 -0.00000000000E+00 -0.50662823670E+03  0.50662823671E+03  0.25500000000E-02 0. -1.
   -5000001    1    1    2    0    0 -0.35959611435E+03  0.22542102188E+02 -0.25759879814E+02  0.43929612249E+03  0.25000000000E+03 0.  0.
    5000001    1    1    2    0    0  0.35959611435E+03 -0.22542102188E+02 -0.98692221554E+02  0.44950824956E+03  0.25000000000E+03 0.  0.
<mgrwt>
<rscale>  0 0.88004823E+03</rscale>
<asrwt>0</asrwt>
<pdfrwt beam="1">  1        2 0.58796329E-01 0.88004823E+03</pdfrwt>
<pdfrwt beam="2">  1       -2 0.77942806E-01 0.88004823E+03</pdfrwt>
<totfact> 0.12327815E+02</totfact>
</mgrwt>
</event>
<event>
 4    1  0.1755570E-005  0.1022332E+04  0.7818608E-02  0.9284385E-01
          2   -1    0    0  501    0  0.00000000000E+00  0.00000000000E+00  0.14481484444E+04  0.14481484444E+04  0.25500000000E-02 0.  1.
         -2   -1    0    0    0  501 -0.00000000000E+00 -0.00000000000E+00 -0.18043079597E+03  0.18043079598E+03  0.25500000000E-02 0. -1.
   -5000001    1    1    2    0    0 -0.35040407854E+03 -0.27369941521E+03  0.68660119195E+03  0.85534530158E+03  0.25000000000E+03 0.  0.
    5000001    1    1    2    0    0  0.35040407854E+03  0.27369941521E+03  0.58111645652E+03  0.77323393885E+03  0.25000000000E+03 0.  0.
<mgrwt>
<rscale>  0 0.10223318E+04</rscale>
<asrwt>0</asrwt>
<pdfrwt beam="1">  1        2 0.22279206E+00 0.10223318E+04</pdfrwt>
<pdfrwt beam="2">  1       -2 0.27758585E-01 0.10223318E+04</pdfrwt>
<totfact> 0.16027676E+02</totfact>
</mgrwt>
</event>
<event>
 4    1  0.1755570E-005  0.9760129E+03  0.7818608E-02  0.9335252E-01
         -2   -1    0    0    0  501 -0.00000000000E+00  0.00000000000E+00  0.28866059765E+03  0.28866059766E+03  0.25500000000E-02 0.  1.
          2   -1    0    0  501    0  0.00000000000E+00 -0.00000000000E+00 -0.82501829883E+03  0.82501829883E+03  0.25500000000E-02 0. -1.
   -5000001    1    1    2    0    0 -0.88999462237E+02 -0.40741141953E+03 -0.31584831405E+03  0.57979748751E+03  0.25000000000E+03 0.  0.
    5000001    1    1    2    0    0  0.88999462237E+02  0.40741141953E+03 -0.22050938713E+03  0.53388140898E+03  0.25000000000E+03 0.  0.
<mgrwt>
<rscale>  0 0.97601286E+03</rscale>
<asrwt>0</asrwt>
<pdfrwt beam="1">  1        2 0.12692589E+00 0.97601286E+03</pdfrwt>
<pdfrwt beam="2">  1       -2 0.44409323E-01 0.97601286E+03</pdfrwt>
<totfact> 0.15880469E+02</totfact>
</mgrwt>
</event>
<event>
 4    1  0.1755570E-005  0.6809019E+03  0.7818608E-02  0.9750462E-01
          2   -1    0    0  501    0  0.00000000000E+00  0.00000000000E+00  0.18875660513E+04  0.18875660513E+04  0.25500000000E-02 0.  1.
         -2   -1    0    0    0  501 -0.00000000000E+00 -0.00000000000E+00 -0.61405462219E+02  0.61405462272E+02  0.25500000000E-02 0. -1.
   -5000001    1    1    2    0    0 -0.17990941120E+03  0.11186522771E+03  0.11773725408E+04  0.12221241039E+04  0.25000000000E+03 0.  0.
    5000001    1    1    2    0    0  0.17990941120E+03 -0.11186522771E+03  0.64878804822E+03  0.72684740965E+03  0.25000000000E+03 0.  0.
<mgrwt>
<rscale>  0 0.68090195E+03</rscale>
<asrwt>0</asrwt>
<pdfrwt beam="1">  1        2 0.29039480E+00 0.68090195E+03</pdfrwt>
<pdfrwt beam="2">  1       -2 0.94469934E-02 0.68090195E+03</pdfrwt>
<totfact> 0.59555192E+02</totfact>
</mgrwt>
</event>
<event>
 4    1  0.1755570E-005  0.8540449E+03  0.7818608E-02  0.9484924E-01
         -2   -1    0    0    0  501 -0.00000000000E+00  0.00000000000E+00  0.10515767974E+04  0.10515767974E+04  0.25500000000E-02 0. -1.
          2   -1    0    0  501    0  0.00000000000E+00 -0.00000000000E+00 -0.17340452761E+03  0.17340452763E+03  0.25500000000E-02 0.  1.
   -5000001    1    1    2    0    0  0.68531571122E+02 -0.32347775111E+03  0.58615728913E+03  0.71792395092E+03  0.25000000000E+03 0.  0.
    5000001    1    1    2    0    0 -0.68531571122E+02  0.32347775111E+03  0.29201498064E+03  0.50705737409E+03  0.25000000000E+03 0.  0.
<mgrwt>
<rscale>  0 0.85404491E+03</rscale>
<asrwt>0</asrwt>
<pdfrwt beam="1">  1        2 0.26677620E-01 0.85404491E+03</pdfrwt>
<pdfrwt beam="2">  1       -2 0.16178104E+00 0.85404491E+03</pdfrwt>
<totfact> 0.50024084E+01</totfact>
</mgrwt>
</event>
<event>
 4    1  0.1755570E-005  0.8624340E+03  0.7818608E-02  0.9473799E-01
          2   -1    0    0  501    0  0.00000000000E+00  0.00000000000E+00  0.41550160657E+03  0.41550160658E+03  0.25500000000E-02 0. -1.
         -2   -1    0    0    0  501 -0.00000000000E+00 -0.00000000000E+00 -0.44752675715E+03  0.44752675716E+03  0.25500000000E-02 0.  1.
   -5000001    1    1    2    0    0  0.34129663681E+03  0.83443892115E+02 -0.17358550327E+02  0.43156412814E+03  0.25000000000E+03 0.  0.
    5000001    1    1    2    0    0 -0.34129663681E+03 -0.83443892115E+02 -0.14666600258E+02  0.43146423559E+03  0.25000000000E+03 0.  0.
<mgrwt>
<rscale>  0 0.86243397E+03</rscale>
<asrwt>0</asrwt>
<pdfrwt beam="1">  1        2 0.63923324E-01 0.86243397E+03</pdfrwt>
<pdfrwt beam="2">  1       -2 0.68850270E-01 0.86243397E+03</pdfrwt>
<totfact> 0.14762450E+02</totfact>
</mgrwt>
</event>
<event>
 4    1  0.1755570E-005  0.6490040E+03  0.7818608E-02  0.9808650E-01
         -2   -1    0    0    0  501 -0.00000000000E+00  0.00000000000E+00  0.85740990570E+02  0.85740990608E+02  0.25500000000E-02 0. -1.
          2   -1    0    0  501    0  0.00000000000E+00 -0.00000000000E+00 -0.12281353391E+04  0.12281353391E+04  0.25500000000E-02 0.  1.
   -5000001    1    1    2    0    0 -0.83247871033E+02 -0.16490661390E+03 -0.75977710120E+03  0.82090537996E+03  0.25000000000E+03 0.  0.
    5000001    1    1    2    0    0  0.83247871033E+02  0.16490661390E+03 -0.38261724730E+03  0.49297094972E+03  0.25000000000E+03 0.  0.
<mgrwt>
<rscale>  0 0.64900398E+03</rscale>
<asrwt>0</asrwt>
<pdfrwt beam="1">  1        2 0.18894389E+00 0.64900398E+03</pdfrwt>
<pdfrwt beam="2">  1       -2 0.13190923E-01 0.64900398E+03</pdfrwt>
<totfact> 0.80149985E+02</totfact>
</mgrwt>
</event>
<event>
 4    1  0.1755570E-005  0.8972676E+03  0.7818608E-02  0.9429004E-01
          2   -1    0    0  501    0  0.00000000000E+00  0.00000000000E+00  0.12705287430E+04  0.12705287430E+04  0.25500000000E-02 0. -1.
         -2   -1    0    0    0  501 -0.00000000000E+00 -0.00000000000E+00 -0.15841614564E+03  0.15841614566E+03  0.25500000000E-02 0.  1.
   -5000001    1    1    2    0    0 -0.27435604202E+03  0.13865310804E+03  0.22095246768E+03  0.45366938968E+03  0.25000000000E+03 0.  0.
    5000001    1    1    2    0    0  0.27435604202E+03 -0.13865310804E+03  0.89116012967E+03  0.97527549896E+03  0.25000000000E+03 0.  0.
<mgrwt>
<rscale>  0 0.89726756E+03</rscale>
<asrwt>0</asrwt>
<pdfrwt beam="1">  1        2 0.19546596E+00 0.89726756E+03</pdfrwt>
<pdfrwt beam="2">  1       -2 0.24371715E-01 0.89726756E+03</pdfrwt>
<totfact> 0.25878231E+02</totfact>
</mgrwt>
</event>
<event>
 4    1  0.1755570E-005  0.8476694E+03  0.7818608E-02  0.9493470E-01
         -2   -1    0    0    0  501 -0.00000000000E+00  0.00000000000E+00  0.26661950156E+03  0.26661950158E+03  0.25500000000E-02 0. -1.
          2   -1    0    0  501    0  0.00000000000E+00 -0.00000000000E+00 -0.67375359644E+03  0.67375359644E+03  0.25500000000E-02 0.  1.
   -5000001    1    1    2    0    0 -0.19448144566E+03 -0.22487085344E+03 -0.15478755648E+02  0.38875381067E+03  0.25000000000E+03 0.  0.
    5000001    1    1    2    0    0  0.19448144566E+03  0.22487085344E+03 -0.39165533923E+03  0.55161928735E+03  0.25000000000E+03 0.  0.
<mgrwt>
<rscale>  0 0.84766939E+03</rscale>
<asrwt>0</asrwt>
<pdfrwt beam="1">  1        2 0.10365440E+00 0.84766939E+03</pdfrwt>
<pdfrwt beam="2">  1       -2 0.41018385E-01 0.84766939E+03</pdfrwt>
<totfact> 0.24311727E+02</totfact>
</mgrwt>
</event>
<event>
 4    1  0.1755570E-005  0.6276046E+03  0.7818608E-02  0.9849734E-01
          2   -1    0    0  501    0  0.00000000000E+00  0.00000000000E+00  0.40551132491E+03  0.40551132492E+03  0.25500000000E-02 0.  1.
         -2   -1    0    0    0  501 -0.00000000000E+00 -0.00000000000E+00 -0.24283384767E+03  0.24283384768E+03  0.25500000000E-02 0. -1.
   -5000001    1    1    2    0    0  0.61835479336E+02  0.15190518657E+03 -0.17061725550E+02  0.29948274523E+03  0.25000000000E+03 0.  0.
    5000001    1    1    2    0    0 -0.61835479336E+02 -0.15190518657E+03  0.17973920279E+03  0.34886242737E+03  0.25000000000E+03 0.  0.
<mgrwt>
<rscale>  0 0.62760457E+03</rscale>
<asrwt>0</asrwt>
<pdfrwt beam="1">  1        2 0.62386357E-01 0.62760457E+03</pdfrwt>
<pdfrwt beam="2">  1       -2 0.37359054E-01 0.62760457E+03</pdfrwt>
<totfact> 0.53295688E+02</totfact>
</mgrwt>
</event>
<event>
 4    1  0.1755570E-005  0.5627392E+03  0.7818608E-02  0.9985876E-01
         -2   -1    0    0    0  501 -0.00000000000E+00  0.00000000000E+00  0.58253739919E+03  0.58253739919E+03  0.25500000000E-02 0. -1.
          2   -1    0    0  501    0  0.00000000000E+00 -0.00000000000E+00 -0.13590347062E+03  0.13590347064E+03  0.25500000000E-02 0.  1.
   -5000001    1    1    2    0    0  0.97703505389E+02  0.13789913360E+02  0.32961753855E+03  0.42530443026E+03  0.25000000000E+03 0.  0.
    5000001    1    1    2    0    0 -0.97703505389E+02 -0.13789913360E+02  0.11701639002E+03  0.29313643958E+03  0.25000000000E+03 0.  0.
<mgrwt>
<rscale>  0 0.56273921E+03</rscale>
<asrwt>0</asrwt>
<pdfrwt beam="1">  1        2 0.20908226E-01 0.56273921E+03</pdfrwt>
<pdfrwt beam="2">  1       -2 0.89621139E-01 0.56273921E+03</pdfrwt>
<totfact> 0.29113062E+02</totfact>
</mgrwt>
</event>
<event>
 4    1  0.1755570E-005  0.7307166E+03  0.7818608E-02  0.9666098E-01
         -2   -1    0    0    0  501 -0.00000000000E+00  0.00000000000E+00  0.64368621625E+02  0.64368621676E+02  0.25500000000E-02 0. -1.
          2   -1    0    0  501    0  0.00000000000E+00 -0.00000000000E+00 -0.20737853199E+04  0.20737853199E+04  0.25500000000E-02 0.  1.
   -5000001    1    1    2    0    0  0.15698459962E+03  0.15085278934E+03 -0.14540915984E+04  0.14914030660E+04  0.25000000000E+03 0.  0.
    5000001    1    1    2    0    0 -0.15698459962E+03 -0.15085278934E+03 -0.55532509982E+03  0.64675087558E+03  0.25000000000E+03 0.  0.
<mgrwt>
<rscale>  0 0.73071664E+03</rscale>
<asrwt>0</asrwt>
<pdfrwt beam="1">  1        2 0.31904384E+00 0.73071664E+03</pdfrwt>
<pdfrwt beam="2">  1       -2 0.99028665E-02 0.73071664E+03</pdfrwt>
<totfact> 0.43526519E+02</totfact>
</mgrwt>
</event>
<event>
 4    1  0.1755570E-005  0.6713580E+03  0.7818608E-02  0.9767508E-01
         -2   -1    0    0    0  501 -0.00000000000E+00  0.00000000000E+00  0.17629190889E+03  0.17629190891E+03  0.25500000000E-02 0.  1.
          2   -1    0    0  501    0  0.00000000000E+00 -0.00000000000E+00 -0.63916935482E+03  0.63916935482E+03  0.25500000000E-02 0. -1.
   -5000001    1    1    2    0    0  0.73824327351E+02 -0.20417120906E+03 -0.16441861042E+03  0.36968823807E+03  0.25000000000E+03 0.  0.
    5000001    1    1    2    0    0 -0.73824327351E+02  0.20417120906E+03 -0.29845883550E+03  0.44577302566E+03  0.25000000000E+03 0.  0.
<mgrwt>
<rscale>  0 0.67135798E+03</rscale>
<asrwt>0</asrwt>
<pdfrwt beam="1">  1        2 0.98333746E-01 0.67135798E+03</pdfrwt>
<pdfrwt beam="2">  1       -2 0.27121832E-01 0.67135798E+03</pdfrwt>
<totfact> 0.57057892E+02</totfact>
</mgrwt>
</event>
<event>
 4    1  0.1755570E-005  0.5325094E+03  0.7818608E-02  0.1005625E+00
          2   -1    0    0  501    0  0.00000000000E+00  0.00000000000E+00  0.21650397599E+04  0.21650397599E+04  0.25500000000E-02 0.  1.
         -2   -1    0    0    0  501 -0.00000000000E+00 -0.00000000000E+00 -0.32743765229E+02  0.32743765328E+02  0.25500000000E-02 0. -1.
   -5000001    1    1    2    0    0 -0.40721968577E+01 -0.91421534317E+02  0.10490940361E+04  0.10823459596E+04  0.25000000000E+03 0.  0.
    5000001    1    1    2    0    0  0.40721968577E+01  0.91421534317E+02  0.10832019586E+04  0.11154375657E+04  0.25000000000E+03 0.  0.
<mgrwt>
<rscale>  0 0.53250936E+03</rscale>
<asrwt>0</asrwt>
<pdfrwt beam="1">  1        2 0.33308310E+00 0.53250936E+03</pdfrwt>
<pdfrwt beam="2">  1       -2 0.50375015E-02 0.53250936E+03</pdfrwt>
<totfact> 0.11491128E+03</totfact>
</mgrwt>
</event>
<event>
 4    1  0.1755570E-005  0.5931833E+03  0.7818608E-02  0.9919650E-01
         -2   -1    0    0    0  501 -0.00000000000E+00  0.00000000000E+00  0.34353200966E+02  0.34353201060E+02  0.25500000000E-02 0. -1.
          2   -1    0    0  501    0  0.00000000000E+00 -0.00000000000E+00 -0.25606523900E+04  0.25606523900E+04  0.25500000000E-02 0.  1.
   -5000001    1    1    2    0    0 -0.12854229528E+03 -0.34496818161E+02 -0.87794008940E+03  0.92249225076E+03  0.25000000000E+03 0.  0.
    5000001    1    1    2    0    0  0.12854229528E+03  0.34496818161E+02 -0.16483590996E+04  0.16725133403E+04  0.25000000000E+03 0.  0.
<mgrwt>
<rscale>  0 0.59318330E+03</rscale>
<asrwt>0</asrwt>
<pdfrwt beam="1">  1        2 0.39394637E+00 0.59318330E+03</pdfrwt>
<pdfrwt beam="2">  1       -2 0.52851098E-02 0.59318330E+03</pdfrwt>
<totfact> 0.64061909E+02</totfact>
</mgrwt>
</event>
<event>
 4    1  0.1755570E-005  0.6203962E+03  0.7818608E-02  0.9863971E-01
          2   -1    0    0  501    0  0.00000000000E+00  0.00000000000E+00  0.12211485922E+03  0.12211485925E+03  0.25500000000E-02 0.  1.
         -2   -1    0    0    0  501 -0.00000000000E+00 -0.00000000000E+00 -0.78797000901E+03  0.78797000901E+03  0.25500000000E-02 0. -1.
   -5000001    1    1    2    0    0  0.10707923997E+03  0.61479866251E+02 -0.53232971237E+03  0.60093315789E+03  0.25000000000E+03 0.  0.
    5000001    1    1    2    0    0 -0.10707923997E+03 -0.61479866251E+02 -0.13352543742E+03  0.30915171037E+03  0.25000000000E+03 0.  0.
<mgrwt>
<rscale>  0 0.62039615E+03</rscale>
<asrwt>0</asrwt>
<pdfrwt beam="1">  1        2 0.18786902E-01 0.62039615E+03</pdfrwt>
<pdfrwt beam="2">  1       -2 0.12122615E+00 0.62039615E+03</pdfrwt>
<totfact> 0.16049777E+02</totfact>
</mgrwt>
</event>
<event>
 4    1  0.1755570E-005  0.8651960E+03  0.7818608E-02  0.9470165E-01
         -2   -1    0    0    0  501 -0.00000000000E+00  0.00000000000E+00  0.21556253630E+03  0.21556253632E+03  0.25500000000E-02 0. -1.
          2   -1    0    0  501    0  0.00000000000E+00 -0.00000000000E+00 -0.86815181962E+03  0.86815181962E+03  0.25500000000E-02 0.  1.
   -5000001    1    1    2    0    0 -0.29718882938E+03 -0.50845420783E+02 -0.96236389655E+02  0.40332108774E+03  0.25000000000E+03 0.  0.
    5000001    1    1    2    0    0  0.29718882938E+03  0.50845420783E+02 -0.55635289366E+03  0.68039326820E+03  0.25000000000E+03 0.  0.
<mgrwt>
<rscale>  0 0.86519595E+03</rscale>
<asrwt>0</asrwt>
<pdfrwt beam="1">  1        2 0.13356182E+00 0.86519595E+03</pdfrwt>
<pdfrwt beam="2">  1       -2 0.33163468E-01 0.86519595E+03</pdfrwt>
<totfact> 0.26247076E+02</totfact>
</mgrwt>
</event>
<event>
 4    1  0.1755570E-005  0.9411619E+03  0.7818608E-02  0.9375541E-01
         -2   -1    0    0    0  501 -0.00000000000E+00  0.00000000000E+00  0.34256655468E+03  0.34256655469E+03  0.25500000000E-02 0. -1.
          2   -1    0    0  501    0  0.00000000000E+00 -0.00000000000E+00 -0.64643333263E+03  0.64643333264E+03  0.25500000000E-02 0.  1.
   -5000001    1    1    2    0    0  0.31709035908E+03 -0.21181224030E+03 -0.29676721202E+02  0.45693700741E+03  0.25000000000E+03 0.  0.
    5000001    1    1    2    0    0 -0.31709035908E+03  0.21181224030E+03 -0.27419005675E+03  0.53206287991E+03  0.25000000000E+03 0.  0.
<mgrwt>
<rscale>  0 0.94116192E+03</rscale>
<asrwt>0</asrwt>
<pdfrwt beam="1">  1        2 0.99451282E-01 0.94116192E+03</pdfrwt>
<pdfrwt beam="2">  1       -2 0.52702547E-01 0.94116192E+03</pdfrwt>
<totfact> 0.15400599E+02</totfact>
</mgrwt>
</event>
<event>
 4    1  0.1755570E-005  0.7369094E+03  0.7818608E-02  0.9656114E-01
          2   -1    0    0  501    0  0.00000000000E+00  0.00000000000E+00  0.14598717104E+04  0.14598717104E+04  0.25500000000E-02 0.  1.
         -2   -1    0    0    0  501 -0.00000000000E+00 -0.00000000000E+00 -0.92993698377E+02  0.92993698412E+02  0.25500000000E-02 0. -1.
   -5000001    1    1    2    0    0 -0.91072242358E+02 -0.19082088779E+03  0.32736622242E+03  0.46300692017E+03  0.25000000000E+03 0.  0.
    5000001    1    1    2    0    0  0.91072242358E+02  0.19082088779E+03  0.10395117896E+04  0.10898584887E+04  0.25000000000E+03 0.  0.
<mgrwt>
<rscale>  0 0.73690941E+03</rscale>
<asrwt>0</asrwt>
<pdfrwt beam="1">  1        2 0.22459562E+00 0.73690941E+03</pdfrwt>
<pdfrwt beam="2">  1       -2 0.14306724E-01 0.73690941E+03</pdfrwt>
<totfact> 0.51389899E+02</totfact>
</mgrwt>
</event>
<event>
 4    1  0.1755570E-005  0.1006894E+04  0.7818608E-02  0.9301015E-01
          2   -1    0    0  501    0  0.00000000000E+00  0.00000000000E+00  0.16414322851E+04  0.16414322851E+04  0.25500000000E-02 0.  1.
         -2   -1    0    0    0  501 -0.00000000000E+00 -0.00000000000E+00 -0.15441333182E+03  0.15441333184E+03  0.25500000000E-02 0. -1.
   -5000001    1    1    2    0    0  0.70745905206E+01 -0.38343932142E+03  0.36988563002E+03  0.58855003385E+03  0.25000000000E+03 0.  0.
    5000001    1    1    2    0    0 -0.70745905206E+01  0.38343932142E+03  0.11171333233E+04  0.12072955831E+04  0.25000000000E+03 0.  0.
<mgrwt>
<rscale>  0 0.10068943E+04</rscale>
<asrwt>0</asrwt>
<pdfrwt beam="1">  1        2 0.25252805E+00 0.10068943E+04</pdfrwt>
<pdfrwt beam="2">  1       -2 0.23755897E-01 0.10068943E+04</pdfrwt>
<totfact> 0.16601332E+02</totfact>
</mgrwt>
</event>
<event>
 4    1  0.1755570E-005  0.9272530E+03  0.7818608E-02  0.9392141E-01
          2   -1    0    0  501    0  0.00000000000E+00  0.00000000000E+00  0.23739264396E+04  0.23739264396E+04  0.25500000000E-02 0.  1.
         -2   -1    0    0    0  501 -0.00000000000E+00 -0.00000000000E+00 -0.90545998060E+02  0.90545998095E+02  0.25500000000E-02 0. -1.
   -5000001    1    1    2    0    0  0.14047506542E+03  0.14773806569E+02  0.17423600677E+03  0.33587154601E+03  0.25000000000E+03 0.  0.
    5000001    1    1    2    0    0 -0.14047506542E+03 -0.14773806569E+02  0.21091444348E+04  0.21286008917E+04  0.25000000000E+03 0.  0.
<mgrwt>
<rscale>  0 0.92725302E+03</rscale>
<asrwt>0</asrwt>
<pdfrwt beam="1">  1        2 0.36521944E+00 0.92725302E+03</pdfrwt>
<pdfrwt beam="2">  1       -2 0.13930154E-01 0.92725302E+03</pdfrwt>
<totfact> 0.16614045E+02</totfact>
</mgrwt>
</event>
<event>
 4    1  0.1755570E-005  0.6612068E+03  0.7818608E-02  0.9785975E-01
          2   -1    0    0  501    0  0.00000000000E+00  0.00000000000E+00  0.16043077623E+04  0.16043077623E+04  0.25500000000E-02 0.  1.
         -2   -1    0    0    0  501 -0.00000000000E+00 -0.00000000000E+00 -0.68128203267E+02  0.68128203315E+02  0.25500000000E-02 0. -1.
   -5000001    1    1    2    0    0 -0.66315062216E+02  0.12445653561E+03  0.35315383923E+03  0.45508762991E+03  0.25000000000E+03 0.  0.
    5000001    1    1    2    0    0  0.66315062216E+02 -0.12445653561E+03  0.11830257198E+04  0.12173483357E+04  0.25000000000E+03 0.  0.
<mgrwt>
<rscale>  0 0.66120679E+03</rscale>
<asrwt>0</asrwt>
<pdfrwt beam="1">  1        2 0.24681659E+00 0.66120679E+03</pdfrwt>
<pdfrwt beam="2">  1       -2 0.10481262E-01 0.66120679E+03</pdfrwt>
<totfact> 0.71850661E+02</totfact>
</mgrwt>
</event>
<event>
 4    1  0.1755570E-005  0.9055019E+03  0.7818608E-02  0.9418730E-01
         -2   -1    0    0    0  501 -0.00000000000E+00  0.00000000000E+00  0.23031566339E+03  0.23031566340E+03  0.25500000000E-02 0. -1.
          2   -1    0    0  501    0  0.00000000000E+00 -0.00000000000E+00 -0.89001080586E+03  0.89001080587E+03  0.25500000000E-02 0.  1.
   -5000001    1    1    2    0    0  0.10472064692E+03  0.27788202226E+03 -0.41544327831E+02  0.39039821127E+03  0.25000000000E+03 0.  0.
    5000001    1    1    2    0    0 -0.10472064692E+03 -0.27788202226E+03 -0.61815081464E+03  0.72992825800E+03  0.25000000000E+03 0.  0.
<mgrwt>
<rscale>  0 0.90550191E+03</rscale>
<asrwt>0</asrwt>
<pdfrwt beam="1">  1        2 0.13692474E+00 0.90550191E+03</pdfrwt>
<pdfrwt beam="2">  1       -2 0.35433179E-01 0.90550191E+03</pdfrwt>
<totfact> 0.22317194E+02</totfact>
</mgrwt>
</event>
<event>
 4    1  0.1755570E-005  0.6869987E+03  0.7818608E-02  0.9739728E-01
          2   -1    0    0  501    0  0.00000000000E+00  0.00000000000E+00  0.65501109523E+03  0.65501109523E+03  0.25500000000E-02 0. -1.
         -2   -1    0    0    0  501 -0.00000000000E+00 -0.00000000000E+00 -0.18013710271E+03  0.18013710273E+03  0.25500000000E-02 0.  1.
   -5000001    1    1    2    0    0  0.22058106747E+03 -0.48701973869E+02  0.15621654113E+03  0.37139129945E+03  0.25000000000E+03 0.  0.
    5000001    1    1    2    0    0 -0.22058106747E+03  0.48701973869E+02  0.31865745139E+03  0.46375689851E+03  0.25000000000E+03 0.  0.
<mgrwt>
<rscale>  0 0.68699869E+03</rscale>
<asrwt>0</asrwt>
<pdfrwt beam="1">  1        2 0.10077094E+00 0.68699869E+03</pdfrwt>
<pdfrwt beam="2">  1       -2 0.27713400E-01 0.68699869E+03</pdfrwt>
<totfact> 0.53204809E+02</totfact>
</mgrwt>
</event>
<event>
 4    1  0.1755570E-005  0.8195753E+03  0.7818608E-02  0.9532107E-01
         -2   -1    0    0    0  501 -0.00000000000E+00  0.00000000000E+00  0.12950008595E+03  0.12950008597E+03  0.25500000000E-02 0.  1.
          2   -1    0    0  501    0  0.00000000000E+00 -0.00000000000E+00 -0.12967244184E+04  0.12967244184E+04  0.25500000000E-02 0. -1.
   -5000001    1    1    2    0    0  0.25784560853E+03  0.17970115258E+03 -0.72551112314E+03  0.82924257722E+03  0.25000000000E+03 0.  0.
    5000001    1    1    2    0    0 -0.25784560853E+03 -0.17970115258E+03 -0.44171320932E+03  0.59698192717E+03  0.25000000000E+03 0.  0.
<mgrwt>
<rscale>  0 0.81957531E+03</rscale>
<asrwt>0</asrwt>
<pdfrwt beam="1">  1        2 0.19949606E+00 0.81957531E+03</pdfrwt>
<pdfrwt beam="2">  1       -2 0.19923091E-01 0.81957531E+03</pdfrwt>
<totfact> 0.35891945E+02</totfact>
</mgrwt>
</event>
<event>
 4    1  0.1755570E-005  0.1157157E+04  0.7818608E-02  0.9151207E-01
         -2   -1    0    0    0  501 -0.00000000000E+00  0.00000000000E+00  0.34368220309E+03  0.34368220310E+03  0.25500000000E-02 0. -1.
          2   -1    0    0  501    0  0.00000000000E+00 -0.00000000000E+00 -0.97401845555E+03  0.97401845555E+03  0.25500000000E-02 0.  1.
   -5000001    1    1    2    0    0  0.44679714879E+03 -0.20642021877E+03 -0.11788057386E+03  0.56447571124E+03  0.25000000000E+03 0.  0.
    5000001    1    1    2    0    0 -0.44679714879E+03  0.20642021877E+03 -0.51245567859E+03  0.75322494741E+03  0.25000000000E+03 0.  0.
<mgrwt>
<rscale>  0 0.11571565E+04</rscale>
<asrwt>0</asrwt>
<pdfrwt beam="1">  1        2 0.14984899E+00 0.11571565E+04</pdfrwt>
<pdfrwt beam="2">  1       -2 0.52874185E-01 0.11571565E+04</pdfrwt>
<totfact> 0.87397850E+01</totfact>
</mgrwt>
</event>
<event>
 4    1  0.1755570E-005  0.7935491E+03  0.7818608E-02  0.9569402E-01
         -2   -1    0    0    0  501 -0.00000000000E+00  0.00000000000E+00  0.13828451562E+03  0.13828451564E+03  0.25500000000E-02 0. -1.
          2   -1    0    0  501    0  0.00000000000E+00 -0.00000000000E+00 -0.11384502476E+04  0.11384502476E+04  0.25500000000E-02 0.  1.
   -5000001    1    1    2    0    0 -0.11512461080E+03 -0.26463472726E+03 -0.32646540981E+03  0.50235931233E+03  0.25000000000E+03 0.  0.
    5000001    1    1    2    0    0  0.11512461080E+03  0.26463472726E+03 -0.67370032217E+03  0.77437545091E+03  0.25000000000E+03 0.  0.
<mgrwt>
<rscale>  0 0.79354909E+03</rscale>
<asrwt>0</asrwt>
<pdfrwt beam="1">  1        2 0.17514619E+00 0.79354909E+03</pdfrwt>
<pdfrwt beam="2">  1       -2 0.21274542E-01 0.79354909E+03</pdfrwt>
<totfact> 0.39712310E+02</totfact>
</mgrwt>
</event>
<event>
 4    1  0.1755570E-005  0.7661532E+03  0.7818608E-02  0.9610344E-01
         -2   -1    0    0    0  501 -0.00000000000E+00  0.00000000000E+00  0.13107118605E+03  0.13107118607E+03  0.25500000000E-02 0. -1.
          2   -1    0    0  501    0  0.00000000000E+00 -0.00000000000E+00 -0.11196028269E+04  0.11196028269E+04  0.25500000000E-02 0.  1.
   -5000001    1    1    2    0    0 -0.25737602883E+03 -0.11662691153E+03 -0.38594217458E+03  0.53971809200E+03  0.25000000000E+03 0.  0.
    5000001    1    1    2    0    0  0.25737602883E+03  0.11662691153E+03 -0.60258946629E+03  0.71095592099E+03  0.25000000000E+03 0.  0.
<mgrwt>
<rscale>  0 0.76615317E+03</rscale>
<asrwt>0</asrwt>
<pdfrwt beam="1">  1        2 0.17224658E+00 0.76615317E+03</pdfrwt>
<pdfrwt beam="2">  1       -2 0.20164799E-01 0.76615317E+03</pdfrwt>
<totfact> 0.44856830E+02</totfact>
</mgrwt>
</event>
<event>
 4    1  0.1755570E-005  0.6515421E+03  0.7818608E-02  0.9803890E-01
          2   -1    0    0  501    0  0.00000000000E+00  0.00000000000E+00  0.93690976468E+03  0.93690976468E+03  0.25500000000E-02 0.  1.
         -2   -1    0    0    0  501 -0.00000000000E+00 -0.00000000000E+00 -0.11327320803E+03  0.11327320806E+03  0.25500000000E-02 0. -1.
   -5000001    1    1    2    0    0 -0.20824554024E+03  0.10563984300E+02  0.39214509343E+03  0.50966221863E+03  0.25000000000E+03 0.  0.
    5000001    1    1    2    0    0  0.20824554024E+03 -0.10563984300E+02  0.43149146322E+03  0.54052075411E+03  0.25000000000E+03 0.  0.
<mgrwt>
<rscale>  0 0.65154209E+03</rscale>
<asrwt>0</asrwt>
<pdfrwt beam="1">  1        2 0.14413996E+00 0.65154209E+03</pdfrwt>
<pdfrwt beam="2">  1       -2 0.17426647E-01 0.65154209E+03</pdfrwt>
<totfact> 0.75629441E+02</totfact>
</mgrwt>
</event>
<event>
 4    1  0.1755570E-005  0.5478220E+03  0.7818608E-02  0.1001999E+00
         -2   -1    0    0    0  501 -0.00000000000E+00  0.00000000000E+00  0.45300830650E+02  0.45300830722E+02  0.25500000000E-02 0. -1.
          2   -1    0    0  501    0  0.00000000000E+00 -0.00000000000E+00 -0.16562002848E+04  0.16562002848E+04  0.25500000000E-02 0.  1.
   -5000001    1    1    2    0    0 -0.53838338400E+02 -0.63448373931E+02 -0.57296068130E+03  0.63064110646E+03  0.25000000000E+03 0.  0.
    5000001    1    1    2    0    0  0.53838338400E+02  0.63448373931E+02 -0.10379387729E+04  0.10708600091E+04  0.25000000000E+03 0.  0.
<mgrwt>
<rscale>  0 0.54782205E+03</rscale>
<asrwt>0</asrwt>
<pdfrwt beam="1">  1        2 0.25480000E+00 0.54782205E+03</pdfrwt>
<pdfrwt beam="2">  1       -2 0.69693598E-02 0.54782205E+03</pdfrwt>
<totfact> 0.13022656E+03</totfact>
</mgrwt>
</event>
<event>
 4    1  0.1755570E-005  0.5661651E+03  0.7818608E-02  0.9978201E-01
         -2   -1    0    0    0  501 -0.00000000000E+00  0.00000000000E+00  0.67441977601E+02  0.67441977650E+02  0.25500000000E-02 0. -1.
          2   -1    0    0  501    0  0.00000000000E+00 -0.00000000000E+00 -0.11882174453E+04  0.11882174453E+04  0.25500000000E-02 0.  1.
   -5000001    1    1    2    0    0  0.12143788844E+03 -0.33440101880E+02 -0.65370376542E+03  0.71112165913E+03  0.25000000000E+03 0.  0.
    5000001    1    1    2    0    0 -0.12143788844E+03  0.33440101880E+02 -0.46707170232E+03  0.54453776386E+03  0.25000000000E+03 0.  0.
<mgrwt>
<rscale>  0 0.56616512E+03</rscale>
<asrwt>0</asrwt>
<pdfrwt beam="1">  1        2 0.18280267E+00 0.56616512E+03</pdfrwt>
<pdfrwt beam="2">  1       -2 0.10375690E-01 0.56616512E+03</pdfrwt>
<totfact> 0.12588377E+03</totfact>
</mgrwt>
</event>
<event>
 4    1  0.1755570E-005  0.5484195E+03  0.7818608E-02  0.1001860E+00
         -2   -1    0    0    0  501 -0.00000000000E+00  0.00000000000E+00  0.11356482596E+03  0.11356482599E+03  0.25500000000E-02 0. -1.
          2   -1    0    0  501    0  0.00000000000E+00 -0.00000000000E+00 -0.66209751518E+03  0.66209751519E+03  0.25500000000E-02 0.  1.
   -5000001    1    1    2    0    0  0.98850135332E+02 -0.53699143953E+02 -0.26577526504E+03  0.38182645118E+03  0.25000000000E+03 0.  0.
    5000001    1    1    2    0    0 -0.98850135332E+02  0.53699143953E+02 -0.28275742419E+03  0.39383589000E+03  0.25000000000E+03 0.  0.
<mgrwt>
<rscale>  0 0.54841951E+03</rscale>
<asrwt>0</asrwt>
<pdfrwt beam="1">  1        2 0.10186115E+00 0.54841951E+03</pdfrwt>
<pdfrwt beam="2">  1       -2 0.17471512E-01 0.54841951E+03</pdfrwt>
<totfact> 0.11897962E+03</totfact>
</mgrwt>
</event>
<event>
 4    1  0.1755570E-005  0.9860746E+03  0.7818608E-02  0.9323951E-01
          2   -1    0    0  501    0  0.00000000000E+00  0.00000000000E+00  0.16471143593E+04  0.16471143593E+04  0.25500000000E-02 0.  1.
         -2   -1    0    0    0  501 -0.00000000000E+00 -0.00000000000E+00 -0.14758281449E+03  0.14758281451E+03  0.25500000000E-02 0. -1.
   -5000001    1    1    2    0    0 -0.11969609923E+03  0.39316422748E+03  0.94646935036E+03  0.10617012278E+04  0.25000000000E+03 0.  0.
    5000001    1    1    2    0    0  0.11969609923E+03 -0.39316422748E+03  0.55306219447E+03  0.73299594603E+03  0.25000000000E+03 0.  0.
<mgrwt>
<rscale>  0 0.98607459E+03</rscale>
<asrwt>0</asrwt>
<pdfrwt beam="1">  1        2 0.25340221E+00 0.98607459E+03</pdfrwt>
<pdfrwt beam="2">  1       -2 0.22705049E-01 0.98607459E+03</pdfrwt>
<totfact> 0.17898034E+02</totfact>
</mgrwt>
</event>
<event>
 4    1  0.1755570E-005  0.2447364E+04  0.7818608E-02  0.8421981E-01
          2   -1    0    0  501    0  0.00000000000E+00  0.00000000000E+00  0.13722231736E+04  0.13722231736E+04  0.25500000000E-02 0.  1.
         -2   -1    0    0    0  501 -0.00000000000E+00 -0.00000000000E+00 -0.10912201047E+04  0.10912201047E+04  0.25500000000E-02 0. -1.
   -5000001    1    1    2    0    0  0.51929812529E+03 -0.91356063490E+03 -0.43828408560E+03  0.11657000113E+04  0.25000000000E+03 0.  0.
    5000001    1    1    2    0    0 -0.51929812529E+03  0.91356063490E+03  0.71928715447E+03  0.12977432670E+04  0.25000000000E+03 0.  0.
<mgrwt>
<rscale>  0 0.24473639E+04</rscale>
<asrwt>0</asrwt>
<pdfrwt beam="1">  1        2 0.21111126E+00 0.24473639E+04</pdfrwt>
<pdfrwt beam="2">  1       -2 0.16788002E+00 0.24473639E+04</pdfrwt>
<totfact> 0.29681390E+00</totfact>
</mgrwt>
</event>
<event>
 4    1  0.1755570E-005  0.2178284E+04  0.7818608E-02  0.8527521E-01
          2   -1    0    0  501    0  0.00000000000E+00  0.00000000000E+00  0.22578482085E+04  0.22578482085E+04  0.25500000000E-02 0.  1.
         -2   -1    0    0    0  501 -0.00000000000E+00 -0.00000000000E+00 -0.52538093718E+03  0.52538093718E+03  0.25500000000E-02 0. -1.
   -5000001    1    1    2    0    0  0.58625092501E+03 -0.59303070798E+03  0.29983346468E+02  0.87107667214E+03  0.25000000000E+03 0.  0.
    5000001    1    1    2    0    0 -0.58625092501E+03  0.59303070798E+03  0.17024839248E+04  0.19121524735E+04  0.25000000000E+03 0.  0.
<mgrwt>
<rscale>  0 0.21782841E+04</rscale>
<asrwt>0</asrwt>
<pdfrwt beam="1">  1        2 0.34736126E+00 0.21782841E+04</pdfrwt>
<pdfrwt beam="2">  1       -2 0.80827838E-01 0.21782841E+04</pdfrwt>
<totfact> 0.59232219E+00</totfact>
</mgrwt>
</event>
<event>
 4    1  0.1755570E-005  0.1271587E+04  0.7818608E-02  0.9052405E-01
         -2   -1    0    0    0  501 -0.00000000000E+00  0.00000000000E+00  0.10706224071E+03  0.10706224074E+03  0.25500000000E-02 0. -1.
          2   -1    0    0  501    0  0.00000000000E+00 -0.00000000000E+00 -0.37756852299E+04  0.37756852299E+04  0.25500000000E-02 0.  1.
   -5000001    1    1    2    0    0  0.95431292627E+02 -0.55561898869E+03 -0.23065014504E+04  0.23875235147E+04  0.25000000000E+03 0.  0.
    5000001    1    1    2    0    0 -0.95431292627E+02  0.55561898869E+03 -0.13621215387E+04  0.14952239559E+04  0.25000000000E+03 0.  0.
<mgrwt>
<rscale>  0 0.12715869E+04</rscale>
<asrwt>0</asrwt>
<pdfrwt beam="1">  1        2 0.58087455E+00 0.12715869E+04</pdfrwt>
<pdfrwt beam="2">  1       -2 0.16471117E-01 0.12715869E+04</pdfrwt>
<totfact> 0.15509253E+01</totfact>
</mgrwt>
</event>
<event>
 4    1  0.1755570E-005  0.8808114E+03  0.7818608E-02  0.9449891E-01
          2   -1    0    0  501    0  0.00000000000E+00  0.00000000000E+00  0.52241752387E+03  0.52241752388E+03  0.25500000000E-02 0.  1.
         -2   -1    0    0    0  501 -0.00000000000E+00 -0.00000000000E+00 -0.37126850507E+03  0.37126850508E+03  0.25500000000E-02 0. -1.
   -5000001    1    1    2    0    0  0.80178806319E+01 -0.20470053185E+03  0.37909688243E+03  0.49817771971E+03  0.25000000000E+03 0.  0.
    5000001    1    1    2    0    0 -0.80178806319E+01  0.20470053185E+03 -0.22794786363E+03  0.39550830924E+03  0.25000000000E+03 0.  0.
<mgrwt>
<rscale>  0 0.88081138E+03</rscale>
<asrwt>0</asrwt>
<pdfrwt beam="1">  1        2 0.80371927E-01 0.88081138E+03</pdfrwt>
<pdfrwt beam="2">  1       -2 0.57118232E-01 0.88081138E+03</pdfrwt>
<totfact> 0.16883773E+02</totfact>
</mgrwt>
</event>
<event>
 4    1  0.1755570E-005  0.7674556E+03  0.7818608E-02  0.9608356E-01
         -2   -1    0    0    0  501 -0.00000000000E+00  0.00000000000E+00  0.34535270877E+02  0.34535270971E+02  0.25500000000E-02 0. -1.
          2   -1    0    0  501    0  0.00000000000E+00 -0.00000000000E+00 -0.42636703840E+04  0.42636703840E+04  0.25500000000E-02 0.  1.
   -5000001    1    1    2    0    0 -0.16480387067E+03  0.17646348563E+03 -0.30253715012E+04  0.30452704966E+04  0.25000000000E+03 0.  0.
    5000001    1    1    2    0    0  0.16480387067E+03 -0.17646348563E+03 -0.12037636120E+04  0.12529351584E+04  0.25000000000E+03 0.  0.
<mgrwt>
<rscale>  0 0.76745557E+03</rscale>
<asrwt>0</asrwt>
<pdfrwt beam="1">  1        2 0.65594887E+00 0.76745557E+03</pdfrwt>
<pdfrwt beam="2">  1       -2 0.53131220E-02 0.76745557E+03</pdfrwt>
<totfact> 0.42765780E+01</totfact>
</mgrwt>
</event>
<event>
 4    1  0.1755570E-005  0.1458918E+04  0.7818608E-02  0.8912241E-01
          2   -1    0    0  501    0  0.00000000000E+00  0.00000000000E+00  0.10133248502E+04  0.10133248502E+04  0.25500000000E-02 0.  1.
         -2   -1    0    0    0  501 -0.00000000000E+00 -0.00000000000E+00 -0.52511365486E+03  0.52511365487E+03  0.25500000000E-02 0. -1.
   -5000001    1    1    2    0    0  0.26301887902E+03 -0.52789076778E+03  0.61207103780E+03  0.88599015161E+03  0.25000000000E+03 0.  0.
    5000001    1    1    2    0    0 -0.26301887902E+03  0.52789076778E+03 -0.12385984242E+03  0.65244835351E+03  0.25000000000E+03 0.  0.
<mgrwt>
<rscale>  0 0.14589184E+04</rscale>
<asrwt>0</asrwt>
<pdfrwt beam="1">  1        2 0.15589613E+00 0.14589184E+04</pdfrwt>
<pdfrwt beam="2">  1       -2 0.80786717E-01 0.14589184E+04</pdfrwt>
<totfact> 0.32371981E+01</totfact>
</mgrwt>
</event>
<event>
 4    1  0.1755570E-005  0.8651855E+03  0.7818608E-02  0.9470179E-01
         -2   -1    0    0    0  501 -0.00000000000E+00  0.00000000000E+00  0.81725304381E+02  0.81725304421E+02  0.25500000000E-02 0. -1.
          2   -1    0    0  501    0  0.00000000000E+00 -0.00000000000E+00 -0.22898228265E+04  0.22898228265E+04  0.25500000000E-02 0.  1.
   -5000001    1    1    2    0    0  0.17815228819E+03  0.26499574619E+03 -0.69128551526E+03  0.80145907375E+03  0.25000000000E+03 0.  0.
    5000001    1    1    2    0    0 -0.17815228819E+03 -0.26499574619E+03 -0.15168120068E+04  0.15700890571E+04  0.25000000000E+03 0.  0.
<mgrwt>
<rscale>  0 0.86518545E+03</rscale>
<asrwt>0</asrwt>
<pdfrwt beam="1">  1        2 0.35228039E+00 0.86518545E+03</pdfrwt>
<pdfrwt beam="2">  1       -2 0.12573126E-01 0.86518545E+03</pdfrwt>
<totfact> 0.22098048E+02</totfact>
</mgrwt>
</event>
<event>
 4    1  0.1755570E-005  0.1433998E+04  0.7818608E-02  0.8929570E-01
          2   -1    0    0  501    0  0.00000000000E+00  0.00000000000E+00  0.21949073568E+04  0.21949073568E+04  0.25500000000E-02 0.  1.
         -2   -1    0    0    0  501 -0.00000000000E+00 -0.00000000000E+00 -0.23421842026E+03  0.23421842027E+03  0.25500000000E-02 0. -1.
   -5000001    1    1    2    0    0 -0.38924295932E+03  0.49411536648E+03  0.57974100564E+03  0.89121249452E+03  0.25000000000E+03 0.  0.
    5000001    1    1    2    0    0  0.38924295932E+03 -0.49411536648E+03  0.13809479309E+04  0.15379132826E+04  0.25000000000E+03 0.  0.
<mgrwt>
<rscale>  0 0.14339982E+04</rscale>
<asrwt>0</asrwt>
<pdfrwt beam="1">  1        2 0.33767807E+00 0.14339982E+04</pdfrwt>
<pdfrwt beam="2">  1       -2 0.36033602E-01 0.14339982E+04</pdfrwt>
<totfact> 0.36610551E+01</totfact>
</mgrwt>
</event>
<event>
 4    1  0.1755570E-005  0.5738703E+03  0.7818608E-02  0.9961151E-01
          2   -1    0    0  501    0  0.00000000000E+00  0.00000000000E+00  0.59045872176E+03  0.59045872176E+03  0.25500000000E-02 0.  1.
         -2   -1    0    0    0  501 -0.00000000000E+00 -0.00000000000E+00 -0.13943698940E+03  0.13943698942E+03  0.25500000000E-02 0. -1.
   -5000001    1    1    2    0    0  0.13345306921E+03 -0.41425335489E+02  0.24775995995E+03  0.37869615506E+03  0.25000000000E+03 0.  0.
    5000001    1    1    2    0    0 -0.13345306921E+03  0.41425335489E+02  0.20326177241E+03  0.35119955613E+03  0.25000000000E+03 0.  0.
<mgrwt>
<rscale>  0 0.57387032E+03</rscale>
<asrwt>0</asrwt>
<pdfrwt beam="1">  1        2 0.90839805E-01 0.57387032E+03</pdfrwt>
<pdfrwt beam="2">  1       -2 0.21451844E-01 0.57387032E+03</pdfrwt>
<totfact> 0.95715911E+02</totfact>
</mgrwt>
</event>
<event>
 4    1  0.1755570E-005  0.6574832E+03  0.7818608E-02  0.9792838E-01
         -2   -1    0    0    0  501 -0.00000000000E+00  0.00000000000E+00  0.10715903643E+03  0.10715903646E+03  0.25500000000E-02 0. -1.
          2   -1    0    0  501    0  0.00000000000E+00 -0.00000000000E+00 -0.10085106987E+04  0.10085106987E+04  0.25500000000E-02 0.  1.
   -5000001    1    1    2    0    0  0.18495970025E+02 -0.85120381953E+02 -0.11996514290E+03  0.29065308504E+03  0.25000000000E+03 0.  0.
    5000001    1    1    2    0    0 -0.18495970025E+02  0.85120381953E+02 -0.78138651934E+03  0.82501665009E+03  0.25000000000E+03 0.  0.
<mgrwt>
<rscale>  0 0.65748319E+03</rscale>
<asrwt>0</asrwt>
<pdfrwt beam="1">  1        2 0.15515549E+00 0.65748319E+03</pdfrwt>
<pdfrwt beam="2">  1       -2 0.16486006E-01 0.65748319E+03</pdfrwt>
<totfact> 0.74769938E+02</totfact>
</mgrwt>
</event>
<event>
 4    1  0.1755570E-005  0.7042497E+03  0.7818608E-02  0.9709992E-01
          2   -1    0    0  501    0  0.00000000000E+00  0.00000000000E+00  0.10427785675E+04  0.10427785675E+04  0.25500000000E-02 0.  1.
         -2   -1    0    0    0  501 -0.00000000000E+00 -0.00000000000E+00 -0.11890529947E+03  0.11890529950E+03  0.25500000000E-02 0. -1.
   -5000001    1    1    2    0    0 -0.15995053493E+03  0.86381806742E+02  0.18372761365E+03  0.35958563122E+03  0.25000000000E+03 0.  0.
    5000001    1    1    2    0    0  0.15995053493E+03 -0.86381806742E+02  0.74014565442E+03  0.80209823583E+03  0.25000000000E+03 0.  0.
<mgrwt>
<rscale>  0 0.70424967E+03</rscale>
<asrwt>0</asrwt>
<pdfrwt beam="1">  1        2 0.16042747E+00 0.70424967E+03</pdfrwt>
<pdfrwt beam="2">  1       -2 0.18293124E-01 0.70424967E+03</pdfrwt>
<totfact> 0.59417427E+02</totfact>
</mgrwt>
</event>
<event>
 4    1  0.1755570E-005  0.8875136E+03  0.7818608E-02  0.9441326E-01
          2   -1    0    0  501    0  0.00000000000E+00  0.00000000000E+00  0.33748553566E+03  0.33748553566E+03  0.25500000000E-02 0.  1.
         -2   -1    0    0    0  501 -0.00000000000E+00 -0.00000000000E+00 -0.58349195875E+03  0.58349195875E+03  0.25500000000E-02 0. -1.
   -5000001    1    1    2    0    0  0.21397257165E+03 -0.27690700510E+03 -0.23648065636E+03  0.49080021570E+03  0.25000000000E+03 0.  0.
    5000001    1    1    2    0    0 -0.21397257165E+03  0.27690700510E+03 -0.95257667298E+01  0.43017727872E+03  0.25000000000E+03 0.  0.
<mgrwt>
<rscale>  0 0.88751360E+03</rscale>
<asrwt>0</asrwt>
<pdfrwt beam="1">  1        2 0.51920852E-01 0.88751360E+03</pdfrwt>
<pdfrwt beam="2">  1       -2 0.89767994E-01 0.88751360E+03</pdfrwt>
<totfact> 0.10276575E+02</totfact>
</mgrwt>
</event>
<event>
 4    1  0.1755570E-005  0.9452826E+03  0.7818608E-02  0.9370682E-01
         -2   -1    0    0    0  501 -0.00000000000E+00  0.00000000000E+00  0.15341208351E+03  0.15341208353E+03  0.25500000000E-02 0. -1.
          2   -1    0    0  501    0  0.00000000000E+00 -0.00000000000E+00 -0.14561421647E+04  0.14561421647E+04  0.25500000000E-02 0.  1.
   -5000001    1    1    2    0    0 -0.19491472967E+02  0.34517328591E+03 -0.30505747517E+03  0.52448505983E+03  0.25000000000E+03 0.  0.
    5000001    1    1    2    0    0  0.19491472967E+02 -0.34517328591E+03 -0.99767260598E+03  0.10850691884E+04  0.25000000000E+03 0.  0.
<mgrwt>
<rscale>  0 0.94528261E+03</rscale>
<asrwt>0</asrwt>
<pdfrwt beam="1">  1        2 0.22402186E+00 0.94528261E+03</pdfrwt>
<pdfrwt beam="2">  1       -2 0.23601860E-01 0.94528261E+03</pdfrwt>
<totfact> 0.21400133E+02</totfact>
</mgrwt>
</event>
<event>
 4    1  0.1755570E-005  0.7911855E+03  0.7818608E-02  0.9572864E-01
         -2   -1    0    0    0  501 -0.00000000000E+00  0.00000000000E+00  0.61547087826E+03  0.61547087827E+03  0.25500000000E-02 0. -1.
          2   -1    0    0  501    0  0.00000000000E+00 -0.00000000000E+00 -0.25426650350E+03  0.25426650352E+03  0.25500000000E-02 0.  1.
   -5000001    1    1    2    0    0  0.30039697269E+03 -0.52200419262E+02  0.14531529414E+03  0.42021394513E+03  0.25000000000E+03 0.  0.
    5000001    1    1    2    0    0 -0.30039697269E+03  0.52200419262E+02  0.21588908063E+03  0.44952343666E+03  0.25000000000E+03 0.  0.
<mgrwt>
<rscale>  0 0.79118551E+03</rscale>
<asrwt>0</asrwt>
<pdfrwt beam="1">  1        2 0.39117923E-01 0.79118551E+03</pdfrwt>
<pdfrwt beam="2">  1       -2 0.94687828E-01 0.79118551E+03</pdfrwt>
<totfact> 0.12496394E+02</totfact>
</mgrwt>
</event>
<event>
 4    1  0.1755570E-005  0.5975261E+03  0.7818608E-02  0.9910552E-01
          2   -1    0    0  501    0  0.00000000000E+00  0.00000000000E+00  0.30837625672E+04  0.30837625672E+04  0.25500000000E-02 0.  1.
         -2   -1    0    0    0  501 -0.00000000000E+00 -0.00000000000E+00 -0.28944955086E+02  0.28944955198E+02  0.25500000000E-02 0. -1.
   -5000001    1    1    2    0    0  0.94846338506E+02  0.88524148639E+02  0.20464367993E+04  0.20657289092E+04  0.25000000000E+03 0.  0.
    5000001    1    1    2    0    0 -0.94846338506E+02 -0.88524148639E+02  0.10083808128E+04  0.10469786132E+04  0.25000000000E+03 0.  0.
<mgrwt>
<rscale>  0 0.59752613E+03</rscale>
<asrwt>0</asrwt>
<pdfrwt beam="1">  1        2 0.47442503E+00 0.59752613E+03</pdfrwt>
<pdfrwt beam="2">  1       -2 0.44530698E-02 0.59752613E+03</pdfrwt>
<totfact> 0.41010002E+02</totfact>
</mgrwt>
</event>
<event>
 4    1  0.1755570E-005  0.1222504E+04  0.7818608E-02  0.9093384E-01
         -2   -1    0    0    0  501 -0.00000000000E+00  0.00000000000E+00  0.11219985712E+03  0.11219985715E+03  0.25500000000E-02 0. -1.
          2   -1    0    0  501    0  0.00000000000E+00 -0.00000000000E+00 -0.33300314345E+04  0.33300314345E+04  0.25500000000E-02 0.  1.
   -5000001    1    1    2    0    0  0.12275547451E+03 -0.41931913201E+03 -0.25852512551E+04  0.26338036170E+04  0.25000000000E+03 0.  0.
    5000001    1    1    2    0    0 -0.12275547451E+03  0.41931913201E+03 -0.63258032233E+03  0.80842767468E+03  0.25000000000E+03 0.  0.
<mgrwt>
<rscale>  0 0.12225041E+04</rscale>
<asrwt>0</asrwt>
<pdfrwt beam="1">  1        2 0.51231245E+00 0.12225041E+04</pdfrwt>
<pdfrwt beam="2">  1       -2 0.17261519E-01 0.12225041E+04</pdfrwt>
<totfact> 0.29542553E+01</totfact>
</mgrwt>
</event>
<event>
 4    1  0.1755570E-005  0.6205239E+03  0.7818608E-02  0.9863717E-01
          2   -1    0    0  501    0  0.00000000000E+00  0.00000000000E+00  0.59880147394E+03  0.59880147395E+03  0.25500000000E-02 0.  1.
         -2   -1    0    0    0  501 -0.00000000000E+00 -0.00000000000E+00 -0.16075856414E+03  0.16075856416E+03  0.25500000000E-02 0. -1.
   -5000001    1    1    2    0    0 -0.19006161398E+02 -0.18093769023E+03  0.25053442834E+03  0.39795374317E+03  0.25000000000E+03 0.  0.
    5000001    1    1    2    0    0  0.19006161398E+02  0.18093769023E+03  0.18750848146E+03  0.36160629494E+03  0.25000000000E+03 0.  0.
<mgrwt>
<rscale>  0 0.62052386E+03</rscale>
<asrwt>0</asrwt>
<pdfrwt beam="1">  1        2 0.92123303E-01 0.62052386E+03</pdfrwt>
<pdfrwt beam="2">  1       -2 0.24732087E-01 0.62052386E+03</pdfrwt>
<totfact> 0.73048270E+02</totfact>
</mgrwt>
</event>
<event>
 4    1  0.1755570E-005  0.1031399E+04  0.7818608E-02  0.9274762E-01
          2   -1    0    0  501    0  0.00000000000E+00  0.00000000000E+00  0.23688286463E+04  0.23688286463E+04  0.25500000000E-02 0.  1.
         -2   -1    0    0    0  501 -0.00000000000E+00 -0.00000000000E+00 -0.11226903337E+03  0.11226903340E+03  0.25500000000E-02 0. -1.
   -5000001    1    1    2    0    0  0.28807598820E+02  0.45012280877E+03  0.11225458498E+04  0.12353338034E+04  0.25000000000E+03 0.  0.
    5000001    1    1    2    0    0 -0.28807598820E+02 -0.45012280877E+03  0.11340137631E+04  0.12457638763E+04  0.25000000000E+03 0.  0.
<mgrwt>
<rscale>  0 0.10313992E+04</rscale>
<asrwt>0</asrwt>
<pdfrwt beam="1">  1        2 0.36443521E+00 0.10313992E+04</pdfrwt>
<pdfrwt beam="2">  1       -2 0.17272158E-01 0.10313992E+04</pdfrwt>
<totfact> 0.11490962E+02</totfact>
</mgrwt>
</event>
<event>
 4    1  0.1755570E-005  0.5370109E+03  0.7818608E-02  0.1004546E+00
          2   -1    0    0  501    0  0.00000000000E+00  0.00000000000E+00  0.13968474738E+04  0.13968474738E+04  0.25500000000E-02 0.  1.
         -2   -1    0    0    0  501 -0.00000000000E+00 -0.00000000000E+00 -0.51612773405E+02  0.51612773468E+02  0.25500000000E-02 0. -1.
   -5000001    1    1    2    0    0  0.95426688792E+02 -0.18866877927E+02  0.64151563872E+03  0.69534489769E+03  0.25000000000E+03 0.  0.
    5000001    1    1    2    0    0 -0.95426688792E+02  0.18866877927E+02  0.70371906170E+03  0.75311534961E+03  0.25000000000E+03 0.  0.
<mgrwt>
<rscale>  0 0.53701088E+03</rscale>
<asrwt>0</asrwt>
<pdfrwt beam="1">  1        2 0.21489964E+00 0.53701088E+03</pdfrwt>
<pdfrwt beam="2">  1       -2 0.79404255E-02 0.53701088E+03</pdfrwt>
<totfact> 0.14712508E+03</totfact>
</mgrwt>
</event>
<event>
 4    1  0.1755570E-005  0.6920179E+03  0.7818608E-02  0.9730981E-01
          2   -1    0    0  501    0  0.00000000000E+00  0.00000000000E+00  0.83089230118E+03  0.83089230118E+03  0.25500000000E-02 0.  1.
         -2   -1    0    0    0  501 -0.00000000000E+00 -0.00000000000E+00 -0.14408872175E+03  0.14408872177E+03  0.25500000000E-02 0. -1.
   -5000001    1    1    2    0    0 -0.34607616880E+01 -0.21654954224E+03  0.20029982513E+03  0.38668553252E+03  0.25000000000E+03 0.  0.
    5000001    1    1    2    0    0  0.34607616880E+01  0.21654954224E+03  0.48650375430E+03  0.58829549043E+03  0.25000000000E+03 0.  0.
<mgrwt>
<rscale>  0 0.69201795E+03</rscale>
<asrwt>0</asrwt>
<pdfrwt beam="1">  1        2 0.12782958E+00 0.69201795E+03</pdfrwt>
<pdfrwt beam="2">  1       -2 0.22167496E-01 0.69201795E+03</pdfrwt>
<totfact> 0.58587526E+02</totfact>
</mgrwt>
</event>
<event>
 4    1  0.1755570E-005  0.1142963E+04  0.7818608E-02  0.9164300E-01
          2   -1    0    0  501    0  0.00000000000E+00  0.00000000000E+00  0.74965385940E+03  0.74965385940E+03  0.25500000000E-02 0.  1.
         -2   -1    0    0    0  501 -0.00000000000E+00 -0.00000000000E+00 -0.43565611728E+03  0.43565611729E+03  0.25500000000E-02 0. -1.
   -5000001    1    1    2    0    0  0.24041593353E+03  0.29837196391E+03  0.51212696788E+03  0.68673115640E+03  0.25000000000E+03 0.  0.
    5000001    1    1    2    0    0 -0.24041593353E+03 -0.29837196391E+03 -0.19812922577E+03  0.49857882029E+03  0.25000000000E+03 0.  0.
<mgrwt>
<rscale>  0 0.11429633E+04</rscale>
<asrwt>0</asrwt>
<pdfrwt beam="1">  1        2 0.11533136E+00 0.11429633E+04</pdfrwt>
<pdfrwt beam="2">  1       -2 0.67024019E-01 0.11429633E+04</pdfrwt>
<totfact> 0.75962163E+01</totfact>
</mgrwt>
</event>
<event>
 4    1  0.1755570E-005  0.8562277E+03  0.7818608E-02  0.9482016E-01
          2   -1    0    0  501    0  0.00000000000E+00  0.00000000000E+00  0.86002188656E+03  0.86002188656E+03  0.25500000000E-02 0.  1.
         -2   -1    0    0    0  501 -0.00000000000E+00 -0.00000000000E+00 -0.21311255671E+03  0.21311255673E+03  0.25500000000E-02 0. -1.
   -5000001    1    1    2    0    0  0.20702789188E+03  0.20417081382E+03  0.56203253744E+03  0.68038727382E+03  0.25000000000E+03 0.  0.
    5000001    1    1    2    0    0 -0.20702789188E+03 -0.20417081382E+03  0.84876792399E+02  0.39274716946E+03  0.25000000000E+03 0.  0.
<mgrwt>
<rscale>  0 0.85622769E+03</rscale>
<asrwt>0</asrwt>
<pdfrwt beam="1">  1        2 0.13231106E+00 0.85622769E+03</pdfrwt>
<pdfrwt beam="2">  1       -2 0.32786547E-01 0.85622769E+03</pdfrwt>
<totfact> 0.27179613E+02</totfact>
</mgrwt>
</event>
<event>
 4    1  0.1755570E-005  0.8576370E+03  0.7818608E-02  0.9480144E-01
         -2   -1    0    0    0  501 -0.00000000000E+00  0.00000000000E+00  0.69462036933E+03  0.69462036933E+03  0.25500000000E-02 0. -1.
          2   -1    0    0  501    0  0.00000000000E+00 -0.00000000000E+00 -0.26472776427E+03  0.26472776428E+03  0.25500000000E-02 0.  1.
   -5000001    1    1    2    0    0  0.27790121501E+03 -0.20967422161E+03  0.19940899124E+03  0.47271165661E+03  0.25000000000E+03 0.  0.
    5000001    1    1    2    0    0 -0.27790121501E+03  0.20967422161E+03  0.23048361382E+03  0.48663647700E+03  0.25000000000E+03 0.  0.
<mgrwt>
<rscale>  0 0.85763698E+03</rscale>
<asrwt>0</asrwt>
<pdfrwt beam="1">  1        2 0.40727348E-01 0.85763698E+03</pdfrwt>
<pdfrwt beam="2">  1       -2 0.10686467E+00 0.85763698E+03</pdfrwt>
<totfact> 0.89385597E+01</totfact>
</mgrwt>
</event>
<event>
 4    1  0.1755570E-005  0.5747950E+03  0.7818608E-02  0.9959124E-01
          2   -1    0    0  501    0  0.00000000000E+00  0.00000000000E+00  0.10790196953E+04  0.10790196953E+04  0.25500000000E-02 0.  1.
         -2   -1    0    0    0  501 -0.00000000000E+00 -0.00000000000E+00 -0.76548481009E+02  0.76548481051E+02  0.25500000000E-02 0. -1.
   -5000001    1    1    2    0    0  0.38226320059E+02 -0.63019565916E+02  0.25778114720E+03  0.36658401095E+03  0.25000000000E+03 0.  0.
    5000001    1    1    2    0    0 -0.38226320059E+02  0.63019565916E+02  0.74469006708E+03  0.78898416540E+03  0.25000000000E+03 0.  0.
<mgrwt>
<rscale>  0 0.57479498E+03</rscale>
<asrwt>0</asrwt>
<pdfrwt beam="1">  1        2 0.16600302E+00 0.57479498E+03</pdfrwt>
<pdfrwt beam="2">  1       -2 0.11776690E-01 0.57479498E+03</pdfrwt>
<totfact> 0.11896196E+03</totfact>
</mgrwt>
</event>
<event>
 4    1  0.1755570E-005  0.1269321E+04  0.7818608E-02  0.9054254E-01
         -2   -1    0    0    0  501 -0.00000000000E+00  0.00000000000E+00  0.19637302186E+03  0.19637302188E+03  0.25500000000E-02 0. -1.
          2   -1    0    0  501    0  0.00000000000E+00 -0.00000000000E+00 -0.20511689229E+04  0.20511689229E+04  0.25500000000E-02 0.  1.
   -5000001    1    1    2    0    0 -0.45449649637E+03 -0.16364494156E+03 -0.34834068087E+03  0.64590089183E+03  0.25000000000E+03 0.  0.
    5000001    1    1    2    0    0  0.45449649637E+03  0.16364494156E+03 -0.15064552202E+04  0.16016410529E+04  0.25000000000E+03 0.  0.
<mgrwt>
<rscale>  0 0.12693215E+04</rscale>
<asrwt>0</asrwt>
<pdfrwt beam="1">  1        2 0.31556444E+00 0.12693215E+04</pdfrwt>
<pdfrwt beam="2">  1       -2 0.30211235E-01 0.12693215E+04</pdfrwt>
<totfact> 0.62277778E+01</totfact>
</mgrwt>
</event>
<event>
 4    1  0.1755570E-005  0.7544333E+03  0.7818608E-02  0.9628421E-01
         -2   -1    0    0    0  501 -0.00000000000E+00  0.00000000000E+00  0.14244461717E+03  0.14244461720E+03  0.25500000000E-02 0. -1.
          2   -1    0    0  501    0  0.00000000000E+00 -0.00000000000E+00 -0.99893145971E+03  0.99893145972E+03  0.25500000000E-02 0.  1.
   -5000001    1    1    2    0    0  0.13534189761E+03  0.38858144535E+02 -0.57770122955E+02  0.29268544848E+03  0.25000000000E+03 0.  0.
    5000001    1    1    2    0    0 -0.13534189761E+03 -0.38858144535E+02 -0.79871671958E+03  0.84869062843E+03  0.25000000000E+03 0.  0.
<mgrwt>
<rscale>  0 0.75443332E+03</rscale>
<asrwt>0</asrwt>
<pdfrwt beam="1">  1        2 0.15368176E+00 0.75443332E+03</pdfrwt>
<pdfrwt beam="2">  1       -2 0.21914557E-01 0.75443332E+03</pdfrwt>
<totfact> 0.46076059E+02</totfact>
</mgrwt>
</event>
<event>
 4    1  0.1755570E-005  0.1175846E+04  0.7818608E-02  0.9134265E-01
         -2   -1    0    0    0  501 -0.00000000000E+00  0.00000000000E+00  0.34929258779E+03  0.34929258780E+03  0.25500000000E-02 0. -1.
          2   -1    0    0  501    0  0.00000000000E+00 -0.00000000000E+00 -0.98958145434E+03  0.98958145434E+03  0.25500000000E-02 0.  1.
   -5000001    1    1    2    0    0  0.47557125712E+03  0.19323188928E+03 -0.47974561441E+03  0.74576299062E+03  0.25000000000E+03 0.  0.
    5000001    1    1    2    0    0 -0.47557125712E+03 -0.19323188928E+03 -0.16054325214E+03  0.59311105152E+03  0.25000000000E+03 0.  0.
<mgrwt>
<rscale>  0 0.11758460E+04</rscale>
<asrwt>0</asrwt>
<pdfrwt beam="1">  1        2 0.15224330E+00 0.11758460E+04</pdfrwt>
<pdfrwt beam="2">  1       -2 0.53737321E-01 0.11758460E+04</pdfrwt>
<totfact> 0.82479880E+01</totfact>
</mgrwt>
</event>
<event>
 4    1  0.1755570E-005  0.8801767E+03  0.7818608E-02  0.9450706E-01
         -2   -1    0    0    0  501 -0.00000000000E+00  0.00000000000E+00  0.10050955898E+03  0.10050955901E+03  0.25500000000E-02 0. -1.
          2   -1    0    0  501    0  0.00000000000E+00 -0.00000000000E+00 -0.19269586311E+04  0.19269586311E+04  0.25500000000E-02 0.  1.
   -5000001    1    1    2    0    0  0.28696231259E+03 -0.21097150321E+03 -0.76179962659E+03  0.87732264024E+03  0.25000000000E+03 0.  0.
    5000001    1    1    2    0    0 -0.28696231259E+03  0.21097150321E+03 -0.10646494456E+04  0.11501455499E+04  0.25000000000E+03 0.  0.
<mgrwt>
<rscale>  0 0.88017671E+03</rscale>
<asrwt>0</asrwt>
<pdfrwt beam="1">  1        2 0.29645515E+00 0.88017671E+03</pdfrwt>
<pdfrwt beam="2">  1       -2 0.15463011E-01 0.88017671E+03</pdfrwt>
<totfact> 0.24700786E+02</totfact>
</mgrwt>
</event>
<event>
 4    1  0.1755570E-005  0.9375172E+03  0.7818608E-02  0.9379861E-01
          2   -1    0    0  501    0  0.00000000000E+00  0.00000000000E+00  0.16465620801E+04  0.16465620801E+04  0.25500000000E-02 0.  1.
         -2   -1    0    0    0  501 -0.00000000000E+00 -0.00000000000E+00 -0.13345056880E+03  0.13345056883E+03  0.25500000000E-02 0. -1.
   -5000001    1    1    2    0    0  0.34388500481E+03  0.18564573944E+03  0.62900114191E+03  0.78157768241E+03  0.25000000000E+03 0.  0.
    5000001    1    1    2    0    0 -0.34388500481E+03 -0.18564573944E+03  0.88411036935E+03  0.99843496649E+03  0.25000000000E+03 0.  0.
<mgrwt>
<rscale>  0 0.93751725E+03</rscale>
<asrwt>0</asrwt>
<pdfrwt beam="1">  1        2 0.25331726E+00 0.93751725E+03</pdfrwt>
<pdfrwt beam="2">  1       -2 0.20530855E-01 0.93751725E+03</pdfrwt>
<totfact> 0.21479971E+02</totfact>
</mgrwt>
</event>
<event>
 4    1  0.1755570E-005  0.8329113E+03  0.7818608E-02  0.9513564E-01
          2   -1    0    0  501    0  0.00000000000E+00  0.00000000000E+00  0.18057436704E+04  0.18057436704E+04  0.25500000000E-02 0. -1.
         -2   -1    0    0    0  501 -0.00000000000E+00 -0.00000000000E+00 -0.96046462600E+02  0.96046462634E+02  0.25500000000E-02 0.  1.
   -5000001    1    1    2    0    0 -0.15687034340E+03 -0.57140900462E+02  0.15129075528E+04  0.15424858672E+04  0.25000000000E+03 0.  0.
    5000001    1    1    2    0    0  0.15687034340E+03  0.57140900462E+02  0.19678965500E+03  0.35930426585E+03  0.25000000000E+03 0.  0.
<mgrwt>
<rscale>  0 0.83291126E+03</rscale>
<asrwt>0</asrwt>
<pdfrwt beam="1">  1        2 0.27780672E+00 0.83291126E+03</pdfrwt>
<pdfrwt beam="2">  1       -2 0.14776379E-01 0.83291126E+03</pdfrwt>
<totfact> 0.31185073E+02</totfact>
</mgrwt>
</event>
<event>
 4    1  0.1755570E-005  0.5919132E+03  0.7818608E-02  0.9922327E-01
         -2   -1    0    0    0  501 -0.00000000000E+00  0.00000000000E+00  0.11192369679E+03  0.11192369682E+03  0.25500000000E-02 0. -1.
          2   -1    0    0  501    0  0.00000000000E+00 -0.00000000000E+00 -0.78258958884E+03  0.78258958885E+03  0.25500000000E-02 0.  1.
   -5000001    1    1    2    0    0  0.11530525357E+03  0.95204287664E+02 -0.41431028059E+03  0.50647030169E+03  0.25000000000E+03 0.  0.
    5000001    1    1    2    0    0 -0.11530525357E+03 -0.95204287664E+02 -0.25635561146E+03  0.38804298398E+03  0.25000000000E+03 0.  0.
<mgrwt>
<rscale>  0 0.59191324E+03</rscale>
<asrwt>0</asrwt>
<pdfrwt beam="1">  1        2 0.12039840E+00 0.59191324E+03</pdfrwt>
<pdfrwt beam="2">  1       -2 0.17219031E-01 0.59191324E+03</pdfrwt>
<totfact> 0.98689113E+02</totfact>
</mgrwt>
</event>
<event>
 4    1  0.1755570E-005  0.5925643E+03  0.7818608E-02  0.9920954E-01
         -2   -1    0    0    0  501 -0.00000000000E+00  0.00000000000E+00  0.13803294708E+03  0.13803294710E+03  0.25500000000E-02 0. -1.
          2   -1    0    0  501    0  0.00000000000E+00 -0.00000000000E+00 -0.63595761009E+03  0.63595761010E+03  0.25500000000E-02 0.  1.
   -5000001    1    1    2    0    0  0.13000421858E+03 -0.80761518171E+02 -0.30528821885E+03  0.42323092542E+03  0.25000000000E+03 0.  0.
    5000001    1    1    2    0    0 -0.13000421858E+03  0.80761518171E+02 -0.19263644416E+03  0.35075963178E+03  0.25000000000E+03 0.  0.
<mgrwt>
<rscale>  0 0.59256427E+03</rscale>
<asrwt>0</asrwt>
<pdfrwt beam="1">  1        2 0.97839631E-01 0.59256427E+03</pdfrwt>
<pdfrwt beam="2">  1       -2 0.21235838E-01 0.59256427E+03</pdfrwt>
<totfact> 0.89078154E+02</totfact>
</mgrwt>
</event>
<event>
 4    1  0.1755570E-005  0.7406640E+03  0.7818608E-02  0.9650112E-01
          2   -1    0    0  501    0  0.00000000000E+00  0.00000000000E+00  0.82748990920E+03  0.82748990920E+03  0.25500000000E-02 0.  1.
         -2   -1    0    0    0  501 -0.00000000000E+00 -0.00000000000E+00 -0.16573712044E+03  0.16573712046E+03  0.25500000000E-02 0. -1.
   -5000001    1    1    2    0    0  0.42644360233E+02  0.26368104778E+03  0.25384722900E+03  0.44529164835E+03  0.25000000000E+03 0.  0.
    5000001    1    1    2    0    0 -0.42644360233E+02 -0.26368104778E+03  0.40790555975E+03  0.54793538131E+03  0.25000000000E+03 0.  0.
<mgrwt>
<rscale>  0 0.74066401E+03</rscale>
<asrwt>0</asrwt>
<pdfrwt beam="1">  1        2 0.12730614E+00 0.74066401E+03</pdfrwt>
<pdfrwt beam="2">  1       -2 0.25498019E-01 0.74066401E+03</pdfrwt>
<totfact> 0.45778809E+02</totfact>
</mgrwt>
</event>
<event>
 4    1  0.1755570E-005  0.1120695E+04  0.7818608E-02  0.9185252E-01
          2   -1    0    0  501    0  0.00000000000E+00  0.00000000000E+00  0.18899336075E+04  0.18899336075E+04  0.25500000000E-02 0.  1.
         -2   -1    0    0    0  501 -0.00000000000E+00 -0.00000000000E+00 -0.16613782059E+03  0.16613782061E+03  0.25500000000E-02 0. -1.
   -5000001    1    1    2    0    0  0.37362619375E+03 -0.26700676633E+03  0.49222694618E+03  0.71810619860E+03  0.25000000000E+03 0.  0.
    5000001    1    1    2    0    0 -0.37362619375E+03  0.26700676633E+03  0.12315688407E+04  0.13379652295E+04  0.25000000000E+03 0.  0.
<mgrwt>
<rscale>  0 0.11206952E+04</rscale>
<asrwt>0</asrwt>
<pdfrwt beam="1">  1        2 0.29075902E+00 0.11206952E+04</pdfrwt>
<pdfrwt beam="2">  1       -2 0.25559665E-01 0.11206952E+04</pdfrwt>
<totfact> 0.10521952E+02</totfact>
</mgrwt>
</event>
<event>
 4    1  0.1755570E-005  0.7615724E+03  0.7818608E-02  0.9617368E-01
         -2   -1    0    0    0  501 -0.00000000000E+00  0.00000000000E+00  0.62697721867E+02  0.62697721919E+02  0.25500000000E-02 0. -1.
          2   -1    0    0  501    0  0.00000000000E+00 -0.00000000000E+00 -0.23126537220E+04  0.23126537220E+04  0.25500000000E-02 0.  1.
   -5000001    1    1    2    0    0  0.14270270344E+03 -0.24875153408E+03 -0.10750024916E+04  0.11403384341E+04  0.25000000000E+03 0.  0.
    5000001    1    1    2    0    0 -0.14270270344E+03  0.24875153408E+03 -0.11749535086E+04  0.12350130099E+04  0.25000000000E+03 0.  0.
<mgrwt>
<rscale>  0 0.76157237E+03</rscale>
<asrwt>0</asrwt>
<pdfrwt beam="1">  1        2 0.35579282E+00 0.76157237E+03</pdfrwt>
<pdfrwt beam="2">  1       -2 0.96458051E-02 0.76157237E+03</pdfrwt>
<totfact> 0.33467707E+02</totfact>
</mgrwt>
</event>
<event>
 4    1  0.1755570E-005  0.7507017E+03  0.7818608E-02  0.9634250E-01
         -2   -1    0    0    0  501 -0.00000000000E+00  0.00000000000E+00  0.79166725635E+03  0.79166725635E+03  0.25500000000E-02 0. -1.
          2   -1    0    0  501    0  0.00000000000E+00 -0.00000000000E+00 -0.17796400351E+03  0.17796400353E+03  0.25500000000E-02 0.  1.
   -5000001    1    1    2    0    0  0.16736072064E+02  0.11471684572E+03 -0.22320328121E+02  0.27647467849E+03  0.25000000000E+03 0.  0.
    5000001    1    1    2    0    0 -0.16736072064E+02 -0.11471684572E+03  0.63602358096E+03  0.69315658140E+03  0.25000000000E+03 0.  0.
<mgrwt>
<rscale>  0 0.75070174E+03</rscale>
<asrwt>0</asrwt>
<pdfrwt beam="1">  1        2 0.27379077E-01 0.75070174E+03</pdfrwt>
<pdfrwt beam="2">  1       -2 0.12179496E+00 0.75070174E+03</pdfrwt>
<totfact> 0.10198000E+02</totfact>
</mgrwt>
</event>
<event>
 4    1  0.1755570E-005  0.7006865E+03  0.7818608E-02  0.9716059E-01
          2   -1    0    0  501    0  0.00000000000E+00  0.00000000000E+00  0.18231595679E+03  0.18231595681E+03  0.25500000000E-02 0.  1.
         -2   -1    0    0    0  501 -0.00000000000E+00 -0.00000000000E+00 -0.67322904481E+03  0.67322904482E+03  0.25500000000E-02 0. -1.
   -5000001    1    1    2    0    0 -0.10066310832E+03 -0.22326707096E+03 -0.22580052198E+03  0.41649384399E+03  0.25000000000E+03 0.  0.
    5000001    1    1    2    0    0  0.10066310832E+03  0.22326707096E+03 -0.26511256604E+03  0.43905115764E+03  0.25000000000E+03 0.  0.
<mgrwt>
<rscale>  0 0.70068651E+03</rscale>
<asrwt>0</asrwt>
<pdfrwt beam="1">  1        2 0.28048609E-01 0.70068651E+03</pdfrwt>
<pdfrwt beam="2">  1       -2 0.10357370E+00 0.70068651E+03</pdfrwt>
<totfact> 0.14743871E+02</totfact>
</mgrwt>
</event>
<event>
 4    1  0.1755570E-005  0.5517065E+03  0.7818608E-02  0.1001100E+00
          2   -1    0    0  501    0  0.00000000000E+00  0.00000000000E+00  0.67655246282E+03  0.67655246283E+03  0.25500000000E-02 0.  1.
         -2   -1    0    0    0  501 -0.00000000000E+00 -0.00000000000E+00 -0.11247466101E+03  0.11247466103E+03  0.25500000000E-02 0. -1.
   -5000001    1    1    2    0    0 -0.80863655216E+02 -0.35929161313E+02  0.39062895363E+03  0.47214490867E+03  0.25000000000E+03 0.  0.
    5000001    1    1    2    0    0  0.80863655216E+02  0.35929161313E+02  0.17344884818E+03  0.31688221519E+03  0.25000000000E+03 0.  0.
<mgrwt>
<rscale>  0 0.55170648E+03</rscale>
<asrwt>0</asrwt>
<pdfrwt beam="1">  1        2 0.10408499E+00 0.55170648E+03</pdfrwt>
<pdfrwt beam="2">  1       -2 0.17303794E-01 0.55170648E+03</pdfrwt>
<totfact> 0.11777799E+03</totfact>
</mgrwt>
</event>
<event>
 4    1  0.1755570E-005  0.8989410E+03  0.7818608E-02  0.9426906E-01
         -2   -1    0    0    0  501 -0.00000000000E+00  0.00000000000E+00  0.11745404375E+03  0.11745404378E+03  0.25500000000E-02 0. -1.
          2   -1    0    0  501    0  0.00000000000E+00 -0.00000000000E+00 -0.17200236255E+04  0.17200236255E+04  0.25500000000E-02 0.  1.
   -5000001    1    1    2    0    0  0.36112628725E+03 -0.60351535732E+02 -0.65011888352E+03  0.78689838348E+03  0.25000000000E+03 0.  0.
    5000001    1    1    2    0    0 -0.36112628725E+03  0.60351535732E+02 -0.95245069823E+03  0.10505792858E+04  0.25000000000E+03 0.  0.
<mgrwt>
<rscale>  0 0.89894100E+03</rscale>
<asrwt>0</asrwt>
<pdfrwt beam="1">  1        2 0.26461900E+00 0.89894100E+03</pdfrwt>
<pdfrwt beam="2">  1       -2 0.18069854E-01 0.89894100E+03</pdfrwt>
<totfact> 0.24518228E+02</totfact>
</mgrwt>
</event>
<event>
 4    1  0.1755570E-005  0.1189792E+04  0.7818608E-02  0.9121839E-01
         -2   -1    0    0    0  501 -0.00000000000E+00  0.00000000000E+00  0.13964174256E+03  0.13964174258E+03  0.25500000000E-02 0. -1.
          2   -1    0    0  501    0  0.00000000000E+00 -0.00000000000E+00 -0.25343493612E+04  0.25343493612E+04  0.25500000000E-02 0.  1.
   -5000001    1    1    2    0    0 -0.35394055019E+03 -0.39178269452E+03 -0.14499627221E+04  0.15632208700E+04  0.25000000000E+03 0.  0.
    5000001    1    1    2    0    0  0.35394055019E+03  0.39178269452E+03 -0.94474489647E+03  0.11107702338E+04  0.25000000000E+03 0.  0.
<mgrwt>
<rscale>  0 0.11897915E+04</rscale>
<asrwt>0</asrwt>
<pdfrwt beam="1">  1        2 0.38989987E+00 0.11897915E+04</pdfrwt>
<pdfrwt beam="2">  1       -2 0.21483347E-01 0.11897915E+04</pdfrwt>
<totfact> 0.62272107E+01</totfact>
</mgrwt>
</event>
<event>
 4    1  0.1755570E-005  0.8985520E+03  0.7818608E-02  0.9427393E-01
         -2   -1    0    0    0  501 -0.00000000000E+00  0.00000000000E+00  0.51515141942E+03  0.51515141943E+03  0.25500000000E-02 0. -1.
          2   -1    0    0  501    0  0.00000000000E+00 -0.00000000000E+00 -0.39182447354E+03  0.39182447355E+03  0.25500000000E-02 0.  1.
   -5000001    1    1    2    0    0 -0.27166712219E+03  0.90439391239E+02  0.30342220446E+03  0.48636132959E+03  0.25000000000E+03 0.  0.
    5000001    1    1    2    0    0  0.27166712219E+03 -0.90439391239E+02 -0.18009525858E+03  0.42061456338E+03  0.25000000000E+03 0.  0.
<mgrwt>
<rscale>  0 0.89855202E+03</rscale>
<asrwt>0</asrwt>
<pdfrwt beam="1">  1        2 0.60280688E-01 0.89855202E+03</pdfrwt>
<pdfrwt beam="2">  1       -2 0.79254064E-01 0.89855202E+03</pdfrwt>
<totfact> 0.11536918E+02</totfact>
</mgrwt>
</event>
<event>
 4    1  0.1755570E-005  0.7209411E+03  0.7818608E-02  0.9682075E-01
          2   -1    0    0  501    0  0.00000000000E+00  0.00000000000E+00  0.19782454362E+04  0.19782454362E+04  0.25500000000E-02 0.  1.
         -2   -1    0    0    0  501 -0.00000000000E+00 -0.00000000000E+00 -0.65683972254E+02  0.65683972304E+02  0.25500000000E-02 0. -1.
   -5000001    1    1    2    0    0 -0.11873547930E+03  0.19406988188E+03  0.13112644732E+04  0.13541328413E+04  0.25000000000E+03 0.  0.
    5000001    1    1    2    0    0  0.11873547930E+03 -0.19406988188E+03  0.60129699068E+03  0.68979656718E+03  0.25000000000E+03 0.  0.
<mgrwt>
<rscale>  0 0.72094110E+03</rscale>
<asrwt>0</asrwt>
<pdfrwt beam="1">  1        2 0.30434542E+00 0.72094110E+03</pdfrwt>
<pdfrwt beam="2">  1       -2 0.10105228E-01 0.72094110E+03</pdfrwt>
<totfact> 0.47522624E+02</totfact>
</mgrwt>
</event>
<event>
 4    1  0.1755570E-005  0.7492760E+03  0.7818608E-02  0.9636487E-01
         -2   -1    0    0    0  501 -0.00000000000E+00  0.00000000000E+00  0.35263294991E+03  0.35263294992E+03  0.25500000000E-02 0. -1.
          2   -1    0    0  501    0  0.00000000000E+00 -0.00000000000E+00 -0.39801620741E+03  0.39801620742E+03  0.25500000000E-02 0.  1.
   -5000001    1    1    2    0    0  0.23582107732E+03 -0.81359341281E+02  0.10252826123E+03  0.36775394936E+03  0.25000000000E+03 0.  0.
    5000001    1    1    2    0    0 -0.23582107732E+03  0.81359341281E+02 -0.14791151873E+03  0.38289520798E+03  0.25000000000E+03 0.  0.
<mgrwt>
<rscale>  0 0.74927600E+03</rscale>
<asrwt>0</asrwt>
<pdfrwt beam="1">  1        2 0.61233263E-01 0.74927600E+03</pdfrwt>
<pdfrwt beam="2">  1       -2 0.54251223E-01 0.74927600E+03</pdfrwt>
<totfact> 0.25802789E+02</totfact>
</mgrwt>
</event>
<event>
 4    1  0.1755570E-005  0.6876357E+03  0.7818608E-02  0.9738614E-01
          2   -1    0    0  501    0  0.00000000000E+00  0.00000000000E+00  0.11854694098E+04  0.11854694098E+04  0.25500000000E-02 0.  1.
         -2   -1    0    0    0  501 -0.00000000000E+00 -0.00000000000E+00 -0.99716367494E+02  0.99716367527E+02  0.25500000000E-02 0. -1.
   -5000001    1    1    2    0    0  0.74324212841E+01  0.22346627050E+03  0.68420853325E+03  0.76199326238E+03  0.25000000000E+03 0.  0.
    5000001    1    1    2    0    0 -0.74324212841E+01 -0.22346627050E+03  0.40154450902E+03  0.52319251492E+03  0.25000000000E+03 0.  0.
<mgrwt>
<rscale>  0 0.68763567E+03</rscale>
<asrwt>0</asrwt>
<pdfrwt beam="1">  1        2 0.18237990E+00 0.68763567E+03</pdfrwt>
<pdfrwt beam="2">  1       -2 0.15340981E-01 0.68763567E+03</pdfrwt>
<totfact> 0.65798674E+02</totfact>
</mgrwt>
</event>
<event>
 4    1  0.1755570E-005  0.9958134E+03  0.7818608E-02  0.9313149E-01
         -2   -1    0    0    0  501 -0.00000000000E+00  0.00000000000E+00  0.67404088924E+03  0.67404088924E+03  0.25500000000E-02 0. -1.
          2   -1    0    0  501    0  0.00000000000E+00 -0.00000000000E+00 -0.36779829337E+03  0.36779829338E+03  0.25500000000E-02 0.  1.
   -5000001    1    1    2    0    0  0.11848718416E+03 -0.37361489689E+03 -0.33398750788E+02  0.46609310287E+03  0.25000000000E+03 0.  0.
    5000001    1    1    2    0    0 -0.11848718416E+03  0.37361489689E+03  0.33964134665E+03  0.57574607975E+03  0.25000000000E+03 0.  0.
<mgrwt>
<rscale>  0 0.99581341E+03</rscale>
<asrwt>0</asrwt>
<pdfrwt beam="1">  1        2 0.56584353E-01 0.99581341E+03</pdfrwt>
<pdfrwt beam="2">  1       -2 0.10369860E+00 0.99581341E+03</pdfrwt>
<totfact> 0.66118386E+01</totfact>
</mgrwt>
</event>
<event>
 4    1  0.1755570E-005  0.6211296E+03  0.7818608E-02  0.9862513E-01
         -2   -1    0    0    0  501 -0.00000000000E+00  0.00000000000E+00  0.16650940618E+03  0.16650940620E+03  0.25500000000E-02 0. -1.
          2   -1    0    0  501    0  0.00000000000E+00 -0.00000000000E+00 -0.57924944726E+03  0.57924944727E+03  0.25500000000E-02 0.  1.
   -5000001    1    1    2    0    0 -0.10476142871E+03  0.20277667032E+02 -0.26015286163E+02  0.27306214648E+03  0.25000000000E+03 0.  0.
    5000001    1    1    2    0    0  0.10476142871E+03 -0.20277667032E+02 -0.38672475492E+03  0.47269670698E+03  0.25000000000E+03 0.  0.
<mgrwt>
<rscale>  0 0.62112956E+03</rscale>
<asrwt>0</asrwt>
<pdfrwt beam="1">  1        2 0.89115299E-01 0.62112956E+03</pdfrwt>
<pdfrwt beam="2">  1       -2 0.25616832E-01 0.62112956E+03</pdfrwt>
<totfact> 0.71343223E+02</totfact>
</mgrwt>
</event>
<event>
 4    1  0.1755570E-005  0.6070261E+03  0.7818608E-02  0.9890935E-01
         -2   -1    0    0    0  501 -0.00000000000E+00  0.00000000000E+00  0.57664479398E+03  0.57664479398E+03  0.25500000000E-02 0. -1.
          2   -1    0    0  501    0  0.00000000000E+00 -0.00000000000E+00 -0.15975200949E+03  0.15975200951E+03  0.25500000000E-02 0.  1.
   -5000001    1    1    2    0    0  0.16944765692E+03  0.15710656803E+02  0.23963168984E+03  0.38585318445E+03  0.25000000000E+03 0.  0.
    5000001    1    1    2    0    0 -0.16944765692E+03 -0.15710656803E+02  0.17726109465E+03  0.35054361904E+03  0.25000000000E+03 0.  0.
<mgrwt>
<rscale>  0 0.60702608E+03</rscale>
<asrwt>0</asrwt>
<pdfrwt beam="1">  1        2 0.24577232E-01 0.60702608E+03</pdfrwt>
<pdfrwt beam="2">  1       -2 0.88714583E-01 0.60702608E+03</pdfrwt>
<totfact> 0.24695601E+02</totfact>
</mgrwt>
</event>
<event>
 4    1  0.1755570E-005  0.7774813E+03  0.7818608E-02  0.9593196E-01
          2   -1    0    0  501    0  0.00000000000E+00  0.00000000000E+00  0.16750849097E+03  0.16750849099E+03  0.25500000000E-02 0.  1.
         -2   -1    0    0    0  501 -0.00000000000E+00 -0.00000000000E+00 -0.90215899447E+03  0.90215899448E+03  0.25500000000E-02 0. -1.
   -5000001    1    1    2    0    0  0.13104306829E+01 -0.18438495909E+03 -0.45786187345E+02  0.31399984924E+03  0.25000000000E+03 0.  0.
    5000001    1    1    2    0    0 -0.13104306829E+01  0.18438495909E+03 -0.68886431616E+03  0.75566763623E+03  0.25000000000E+03 0.  0.
<mgrwt>
<rscale>  0 0.77748130E+03</rscale>
<asrwt>0</asrwt>
<pdfrwt beam="1">  1        2 0.25770538E-01 0.77748130E+03</pdfrwt>
<pdfrwt beam="2">  1       -2 0.13879369E+00 0.77748130E+03</pdfrwt>
<totfact> 0.78426965E+01</totfact>
</mgrwt>
</event>
<event>
 4    1  0.1755570E-005  0.6810186E+03  0.7818608E-02  0.9750255E-01
          2   -1    0    0  501    0  0.00000000000E+00  0.00000000000E+00  0.10880146568E+04  0.10880146568E+04  0.25500000000E-02 0.  1.
         -2   -1    0    0    0  501 -0.00000000000E+00 -0.00000000000E+00 -0.10656710302E+03  0.10656710305E+03  0.25500000000E-02 0. -1.
   -5000001    1    1    2    0    0  0.21969102434E+03  0.71925425134E+02  0.48541572138E+03  0.59292987403E+03  0.25000000000E+03 0.  0.
    5000001    1    1    2    0    0 -0.21969102434E+03 -0.71925425134E+02  0.49603183242E+03  0.60165188584E+03  0.25000000000E+03 0.  0.
<mgrwt>
<rscale>  0 0.68101856E+03</rscale>
<asrwt>0</asrwt>
<pdfrwt beam="1">  1        2 0.16738687E+00 0.68101856E+03</pdfrwt>
<pdfrwt beam="2">  1       -2 0.16394939E-01 0.68101856E+03</pdfrwt>
<totfact> 0.67295777E+02</totfact>
</mgrwt>
</event>
<event>
 4    1  0.1755570E-005  0.7917331E+03  0.7818608E-02  0.9572061E-01
         -2   -1    0    0    0  501 -0.00000000000E+00  0.00000000000E+00  0.99062908922E+02  0.99062908954E+02  0.25500000000E-02 0. -1.
          2   -1    0    0  501    0  0.00000000000E+00 -0.00000000000E+00 -0.15819272197E+04  0.15819272197E+04  0.25500000000E-02 0.  1.
   -5000001    1    1    2    0    0  0.19464084818E+03  0.18507312205E+03 -0.10568737419E+04  0.11187578946E+04  0.25000000000E+03 0.  0.
    5000001    1    1    2    0    0 -0.19464084818E+03 -0.18507312205E+03 -0.42599056881E+03  0.56223223405E+03  0.25000000000E+03 0.  0.
<mgrwt>
<rscale>  0 0.79173307E+03</rscale>
<asrwt>0</asrwt>
<pdfrwt beam="1">  1        2 0.24337340E+00 0.79173307E+03</pdfrwt>
<pdfrwt beam="2">  1       -2 0.15240449E-01 0.79173307E+03</pdfrwt>
<totfact> 0.39380440E+02</totfact>
</mgrwt>
</event>
<event>
 4    1  0.1755570E-005  0.9285435E+03  0.7818608E-02  0.9390588E-01
         -2   -1    0    0    0  501 -0.00000000000E+00  0.00000000000E+00  0.11601575214E+03  0.11601575217E+03  0.25500000000E-02 0. -1.
          2   -1    0    0  501    0  0.00000000000E+00 -0.00000000000E+00 -0.18579223498E+04  0.18579223498E+04  0.25500000000E-02 0.  1.
   -5000001    1    1    2    0    0 -0.32592878187E+03 -0.20057617214E+03 -0.69840751520E+03  0.83470559419E+03  0.25000000000E+03 0.  0.
    5000001    1    1    2    0    0  0.32592878187E+03  0.20057617214E+03 -0.10434990824E+04  0.11392325077E+04  0.25000000000E+03 0.  0.
<mgrwt>
<rscale>  0 0.92854350E+03</rscale>
<asrwt>0</asrwt>
<pdfrwt beam="1">  1        2 0.28583419E+00 0.92854350E+03</pdfrwt>
<pdfrwt beam="2">  1       -2 0.17848579E-01 0.92854350E+03</pdfrwt>
<totfact> 0.20997913E+02</totfact>
</mgrwt>
</event>
<event>
 4    1  0.1755570E-005  0.7332357E+03  0.7818608E-02  0.9662024E-01
          2   -1    0    0  501    0  0.00000000000E+00  0.00000000000E+00  0.40246348674E+03  0.40246348675E+03  0.25500000000E-02 0.  1.
         -2   -1    0    0    0  501 -0.00000000000E+00 -0.00000000000E+00 -0.33396484030E+03  0.33396484031E+03  0.25500000000E-02 0. -1.
   -5000001    1    1    2    0    0 -0.25572008662E+02 -0.23859750387E+03 -0.85962920851E+02  0.35703265991E+03  0.25000000000E+03 0.  0.
    5000001    1    1    2    0    0  0.25572008662E+02  0.23859750387E+03  0.15446156730E+03  0.37939566715E+03  0.25000000000E+03 0.  0.
<mgrwt>
<rscale>  0 0.73323572E+03</rscale>
<asrwt>0</asrwt>
<pdfrwt beam="1">  1        2 0.61917460E-01 0.73323572E+03</pdfrwt>
<pdfrwt beam="2">  1       -2 0.51379206E-01 0.73323572E+03</pdfrwt>
<totfact> 0.28513291E+02</totfact>
</mgrwt>
</event>
<event>
 4    1  0.1755570E-005  0.5982358E+03  0.7818608E-02  0.9909073E-01
         -2   -1    0    0    0  501 -0.00000000000E+00  0.00000000000E+00  0.75120594284E+02  0.75120594327E+02  0.25500000000E-02 0. -1.
          2   -1    0    0  501    0  0.00000000000E+00 -0.00000000000E+00 -0.11910384692E+04  0.11910384692E+04  0.25500000000E-02 0.  1.
   -5000001    1    1    2    0    0 -0.97349637707E+02 -0.11977187904E+03 -0.67673264518E+03  0.73775966820E+03  0.25000000000E+03 0.  0.
    5000001    1    1    2    0    0  0.97349637707E+02  0.11977187904E+03 -0.43918522977E+03  0.52839939536E+03  0.25000000000E+03 0.  0.
<mgrwt>
<rscale>  0 0.59823580E+03</rscale>
<asrwt>0</asrwt>
<pdfrwt beam="1">  1        2 0.18323667E+00 0.59823580E+03</pdfrwt>
<pdfrwt beam="2">  1       -2 0.11557015E-01 0.59823580E+03</pdfrwt>
<totfact> 0.10505214E+03</totfact>
</mgrwt>
</event>
<event>
 4    1  0.1755570E-005  0.5964543E+03  0.7818608E-02  0.9912790E-01
         -2   -1    0    0    0  501 -0.00000000000E+00  0.00000000000E+00  0.76111004356E+02  0.76111004399E+02  0.25500000000E-02 0. -1.
          2   -1    0    0  501    0  0.00000000000E+00 -0.00000000000E+00 -0.11685490609E+04  0.11685490609E+04  0.25500000000E-02 0.  1.
   -5000001    1    1    2    0    0 -0.10614072886E+03 -0.49423752387E+00 -0.28917103880E+03  0.39671902938E+03  0.25000000000E+03 0.  0.
    5000001    1    1    2    0    0  0.10614072886E+03  0.49423752387E+00 -0.80326701772E+03  0.84794103589E+03  0.25000000000E+03 0.  0.
<mgrwt>
<rscale>  0 0.59645433E+03</rscale>
<asrwt>0</asrwt>
<pdfrwt beam="1">  1        2 0.17977677E+00 0.59645433E+03</pdfrwt>
<pdfrwt beam="2">  1       -2 0.11709386E-01 0.59645433E+03</pdfrwt>
<totfact> 0.10601634E+03</totfact>
</mgrwt>
</event>
<event>
 4    1  0.1755570E-005  0.7141119E+03  0.7818608E-02  0.9693399E-01
          2   -1    0    0  501    0  0.00000000000E+00  0.00000000000E+00  0.56507890108E+03  0.56507890109E+03  0.25500000000E-02 0.  1.
         -2   -1    0    0    0  501 -0.00000000000E+00 -0.00000000000E+00 -0.22561264838E+03  0.22561264840E+03  0.25500000000E-02 0. -1.
   -5000001    1    1    2    0    0  0.12756934411E+03 -0.20257324268E+03  0.26676082868E+03  0.43700251249E+03  0.25000000000E+03 0.  0.
    5000001    1    1    2    0    0 -0.12756934411E+03  0.20257324268E+03  0.72705424024E+02  0.35368903699E+03  0.25000000000E+03 0.  0.
<mgrwt>
<rscale>  0 0.71411189E+03</rscale>
<asrwt>0</asrwt>
<pdfrwt beam="1">  1        2 0.86935216E-01 0.71411189E+03</pdfrwt>
<pdfrwt beam="2">  1       -2 0.34709638E-01 0.71411189E+03</pdfrwt>
<totfact> 0.41778048E+02</totfact>
</mgrwt>
</event>
<event>
 4    1  0.1755570E-005  0.8451736E+03  0.7818608E-02  0.9496838E-01
          2   -1    0    0  501    0  0.00000000000E+00  0.00000000000E+00  0.61688357596E+03  0.61688357596E+03  0.25500000000E-02 0.  1.
         -2   -1    0    0    0  501 -0.00000000000E+00 -0.00000000000E+00 -0.28948674107E+03  0.28948674108E+03  0.25500000000E-02 0. -1.
   -5000001    1    1    2    0    0  0.27842812640E+03 -0.13310983820E+03  0.88881013590E+01  0.39726496063E+03  0.25000000000E+03 0.  0.
    5000001    1    1    2    0    0 -0.27842812640E+03  0.13310983820E+03  0.31850873353E+03  0.50910535641E+03  0.25000000000E+03 0.  0.
<mgrwt>
<rscale>  0 0.84517363E+03</rscale>
<asrwt>0</asrwt>
<pdfrwt beam="1">  1        2 0.94905165E-01 0.84517363E+03</pdfrwt>
<pdfrwt beam="2">  1       -2 0.44536422E-01 0.84517363E+03</pdfrwt>
<totfact> 0.23040951E+02</totfact>
</mgrwt>
</event>
<event>
 4    1  0.1755570E-005  0.6956625E+03  0.7818608E-02  0.9724679E-01
         -2   -1    0    0    0  501 -0.00000000000E+00  0.00000000000E+00  0.54465403720E+03  0.54465403720E+03  0.25500000000E-02 0. -1.
          2   -1    0    0  501    0  0.00000000000E+00 -0.00000000000E+00 -0.22213473187E+03  0.22213473189E+03  0.25500000000E-02 0.  1.
   -5000001    1    1    2    0    0  0.46059712136E+02 -0.22103168927E+03  0.25678073877E+03  0.42357154360E+03  0.25000000000E+03 0.  0.
    5000001    1    1    2    0    0 -0.46059712136E+02  0.22103168927E+03  0.65738566559E+02  0.34321722549E+03  0.25000000000E+03 0.  0.
<mgrwt>
<rscale>  0 0.69566250E+03</rscale>
<asrwt>0</asrwt>
<pdfrwt beam="1">  1        2 0.34174575E-01 0.69566250E+03</pdfrwt>
<pdfrwt beam="2">  1       -2 0.83792927E-01 0.69566250E+03</pdfrwt>
<totfact> 0.19318161E+02</totfact>
</mgrwt>
</event>
<event>
 4    1  0.1755570E-005  0.5995308E+03  0.7818608E-02  0.9906380E-01
         -2   -1    0    0    0  501 -0.00000000000E+00  0.00000000000E+00  0.17681798667E+03  0.17681798669E+03  0.25500000000E-02 0. -1.
          2   -1    0    0  501    0  0.00000000000E+00 -0.00000000000E+00 -0.50820228898E+03  0.50820228898E+03  0.25500000000E-02 0.  1.
   -5000001    1    1    2    0    0 -0.84146944864E+02 -0.91233631813E+02 -0.40762051832E+02  0.28207415474E+03  0.25000000000E+03 0.  0.
    5000001    1    1    2    0    0  0.84146944864E+02  0.91233631813E+02 -0.29062225047E+03  0.40294612093E+03  0.25000000000E+03 0.  0.
<mgrwt>
<rscale>  0 0.59953084E+03</rscale>
<asrwt>0</asrwt>
<pdfrwt beam="1">  1        2 0.78184966E-01 0.59953084E+03</pdfrwt>
<pdfrwt beam="2">  1       -2 0.27202768E-01 0.59953084E+03</pdfrwt>
<totfact> 0.74624115E+02</totfact>
</mgrwt>
</event>
<event>
 4    1  0.1755570E-005  0.6029028E+03  0.7818608E-02  0.9899402E-01
         -2   -1    0    0    0  501 -0.00000000000E+00  0.00000000000E+00  0.13247492190E+03  0.13247492192E+03  0.25500000000E-02 0. -1.
          2   -1    0    0  501    0  0.00000000000E+00 -0.00000000000E+00 -0.68596328608E+03  0.68596328609E+03  0.25500000000E-02 0.  1.
   -5000001    1    1    2    0    0  0.15561120087E+03 -0.60746696223E+02 -0.24737937625E+03  0.38936045348E+03  0.25000000000E+03 0.  0.
    5000001    1    1    2    0    0 -0.15561120087E+03  0.60746696223E+02 -0.30610898793E+03  0.42907775453E+03  0.25000000000E+03 0.  0.
<mgrwt>
<rscale>  0 0.60290275E+03</rscale>
<asrwt>0</asrwt>
<pdfrwt beam="1">  1        2 0.10553281E+00 0.60290275E+03</pdfrwt>
<pdfrwt beam="2">  1       -2 0.20380758E-01 0.60290275E+03</pdfrwt>
<totfact> 0.87196264E+02</totfact>
</mgrwt>
</event>
<event>
 4    1  0.1755570E-005  0.6049150E+03  0.7818608E-02  0.9895261E-01
          2   -1    0    0  501    0  0.00000000000E+00  0.00000000000E+00  0.58517058397E+03  0.58517058397E+03  0.25500000000E-02 0.  1.
         -2   -1    0    0    0  501 -0.00000000000E+00 -0.00000000000E+00 -0.15633141262E+03  0.15633141264E+03  0.25500000000E-02 0. -1.
   -5000001    1    1    2    0    0  0.12776360573E+02  0.15245326940E+03  0.30594726309E+03  0.42368498030E+03  0.25000000000E+03 0.  0.
    5000001    1    1    2    0    0 -0.12776360573E+02 -0.15245326940E+03  0.12289190826E+03  0.31781701631E+03  0.25000000000E+03 0.  0.
<mgrwt>
<rscale>  0 0.60491502E+03</rscale>
<asrwt>0</asrwt>
<pdfrwt beam="1">  1        2 0.90026245E-01 0.60491502E+03</pdfrwt>
<pdfrwt beam="2">  1       -2 0.24050986E-01 0.60491502E+03</pdfrwt>
<totfact> 0.78962409E+02</totfact>
</mgrwt>
</event>
<event>
 4    1  0.1755570E-005  0.1265686E+04  0.7818608E-02  0.9057228E-01
          2   -1    0    0  501    0  0.00000000000E+00  0.00000000000E+00  0.16791992153E+04  0.16791992153E+04  0.25500000000E-02 0. -1.
         -2   -1    0    0    0  501 -0.00000000000E+00 -0.00000000000E+00 -0.23850064535E+03  0.23850064537E+03  0.25500000000E-02 0.  1.
   -5000001    1    1    2    0    0 -0.57668749914E+03 -0.19647042427E+02  0.82786728190E+03  0.10396243141E+04  0.25000000000E+03 0.  0.
    5000001    1    1    2    0    0  0.57668749914E+03  0.19647042427E+02  0.61283128803E+03  0.87807554659E+03  0.25000000000E+03 0.  0.
<mgrwt>
<rscale>  0 0.12656857E+04</rscale>
<asrwt>0</asrwt>
<pdfrwt beam="1">  1        2 0.25833833E+00 0.12656857E+04</pdfrwt>
<pdfrwt beam="2">  1       -2 0.36692408E-01 0.12656857E+04</pdfrwt>
<totfact> 0.69209929E+01</totfact>
</mgrwt>
</event>
<event>
 4    1  0.1755570E-005  0.8914377E+03  0.7818608E-02  0.9436348E-01
          2   -1    0    0  501    0  0.00000000000E+00  0.00000000000E+00  0.12347496488E+04  0.12347496488E+04  0.25500000000E-02 0.  1.
         -2   -1    0    0    0  501 -0.00000000000E+00 -0.00000000000E+00 -0.16089520243E+03  0.16089520245E+03  0.25500000000E-02 0. -1.
   -5000001    1    1    2    0    0  0.41936581324E+02  0.33144253165E+03  0.78224638880E+03  0.88657895386E+03  0.25000000000E+03 0.  0.
    5000001    1    1    2    0    0 -0.41936581324E+02 -0.33144253165E+03  0.29160805755E+03  0.50906589737E+03  0.25000000000E+03 0.  0.
<mgrwt>
<rscale>  0 0.89143770E+03</rscale>
<asrwt>0</asrwt>
<pdfrwt beam="1">  1        2 0.18996148E+00 0.89143770E+03</pdfrwt>
<pdfrwt beam="2">  1       -2 0.24753108E-01 0.89143770E+03</pdfrwt>
<totfact> 0.26417559E+02</totfact>
</mgrwt>
</event>
<event>
 4    1  0.1755570E-005  0.8592749E+03  0.7818608E-02  0.9477972E-01
          2   -1    0    0  501    0  0.00000000000E+00  0.00000000000E+00  0.93890090467E+03  0.93890090468E+03  0.25500000000E-02 0.  1.
         -2   -1    0    0    0  501 -0.00000000000E+00 -0.00000000000E+00 -0.19660043179E+03  0.19660043181E+03  0.25500000000E-02 0. -1.
   -5000001    1    1    2    0    0 -0.10475412733E+02 -0.34867216498E+03  0.39778718667E+03  0.58516378800E+03  0.25000000000E+03 0.  0.
    5000001    1    1    2    0    0  0.10475412733E+02  0.34867216498E+03  0.34451328621E+03  0.55033754849E+03  0.25000000000E+03 0.  0.
<mgrwt>
<rscale>  0 0.85927486E+03</rscale>
<asrwt>0</asrwt>
<pdfrwt beam="1">  1        2 0.14444629E+00 0.85927486E+03</pdfrwt>
<pdfrwt beam="2">  1       -2 0.30246221E-01 0.85927486E+03</pdfrwt>
<totfact> 0.27957834E+02</totfact>
</mgrwt>
</event>
<event>
 4    1  0.1755570E-005  0.8734916E+03  0.7818608E-02  0.9459339E-01
         -2   -1    0    0    0  501 -0.00000000000E+00  0.00000000000E+00  0.51843694330E+03  0.51843694330E+03  0.25500000000E-02 0. -1.
          2   -1    0    0  501    0  0.00000000000E+00 -0.00000000000E+00 -0.36792691816E+03  0.36792691817E+03  0.25500000000E-02 0.  1.
   -5000001    1    1    2    0    0 -0.11995233413E+02 -0.34827907999E+03 -0.84512401926E+01  0.42896809514E+03  0.25000000000E+03 0.  0.
    5000001    1    1    2    0    0  0.11995233413E+02  0.34827907999E+03  0.15896126533E+03  0.45739576634E+03  0.25000000000E+03 0.  0.
<mgrwt>
<rscale>  0 0.87349163E+03</rscale>
<asrwt>0</asrwt>
<pdfrwt beam="1">  1        2 0.56604141E-01 0.87349163E+03</pdfrwt>
<pdfrwt beam="2">  1       -2 0.79759529E-01 0.87349163E+03</pdfrwt>
<totfact> 0.12220589E+02</totfact>
</mgrwt>
</event>
<event>
 4    1  0.1755570E-005  0.5644070E+03  0.7818608E-02  0.9982132E-01
         -2   -1    0    0    0  501 -0.00000000000E+00  0.00000000000E+00  0.40452213311E+02  0.40452213391E+02  0.25500000000E-02 0. -1.
          2   -1    0    0  501    0  0.00000000000E+00 -0.00000000000E+00 -0.19687136345E+04  0.19687136345E+04  0.25500000000E-02 0.  1.
   -5000001    1    1    2    0    0 -0.82123941174E+02 -0.10189362450E+03 -0.97654998593E+03  0.10165021040E+04  0.25000000000E+03 0.  0.
    5000001    1    1    2    0    0  0.82123941174E+02  0.10189362450E+03 -0.95171143529E+03  0.99266374392E+03  0.25000000000E+03 0.  0.
<mgrwt>
<rscale>  0 0.56440703E+03</rscale>
<asrwt>0</asrwt>
<pdfrwt beam="1">  1        2 0.30287895E+00 0.56440703E+03</pdfrwt>
<pdfrwt beam="2">  1       -2 0.62234190E-02 0.56440703E+03</pdfrwt>
<totfact> 0.10538441E+03</totfact>
</mgrwt>
</event>
<event>
 4    1  0.1755570E-005  0.8330171E+03  0.7818608E-02  0.9513419E-01
         -2   -1    0    0    0  501 -0.00000000000E+00  0.00000000000E+00  0.62808100528E+03  0.62808100529E+03  0.25500000000E-02 0. -1.
          2   -1    0    0  501    0  0.00000000000E+00 -0.00000000000E+00 -0.27620539056E+03  0.27620539057E+03  0.25500000000E-02 0.  1.
   -5000001    1    1    2    0    0 -0.97628039790E+02 -0.27271251116E+03 -0.26880974010E+01  0.38263634663E+03  0.25000000000E+03 0.  0.
    5000001    1    1    2    0    0  0.97628039790E+02  0.27271251116E+03  0.35456371213E+03  0.52165004922E+03  0.25000000000E+03 0.  0.
<mgrwt>
<rscale>  0 0.83301707E+03</rscale>
<asrwt>0</asrwt>
<pdfrwt beam="1">  1        2 0.42493137E-01 0.83301707E+03</pdfrwt>
<pdfrwt beam="2">  1       -2 0.96627846E-01 0.83301707E+03</pdfrwt>
<totfact> 0.10848852E+02</totfact>
</mgrwt>
</event>
<event>
 4    1  0.1755570E-005  0.6545433E+03  0.7818608E-02  0.9798291E-01
          2   -1    0    0  501    0  0.00000000000E+00  0.00000000000E+00  0.15119736519E+04  0.15119736519E+04  0.25500000000E-02 0.  1.
         -2   -1    0    0    0  501 -0.00000000000E+00 -0.00000000000E+00 -0.70839018648E+02  0.70839018694E+02  0.25500000000E-02 0. -1.
   -5000001    1    1    2    0    0  0.20233154658E+03  0.48415105977E+02  0.80857936517E+03  0.87154039896E+03  0.25000000000E+03 0.  0.
    5000001    1    1    2    0    0 -0.20233154658E+03 -0.48415105977E+02  0.63255526805E+03  0.71127227161E+03  0.25000000000E+03 0.  0.
<mgrwt>
<rscale>  0 0.65454329E+03</rscale>
<asrwt>0</asrwt>
<pdfrwt beam="1">  1        2 0.23261134E+00 0.65454329E+03</pdfrwt>
<pdfrwt beam="2">  1       -2 0.10898310E-01 0.65454329E+03</pdfrwt>
<totfact> 0.75816735E+02</totfact>
</mgrwt>
</event>
<event>
 4    1  0.1755570E-005  0.7645799E+03  0.7818608E-02  0.9612750E-01
         -2   -1    0    0    0  501 -0.00000000000E+00  0.00000000000E+00  0.14702727671E+04  0.14702727671E+04  0.25500000000E-02 0. -1.
          2   -1    0    0  501    0  0.00000000000E+00 -0.00000000000E+00 -0.99400341845E+02  0.99400341878E+02  0.25500000000E-02 0.  1.
   -5000001    1    1    2    0    0  0.27411876596E+03  0.85636602114E+02  0.61518652222E+03  0.72348405829E+03  0.25000000000E+03 0.  0.
    5000001    1    1    2    0    0 -0.27411876596E+03 -0.85636602114E+02  0.75568590305E+03  0.84618905071E+03  0.25000000000E+03 0.  0.
<mgrwt>
<rscale>  0 0.76457993E+03</rscale>
<asrwt>0</asrwt>
<pdfrwt beam="1">  1        2 0.15292361E-01 0.76457993E+03</pdfrwt>
<pdfrwt beam="2">  1       -2 0.22619580E+00 0.76457993E+03</pdfrwt>
<totfact> 0.36130443E+01</totfact>
</mgrwt>
</event>
<event>
 4    1  0.1755570E-005  0.1866854E+04  0.7818608E-02  0.8671533E-01
         -2   -1    0    0    0  501 -0.00000000000E+00  0.00000000000E+00  0.64975088468E+03  0.64975088469E+03  0.25500000000E-02 0. -1.
          2   -1    0    0  501    0  0.00000000000E+00 -0.00000000000E+00 -0.13409544303E+04  0.13409544303E+04  0.25500000000E-02 0.  1.
   -5000001    1    1    2    0    0  0.18851257194E+03  0.73489170638E+03 -0.86052852495E+03  0.11741431566E+04  0.25000000000E+03 0.  0.
    5000001    1    1    2    0    0 -0.18851257194E+03 -0.73489170638E+03  0.16932497935E+03  0.81656215839E+03  0.25000000000E+03 0.  0.
<mgrwt>
<rscale>  0 0.18668544E+04</rscale>
<asrwt>0</asrwt>
<pdfrwt beam="1">  1        2 0.20630068E+00 0.18668544E+04</pdfrwt>
<pdfrwt beam="2">  1       -2 0.99961675E-01 0.18668544E+04</pdfrwt>
<totfact> 0.12151571E+01</totfact>
</mgrwt>
</event>
<event>
 4    1  0.1755570E-005  0.6862057E+03  0.7818608E-02  0.9741117E-01
         -2   -1    0    0    0  501 -0.00000000000E+00  0.00000000000E+00  0.43623956606E+02  0.43623956681E+02  0.25500000000E-02 0. -1.
          2   -1    0    0  501    0  0.00000000000E+00 -0.00000000000E+00 -0.26985076786E+04  0.26985076786E+04  0.25500000000E-02 0.  1.
   -5000001    1    1    2    0    0 -0.34563900514E+02 -0.23044860331E+03 -0.12063428979E+04  0.12538199270E+04  0.25000000000E+03 0.  0.
    5000001    1    1    2    0    0  0.34563900514E+02  0.23044860331E+03 -0.14485408241E+04  0.14883117083E+04  0.25000000000E+03 0.  0.
<mgrwt>
<rscale>  0 0.68620575E+03</rscale>
<asrwt>0</asrwt>
<pdfrwt beam="1">  1        2 0.41515490E+00 0.68620575E+03</pdfrwt>
<pdfrwt beam="2">  1       -2 0.67113801E-02 0.68620575E+03</pdfrwt>
<totfact> 0.36390339E+02</totfact>
</mgrwt>
</event>
<event>
 4    1  0.1755570E-005  0.9678088E+03  0.7818608E-02  0.9344574E-01
         -2   -1    0    0    0  501 -0.00000000000E+00  0.00000000000E+00  0.62912548490E+02  0.62912548541E+02  0.25500000000E-02 0. -1.
          2   -1    0    0  501    0  0.00000000000E+00 -0.00000000000E+00 -0.37220468511E+04  0.37220468511E+04  0.25500000000E-02 0.  1.
   -5000001    1    1    2    0    0  0.40545011460E+03  0.43527923642E+02 -0.21163951470E+04  0.21697725442E+04  0.25000000000E+03 0.  0.
    5000001    1    1    2    0    0 -0.40545011460E+03 -0.43527923642E+02 -0.15427391557E+04  0.16151868554E+04  0.25000000000E+03 0.  0.
<mgrwt>
<rscale>  0 0.96780877E+03</rscale>
<asrwt>0</asrwt>
<pdfrwt beam="1">  1        2 0.57262242E+00 0.96780877E+03</pdfrwt>
<pdfrwt beam="2">  1       -2 0.96788565E-02 0.96780877E+03</pdfrwt>
<totfact> 0.42865022E+01</totfact>
</mgrwt>
</event>
<event>
 4    1  0.1755570E-005  0.8077075E+03  0.7818608E-02  0.9548927E-01
          2   -1    0    0  501    0  0.00000000000E+00  0.00000000000E+00  0.40962185939E+03  0.40962185940E+03  0.25500000000E-02 0.  1.
         -2   -1    0    0    0  501 -0.00000000000E+00 -0.00000000000E+00 -0.39816687473E+03  0.39816687474E+03  0.25500000000E-02 0. -1.
   -5000001    1    1    2    0    0  0.13691968243E+03 -0.25690494230E+03  0.13163974294E+03  0.40567988702E+03  0.25000000000E+03 0.  0.
    5000001    1    1    2    0    0 -0.13691968243E+03  0.25690494230E+03 -0.12018475827E+03  0.40210884712E+03  0.25000000000E+03 0.  0.
<mgrwt>
<rscale>  0 0.80770751E+03</rscale>
<asrwt>0</asrwt>
<pdfrwt beam="1">  1        2 0.63018747E-01 0.80770751E+03</pdfrwt>
<pdfrwt beam="2">  1       -2 0.61256443E-01 0.80770751E+03</pdfrwt>
<totfact> 0.19328513E+02</totfact>
</mgrwt>
</event>
<event>
 4    1  0.1755570E-005  0.1103618E+04  0.7818608E-02  0.9201672E-01
         -2   -1    0    0    0  501 -0.00000000000E+00  0.00000000000E+00  0.19843703365E+03  0.19843703367E+03  0.25500000000E-02 0. -1.
          2   -1    0    0  501    0  0.00000000000E+00 -0.00000000000E+00 -0.15344583368E+04  0.15344583368E+04  0.25500000000E-02 0.  1.
   -5000001    1    1    2    0    0 -0.43911442377E+03  0.21579010492E+02 -0.32147678153E+03  0.59927827586E+03  0.25000000000E+03 0.  0.
    5000001    1    1    2    0    0  0.43911442377E+03 -0.21579010492E+02 -0.10145445216E+04  0.11336170946E+04  0.25000000000E+03 0.  0.
<mgrwt>
<rscale>  0 0.11036183E+04</rscale>
<asrwt>0</asrwt>
<pdfrwt beam="1">  1        2 0.23607051E+00 0.11036183E+04</pdfrwt>
<pdfrwt beam="2">  1       -2 0.30528775E-01 0.11036183E+04</pdfrwt>
<totfact> 0.11950125E+02</totfact>
</mgrwt>
</event>
<event>
 4    1  0.1755570E-005  0.6066781E+03  0.7818608E-02  0.9891647E-01
          2   -1    0    0  501    0  0.00000000000E+00  0.00000000000E+00  0.20643337646E+04  0.20643337646E+04  0.25500000000E-02 0.  1.
         -2   -1    0    0    0  501 -0.00000000000E+00 -0.00000000000E+00 -0.44573504758E+02  0.44573504831E+02  0.25500000000E-02 0. -1.
   -5000001    1    1    2    0    0  0.42514231059E+02  0.13688189328E+03  0.68064441481E+03  0.73913525959E+03  0.25000000000E+03 0.  0.
    5000001    1    1    2    0    0 -0.42514231059E+02 -0.13688189328E+03  0.13391158450E+04  0.13697720098E+04  0.25000000000E+03 0.  0.
<mgrwt>
<rscale>  0 0.60667814E+03</rscale>
<asrwt>0</asrwt>
<pdfrwt beam="1">  1        2 0.31758978E+00 0.60667814E+03</pdfrwt>
<pdfrwt beam="2">  1       -2 0.68574629E-02 0.60667814E+03</pdfrwt>
<totfact> 0.80067755E+02</totfact>
</mgrwt>
</event>
<event>
 4    1  0.1755570E-005  0.5223015E+03  0.7818608E-02  0.1008116E+00
         -2   -1    0    0    0  501 -0.00000000000E+00  0.00000000000E+00  0.14327606749E+03  0.14327606751E+03  0.25500000000E-02 0. -1.
          2   -1    0    0  501    0  0.00000000000E+00 -0.00000000000E+00 -0.47600220111E+03  0.47600220111E+03  0.25500000000E-02 0.  1.
   -5000001    1    1    2    0    0  0.66211529967E+02 -0.24803193231E+02 -0.19774550713E+03  0.32650030733E+03  0.25000000000E+03 0.  0.
    5000001    1    1    2    0    0 -0.66211529967E+02  0.24803193231E+02 -0.13498062649E+03  0.29277796130E+03  0.25000000000E+03 0.  0.
<mgrwt>
<rscale>  0 0.52230154E+03</rscale>
<asrwt>0</asrwt>
<pdfrwt beam="1">  1        2 0.73231107E-01 0.52230154E+03</pdfrwt>
<pdfrwt beam="2">  1       -2 0.22042472E-01 0.52230154E+03</pdfrwt>
<totfact> 0.11728885E+03</totfact>
</mgrwt>
</event>
<event>
 4    1  0.1755570E-005  0.7365568E+03  0.7818608E-02  0.9656680E-01
         -2   -1    0    0    0  501 -0.00000000000E+00  0.00000000000E+00  0.27962520094E+03  0.27962520095E+03  0.25500000000E-02 0. -1.
          2   -1    0    0  501    0  0.00000000000E+00 -0.00000000000E+00 -0.48503849079E+03  0.48503849080E+03  0.25500000000E-02 0.  1.
   -5000001    1    1    2    0    0 -0.56847849542E+02  0.26163301350E+03 -0.63236445952E+02  0.37172887949E+03  0.25000000000E+03 0.  0.
    5000001    1    1    2    0    0  0.56847849542E+02 -0.26163301350E+03 -0.14217684390E+03  0.39293481227E+03  0.25000000000E+03 0.  0.
<mgrwt>
<rscale>  0 0.73655682E+03</rscale>
<asrwt>0</asrwt>
<pdfrwt beam="1">  1        2 0.74621306E-01 0.73655682E+03</pdfrwt>
<pdfrwt beam="2">  1       -2 0.43019262E-01 0.73655682E+03</pdfrwt>
<totfact> 0.32939831E+02</totfact>
</mgrwt>
</event>
<event>
 4    1  0.1755570E-005  0.6287915E+03  0.7818608E-02  0.9847410E-01
          2   -1    0    0  501    0  0.00000000000E+00  0.00000000000E+00  0.71488660720E+03  0.71488660721E+03  0.25500000000E-02 0.  1.
         -2   -1    0    0    0  501 -0.00000000000E+00 -0.00000000000E+00 -0.13826624542E+03  0.13826624544E+03  0.25500000000E-02 0. -1.
   -5000001    1    1    2    0    0  0.12220242433E+03 -0.14371202025E+03  0.32566840696E+03  0.45182572809E+03  0.25000000000E+03 0.  0.
    5000001    1    1    2    0    0 -0.12220242433E+03  0.14371202025E+03  0.25095195483E+03  0.40132712456E+03  0.25000000000E+03 0.  0.
<mgrwt>
<rscale>  0 0.62879150E+03</rscale>
<asrwt>0</asrwt>
<pdfrwt beam="1">  1        2 0.10998256E+00 0.62879150E+03</pdfrwt>
<pdfrwt beam="2">  1       -2 0.21271730E-01 0.62879150E+03</pdfrwt>
<totfact> 0.76767375E+02</totfact>
</mgrwt>
</event>
<event>
 4    1  0.1755570E-005  0.7424965E+03  0.7818608E-02  0.9647196E-01
         -2   -1    0    0    0  501 -0.00000000000E+00  0.00000000000E+00  0.25102014473E+03  0.25102014474E+03  0.25500000000E-02 0. -1.
          2   -1    0    0  501    0  0.00000000000E+00 -0.00000000000E+00 -0.54906062130E+03  0.54906062130E+03  0.25500000000E-02 0.  1.
   -5000001    1    1    2    0    0 -0.19817769289E+03 -0.11961665663E+03  0.98697290112E+01  0.34085180659E+03  0.25000000000E+03 0.  0.
    5000001    1    1    2    0    0  0.19817769289E+03  0.11961665663E+03 -0.30791020558E+03  0.45922895946E+03  0.25000000000E+03 0.  0.
<mgrwt>
<rscale>  0 0.74249654E+03</rscale>
<asrwt>0</asrwt>
<pdfrwt beam="1">  1        2 0.84470864E-01 0.74249654E+03</pdfrwt>
<pdfrwt beam="2">  1       -2 0.38618484E-01 0.74249654E+03</pdfrwt>
<totfact> 0.35193603E+02</totfact>
</mgrwt>
</event>
<event>
 4    1  0.1755570E-005  0.8002021E+03  0.7818608E-02  0.9559725E-01
          2   -1    0    0  501    0  0.00000000000E+00  0.00000000000E+00  0.81548026923E+03  0.81548026923E+03  0.25500000000E-02 0.  1.
         -2   -1    0    0    0  501 -0.00000000000E+00 -0.00000000000E+00 -0.19630254853E+03  0.19630254855E+03  0.25500000000E-02 0. -1.
   -5000001    1    1    2    0    0 -0.30614907084E+03  0.56679501176E+02  0.27757568761E+03  0.48630040282E+03  0.25000000000E+03 0.  0.
    5000001    1    1    2    0    0  0.30614907084E+03 -0.56679501176E+02  0.34160203309E+03  0.52548241497E+03  0.25000000000E+03 0.  0.
<mgrwt>
<rscale>  0 0.80020211E+03</rscale>
<asrwt>0</asrwt>
<pdfrwt beam="1">  1        2 0.12545850E+00 0.80020211E+03</pdfrwt>
<pdfrwt beam="2">  1       -2 0.30200392E-01 0.80020211E+03</pdfrwt>
<totfact> 0.34149175E+02</totfact>
</mgrwt>
</event>
<event>
 4    1  0.1755570E-005  0.6262238E+03  0.7818608E-02  0.9852446E-01
          2   -1    0    0  501    0  0.00000000000E+00  0.00000000000E+00  0.33687250230E+04  0.33687250230E+04  0.25500000000E-02 0.  1.
         -2   -1    0    0    0  501 -0.00000000000E+00 -0.00000000000E+00 -0.29102717719E+02  0.29102717831E+02  0.25500000000E-02 0. -1.
   -5000001    1    1    2    0    0 -0.17217043657E+03 -0.24010150050E+02  0.20655638013E+04  0.20878872009E+04  0.25000000000E+03 0.  0.
    5000001    1    1    2    0    0  0.17217043657E+03  0.24010150050E+02  0.12740585040E+04  0.13099405399E+04  0.25000000000E+03 0.  0.
<mgrwt>
<rscale>  0 0.62622377E+03</rscale>
<asrwt>0</asrwt>
<pdfrwt beam="1">  1        2 0.51826492E+00 0.62622377E+03</pdfrwt>
<pdfrwt beam="2">  1       -2 0.44773453E-02 0.62622377E+03</pdfrwt>
<totfact> 0.26682441E+02</totfact>
</mgrwt>
</event>
<event>
 4    1  0.1755570E-005  0.7106197E+03  0.7818608E-02  0.9699241E-01
         -2   -1    0    0    0  501 -0.00000000000E+00  0.00000000000E+00  0.19073312242E+03  0.19073312244E+03  0.25500000000E-02 0. -1.
          2   -1    0    0  501    0  0.00000000000E+00 -0.00000000000E+00 -0.66189396212E+03  0.66189396213E+03  0.25500000000E-02 0.  1.
   -5000001    1    1    2    0    0 -0.85949283092E+02 -0.14260204698E+03 -0.78564960055E+01  0.30047353893E+03  0.25000000000E+03 0.  0.
    5000001    1    1    2    0    0  0.85949283092E+02  0.14260204698E+03 -0.46330434370E+03  0.55215354563E+03  0.25000000000E+03 0.  0.
<mgrwt>
<rscale>  0 0.71061974E+03</rscale>
<asrwt>0</asrwt>
<pdfrwt beam="1">  1        2 0.10182984E+00 0.71061974E+03</pdfrwt>
<pdfrwt beam="2">  1       -2 0.29343558E-01 0.71061974E+03</pdfrwt>
<totfact> 0.47249032E+02</totfact>
</mgrwt>
</event>
<event>
 4    1  0.1755570E-005  0.8198949E+03  0.7818608E-02  0.9531658E-01
         -2   -1    0    0    0  501 -0.00000000000E+00  0.00000000000E+00  0.19646717904E+03  0.19646717906E+03  0.25500000000E-02 0. -1.
          2   -1    0    0  501    0  0.00000000000E+00 -0.00000000000E+00 -0.85539425600E+03  0.85539425601E+03  0.25500000000E-02 0.  1.
   -5000001    1    1    2    0    0 -0.25840311609E+03  0.18680783412E+03 -0.40945412350E+03  0.57603994354E+03  0.25000000000E+03 0.  0.
    5000001    1    1    2    0    0  0.25840311609E+03 -0.18680783412E+03 -0.24947295345E+03  0.47582149153E+03  0.25000000000E+03 0.  0.
<mgrwt>
<rscale>  0 0.81989486E+03</rscale>
<asrwt>0</asrwt>
<pdfrwt beam="1">  1        2 0.13159911E+00 0.81989486E+03</pdfrwt>
<pdfrwt beam="2">  1       -2 0.30225720E-01 0.81989486E+03</pdfrwt>
<totfact> 0.31937187E+02</totfact>
</mgrwt>
</event>
<event>
 4    1  0.1755570E-005  0.5543247E+03  0.7818608E-02  0.1000498E+00
         -2   -1    0    0    0  501 -0.00000000000E+00  0.00000000000E+00  0.10546875543E+03  0.10546875546E+03  0.25500000000E-02 0. -1.
          2   -1    0    0  501    0  0.00000000000E+00 -0.00000000000E+00 -0.72835753905E+03  0.72835753906E+03  0.25500000000E-02 0.  1.
   -5000001    1    1    2    0    0  0.10273945884E+03  0.54977213995E+02 -0.35239324846E+03  0.44750295197E+03  0.25000000000E+03 0.  0.
    5000001    1    1    2    0    0 -0.10273945884E+03 -0.54977213995E+02 -0.27049553516E+03  0.38632334255E+03  0.25000000000E+03 0.  0.
<mgrwt>
<rscale>  0 0.55432468E+03</rscale>
<asrwt>0</asrwt>
<pdfrwt beam="1">  1        2 0.11205500E+00 0.55432468E+03</pdfrwt>
<pdfrwt beam="2">  1       -2 0.16225963E-01 0.55432468E+03</pdfrwt>
<totfact> 0.11981674E+03</totfact>
</mgrwt>
</event>
<event>
 4    1  0.1755570E-005  0.6402429E+03  0.7818608E-02  0.9825262E-01
         -2   -1    0    0    0  501 -0.00000000000E+00  0.00000000000E+00  0.40965886476E+03  0.40965886477E+03  0.25500000000E-02 0. -1.
          2   -1    0    0  501    0  0.00000000000E+00 -0.00000000000E+00 -0.25015388768E+03  0.25015388769E+03  0.25500000000E-02 0.  1.
   -5000001    1    1    2    0    0  0.17395456723E+03 -0.96451559108E+02  0.58766786120E+02  0.32483323393E+03  0.25000000000E+03 0.  0.
    5000001    1    1    2    0    0 -0.17395456723E+03  0.96451559108E+02  0.10073819096E+03  0.33497951853E+03  0.25000000000E+03 0.  0.
<mgrwt>
<rscale>  0 0.64024295E+03</rscale>
<asrwt>0</asrwt>
<pdfrwt beam="1">  1        2 0.38485213E-01 0.64024295E+03</pdfrwt>
<pdfrwt beam="2">  1       -2 0.63024441E-01 0.64024295E+03</pdfrwt>
<totfact> 0.31685833E+02</totfact>
</mgrwt>
</event>
<event>
 4    1  0.1755570E-005  0.1134649E+04  0.7818608E-02  0.9172063E-01
          2   -1    0    0  501    0  0.00000000000E+00  0.00000000000E+00  0.93541579109E+03  0.93541579109E+03  0.25500000000E-02 0.  1.
         -2   -1    0    0    0  501 -0.00000000000E+00 -0.00000000000E+00 -0.34407925460E+03  0.34407925461E+03  0.25500000000E-02 0. -1.
   -5000001    1    1    2    0    0  0.49012640653E+03  0.11138221360E+03  0.20317786959E+03  0.59700179110E+03  0.25000000000E+03 0.  0.
    5000001    1    1    2    0    0 -0.49012640653E+03 -0.11138221360E+03  0.38815866690E+03  0.68249325460E+03  0.25000000000E+03 0.  0.
<mgrwt>
<rscale>  0 0.11346491E+04</rscale>
<asrwt>0</asrwt>
<pdfrwt beam="1">  1        2 0.14391012E+00 0.11346491E+04</pdfrwt>
<pdfrwt beam="2">  1       -2 0.52935271E-01 0.11346491E+04</pdfrwt>
<totfact> 0.92572084E+01</totfact>
</mgrwt>
</event>
<event>
 4    1  0.1755570E-005  0.5774431E+03  0.7818608E-02  0.9953342E-01
         -2   -1    0    0    0  501 -0.00000000000E+00  0.00000000000E+00  0.37840361189E+02  0.37840361275E+02  0.25500000000E-02 0. -1.
          2   -1    0    0  501    0  0.00000000000E+00 -0.00000000000E+00 -0.22029422048E+04  0.22029422048E+04  0.25500000000E-02 0.  1.
   -5000001    1    1    2    0    0 -0.16081336564E+02  0.84639224686E+02 -0.63271581781E+03  0.68574901666E+03  0.25000000000E+03 0.  0.
    5000001    1    1    2    0    0  0.16081336564E+02 -0.84639224686E+02 -0.15323860258E+04  0.15550335494E+04  0.25000000000E+03 0.  0.
<mgrwt>
<rscale>  0 0.57744308E+03</rscale>
<asrwt>0</asrwt>
<pdfrwt beam="1">  1        2 0.33891408E+00 0.57744308E+03</pdfrwt>
<pdfrwt beam="2">  1       -2 0.58215958E-02 0.57744308E+03</pdfrwt>
<totfact> 0.87211787E+02</totfact>
</mgrwt>
</event>
<event>
 4    1  0.1755570E-005  0.7252537E+03  0.7818608E-02  0.9674994E-01
         -2   -1    0    0    0  501 -0.00000000000E+00  0.00000000000E+00  0.23962782776E+03  0.23962782777E+03  0.25500000000E-02 0. -1.
          2   -1    0    0  501    0  0.00000000000E+00 -0.00000000000E+00 -0.54876022791E+03  0.54876022792E+03  0.25500000000E-02 0.  1.
   -5000001    1    1    2    0    0  0.25296304307E+03  0.41228118438E+02 -0.92042666237E+02  0.36967811853E+03  0.25000000000E+03 0.  0.
    5000001    1    1    2    0    0 -0.25296304307E+03 -0.41228118438E+02 -0.21708973391E+03  0.41870993716E+03  0.25000000000E+03 0.  0.
<mgrwt>
<rscale>  0 0.72525367E+03</rscale>
<asrwt>0</asrwt>
<pdfrwt beam="1">  1        2 0.84424650E-01 0.72525367E+03</pdfrwt>
<pdfrwt beam="2">  1       -2 0.36865820E-01 0.72525367E+03</pdfrwt>
<totfact> 0.38537563E+02</totfact>
</mgrwt>
</event>
<event>
 4    1  0.1755570E-005  0.6153173E+03  0.7818608E-02  0.9874127E-01
         -2   -1    0    0    0  501 -0.00000000000E+00  0.00000000000E+00  0.26379626996E+03  0.26379626997E+03  0.25500000000E-02 0. -1.
          2   -1    0    0  501    0  0.00000000000E+00 -0.00000000000E+00 -0.35881422804E+03  0.35881422805E+03  0.25500000000E-02 0.  1.
   -5000001    1    1    2    0    0  0.15730429757E+03 -0.58790324916E+01  0.39384661834E+02  0.29804421928E+03  0.25000000000E+03 0.  0.
    5000001    1    1    2    0    0 -0.15730429757E+03  0.58790324916E+01 -0.13440261991E+03  0.32456627874E+03  0.25000000000E+03 0.  0.
<mgrwt>
<rscale>  0 0.61531733E+03</rscale>
<asrwt>0</asrwt>
<pdfrwt beam="1">  1        2 0.55202189E-01 0.61531733E+03</pdfrwt>
<pdfrwt beam="2">  1       -2 0.40584041E-01 0.61531733E+03</pdfrwt>
<totfact> 0.52066834E+02</totfact>
</mgrwt>
</event>
<event>
 4    1  0.1755570E-005  0.7673252E+03  0.7818608E-02  0.9608555E-01
          2   -1    0    0  501    0  0.00000000000E+00  0.00000000000E+00  0.26588235743E+04  0.26588235743E+04  0.25500000000E-02 0.  1.
         -2   -1    0    0    0  501 -0.00000000000E+00 -0.00000000000E+00 -0.55361692467E+02  0.55361692525E+02  0.25500000000E-02 0. -1.
   -5000001    1    1    2    0    0 -0.52409085045E+02 -0.11981230812E+03  0.22213717027E+04  0.22392172612E+04  0.25000000000E+03 0.  0.
    5000001    1    1    2    0    0  0.52409085045E+02  0.11981230812E+03  0.38209017919E+03  0.47496800566E+03  0.25000000000E+03 0.  0.
<mgrwt>
<rscale>  0 0.76732515E+03</rscale>
<asrwt>0</asrwt>
<pdfrwt beam="1">  1        2 0.40904980E+00 0.76732515E+03</pdfrwt>
<pdfrwt beam="2">  1       -2 0.85171831E-02 0.76732515E+03</pdfrwt>
<totfact> 0.26034760E+02</totfact>
</mgrwt>
</event>
<event>
 4    1  0.1755570E-005  0.7370003E+03  0.7818608E-02  0.9655968E-01
         -2   -1    0    0    0  501 -0.00000000000E+00  0.00000000000E+00  0.10528000610E+03  0.10528000613E+03  0.25500000000E-02 0. -1.
          2   -1    0    0  501    0  0.00000000000E+00 -0.00000000000E+00 -0.12898210660E+04  0.12898210660E+04  0.25500000000E-02 0.  1.
   -5000001    1    1    2    0    0 -0.24763713239E+03  0.51601084098E+02 -0.40966707861E+03  0.54250708430E+03  0.25000000000E+03 0.  0.
    5000001    1    1    2    0    0  0.24763713239E+03 -0.51601084098E+02 -0.77487398133E+03  0.85259398788E+03  0.25000000000E+03 0.  0.
<mgrwt>
<rscale>  0 0.73700032E+03</rscale>
<asrwt>0</asrwt>
<pdfrwt beam="1">  1        2 0.19843400E+00 0.73700032E+03</pdfrwt>
<pdfrwt beam="2">  1       -2 0.16196925E-01 0.73700032E+03</pdfrwt>
<totfact> 0.52018801E+02</totfact>
</mgrwt>
</event>
<event>
 4    1  0.1755570E-005  0.5374305E+03  0.7818608E-02  0.1004446E+00
          2   -1    0    0  501    0  0.00000000000E+00  0.00000000000E+00  0.21980858838E+04  0.21980858838E+04  0.25500000000E-02 0.  1.
         -2   -1    0    0    0  501 -0.00000000000E+00 -0.00000000000E+00 -0.32850344877E+02  0.32850344976E+02  0.25500000000E-02 0. -1.
   -5000001    1    1    2    0    0  0.91820373486E+02 -0.15319443548E+02  0.94860594057E+03  0.98540291090E+03  0.25000000000E+03 0.  0.
    5000001    1    1    2    0    0 -0.91820373486E+02  0.15319443548E+02  0.12166295984E+04  0.12455333179E+04  0.25000000000E+03 0.  0.
<mgrwt>
<rscale>  0 0.53743048E+03</rscale>
<asrwt>0</asrwt>
<pdfrwt beam="1">  1        2 0.33816709E+00 0.53743048E+03</pdfrwt>
<pdfrwt beam="2">  1       -2 0.50538988E-02 0.53743048E+03</pdfrwt>
<totfact> 0.10965644E+03</totfact>
</mgrwt>
</event>
<event>
 4    1  0.1755570E-005  0.8848259E+03  0.7818608E-02  0.9444751E-01
          2   -1    0    0  501    0  0.00000000000E+00  0.00000000000E+00  0.98343978768E+03  0.98343978768E+03  0.25500000000E-02 0.  1.
         -2   -1    0    0    0  501 -0.00000000000E+00 -0.00000000000E+00 -0.19902510755E+03  0.19902510757E+03  0.25500000000E-02 0. -1.
   -5000001    1    1    2    0    0  0.20606878315E+03 -0.28112114534E+03  0.24743480032E+03  0.49519432767E+03  0.25000000000E+03 0.  0.
    5000001    1    1    2    0    0 -0.20606878315E+03  0.28112114534E+03  0.53697987980E+03  0.68727056758E+03  0.25000000000E+03 0.  0.
<mgrwt>
<rscale>  0 0.88482588E+03</rscale>
<asrwt>0</asrwt>
<pdfrwt beam="1">  1        2 0.15129843E+00 0.88482588E+03</pdfrwt>
<pdfrwt beam="2">  1       -2 0.30619247E-01 0.88482588E+03</pdfrwt>
<totfact> 0.25524510E+02</totfact>
</mgrwt>
</event>
<event>
 4    1  0.1755570E-005  0.8190861E+03  0.7818608E-02  0.9532794E-01
          2   -1    0    0  501    0  0.00000000000E+00  0.00000000000E+00  0.14877861181E+04  0.14877861181E+04  0.25500000000E-02 0.  1.
         -2   -1    0    0    0  501 -0.00000000000E+00 -0.00000000000E+00 -0.11273496916E+03  0.11273496919E+03  0.25500000000E-02 0. -1.
   -5000001    1    1    2    0    0  0.32230590505E+03 -0.32024648096E+02  0.72241737979E+03  0.83023704154E+03  0.25000000000E+03 0.  0.
    5000001    1    1    2    0    0 -0.32230590505E+03  0.32024648096E+02  0.65263376914E+03  0.77028404575E+03  0.25000000000E+03 0.  0.
<mgrwt>
<rscale>  0 0.81908613E+03</rscale>
<asrwt>0</asrwt>
<pdfrwt beam="1">  1        2 0.22889018E+00 0.81908613E+03</pdfrwt>
<pdfrwt beam="2">  1       -2 0.17343841E-01 0.81908613E+03</pdfrwt>
<totfact> 0.35563071E+02</totfact>
</mgrwt>
</event>
<event>
 4    1  0.1755570E-005  0.9377035E+03  0.7818608E-02  0.9379640E-01
          2   -1    0    0  501    0  0.00000000000E+00  0.00000000000E+00  0.42711134959E+04  0.42711134959E+04  0.25500000000E-02 0.  1.
         -2   -1    0    0    0  501 -0.00000000000E+00 -0.00000000000E+00 -0.51467135425E+02  0.51467135488E+02  0.25500000000E-02 0. -1.
   -5000001    1    1    2    0    0 -0.27806762834E+03 -0.90270927425E+02  0.87417292033E+03  0.95506478361E+03  0.25000000000E+03 0.  0.
    5000001    1    1    2    0    0  0.27806762834E+03  0.90270927425E+02  0.33454734401E+04  0.33675158478E+04  0.25000000000E+03 0.  0.
<mgrwt>
<rscale>  0 0.93770353E+03</rscale>
<asrwt>0</asrwt>
<pdfrwt beam="1">  1        2 0.65709449E+00 0.93770353E+03</pdfrwt>
<pdfrwt beam="2">  1       -2 0.79180196E-02 0.93770353E+03</pdfrwt>
<totfact> 0.21801389E+01</totfact>
</mgrwt>
</event>
<event>
 4    1  0.1755570E-005  0.1198211E+04  0.7818608E-02  0.9114423E-01
         -2   -1    0    0    0  501 -0.00000000000E+00  0.00000000000E+00  0.12381906374E+03  0.12381906376E+03  0.25500000000E-02 0. -1.
          2   -1    0    0  501    0  0.00000000000E+00 -0.00000000000E+00 -0.28988079114E+04  0.28988079114E+04  0.25500000000E-02 0.  1.
   -5000001    1    1    2    0    0  0.23349704156E+03  0.32690142389E+03 -0.46048115659E+03  0.66024866901E+03  0.25000000000E+03 0.  0.
    5000001    1    1    2    0    0 -0.23349704156E+03 -0.32690142389E+03 -0.23145076910E+04  0.23623783061E+04  0.25000000000E+03 0.  0.
<mgrwt>
<rscale>  0 0.11982115E+04</rscale>
<asrwt>0</asrwt>
<pdfrwt beam="1">  1        2 0.44597039E+00 0.11982115E+04</pdfrwt>
<pdfrwt beam="2">  1       -2 0.19049089E-01 0.11982115E+04</pdfrwt>
<totfact> 0.46827690E+01</totfact>
</mgrwt>
</event>
<event>
 4    1  0.1755570E-005  0.9247515E+03  0.7818608E-02  0.9395159E-01
          2   -1    0    0  501    0  0.00000000000E+00  0.00000000000E+00  0.16327284120E+04  0.16327284120E+04  0.25500000000E-02 0.  1.
         -2   -1    0    0    0  501 -0.00000000000E+00 -0.00000000000E+00 -0.13094115437E+03  0.13094115440E+03  0.25500000000E-02 0. -1.
   -5000001    1    1    2    0    0  0.18853894638E+03  0.23228444133E+03  0.12249668848E+04  0.12855142414E+04  0.25000000000E+03 0.  0.
    5000001    1    1    2    0    0 -0.18853894638E+03 -0.23228444133E+03  0.27682037277E+03  0.47815532494E+03  0.25000000000E+03 0.  0.
<mgrwt>
<rscale>  0 0.92475152E+03</rscale>
<asrwt>0</asrwt>
<pdfrwt beam="1">  1        2 0.25118898E+00 0.92475152E+03</pdfrwt>
<pdfrwt beam="2">  1       -2 0.20144794E-01 0.92475152E+03</pdfrwt>
<totfact> 0.22622814E+02</totfact>
</mgrwt>
</event>
<event>
 4    1  0.1755570E-005  0.9929313E+03  0.7818608E-02  0.9316332E-01
          2   -1    0    0  501    0  0.00000000000E+00  0.00000000000E+00  0.10402957623E+04  0.10402957623E+04  0.25500000000E-02 0.  1.
         -2   -1    0    0    0  501 -0.00000000000E+00 -0.00000000000E+00 -0.23693085398E+03  0.23693085399E+03  0.25500000000E-02 0. -1.
   -5000001    1    1    2    0    0  0.21571845686E+03  0.33268430290E+03  0.19124101103E+03  0.50624739241E+03  0.25000000000E+03 0.  0.
    5000001    1    1    2    0    0 -0.21571845686E+03 -0.33268430290E+03  0.61212389730E+03  0.77097922389E+03  0.25000000000E+03 0.  0.
<mgrwt>
<rscale>  0 0.99293134E+03</rscale>
<asrwt>0</asrwt>
<pdfrwt beam="1">  1        2 0.16004550E+00 0.99293134E+03</pdfrwt>
<pdfrwt beam="2">  1       -2 0.36450901E-01 0.99293134E+03</pdfrwt>
<totfact> 0.16780452E+02</totfact>
</mgrwt>
</event>
<event>
 4    1  0.1755570E-005  0.5751984E+03  0.7818608E-02  0.9958241E-01
          2   -1    0    0  501    0  0.00000000000E+00  0.00000000000E+00  0.62195183305E+03  0.62195183305E+03  0.25500000000E-02 0. -1.
         -2   -1    0    0    0  501 -0.00000000000E+00 -0.00000000000E+00 -0.13298987157E+03  0.13298987160E+03  0.25500000000E-02 0.  1.
   -5000001    1    1    2    0    0 -0.69519572284E+02  0.12277398419E+03  0.22148909475E+03  0.36257942746E+03  0.25000000000E+03 0.  0.
    5000001    1    1    2    0    0  0.69519572284E+02 -0.12277398419E+03  0.26747286672E+03  0.39236227719E+03  0.25000000000E+03 0.  0.
<mgrwt>
<rscale>  0 0.57519838E+03</rscale>
<asrwt>0</asrwt>
<pdfrwt beam="1">  1        2 0.95684897E-01 0.57519838E+03</pdfrwt>
<pdfrwt beam="2">  1       -2 0.20459980E-01 0.57519838E+03</pdfrwt>
<totfact> 0.97704966E+02</totfact>
</mgrwt>
</event>
<event>
 4    1  0.1755570E-005  0.6990665E+03  0.7818608E-02  0.9718830E-01
         -2   -1    0    0    0  501 -0.00000000000E+00  0.00000000000E+00  0.12968471195E+03  0.12968471198E+03  0.25500000000E-02 0. -1.
          2   -1    0    0  501    0  0.00000000000E+00 -0.00000000000E+00 -0.94208089417E+03  0.94208089417E+03  0.25500000000E-02 0.  1.
   -5000001    1    1    2    0    0  0.20707607484E+03  0.61424727455E+02 -0.23125907418E+03  0.40327937873E+03  0.25000000000E+03 0.  0.
    5000001    1    1    2    0    0 -0.20707607484E+03 -0.61424727455E+02 -0.58113710804E+03  0.66848622742E+03  0.25000000000E+03 0.  0.
<mgrwt>
<rscale>  0 0.69906649E+03</rscale>
<asrwt>0</asrwt>
<pdfrwt beam="1">  1        2 0.14493552E+00 0.69906649E+03</pdfrwt>
<pdfrwt beam="2">  1       -2 0.19951495E-01 0.69906649E+03</pdfrwt>
<totfact> 0.59275820E+02</totfact>
</mgrwt>
</event>
<event>
 4    1  0.1755570E-005  0.5441943E+03  0.7818608E-02  0.1002847E+00
         -2   -1    0    0    0  501 -0.00000000000E+00  0.00000000000E+00  0.10559796233E+03  0.10559796237E+03  0.25500000000E-02 0. -1.
          2   -1    0    0  501    0  0.00000000000E+00 -0.00000000000E+00 -0.70112027662E+03  0.70112027662E+03  0.25500000000E-02 0.  1.
   -5000001    1    1    2    0    0 -0.82542889786E+02 -0.50605342304E+02 -0.22882290153E+03  0.35246865050E+03  0.25000000000E+03 0.  0.
    5000001    1    1    2    0    0  0.82542889786E+02  0.50605342304E+02 -0.36669941275E+03  0.45424958848E+03  0.25000000000E+03 0.  0.
<mgrwt>
<rscale>  0 0.54419435E+03</rscale>
<asrwt>0</asrwt>
<pdfrwt beam="1">  1        2 0.10786465E+00 0.54419435E+03</pdfrwt>
<pdfrwt beam="2">  1       -2 0.16245841E-01 0.54419435E+03</pdfrwt>
<totfact> 0.12545341E+03</totfact>
</mgrwt>
</event>
<event>
 4    1  0.1755570E-005  0.7840139E+03  0.7818608E-02  0.9583449E-01
         -2   -1    0    0    0  501 -0.00000000000E+00  0.00000000000E+00  0.91130269872E+02  0.91130269907E+02  0.25500000000E-02 0. -1.
          2   -1    0    0  501    0  0.00000000000E+00 -0.00000000000E+00 -0.16862611437E+04  0.16862611437E+04  0.25500000000E-02 0.  1.
   -5000001    1    1    2    0    0  0.20163455758E+03 -0.24063156251E+02 -0.29097487607E+03  0.43405288710E+03  0.25000000000E+03 0.  0.
    5000001    1    1    2    0    0 -0.20163455758E+03  0.24063156251E+02 -0.13041559977E+04  0.13433385265E+04  0.25000000000E+03 0.  0.
<mgrwt>
<rscale>  0 0.78401386E+03</rscale>
<asrwt>0</asrwt>
<pdfrwt beam="1">  1        2 0.25942477E+00 0.78401386E+03</pdfrwt>
<pdfrwt beam="2">  1       -2 0.14020043E-01 0.78401386E+03</pdfrwt>
<totfact> 0.39741590E+02</totfact>
</mgrwt>
</event>
<event>
 4    1  0.1755570E-005  0.1152841E+04  0.7818608E-02  0.9155167E-01
         -2   -1    0    0    0  501 -0.00000000000E+00  0.00000000000E+00  0.35618391047E+03  0.35618391048E+03  0.25500000000E-02 0. -1.
          2   -1    0    0  501    0  0.00000000000E+00 -0.00000000000E+00 -0.93283398510E+03  0.93283398510E+03  0.25500000000E-02 0.  1.
   -5000001    1    1    2    0    0  0.51116085795E+03  0.38822580044E+02 -0.19499128095E+03  0.60275551849E+03  0.25000000000E+03 0.  0.
    5000001    1    1    2    0    0 -0.51116085795E+03 -0.38822580044E+02 -0.38165879367E+03  0.68626237709E+03  0.25000000000E+03 0.  0.
<mgrwt>
<rscale>  0 0.11528408E+04</rscale>
<asrwt>0</asrwt>
<pdfrwt beam="1">  1        2 0.14351292E+00 0.11528408E+04</pdfrwt>
<pdfrwt beam="2">  1       -2 0.54797525E-01 0.11528408E+04</pdfrwt>
<totfact> 0.86419505E+01</totfact>
</mgrwt>
</event>
<event>
 4    1  0.1755570E-005  0.6851095E+03  0.7818608E-02  0.9743041E-01
         -2   -1    0    0    0  501 -0.00000000000E+00  0.00000000000E+00  0.28928235701E+03  0.28928235702E+03  0.25500000000E-02 0. -1.
          2   -1    0    0  501    0  0.00000000000E+00 -0.00000000000E+00 -0.40563748444E+03  0.40563748445E+03  0.25500000000E-02 0.  1.
   -5000001    1    1    2    0    0 -0.22629684397E+03 -0.59898154425E+02 -0.51319302114E+02  0.34631159562E+03  0.25000000000E+03 0.  0.
    5000001    1    1    2    0    0  0.22629684397E+03  0.59898154425E+02 -0.65035825317E+02  0.34860824584E+03  0.25000000000E+03 0.  0.
<mgrwt>
<rscale>  0 0.68510953E+03</rscale>
<asrwt>0</asrwt>
<pdfrwt beam="1">  1        2 0.62405767E-01 0.68510953E+03</pdfrwt>
<pdfrwt beam="2">  1       -2 0.44504978E-01 0.68510953E+03</pdfrwt>
<totfact> 0.37803157E+02</totfact>
</mgrwt>
</event>
<event>
 4    1  0.1755570E-005  0.6240141E+03  0.7818608E-02  0.9856800E-01
         -2   -1    0    0    0  501 -0.00000000000E+00  0.00000000000E+00  0.19164124742E+03  0.19164124743E+03  0.25500000000E-02 0. -1.
          2   -1    0    0  501    0  0.00000000000E+00 -0.00000000000E+00 -0.50797200362E+03  0.50797200363E+03  0.25500000000E-02 0.  1.
   -5000001    1    1    2    0    0  0.48384165931E+02  0.18029363989E+03 -0.15956763861E+03  0.35044065887E+03  0.25000000000E+03 0.  0.
    5000001    1    1    2    0    0 -0.48384165931E+02 -0.18029363989E+03 -0.15676311760E+03  0.34917259219E+03  0.25000000000E+03 0.  0.
<mgrwt>
<rscale>  0 0.62401407E+03</rscale>
<asrwt>0</asrwt>
<pdfrwt beam="1">  1        2 0.78149538E-01 0.62401407E+03</pdfrwt>
<pdfrwt beam="2">  1       -2 0.29483269E-01 0.62401407E+03</pdfrwt>
<totfact> 0.64393025E+02</totfact>
</mgrwt>
</event>
<event>
 4    1  0.1755570E-005  0.8097500E+03  0.7818608E-02  0.9546011E-01
         -2   -1    0    0    0  501 -0.00000000000E+00  0.00000000000E+00  0.10063155988E+03  0.10063155991E+03  0.25500000000E-02 0. -1.
          2   -1    0    0  501    0  0.00000000000E+00 -0.00000000000E+00 -0.16289498983E+04  0.16289498984E+04  0.25500000000E-02 0.  1.
   -5000001    1    1    2    0    0  0.32136523441E+02  0.28372618421E+03 -0.10653990958E+04  0.11309768066E+04  0.25000000000E+03 0.  0.
    5000001    1    1    2    0    0 -0.32136523441E+02 -0.28372618421E+03 -0.46291924263E+03  0.59860465163E+03  0.25000000000E+03 0.  0.
<mgrwt>
<rscale>  0 0.80975001E+03</rscale>
<asrwt>0</asrwt>
<pdfrwt beam="1">  1        2 0.25060766E+00 0.80975001E+03</pdfrwt>
<pdfrwt beam="2">  1       -2 0.15481780E-01 0.80975001E+03</pdfrwt>
<totfact> 0.36079830E+02</totfact>
</mgrwt>
</event>
<event>
 4    1  0.1755570E-005  0.8508309E+03  0.7818608E-02  0.9489222E-01
          2   -1    0    0  501    0  0.00000000000E+00  0.00000000000E+00  0.16131419638E+04  0.16131419638E+04  0.25500000000E-02 0.  1.
         -2   -1    0    0    0  501 -0.00000000000E+00 -0.00000000000E+00 -0.11218994601E+03  0.11218994604E+03  0.25500000000E-02 0. -1.
   -5000001    1    1    2    0    0 -0.26297749967E+03  0.19670003472E+03  0.95955045135E+03  0.10445502083E+04  0.25000000000E+03 0.  0.
    5000001    1    1    2    0    0  0.26297749967E+03 -0.19670003472E+03  0.54140156640E+03  0.68078170149E+03  0.25000000000E+03 0.  0.
<mgrwt>
<rscale>  0 0.85083091E+03</rscale>
<asrwt>0</asrwt>
<pdfrwt beam="1">  1        2 0.24817567E+00 0.85083091E+03</pdfrwt>
<pdfrwt beam="2">  1       -2 0.17259993E-01 0.85083091E+03</pdfrwt>
<totfact> 0.30487570E+02</totfact>
</mgrwt>
</event>
<event>
 4    1  0.1755570E-005  0.5340066E+03  0.7818608E-02  0.1005265E+00
          2   -1    0    0  501    0  0.00000000000E+00  0.00000000000E+00  0.26127587458E+04  0.26127587458E+04  0.25500000000E-02 0.  1.
         -2   -1    0    0    0  501 -0.00000000000E+00 -0.00000000000E+00 -0.27285630427E+02  0.27285630546E+02  0.25500000000E-02 0. -1.
   -5000001    1    1    2    0    0 -0.40872992023E+02  0.80509749254E+02  0.14176454904E+04  0.14423491802E+04  0.25000000000E+03 0.  0.
    5000001    1    1    2    0    0  0.40872992023E+02 -0.80509749254E+02  0.11678276250E+04  0.11976951962E+04  0.25000000000E+03 0.  0.
<mgrwt>
<rscale>  0 0.53400663E+03</rscale>
<asrwt>0</asrwt>
<pdfrwt beam="1">  1        2 0.40196297E+00 0.53400663E+03</pdfrwt>
<pdfrwt beam="2">  1       -2 0.41977884E-02 0.53400663E+03</pdfrwt>
<totfact> 0.85899053E+02</totfact>
</mgrwt>
</event>
<event>
 4    1  0.1755570E-005  0.6116616E+03  0.7818608E-02  0.9881503E-01
         -2   -1    0    0    0  501 -0.00000000000E+00  0.00000000000E+00  0.39373748031E+02  0.39373748114E+02  0.25500000000E-02 0. -1.
          2   -1    0    0  501    0  0.00000000000E+00 -0.00000000000E+00 -0.23755037625E+04  0.23755037625E+04  0.25500000000E-02 0.  1.
   -5000001    1    1    2    0    0 -0.34192854443E+02 -0.76114394780E+02 -0.17805864875E+04  0.17999863310E+04  0.25000000000E+03 0.  0.
    5000001    1    1    2    0    0  0.34192854443E+02  0.76114394780E+02 -0.55554352697E+03  0.61489117960E+03  0.25000000000E+03 0.  0.
<mgrwt>
<rscale>  0 0.61166163E+03</rscale>
<asrwt>0</asrwt>
<pdfrwt beam="1">  1        2 0.36546201E+00 0.61166163E+03</pdfrwt>
<pdfrwt beam="2">  1       -2 0.60575016E-02 0.61166163E+03</pdfrwt>
<totfact> 0.65661293E+02</totfact>
</mgrwt>
</event>
<event>
 4    1  0.1755570E-005  0.7355506E+03  0.7818608E-02  0.9658296E-01
          2   -1    0    0  501    0  0.00000000000E+00  0.00000000000E+00  0.10258716296E+04  0.10258716296E+04  0.25500000000E-02 0.  1.
         -2   -1    0    0    0  501 -0.00000000000E+00 -0.00000000000E+00 -0.13184756325E+03  0.13184756328E+03  0.25500000000E-02 0. -1.
   -5000001    1    1    2    0    0 -0.21577970832E+03 -0.14088574123E+03  0.32159880792E+03  0.48201189597E+03  0.25000000000E+03 0.  0.
    5000001    1    1    2    0    0  0.21577970832E+03  0.14088574123E+03  0.57242525846E+03  0.67570729693E+03  0.25000000000E+03 0.  0.
<mgrwt>
<rscale>  0 0.73555061E+03</rscale>
<asrwt>0</asrwt>
<pdfrwt beam="1">  1        2 0.15782640E+00 0.73555061E+03</pdfrwt>
<pdfrwt beam="2">  1       -2 0.20284241E-01 0.73555061E+03</pdfrwt>
<totfact> 0.50802134E+02</totfact>
</mgrwt>
</event>
<event>
 4    1  0.1755570E-005  0.5138310E+03  0.7818608E-02  0.1010231E+00
          2   -1    0    0  501    0  0.00000000000E+00  0.00000000000E+00  0.27504665629E+04  0.27504665629E+04  0.25500000000E-02 0.  1.
         -2   -1    0    0    0  501 -0.00000000000E+00 -0.00000000000E+00 -0.23997955484E+02  0.23997955619E+02  0.25500000000E-02 0. -1.
   -5000001    1    1    2    0    0 -0.56611597950E+02  0.17340577414E+02  0.13636411560E+04  0.13876320734E+04  0.25000000000E+03 0.  0.
    5000001    1    1    2    0    0  0.56611597950E+02 -0.17340577414E+02  0.13628274513E+04  0.13868324451E+04  0.25000000000E+03 0.  0.
<mgrwt>
<rscale>  0 0.51383100E+03</rscale>
<asrwt>0</asrwt>
<pdfrwt beam="1">  1        2 0.42314834E+00 0.51383100E+03</pdfrwt>
<pdfrwt beam="2">  1       -2 0.36919963E-02 0.51383100E+03</pdfrwt>
<totfact> 0.87313855E+02</totfact>
</mgrwt>
</event>
<event>
 4    1  0.1755570E-005  0.1024046E+04  0.7818608E-02  0.9282558E-01
          2   -1    0    0  501    0  0.00000000000E+00  0.00000000000E+00  0.16165910564E+04  0.16165910564E+04  0.25500000000E-02 0.  1.
         -2   -1    0    0    0  501 -0.00000000000E+00 -0.00000000000E+00 -0.16217304909E+03  0.16217304911E+03  0.25500000000E-02 0. -1.
   -5000001    1    1    2    0    0  0.17328714825E+03  0.36210218787E+03  0.10681255723E+04  0.11681346962E+04  0.25000000000E+03 0.  0.
    5000001    1    1    2    0    0 -0.17328714825E+03 -0.36210218787E+03  0.38629243500E+03  0.61062940933E+03  0.25000000000E+03 0.  0.
<mgrwt>
<rscale>  0 0.10240459E+04</rscale>
<asrwt>0</asrwt>
<pdfrwt beam="1">  1        2 0.24870631E+00 0.10240459E+04</pdfrwt>
<pdfrwt beam="2">  1       -2 0.24949700E-01 0.10240459E+04</pdfrwt>
<totfact> 0.15667985E+02</totfact>
</mgrwt>
</event>
<event>
 4    1  0.1755570E-005  0.1029176E+04  0.7818608E-02  0.9277112E-01
          2   -1    0    0  501    0  0.00000000000E+00  0.00000000000E+00  0.16667482811E+04  0.16667482811E+04  0.25500000000E-02 0.  1.
         -2   -1    0    0    0  501 -0.00000000000E+00 -0.00000000000E+00 -0.15887263178E+03  0.15887263180E+03  0.25500000000E-02 0. -1.
   -5000001    1    1    2    0    0 -0.15254486037E+03 -0.37578104902E+03  0.10989052686E+04  0.11977370832E+04  0.25000000000E+03 0.  0.
    5000001    1    1    2    0    0  0.15254486037E+03  0.37578104902E+03  0.40897038073E+03  0.62788382966E+03  0.25000000000E+03 0.  0.
<mgrwt>
<rscale>  0 0.10291758E+04</rscale>
<asrwt>0</asrwt>
<pdfrwt beam="1">  1        2 0.25642280E+00 0.10291758E+04</pdfrwt>
<pdfrwt beam="2">  1       -2 0.24441944E-01 0.10291758E+04</pdfrwt>
<totfact> 0.15247481E+02</totfact>
</mgrwt>
</event>
<event>
 4    1  0.1755570E-005  0.1214297E+04  0.7818608E-02  0.9100433E-01
         -2   -1    0    0    0  501 -0.00000000000E+00  0.00000000000E+00  0.25189761875E+03  0.25189761876E+03  0.25500000000E-02 0. -1.
          2   -1    0    0  501    0  0.00000000000E+00 -0.00000000000E+00 -0.14634098772E+04  0.14634098772E+04  0.25500000000E-02 0.  1.
   -5000001    1    1    2    0    0 -0.17834524756E+03  0.47246584178E+03 -0.28643997348E+03  0.63212250188E+03  0.25000000000E+03 0.  0.
    5000001    1    1    2    0    0  0.17834524756E+03 -0.47246584178E+03 -0.92507228498E+03  0.10831849941E+04  0.25000000000E+03 0.  0.
<mgrwt>
<rscale>  0 0.12142973E+04</rscale>
<asrwt>0</asrwt>
<pdfrwt beam="1">  1        2 0.22513998E+00 0.12142973E+04</pdfrwt>
<pdfrwt beam="2">  1       -2 0.38753481E-01 0.12142973E+04</pdfrwt>
<totfact> 0.82538771E+01</totfact>
</mgrwt>
</event>
<event>
 4    1  0.1755570E-005  0.5883287E+03  0.7818608E-02  0.9929921E-01
          2   -1    0    0  501    0  0.00000000000E+00  0.00000000000E+00  0.45232857888E+03  0.45232857889E+03  0.25500000000E-02 0.  1.
         -2   -1    0    0    0  501 -0.00000000000E+00 -0.00000000000E+00 -0.19130486492E+03  0.19130486494E+03  0.25500000000E-02 0. -1.
   -5000001    1    1    2    0    0 -0.96185142806E+02 -0.54301554381E+02  0.11509566015E+02  0.27355568101E+03  0.25000000000E+03 0.  0.
    5000001    1    1    2    0    0  0.96185142806E+02  0.54301554381E+02  0.24951414794E+03  0.37007776281E+03  0.25000000000E+03 0.  0.
<mgrwt>
<rscale>  0 0.58832868E+03</rscale>
<asrwt>0</asrwt>
<pdfrwt beam="1">  1        2 0.69589011E-01 0.58832868E+03</pdfrwt>
<pdfrwt beam="2">  1       -2 0.29431518E-01 0.58832868E+03</pdfrwt>
<totfact> 0.73830450E+02</totfact>
</mgrwt>
</event>
<event>
 4    1  0.1755570E-005  0.7498863E+03  0.7818608E-02  0.9635529E-01
         -2   -1    0    0    0  501 -0.00000000000E+00  0.00000000000E+00  0.42917588223E+02  0.42917588299E+02  0.25500000000E-02 0.  1.
          2   -1    0    0  501    0  0.00000000000E+00 -0.00000000000E+00 -0.32756355557E+04  0.32756355557E+04  0.25500000000E-02 0. -1.
   -5000001    1    1    2    0    0  0.71468222606E+02  0.25789956893E+03 -0.19721156648E+04  0.20058315208E+04  0.25000000000E+03 0.  0.
    5000001    1    1    2    0    0 -0.71468222606E+02 -0.25789956893E+03 -0.12606023027E+04  0.13127216232E+04  0.25000000000E+03 0.  0.
<mgrwt>
<rscale>  0 0.74988633E+03</rscale>
<asrwt>0</asrwt>
<pdfrwt beam="1">  1        2 0.50394373E+00 0.74988633E+03</pdfrwt>
<pdfrwt beam="2">  1       -2 0.66027085E-02 0.74988633E+03</pdfrwt>
<totfact> 0.16463689E+02</totfact>
</mgrwt>
</event>
<event>
 4    1  0.1755570E-005  0.8006583E+03  0.7818608E-02  0.9559065E-01
         -2   -1    0    0    0  501 -0.00000000000E+00  0.00000000000E+00  0.29535345034E+03  0.29535345035E+03  0.25500000000E-02 0. -1.
          2   -1    0    0  501    0  0.00000000000E+00 -0.00000000000E+00 -0.54261577280E+03  0.54261577281E+03  0.25500000000E-02 0.  1.
   -5000001    1    1    2    0    0  0.23481582258E+03  0.16624230035E+03  0.45013861095E+01  0.38117612128E+03  0.25000000000E+03 0.  0.
    5000001    1    1    2    0    0 -0.23481582258E+03 -0.16624230035E+03 -0.25176370858E+03  0.45679310187E+03  0.25000000000E+03 0.  0.
<mgrwt>
<rscale>  0 0.80065833E+03</rscale>
<asrwt>0</asrwt>
<pdfrwt beam="1">  1        2 0.83479350E-01 0.80065833E+03</pdfrwt>
<pdfrwt beam="2">  1       -2 0.45438992E-01 0.80065833E+03</pdfrwt>
<totfact> 0.25862929E+02</totfact>
</mgrwt>
</event>
<event>
 4    1  0.1755570E-005  0.8046454E+03  0.7818608E-02  0.9553317E-01
          2   -1    0    0  501    0  0.00000000000E+00  0.00000000000E+00  0.59651571756E+03  0.59651571756E+03  0.25500000000E-02 0.  1.
         -2   -1    0    0    0  501 -0.00000000000E+00 -0.00000000000E+00 -0.27134835973E+03  0.27134835974E+03  0.25500000000E-02 0. -1.
   -5000001    1    1    2    0    0 -0.22416610460E+03  0.15521680672E+03  0.33319125169E+03  0.49785450660E+03  0.25000000000E+03 0.  0.
    5000001    1    1    2    0    0  0.22416610460E+03 -0.15521680672E+03 -0.80238938565E+01  0.37000957070E+03  0.25000000000E+03 0.  0.
<mgrwt>
<rscale>  0 0.80464542E+03</rscale>
<asrwt>0</asrwt>
<pdfrwt beam="1">  1        2 0.91771649E-01 0.80464542E+03</pdfrwt>
<pdfrwt beam="2">  1       -2 0.41745902E-01 0.80464542E+03</pdfrwt>
<totfact> 0.27321849E+02</totfact>
</mgrwt>
</event>
<event>
 4    1  0.1755570E-005  0.5584339E+03  0.7818608E-02  0.9995604E-01
         -2   -1    0    0    0  501 -0.00000000000E+00  0.00000000000E+00  0.71541440881E+02  0.71541440926E+02  0.25500000000E-02 0. -1.
          2   -1    0    0  501    0  0.00000000000E+00 -0.00000000000E+00 -0.10897476042E+04  0.10897476042E+04  0.25500000000E-02 0.  1.
   -5000001    1    1    2    0    0  0.84593962072E+02 -0.75667581202E+02 -0.61473895367E+03  0.67326495707E+03  0.25000000000E+03 0.  0.
    5000001    1    1    2    0    0 -0.84593962072E+02  0.75667581202E+02 -0.40346720967E+03  0.48802408808E+03  0.25000000000E+03 0.  0.
<mgrwt>
<rscale>  0 0.55843393E+03</rscale>
<asrwt>0</asrwt>
<pdfrwt beam="1">  1        2 0.16765347E+00 0.55843393E+03</pdfrwt>
<pdfrwt beam="2">  1       -2 0.11006376E-01 0.55843393E+03</pdfrwt>
<totfact> 0.13096582E+03</totfact>
</mgrwt>
</event>
<event>
 4    1  0.1755570E-005  0.8245171E+03  0.7818608E-02  0.9525192E-01
          2   -1    0    0  501    0  0.00000000000E+00  0.00000000000E+00  0.17552528120E+04  0.17552528120E+04  0.25500000000E-02 0.  1.
         -2   -1    0    0    0  501 -0.00000000000E+00 -0.00000000000E+00 -0.96827703875E+02  0.96827703908E+02  0.25500000000E-02 0. -1.
   -5000001    1    1    2    0    0 -0.76184333834E+02  0.18236514764E+03  0.24175625783E+03  0.40000898489E+03  0.25000000000E+03 0.  0.
    5000001    1    1    2    0    0  0.76184333834E+02 -0.18236514764E+03  0.14166688503E+04  0.14520715310E+04  0.25000000000E+03 0.  0.
<mgrwt>
<rscale>  0 0.82451707E+03</rscale>
<asrwt>0</asrwt>
<pdfrwt beam="1">  1        2 0.27003888E+00 0.82451707E+03</pdfrwt>
<pdfrwt beam="2">  1       -2 0.14896571E-01 0.82451707E+03</pdfrwt>
<totfact> 0.32799994E+02</totfact>
</mgrwt>
</event>
<event>
 4    1  0.1755570E-005  0.6082956E+03  0.7818608E-02  0.9888343E-01
         -2   -1    0    0    0  501 -0.00000000000E+00  0.00000000000E+00  0.37268469566E+02  0.37268469653E+02  0.25500000000E-02 0. -1.
          2   -1    0    0  501    0  0.00000000000E+00 -0.00000000000E+00 -0.24821486395E+04  0.24821486395E+04  0.25500000000E-02 0.  1.
   -5000001    1    1    2    0    0  0.71726309182E+02 -0.12335328494E+03 -0.16292023745E+04  0.16544367843E+04  0.25000000000E+03 0.  0.
    5000001    1    1    2    0    0 -0.71726309182E+02  0.12335328494E+03 -0.81567779542E+03  0.86498032479E+03  0.25000000000E+03 0.  0.
<mgrwt>
<rscale>  0 0.60829559E+03</rscale>
<asrwt>0</asrwt>
<pdfrwt beam="1">  1        2 0.38186889E+00 0.60829559E+03</pdfrwt>
<pdfrwt beam="2">  1       -2 0.57336127E-02 0.60829559E+03</pdfrwt>
<totfact> 0.62399755E+02</totfact>
</mgrwt>
</event>
<event>
 4    1  0.1755570E-005  0.8549062E+03  0.7818608E-02  0.9483776E-01
         -2   -1    0    0    0  501 -0.00000000000E+00  0.00000000000E+00  0.43473816396E+03  0.43473816397E+03  0.25500000000E-02 0.  1.
          2   -1    0    0  501    0  0.00000000000E+00 -0.00000000000E+00 -0.42029009177E+03  0.42029009178E+03  0.25500000000E-02 0. -1.
   -5000001    1    1    2    0    0  0.18380059762E+03  0.13326410624E+03 -0.25487093828E+03  0.42308530685E+03  0.25000000000E+03 0.  0.
    5000001    1    1    2    0    0 -0.18380059762E+03 -0.13326410624E+03  0.26931901047E+03  0.43194294889E+03  0.25000000000E+03 0.  0.
<mgrwt>
<rscale>  0 0.85490618E+03</rscale>
<asrwt>0</asrwt>
<pdfrwt beam="1">  1        2 0.64660014E-01 0.85490618E+03</pdfrwt>
<pdfrwt beam="2">  1       -2 0.66882794E-01 0.85490618E+03</pdfrwt>
<totfact> 0.15523138E+02</totfact>
</mgrwt>
</event>
<event>
 4    1  0.1755570E-005  0.5514026E+03  0.7818608E-02  0.1001170E+00
         -2   -1    0    0    0  501 -0.00000000000E+00  0.00000000000E+00  0.36325068238E+02  0.36325068327E+02  0.25500000000E-02 0. -1.
          2   -1    0    0  501    0  0.00000000000E+00 -0.00000000000E+00 -0.20925278550E+04  0.20925278550E+04  0.25500000000E-02 0.  1.
   -5000001    1    1    2    0    0  0.10541105061E+03 -0.41587251323E+02 -0.92815016098E+03  0.96788620735E+03  0.25000000000E+03 0.  0.
    5000001    1    1    2    0    0 -0.10541105061E+03  0.41587251323E+02 -0.11280526258E+04  0.11609667160E+04  0.25000000000E+03 0.  0.
<mgrwt>
<rscale>  0 0.55140264E+03</rscale>
<asrwt>0</asrwt>
<pdfrwt beam="1">  1        2 0.32192727E+00 0.55140264E+03</pdfrwt>
<pdfrwt beam="2">  1       -2 0.55884737E-02 0.55140264E+03</pdfrwt>
<totfact> 0.10694860E+03</totfact>
</mgrwt>
</event>
<event>
 4    1  0.1755570E-005  0.1488734E+04  0.7818608E-02  0.8891979E-01
          2   -1    0    0  501    0  0.00000000000E+00  0.00000000000E+00  0.10193758851E+04  0.10193758851E+04  0.25500000000E-02 0.  1.
         -2   -1    0    0    0  501 -0.00000000000E+00 -0.00000000000E+00 -0.54355080150E+03  0.54355080150E+03  0.25500000000E-02 0. -1.
   -5000001    1    1    2    0    0 -0.31424153158E+03 -0.42140713443E+03 -0.24916019029E+03  0.63317652636E+03  0.25000000000E+03 0.  0.
    5000001    1    1    2    0    0  0.31424153158E+03  0.42140713443E+03  0.72498527389E+03  0.92975016024E+03  0.25000000000E+03 0.  0.
<mgrwt>
<rscale>  0 0.14887345E+04</rscale>
<asrwt>0</asrwt>
<pdfrwt beam="1">  1        2 0.15682706E+00 0.14887345E+04</pdfrwt>
<pdfrwt beam="2">  1       -2 0.83623202E-01 0.14887345E+04</pdfrwt>
<totfact> 0.29607993E+01</totfact>
</mgrwt>
</event>
<event>
 4    1  0.1755570E-005  0.1100771E+04  0.7818608E-02  0.9204441E-01
          2   -1    0    0  501    0  0.00000000000E+00  0.00000000000E+00  0.11561201110E+04  0.11561201110E+04  0.25500000000E-02 0. -1.
         -2   -1    0    0    0  501 -0.00000000000E+00 -0.00000000000E+00 -0.26201799098E+03  0.26201799099E+03  0.25500000000E-02 0.  1.
   -5000001    1    1    2    0    0 -0.36433217652E+03  0.32236517534E+03  0.36797939147E+03  0.65921625713E+03  0.25000000000E+03 0.  0.
    5000001    1    1    2    0    0  0.36433217652E+03 -0.32236517534E+03  0.52612272855E+03  0.75892184486E+03  0.25000000000E+03 0.  0.
<mgrwt>
<rscale>  0 0.11007711E+04</rscale>
<asrwt>0</asrwt>
<pdfrwt beam="1">  1        2 0.17786463E+00 0.11007711E+04</pdfrwt>
<pdfrwt beam="2">  1       -2 0.40310460E-01 0.11007711E+04</pdfrwt>
<totfact> 0.11632687E+02</totfact>
</mgrwt>
</event>
<event>
 4    1  0.1755570E-005  0.7600657E+03  0.7818608E-02  0.9619690E-01
         -2   -1    0    0    0  501 -0.00000000000E+00  0.00000000000E+00  0.28891264772E+03  0.28891264773E+03  0.25500000000E-02 0. -1.
          2   -1    0    0  501    0  0.00000000000E+00 -0.00000000000E+00 -0.49989152980E+03  0.49989152981E+03  0.25500000000E-02 0.  1.
   -5000001    1    1    2    0    0  0.25287580269E+01  0.21827282797E+03 -0.29762614720E+03  0.44579226726E+03  0.25000000000E+03 0.  0.
    5000001    1    1    2    0    0 -0.25287580269E+01 -0.21827282797E+03  0.86647265124E+02  0.34301191029E+03  0.25000000000E+03 0.  0.
<mgrwt>
<rscale>  0 0.76006575E+03</rscale>
<asrwt>0</asrwt>
<pdfrwt beam="1">  1        2 0.76906389E-01 0.76006575E+03</pdfrwt>
<pdfrwt beam="2">  1       -2 0.44448100E-01 0.76006575E+03</pdfrwt>
<totfact> 0.29791551E+02</totfact>
</mgrwt>
</event>
<event>
 4    1  0.1755570E-005  0.1538046E+04  0.7818608E-02  0.8859540E-01
         -2   -1    0    0    0  501 -0.00000000000E+00  0.00000000000E+00  0.14186096226E+04  0.14186096226E+04  0.25500000000E-02 0. -1.
          2   -1    0    0  501    0  0.00000000000E+00 -0.00000000000E+00 -0.41688429603E+03  0.41688429604E+03  0.25500000000E-02 0.  1.
   -5000001    1    1    2    0    0  0.29210331938E+03  0.58309027774E+03  0.88493793703E+03  0.11273569859E+04  0.25000000000E+03 0.  0.
    5000001    1    1    2    0    0 -0.29210331938E+03 -0.58309027774E+03  0.11678738951E+03  0.70813693275E+03  0.25000000000E+03 0.  0.
<mgrwt>
<rscale>  0 0.15380456E+04</rscale>
<asrwt>0</asrwt>
<pdfrwt beam="1">  1        2 0.64136045E-01 0.15380456E+04</pdfrwt>
<pdfrwt beam="2">  1       -2 0.21824764E+00 0.15380456E+04</pdfrwt>
<totfact> 0.74080029E+00</totfact>
</mgrwt>
</event>
<event>
 4    1  0.1755570E-005  0.1366118E+04  0.7818608E-02  0.8978716E-01
         -2   -1    0    0    0  501 -0.00000000000E+00  0.00000000000E+00  0.29945587366E+03  0.29945587367E+03  0.25500000000E-02 0. -1.
          2   -1    0    0  501    0  0.00000000000E+00 -0.00000000000E+00 -0.15580578513E+04  0.15580578513E+04  0.25500000000E-02 0.  1.
   -5000001    1    1    2    0    0  0.19577951161E+03 -0.55241847517E+03 -0.29465456492E+03  0.70200933149E+03  0.25000000000E+03 0.  0.
    5000001    1    1    2    0    0 -0.19577951161E+03  0.55241847517E+03 -0.96394741274E+03  0.11555043935E+04  0.25000000000E+03 0.  0.
<mgrwt>
<rscale>  0 0.13661180E+04</rscale>
<asrwt>0</asrwt>
<pdfrwt beam="1">  1        2 0.23970120E+00 0.13661180E+04</pdfrwt>
<pdfrwt beam="2">  1       -2 0.46070135E-01 0.13661180E+04</pdfrwt>
<totfact> 0.51299808E+01</totfact>
</mgrwt>
</event>
<event>
 4    1  0.1755570E-005  0.6178852E+03  0.7818608E-02  0.9868979E-01
          2   -1    0    0  501    0  0.00000000000E+00  0.00000000000E+00  0.12359587226E+04  0.12359587227E+04  0.25500000000E-02 0.  1.
         -2   -1    0    0    0  501 -0.00000000000E+00 -0.00000000000E+00 -0.77223881357E+02  0.77223881399E+02  0.25500000000E-02 0. -1.
   -5000001    1    1    2    0    0 -0.10454692340E+03 -0.52158820631E+02  0.28415208765E+03  0.39609722377E+03  0.25000000000E+03 0.  0.
    5000001    1    1    2    0    0  0.10454692340E+03  0.52158820631E+02  0.87458275364E+03  0.91708538028E+03  0.25000000000E+03 0.  0.
<mgrwt>
<rscale>  0 0.61788520E+03</rscale>
<asrwt>0</asrwt>
<pdfrwt beam="1">  1        2 0.19014750E+00 0.61788520E+03</pdfrwt>
<pdfrwt beam="2">  1       -2 0.11880597E-01 0.61788520E+03</pdfrwt>
<totfact> 0.94426257E+02</totfact>
</mgrwt>
</event>
<event>
 4    1  0.1755570E-005  0.7581173E+03  0.7818608E-02  0.9622701E-01
         -2   -1    0    0    0  501 -0.00000000000E+00  0.00000000000E+00  0.51692569286E+02  0.51692569349E+02  0.25500000000E-02 0. -1.
          2   -1    0    0  501    0  0.00000000000E+00 -0.00000000000E+00 -0.27796152903E+04  0.27796152903E+04  0.25500000000E-02 0.  1.
   -5000001    1    1    2    0    0 -0.26691492982E+03  0.95449826904E+02 -0.12562887474E+04  0.13119129796E+04  0.25000000000E+03 0.  0.
    5000001    1    1    2    0    0  0.26691492982E+03 -0.95449826904E+02 -0.14716339736E+04  0.15193948800E+04  0.25000000000E+03 0.  0.
<mgrwt>
<rscale>  0 0.75811729E+03</rscale>
<asrwt>0</asrwt>
<pdfrwt beam="1">  1        2 0.42763301E+00 0.75811729E+03</pdfrwt>
<pdfrwt beam="2">  1       -2 0.79527051E-02 0.75811729E+03</pdfrwt>
<totfact> 0.24727654E+02</totfact>
</mgrwt>
</event>
<event>
 4    1  0.1755570E-005  0.5973519E+03  0.7818608E-02  0.9910915E-01
         -2   -1    0    0    0  501 -0.00000000000E+00  0.00000000000E+00  0.52283302597E+02  0.52283302659E+02  0.25500000000E-02 0. -1.
          2   -1    0    0  501    0  0.00000000000E+00 -0.00000000000E+00 -0.17062296558E+04  0.17062296558E+04  0.25500000000E-02 0.  1.
   -5000001    1    1    2    0    0  0.78864352183E+01 -0.13408240825E+03 -0.55291007878E+03  0.62149001865E+03  0.25000000000E+03 0.  0.
    5000001    1    1    2    0    0 -0.78864352183E+01  0.13408240825E+03 -0.11010362744E+04  0.11370229398E+04  0.25000000000E+03 0.  0.
<mgrwt>
<rscale>  0 0.59735189E+03</rscale>
<asrwt>0</asrwt>
<pdfrwt beam="1">  1        2 0.26249683E+00 0.59735189E+03</pdfrwt>
<pdfrwt beam="2">  1       -2 0.80435863E-02 0.59735189E+03</pdfrwt>
<totfact> 0.97210186E+02</totfact>
</mgrwt>
</event>
<event>
 4    1  0.1755570E-005  0.9018412E+03  0.7818608E-02  0.9423283E-01
          2   -1    0    0  501    0  0.00000000000E+00  0.00000000000E+00  0.11858016838E+04  0.11858016838E+04  0.25500000000E-02 0.  1.
         -2   -1    0    0    0  501 -0.00000000000E+00 -0.00000000000E+00 -0.17146996767E+03  0.17146996769E+03  0.25500000000E-02 0. -1.
   -5000001    1    1    2    0    0 -0.18967934147E+03 -0.28638424963E+03  0.27974044656E+03  0.50867367581E+03  0.25000000000E+03 0.  0.
    5000001    1    1    2    0    0  0.18967934147E+03  0.28638424963E+03  0.73459126952E+03  0.84859797565E+03  0.25000000000E+03 0.  0.
<mgrwt>
<rscale>  0 0.90184118E+03</rscale>
<asrwt>0</asrwt>
<pdfrwt beam="1">  1        2 0.18243103E+00 0.90184118E+03</pdfrwt>
<pdfrwt beam="2">  1       -2 0.26379995E-01 0.90184118E+03</pdfrwt>
<totfact> 0.25150110E+02</totfact>
</mgrwt>
</event>
<event>
 4    1  0.1755570E-005  0.1083056E+04  0.7818608E-02  0.9221866E-01
          2   -1    0    0  501    0  0.00000000000E+00  0.00000000000E+00  0.14362049985E+04  0.14362049985E+04  0.25500000000E-02 0.  1.
         -2   -1    0    0    0  501 -0.00000000000E+00 -0.00000000000E+00 -0.20418566504E+03  0.20418566506E+03  0.25500000000E-02 0. -1.
   -5000001    1    1    2    0    0  0.38710333726E+03 -0.24621835772E+03  0.83169987033E+03  0.98218997536E+03  0.25000000000E+03 0.  0.
    5000001    1    1    2    0    0 -0.38710333726E+03  0.24621835772E+03  0.40031946317E+03  0.65820068823E+03  0.25000000000E+03 0.  0.
<mgrwt>
<rscale>  0 0.10830558E+04</rscale>
<asrwt>0</asrwt>
<pdfrwt beam="1">  1        2 0.22095461E+00 0.10830558E+04</pdfrwt>
<pdfrwt beam="2">  1       -2 0.31413180E-01 0.10830558E+04</pdfrwt>
<totfact> 0.12886731E+02</totfact>
</mgrwt>
</event>
<event>
 4    1  0.1755570E-005  0.8168149E+03  0.7818608E-02  0.9535992E-01
         -2   -1    0    0    0  501 -0.00000000000E+00  0.00000000000E+00  0.99042225778E+02  0.99042225811E+02  0.25500000000E-02 0. -1.
          2   -1    0    0  501    0  0.00000000000E+00 -0.00000000000E+00 -0.16840964182E+04  0.16840964182E+04  0.25500000000E-02 0.  1.
   -5000001    1    1    2    0    0  0.32092922402E+03 -0.34614418020E+02 -0.77037888475E+03  0.87188150045E+03  0.25000000000E+03 0.  0.
    5000001    1    1    2    0    0 -0.32092922402E+03  0.34614418020E+02 -0.81467530770E+03  0.91125714359E+03  0.25000000000E+03 0.  0.
<mgrwt>
<rscale>  0 0.81681493E+03</rscale>
<asrwt>0</asrwt>
<pdfrwt beam="1">  1        2 0.25909174E+00 0.81681493E+03</pdfrwt>
<pdfrwt beam="2">  1       -2 0.15237267E-01 0.81681493E+03</pdfrwt>
<totfact> 0.34551827E+02</totfact>
</mgrwt>
</event>
<event>
 4    1  0.1755570E-005  0.1083544E+04  0.7818608E-02  0.9221381E-01
         -2   -1    0    0    0  501 -0.00000000000E+00  0.00000000000E+00  0.73851059261E+03  0.73851059261E+03  0.25500000000E-02 0. -1.
          2   -1    0    0  501    0  0.00000000000E+00 -0.00000000000E+00 -0.39744468225E+03  0.39744468226E+03  0.25500000000E-02 0.  1.
   -5000001    1    1    2    0    0  0.77068295463E+02  0.38414912552E+03  0.46240001888E+03  0.65560952576E+03  0.25000000000E+03 0.  0.
    5000001    1    1    2    0    0 -0.77068295463E+02 -0.38414912552E+03 -0.12133410852E+03  0.48034574911E+03  0.25000000000E+03 0.  0.
<mgrwt>
<rscale>  0 0.10835444E+04</rscale>
<asrwt>0</asrwt>
<pdfrwt beam="1">  1        2 0.61145336E-01 0.10835444E+04</pdfrwt>
<pdfrwt beam="2">  1       -2 0.11361701E+00 0.10835444E+04</pdfrwt>
<totfact> 0.48335471E+01</totfact>
</mgrwt>
</event>
<event>
 4    1  0.1755570E-005  0.1949164E+04  0.7818608E-02  0.8630764E-01
         -2   -1    0    0    0  501 -0.00000000000E+00  0.00000000000E+00  0.22842425020E+03  0.22842425021E+03  0.25500000000E-02 0. -1.
          2   -1    0    0  501    0  0.00000000000E+00 -0.00000000000E+00 -0.41580955804E+04  0.41580955804E+04  0.25500000000E-02 0.  1.
   -5000001    1    1    2    0    0  0.72698242152E+03 -0.53639881715E+03 -0.13648321123E+04  0.16557457012E+04  0.25000000000E+03 0.  0.
    5000001    1    1    2    0    0 -0.72698242152E+03  0.53639881715E+03 -0.25648392179E+04  0.27307741295E+04  0.25000000000E+03 0.  0.
<mgrwt>
<rscale>  0 0.19491638E+04</rscale>
<asrwt>0</asrwt>
<pdfrwt beam="1">  1        2 0.63970696E+00 0.19491638E+04</pdfrwt>
<pdfrwt beam="2">  1       -2 0.35142195E-01 0.19491638E+04</pdfrwt>
<totfact> 0.18161642E+00</totfact>
</mgrwt>
</event>
<event>
 4    1  0.1755570E-005  0.5871987E+03  0.7818608E-02  0.9932327E-01
          2   -1    0    0  501    0  0.00000000000E+00  0.00000000000E+00  0.34021178568E+03  0.34021178569E+03  0.25500000000E-02 0.  1.
         -2   -1    0    0    0  501 -0.00000000000E+00 -0.00000000000E+00 -0.25337324501E+03  0.25337324502E+03  0.25500000000E-02 0. -1.
   -5000001    1    1    2    0    0 -0.44585523015E+02  0.14626948887E+03  0.61443841582E+02  0.29942942057E+03  0.25000000000E+03 0.  0.
    5000001    1    1    2    0    0  0.44585523015E+02 -0.14626948887E+03  0.25394699092E+02  0.29415561014E+03  0.25000000000E+03 0.  0.
<mgrwt>
<rscale>  0 0.58719865E+03</rscale>
<asrwt>0</asrwt>
<pdfrwt beam="1">  1        2 0.52340275E-01 0.58719865E+03</pdfrwt>
<pdfrwt beam="2">  1       -2 0.38980499E-01 0.58719865E+03</pdfrwt>
<totfact> 0.59759666E+02</totfact>
</mgrwt>
</event>
<event>
 4    1  0.1755570E-005  0.7120811E+03  0.7818608E-02  0.9696792E-01
          2   -1    0    0  501    0  0.00000000000E+00  0.00000000000E+00  0.12155918659E+04  0.12155918659E+04  0.25500000000E-02 0.  1.
         -2   -1    0    0    0  501 -0.00000000000E+00 -0.00000000000E+00 -0.10428244037E+03  0.10428244040E+03  0.25500000000E-02 0. -1.
   -5000001    1    1    2    0    0  0.25044808903E+02 -0.16421408158E+03  0.91060433287E+03  0.95879807993E+03  0.25000000000E+03 0.  0.
    5000001    1    1    2    0    0 -0.25044808903E+02  0.16421408158E+03  0.20070509271E+03  0.36107622641E+03  0.25000000000E+03 0.  0.
<mgrwt>
<rscale>  0 0.71208114E+03</rscale>
<asrwt>0</asrwt>
<pdfrwt beam="1">  1        2 0.18701413E+00 0.71208114E+03</pdfrwt>
<pdfrwt beam="2">  1       -2 0.16043452E-01 0.71208114E+03</pdfrwt>
<totfact> 0.58474139E+02</totfact>
</mgrwt>
</event>
<event>
 4    1  0.1755570E-005  0.6536636E+03  0.7818608E-02  0.9799929E-01
          2   -1    0    0  501    0  0.00000000000E+00  0.00000000000E+00  0.24360350624E+03  0.24360350625E+03  0.25500000000E-02 0.  1.
         -2   -1    0    0    0  501 -0.00000000000E+00 -0.00000000000E+00 -0.43849547931E+03  0.43849547931E+03  0.25500000000E-02 0. -1.
   -5000001    1    1    2    0    0 -0.15314807011E+03  0.12885963776E+03 -0.16555313725E+03  0.36050933258E+03  0.25000000000E+03 0.  0.
    5000001    1    1    2    0    0  0.15314807011E+03 -0.12885963776E+03 -0.29338835818E+02  0.32158965299E+03  0.25000000000E+03 0.  0.
<mgrwt>
<rscale>  0 0.65366363E+03</rscale>
<asrwt>0</asrwt>
<pdfrwt beam="1">  1        2 0.37477462E-01 0.65366363E+03</pdfrwt>
<pdfrwt beam="2">  1       -2 0.67460843E-01 0.65366363E+03</pdfrwt>
<totfact> 0.28196385E+02</totfact>
</mgrwt>
</event>
<event>
 4    1  0.1755570E-005  0.6084257E+03  0.7818608E-02  0.9888078E-01
          2   -1    0    0  501    0  0.00000000000E+00  0.00000000000E+00  0.13668902591E+03  0.13668902593E+03  0.25500000000E-02 0.  1.
         -2   -1    0    0    0  501 -0.00000000000E+00 -0.00000000000E+00 -0.67705117992E+03  0.67705117992E+03  0.25500000000E-02 0. -1.
   -5000001    1    1    2    0    0 -0.16468839316E+03 -0.22859926887E+02 -0.33571108224E+03  0.45038513945E+03  0.25000000000E+03 0.  0.
    5000001    1    1    2    0    0  0.16468839316E+03  0.22859926887E+02 -0.20465107177E+03  0.36335506640E+03  0.25000000000E+03 0.  0.
<mgrwt>
<rscale>  0 0.60842573E+03</rscale>
<asrwt>0</asrwt>
<pdfrwt beam="1">  1        2 0.21029081E-01 0.60842573E+03</pdfrwt>
<pdfrwt beam="2">  1       -2 0.10416172E+00 0.60842573E+03</pdfrwt>
<totfact> 0.20322253E+02</totfact>
</mgrwt>
</event>
<event>
 4    1  0.1755570E-005  0.6718809E+03  0.7818608E-02  0.9766566E-01
          2   -1    0    0  501    0  0.00000000000E+00  0.00000000000E+00  0.86435926893E+03  0.86435926893E+03  0.25500000000E-02 0.  1.
         -2   -1    0    0    0  501 -0.00000000000E+00 -0.00000000000E+00 -0.13056606436E+03  0.13056606439E+03  0.25500000000E-02 0. -1.
   -5000001    1    1    2    0    0 -0.10524922127E+03  0.10024119672E+03  0.11372513073E+03  0.31073960394E+03  0.25000000000E+03 0.  0.
    5000001    1    1    2    0    0  0.10524922127E+03 -0.10024119672E+03  0.62006807384E+03  0.68418572938E+03  0.25000000000E+03 0.  0.
<mgrwt>
<rscale>  0 0.67188091E+03</rscale>
<asrwt>0</asrwt>
<pdfrwt beam="1">  1        2 0.13297835E+00 0.67188091E+03</pdfrwt>
<pdfrwt beam="2">  1       -2 0.20087086E-01 0.67188091E+03</pdfrwt>
<totfact> 0.66097760E+02</totfact>
</mgrwt>
</event>
<event>
 4    1  0.1755570E-005  0.9359682E+03  0.7818608E-02  0.9381704E-01
         -2   -1    0    0    0  501 -0.00000000000E+00  0.00000000000E+00  0.16860502550E+03  0.16860502552E+03  0.25500000000E-02 0. -1.
          2   -1    0    0  501    0  0.00000000000E+00 -0.00000000000E+00 -0.12989477049E+04  0.12989477049E+04  0.25500000000E-02 0.  1.
   -5000001    1    1    2    0    0 -0.28948522432E+03  0.23590295628E+03 -0.76995091579E+03  0.89150227852E+03  0.25000000000E+03 0.  0.
    5000001    1    1    2    0    0  0.28948522432E+03 -0.23590295628E+03 -0.36039176365E+03  0.57605045194E+03  0.25000000000E+03 0.  0.
<mgrwt>
<rscale>  0 0.93596819E+03</rscale>
<asrwt>0</asrwt>
<pdfrwt beam="1">  1        2 0.19983810E+00 0.93596819E+03</pdfrwt>
<pdfrwt beam="2">  1       -2 0.25939236E-01 0.93596819E+03</pdfrwt>
<totfact> 0.22204283E+02</totfact>
</mgrwt>
</event>
<event>
 4    1  0.1755570E-005  0.1012097E+04  0.7818608E-02  0.9295376E-01
         -2   -1    0    0    0  501 -0.00000000000E+00  0.00000000000E+00  0.12859287272E+03  0.12859287274E+03  0.25500000000E-02 0. -1.
          2   -1    0    0  501    0  0.00000000000E+00 -0.00000000000E+00 -0.19914402412E+04  0.19914402412E+04  0.25500000000E-02 0.  1.
   -5000001    1    1    2    0    0 -0.49620250038E+02 -0.34449970853E+03 -0.36763262623E+03  0.56462019647E+03  0.25000000000E+03 0.  0.
    5000001    1    1    2    0    0  0.49620250038E+02  0.34449970853E+03 -0.14952147423E+04  0.15554129175E+04  0.25000000000E+03 0.  0.
<mgrwt>
<rscale>  0 0.10120969E+04</rscale>
<asrwt>0</asrwt>
<pdfrwt beam="1">  1        2 0.30637540E+00 0.10120969E+04</pdfrwt>
<pdfrwt beam="2">  1       -2 0.19783520E-01 0.10120969E+04</pdfrwt>
<totfact> 0.14733730E+02</totfact>
</mgrwt>
</event>
<event>
 4    1  0.1755570E-005  0.5613992E+03  0.7818608E-02  0.9988894E-01
          2   -1    0    0  501    0  0.00000000000E+00  0.00000000000E+00  0.22692598713E+04  0.22692598713E+04  0.25500000000E-02 0.  1.
         -2   -1    0    0    0  501 -0.00000000000E+00 -0.00000000000E+00 -0.34721564384E+02  0.34721564478E+02  0.25500000000E-02 0. -1.
   -5000001    1    1    2    0    0 -0.37040108569E+02  0.10756901279E+03  0.13547765601E+04  0.13823395350E+04  0.25000000000E+03 0.  0.
    5000001    1    1    2    0    0  0.37040108569E+02 -0.10756901279E+03  0.87976174673E+03  0.92164190073E+03  0.25000000000E+03 0.  0.
<mgrwt>
<rscale>  0 0.56139916E+03</rscale>
<asrwt>0</asrwt>
<pdfrwt beam="1">  1        2 0.34911696E+00 0.56139916E+03</pdfrwt>
<pdfrwt beam="2">  1       -2 0.53417783E-02 0.56139916E+03</pdfrwt>
<totfact> 0.91832575E+02</totfact>
</mgrwt>
</event>
<event>
 4    1  0.1755570E-005  0.7465308E+03  0.7818608E-02  0.9640809E-01
          2   -1    0    0  501    0  0.00000000000E+00  0.00000000000E+00  0.32176525380E+04  0.32176525380E+04  0.25500000000E-02 0.  1.
         -2   -1    0    0    0  501 -0.00000000000E+00 -0.00000000000E+00 -0.43300843493E+02  0.43300843569E+02  0.25500000000E-02 0. -1.
   -5000001    1    1    2    0    0 -0.93124562886E+02  0.26021259475E+03  0.16792484273E+04  0.17201040839E+04  0.25000000000E+03 0.  0.
    5000001    1    1    2    0    0  0.93124562886E+02 -0.26021259475E+03  0.14951032672E+04  0.15408492977E+04  0.25000000000E+03 0.  0.
<mgrwt>
<rscale>  0 0.74653083E+03</rscale>
<asrwt>0</asrwt>
<pdfrwt beam="1">  1        2 0.49502350E+00 0.74653083E+03</pdfrwt>
<pdfrwt beam="2">  1       -2 0.66616679E-02 0.74653083E+03</pdfrwt>
<totfact> 0.17695760E+02</totfact>
</mgrwt>
</event>
<event>
 4    1  0.1755570E-005  0.7006872E+03  0.7818608E-02  0.9716058E-01
         -2   -1    0    0    0  501 -0.00000000000E+00  0.00000000000E+00  0.93621747564E+02  0.93621747599E+02  0.25500000000E-02 0. -1.
          2   -1    0    0  501    0  0.00000000000E+00 -0.00000000000E+00 -0.13110270814E+04  0.13110270814E+04  0.25500000000E-02 0.  1.
   -5000001    1    1    2    0    0 -0.45126273536E+01  0.20208080027E+03 -0.88780351117E+03  0.94422035992E+03  0.25000000000E+03 0.  0.
    5000001    1    1    2    0    0  0.45126273536E+01 -0.20208080027E+03 -0.32960182269E+03  0.46042846911E+03  0.25000000000E+03 0.  0.
<mgrwt>
<rscale>  0 0.70068722E+03</rscale>
<asrwt>0</asrwt>
<pdfrwt beam="1">  1        2 0.20169646E+00 0.70068722E+03</pdfrwt>
<pdfrwt beam="2">  1       -2 0.14403347E-01 0.70068722E+03</pdfrwt>
<totfact> 0.61805384E+02</totfact>
</mgrwt>
</event>
<event>
 4    1  0.1755570E-005  0.9054648E+03  0.7818608E-02  0.9418776E-01
          2   -1    0    0  501    0  0.00000000000E+00  0.00000000000E+00  0.79281947069E+03  0.79281947070E+03  0.25500000000E-02 0.  1.
         -2   -1    0    0    0  501 -0.00000000000E+00 -0.00000000000E+00 -0.25852875901E+03  0.25852875902E+03  0.25500000000E-02 0. -1.
   -5000001    1    1    2    0    0  0.26018923105E+03 -0.53308397791E+02 -0.44255074082E+02  0.36742173699E+03  0.25000000000E+03 0.  0.
    5000001    1    1    2    0    0 -0.26018923105E+03  0.53308397791E+02  0.57854578577E+03  0.68392649273E+03  0.25000000000E+03 0.  0.
<mgrwt>
<rscale>  0 0.90546482E+03</rscale>
<asrwt>0</asrwt>
<pdfrwt beam="1">  1        2 0.12197223E+00 0.90546482E+03</pdfrwt>
<pdfrwt beam="2">  1       -2 0.39773655E-01 0.90546482E+03</pdfrwt>
<totfact> 0.20890652E+02</totfact>
</mgrwt>
</event>
<event>
 4    1  0.1755570E-005  0.1047506E+04  0.7818608E-02  0.9257923E-01
          2   -1    0    0  501    0  0.00000000000E+00  0.00000000000E+00  0.17728821805E+04  0.17728821805E+04  0.25500000000E-02 0.  1.
         -2   -1    0    0    0  501 -0.00000000000E+00 -0.00000000000E+00 -0.15472956871E+03  0.15472956873E+03  0.25500000000E-02 0. -1.
   -5000001    1    1    2    0    0  0.32475483103E+03 -0.29953532815E+03  0.57176879920E+03  0.76459575778E+03  0.25000000000E+03 0.  0.
    5000001    1    1    2    0    0 -0.32475483103E+03  0.29953532815E+03  0.10463838125E+04  0.11630159914E+04  0.25000000000E+03 0.  0.
<mgrwt>
<rscale>  0 0.10475062E+04</rscale>
<asrwt>0</asrwt>
<pdfrwt beam="1">  1        2 0.27275113E+00 0.10475062E+04</pdfrwt>
<pdfrwt beam="2">  1       -2 0.23804546E-01 0.10475062E+04</pdfrwt>
<totfact> 0.13954810E+02</totfact>
</mgrwt>
</event>
<event>
 4    1  0.1755570E-005  0.6924207E+03  0.7818608E-02  0.9730282E-01
         -2   -1    0    0    0  501 -0.00000000000E+00  0.00000000000E+00  0.85804321463E+02  0.85804321501E+02  0.25500000000E-02 0. -1.
          2   -1    0    0  501    0  0.00000000000E+00 -0.00000000000E+00 -0.13969181897E+04  0.13969181897E+04  0.25500000000E-02 0.  1.
   -5000001    1    1    2    0    0  0.38677364788E+02  0.23630099709E+03 -0.64432393770E+03  0.73142835361E+03  0.25000000000E+03 0.  0.
    5000001    1    1    2    0    0 -0.38677364788E+02 -0.23630099709E+03 -0.66678993056E+03  0.75129415761E+03  0.25000000000E+03 0.  0.
<mgrwt>
<rscale>  0 0.69242073E+03</rscale>
<asrwt>0</asrwt>
<pdfrwt beam="1">  1        2 0.21491047E+00 0.69242073E+03</pdfrwt>
<pdfrwt beam="2">  1       -2 0.13200666E-01 0.69242073E+03</pdfrwt>
<totfact> 0.63939497E+02</totfact>
</mgrwt>
</event>
<event>
 4    1  0.1755570E-005  0.8617456E+03  0.7818608E-02  0.9474707E-01
         -2   -1    0    0    0  501 -0.00000000000E+00  0.00000000000E+00  0.71633257047E+02  0.71633257092E+02  0.25500000000E-02 0. -1.
          2   -1    0    0  501    0  0.00000000000E+00 -0.00000000000E+00 -0.25916926978E+04  0.25916926978E+04  0.25500000000E-02 0.  1.
   -5000001    1    1    2    0    0  0.67778954880E+02  0.32618397061E+03 -0.91920007303E+03  0.10091673517E+04  0.25000000000E+03 0.  0.
    5000001    1    1    2    0    0 -0.67778954880E+02 -0.32618397061E+03 -0.16008593677E+04  0.16541586032E+04  0.25000000000E+03 0.  0.
<mgrwt>
<rscale>  0 0.86174565E+03</rscale>
<asrwt>0</asrwt>
<pdfrwt beam="1">  1        2 0.39872188E+00 0.86174565E+03</pdfrwt>
<pdfrwt beam="2">  1       -2 0.11020503E-01 0.86174565E+03</pdfrwt>
<totfact> 0.18551996E+02</totfact>
</mgrwt>
</event>
<event>
 4    1  0.1755570E-005  0.6800227E+03  0.7818608E-02  0.9752019E-01
         -2   -1    0    0    0  501 -0.00000000000E+00  0.00000000000E+00  0.18964204256E+03  0.18964204258E+03  0.25500000000E-02 0. -1.
          2   -1    0    0  501    0  0.00000000000E+00 -0.00000000000E+00 -0.60961016458E+03  0.60961016458E+03  0.25500000000E-02 0.  1.
   -5000001    1    1    2    0    0  0.11509619433E+03 -0.16158555764E+03 -0.34780737502E+03  0.47204554495E+03  0.25000000000E+03 0.  0.
    5000001    1    1    2    0    0 -0.11509619433E+03  0.16158555764E+03 -0.72160747003E+02  0.32720666221E+03  0.25000000000E+03 0.  0.
<mgrwt>
<rscale>  0 0.68002270E+03</rscale>
<asrwt>0</asrwt>
<pdfrwt beam="1">  1        2 0.93786178E-01 0.68002270E+03</pdfrwt>
<pdfrwt beam="2">  1       -2 0.29175699E-01 0.68002270E+03</pdfrwt>
<totfact> 0.52854290E+02</totfact>
</mgrwt>
</event>
<event>
 4    1  0.1755570E-005  0.5319158E+03  0.7818608E-02  0.1005769E+00
         -2   -1    0    0    0  501 -0.00000000000E+00  0.00000000000E+00  0.10183222011E+03  0.10183222014E+03  0.25500000000E-02 0. -1.
          2   -1    0    0  501    0  0.00000000000E+00 -0.00000000000E+00 -0.69460923023E+03  0.69460923024E+03  0.25500000000E-02 0.  1.
   -5000001    1    1    2    0    0 -0.26513526368E+02 -0.84734141948E+02 -0.26834612570E+03  0.37734928789E+03  0.25000000000E+03 0.  0.
    5000001    1    1    2    0    0  0.26513526368E+02  0.84734141948E+02 -0.32443088442E+03  0.41909216249E+03  0.25000000000E+03 0.  0.
<mgrwt>
<rscale>  0 0.53191578E+03</rscale>
<asrwt>0</asrwt>
<pdfrwt beam="1">  1        2 0.10686296E+00 0.53191578E+03</pdfrwt>
<pdfrwt beam="2">  1       -2 0.15666496E-01 0.53191578E+03</pdfrwt>
<totfact> 0.13497840E+03</totfact>
</mgrwt>
</event>
<event>
 4    1  0.1755570E-005  0.1176217E+04  0.7818608E-02  0.9133932E-01
          2   -1    0    0  501    0  0.00000000000E+00  0.00000000000E+00  0.96443851546E+03  0.96443851547E+03  0.25500000000E-02 0.  1.
         -2   -1    0    0    0  501 -0.00000000000E+00 -0.00000000000E+00 -0.35862504188E+03  0.35862504188E+03  0.25500000000E-02 0. -1.
   -5000001    1    1    2    0    0  0.44298888361E+03  0.28643797037E+03  0.22268744988E+03  0.62480041790E+03  0.25000000000E+03 0.  0.
    5000001    1    1    2    0    0 -0.44298888361E+03 -0.28643797037E+03  0.38312602371E+03  0.69826313945E+03  0.25000000000E+03 0.  0.
<mgrwt>
<rscale>  0 0.11762173E+04</rscale>
<asrwt>0</asrwt>
<pdfrwt beam="1">  1        2 0.14837515E+00 0.11762173E+04</pdfrwt>
<pdfrwt beam="2">  1       -2 0.55173084E-01 0.11762173E+04</pdfrwt>
<totfact> 0.81084122E+01</totfact>
</mgrwt>
</event>
<event>
 4    1  0.1755570E-005  0.1918883E+04  0.7818608E-02  0.8645514E-01
         -2   -1    0    0    0  501 -0.00000000000E+00  0.00000000000E+00  0.84137818796E+03  0.84137818796E+03  0.25500000000E-02 0. -1.
          2   -1    0    0  501    0  0.00000000000E+00 -0.00000000000E+00 -0.10940716455E+04  0.10940716455E+04  0.25500000000E-02 0.  1.
   -5000001    1    1    2    0    0 -0.60338732810E+03  0.38152737219E+03  0.46899372558E+03  0.88999692026E+03  0.25000000000E+03 0.  0.
    5000001    1    1    2    0    0  0.60338732810E+03 -0.38152737219E+03 -0.72168718311E+03  0.10454529132E+04  0.25000000000E+03 0.  0.
<mgrwt>
<rscale>  0 0.19188830E+04</rscale>
<asrwt>0</asrwt>
<pdfrwt beam="1">  1        2 0.16831871E+00 0.19188830E+04</pdfrwt>
<pdfrwt beam="2">  1       -2 0.12944280E+00 0.19188830E+04</pdfrwt>
<totfact> 0.90215563E+00</totfact>
</mgrwt>
</event>
<event>
 4    1  0.1755570E-005  0.6929084E+03  0.7818608E-02  0.9729437E-01
          2   -1    0    0  501    0  0.00000000000E+00  0.00000000000E+00  0.13199575928E+04  0.13199575928E+04  0.25500000000E-02 0.  1.
         -2   -1    0    0    0  501 -0.00000000000E+00 -0.00000000000E+00 -0.90935122334E+02  0.90935122369E+02  0.25500000000E-02 0. -1.
   -5000001    1    1    2    0    0  0.12074487643E+03  0.16222343190E+03  0.87713024719E+03  0.93421262974E+03  0.25000000000E+03 0.  0.
    5000001    1    1    2    0    0 -0.12074487643E+03 -0.16222343190E+03  0.35189222329E+03  0.47668008543E+03  0.25000000000E+03 0.  0.
<mgrwt>
<rscale>  0 0.69290838E+03</rscale>
<asrwt>0</asrwt>
<pdfrwt beam="1">  1        2 0.20307039E+00 0.69290838E+03</pdfrwt>
<pdfrwt beam="2">  1       -2 0.13990019E-01 0.69290838E+03</pdfrwt>
<totfact> 0.64166088E+02</totfact>
</mgrwt>
</event>
<event>
 4    1  0.1755570E-005  0.6487033E+03  0.7818608E-02  0.9809215E-01
          2   -1    0    0  501    0  0.00000000000E+00  0.00000000000E+00  0.18915901728E+04  0.18915901728E+04  0.25500000000E-02 0.  1.
         -2   -1    0    0    0  501 -0.00000000000E+00 -0.00000000000E+00 -0.55616698261E+02  0.55616698320E+02  0.25500000000E-02 0. -1.
   -5000001    1    1    2    0    0  0.19624060053E+03  0.62439714040E+02  0.86643897713E+03  0.92500032014E+03  0.25000000000E+03 0.  0.
    5000001    1    1    2    0    0 -0.19624060053E+03 -0.62439714040E+02  0.96953449742E+03  0.10222065510E+04  0.25000000000E+03 0.  0.
<mgrwt>
<rscale>  0 0.64870332E+03</rscale>
<asrwt>0</asrwt>
<pdfrwt beam="1">  1        2 0.29101385E+00 0.64870332E+03</pdfrwt>
<pdfrwt beam="2">  1       -2 0.85564157E-02 0.64870332E+03</pdfrwt>
<totfact> 0.69654919E+02</totfact>
</mgrwt>
</event>
<event>
 4    1  0.1755570E-005  0.9117460E+03  0.7818608E-02  0.9411016E-01
         -2   -1    0    0    0  501 -0.00000000000E+00  0.00000000000E+00  0.32152157578E+03  0.32152157579E+03  0.25500000000E-02 0. -1.
          2   -1    0    0  501    0  0.00000000000E+00 -0.00000000000E+00 -0.64636474636E+03  0.64636474637E+03  0.25500000000E-02 0.  1.
   -5000001    1    1    2    0    0 -0.12977170211E+03  0.26420611552E+03 -0.41956517545E+03  0.57024600182E+03  0.25000000000E+03 0.  0.
    5000001    1    1    2    0    0  0.12977170211E+03 -0.26420611552E+03  0.94722004862E+02  0.39764032033E+03  0.25000000000E+03 0.  0.
<mgrwt>
<rscale>  0 0.91174604E+03</rscale>
<asrwt>0</asrwt>
<pdfrwt beam="1">  1        2 0.99440730E-01 0.91174604E+03</pdfrwt>
<pdfrwt beam="2">  1       -2 0.49464858E-01 0.91174604E+03</pdfrwt>
<totfact> 0.17562154E+02</totfact>
</mgrwt>
</event>
<event>
 4    1  0.1755570E-005  0.7362053E+03  0.7818608E-02  0.9657244E-01
         -2   -1    0    0    0  501 -0.00000000000E+00  0.00000000000E+00  0.34359554086E+03  0.34359554087E+03  0.25500000000E-02 0. -1.
          2   -1    0    0  501    0  0.00000000000E+00 -0.00000000000E+00 -0.39435774974E+03  0.39435774975E+03  0.25500000000E-02 0.  1.
   -5000001    1    1    2    0    0 -0.13917296870E+03  0.22695233736E+03  0.20805250439E+02  0.36579958597E+03  0.25000000000E+03 0.  0.
    5000001    1    1    2    0    0  0.13917296870E+03 -0.22695233736E+03 -0.71567459321E+02  0.37215370465E+03  0.25000000000E+03 0.  0.
<mgrwt>
<rscale>  0 0.73620531E+03</rscale>
<asrwt>0</asrwt>
<pdfrwt beam="1">  1        2 0.60670423E-01 0.73620531E+03</pdfrwt>
<pdfrwt beam="2">  1       -2 0.52860853E-01 0.73620531E+03</pdfrwt>
<totfact> 0.27518230E+02</totfact>
</mgrwt>
</event>
<event>
 4    1  0.1755570E-005  0.1367844E+04  0.7818608E-02  0.8977430E-01
          2   -1    0    0  501    0  0.00000000000E+00  0.00000000000E+00  0.27573271343E+04  0.27573271343E+04  0.25500000000E-02 0.  1.
         -2   -1    0    0    0  501 -0.00000000000E+00 -0.00000000000E+00 -0.16963859886E+03  0.16963859888E+03  0.25500000000E-02 0. -1.
   -5000001    1    1    2    0    0  0.59713748611E+03  0.19070564808E+03  0.10564542916E+04  0.12536097845E+04  0.25000000000E+03 0.  0.
    5000001    1    1    2    0    0 -0.59713748611E+03 -0.19070564808E+03  0.15312342438E+04  0.16733559487E+04  0.25000000000E+03 0.  0.
<mgrwt>
<rscale>  0 0.13678437E+04</rscale>
<asrwt>0</asrwt>
<pdfrwt beam="1">  1        2 0.42420414E+00 0.13678437E+04</pdfrwt>
<pdfrwt beam="2">  1       -2 0.26098248E-01 0.13678437E+04</pdfrwt>
<totfact> 0.31966225E+01</totfact>
</mgrwt>
</event>
<event>
 4    1  0.1755570E-005  0.8051288E+03  0.7818608E-02  0.9552623E-01
          2   -1    0    0  501    0  0.00000000000E+00  0.00000000000E+00  0.24038771182E+04  0.24038771182E+04  0.25500000000E-02 0.  1.
         -2   -1    0    0    0  501 -0.00000000000E+00 -0.00000000000E+00 -0.67415301881E+02  0.67415301930E+02  0.25500000000E-02 0. -1.
   -5000001    1    1    2    0    0  0.97278838373E+02 -0.19515232579E+03  0.18682409628E+04  0.18974645972E+04  0.25000000000E+03 0.  0.
    5000001    1    1    2    0    0 -0.97278838373E+02  0.19515232579E+03  0.46822085348E+03  0.57382782287E+03  0.25000000000E+03 0.  0.
<mgrwt>
<rscale>  0 0.80512881E+03</rscale>
<asrwt>0</asrwt>
<pdfrwt beam="1">  1        2 0.36982721E+00 0.80512881E+03</pdfrwt>
<pdfrwt beam="2">  1       -2 0.10371586E-01 0.80512881E+03</pdfrwt>
<totfact> 0.26342524E+02</totfact>
</mgrwt>
</event>
<event>
 4    1  0.1755570E-005  0.5372250E+03  0.7818608E-02  0.1004495E+00
          2   -1    0    0  501    0  0.00000000000E+00  0.00000000000E+00  0.22278819526E+04  0.22278819526E+04  0.25500000000E-02 0.  1.
         -2   -1    0    0    0  501 -0.00000000000E+00 -0.00000000000E+00 -0.32386214037E+02  0.32386214137E+02  0.25500000000E-02 0. -1.
   -5000001    1    1    2    0    0 -0.54938712452E+02  0.80395195628E+02  0.10427282684E+04  0.10766911773E+04  0.25000000000E+03 0.  0.
    5000001    1    1    2    0    0  0.54938712452E+02 -0.80395195628E+02  0.11527674702E+04  0.11835769895E+04  0.25000000000E+03 0.  0.
<mgrwt>
<rscale>  0 0.53722495E+03</rscale>
<asrwt>0</asrwt>
<pdfrwt beam="1">  1        2 0.34275119E+00 0.53722495E+03</pdfrwt>
<pdfrwt beam="2">  1       -2 0.49824927E-02 0.53722495E+03</pdfrwt>
<totfact> 0.10798111E+03</totfact>
</mgrwt>
</event>
<event>
 4    1  0.1755570E-005  0.5216842E+03  0.7818608E-02  0.1008269E+00
          2   -1    0    0  501    0  0.00000000000E+00  0.00000000000E+00  0.11551693370E+04  0.11551693370E+04  0.25500000000E-02 0. -1.
         -2   -1    0    0    0  501 -0.00000000000E+00 -0.00000000000E+00 -0.58899235053E+02  0.58899235108E+02  0.25500000000E-02 0.  1.
   -5000001    1    1    2    0    0  0.70703730206E+02 -0.27476791279E+00  0.49408075236E+03  0.55822476012E+03  0.25000000000E+03 0.  0.
    5000001    1    1    2    0    0 -0.70703730206E+02  0.27476791279E+00  0.60218934956E+03  0.65584381196E+03  0.25000000000E+03 0.  0.
<mgrwt>
<rscale>  0 0.52168416E+03</rscale>
<asrwt>0</asrwt>
<pdfrwt beam="1">  1        2 0.17771837E+00 0.52168416E+03</pdfrwt>
<pdfrwt beam="2">  1       -2 0.90614205E-02 0.52168416E+03</pdfrwt>
<totfact> 0.16402893E+03</totfact>
</mgrwt>
</event>
<event>
 4    1  0.1755570E-005  0.8469072E+03  0.7818608E-02  0.9494497E-01
          2   -1    0    0  501    0  0.00000000000E+00  0.00000000000E+00  0.96556804331E+03  0.96556804331E+03  0.25500000000E-02 0.  1.
         -2   -1    0    0    0  501 -0.00000000000E+00 -0.00000000000E+00 -0.18570719364E+03  0.18570719365E+03  0.25500000000E-02 0. -1.
   -5000001    1    1    2    0    0  0.32779584983E+03 -0.49699006661E+02  0.50279089832E+03  0.65208802923E+03  0.25000000000E+03 0.  0.
    5000001    1    1    2    0    0 -0.32779584983E+03  0.49699006661E+02  0.27706995134E+03  0.49918720773E+03  0.25000000000E+03 0.  0.
<mgrwt>
<rscale>  0 0.84690715E+03</rscale>
<asrwt>0</asrwt>
<pdfrwt beam="1">  1        2 0.14854893E+00 0.84690715E+03</pdfrwt>
<pdfrwt beam="2">  1       -2 0.28570338E-01 0.84690715E+03</pdfrwt>
<totfact> 0.29863162E+02</totfact>
</mgrwt>
</event>
<event>
 4    1  0.1755570E-005  0.1396678E+04  0.7818608E-02  0.8956227E-01
         -2   -1    0    0    0  501 -0.00000000000E+00  0.00000000000E+00  0.30715950895E+03  0.30715950896E+03  0.25500000000E-02 0. -1.
          2   -1    0    0  501    0  0.00000000000E+00 -0.00000000000E+00 -0.15876996676E+04  0.15876996676E+04  0.25500000000E-02 0.  1.
   -5000001    1    1    2    0    0 -0.30672171522E+02  0.64844343096E+03 -0.55710832664E+03  0.89122912479E+03  0.25000000000E+03 0.  0.
    5000001    1    1    2    0    0  0.30672171522E+02 -0.64844343096E+03 -0.72343183205E+03  0.10036300518E+04  0.25000000000E+03 0.  0.
<mgrwt>
<rscale>  0 0.13966776E+04</rscale>
<asrwt>0</asrwt>
<pdfrwt beam="1">  1        2 0.24426148E+00 0.13966776E+04</pdfrwt>
<pdfrwt beam="2">  1       -2 0.47255310E-01 0.13966776E+04</pdfrwt>
<totfact> 0.46806587E+01</totfact>
</mgrwt>
</event>
<event>
 4    1  0.1755570E-005  0.5652815E+03  0.7818608E-02  0.9980175E-01
         -2   -1    0    0    0  501 -0.00000000000E+00  0.00000000000E+00  0.18780524052E+02  0.18780524225E+02  0.25500000000E-02 0. -1.
          2   -1    0    0  501    0  0.00000000000E+00 -0.00000000000E+00 -0.42536511332E+04  0.42536511332E+04  0.25500000000E-02 0.  1.
   -5000001    1    1    2    0    0 -0.62459725654E+02  0.51468498839E+02 -0.13306861166E+04  0.13563833399E+04  0.25000000000E+03 0.  0.
    5000001    1    1    2    0    0  0.62459725654E+02 -0.51468498839E+02 -0.29041844925E+04  0.29160483175E+04  0.25000000000E+03 0.  0.
<mgrwt>
<rscale>  0 0.56528151E+03</rscale>
<asrwt>0</asrwt>
<pdfrwt beam="1">  1        2 0.65440710E+00 0.56528151E+03</pdfrwt>
<pdfrwt beam="2">  1       -2 0.28893148E-02 0.56528151E+03</pdfrwt>
<totfact> 0.11549517E+02</totfact>
</mgrwt>
</event>
<event>
 4    1  0.1755570E-005  0.6681874E+03  0.7818608E-02  0.9773238E-01
         -2   -1    0    0    0  501 -0.00000000000E+00  0.00000000000E+00  0.15489222485E+03  0.15489222487E+03  0.25500000000E-02 0. -1.
          2   -1    0    0  501    0  0.00000000000E+00 -0.00000000000E+00 -0.72062105753E+03  0.72062105754E+03  0.25500000000E-02 0.  1.
   -5000001    1    1    2    0    0  0.15857410304E+03 -0.27315923470E+02 -0.83173573271E+02  0.30872277066E+03  0.25000000000E+03 0.  0.
    5000001    1    1    2    0    0 -0.15857410304E+03  0.27315923470E+02 -0.48255525941E+03  0.56679051175E+03  0.25000000000E+03 0.  0.
<mgrwt>
<rscale>  0 0.66818740E+03</rscale>
<asrwt>0</asrwt>
<pdfrwt beam="1">  1        2 0.11086478E+00 0.66818740E+03</pdfrwt>
<pdfrwt beam="2">  1       -2 0.23829573E-01 0.66818740E+03</pdfrwt>
<totfact> 0.62072388E+02</totfact>
</mgrwt>
</event>
<event>
 4    1  0.1755570E-005  0.1012207E+04  0.7818608E-02  0.9295257E-01
         -2   -1    0    0    0  501 -0.00000000000E+00  0.00000000000E+00  0.16748354475E+03  0.16748354477E+03  0.25500000000E-02 0. -1.
          2   -1    0    0  501    0  0.00000000000E+00 -0.00000000000E+00 -0.15293473557E+04  0.15293473557E+04  0.25500000000E-02 0.  1.
   -5000001    1    1    2    0    0  0.34899543875E+03 -0.25479521341E+03 -0.54145948435E+03  0.73647592645E+03  0.25000000000E+03 0.  0.
    5000001    1    1    2    0    0 -0.34899543875E+03  0.25479521341E+03 -0.82040432661E+03  0.96035497404E+03  0.25000000000E+03 0.  0.
<mgrwt>
<rscale>  0 0.10122065E+04</rscale>
<asrwt>0</asrwt>
<pdfrwt beam="1">  1        2 0.23528420E+00 0.10122065E+04</pdfrwt>
<pdfrwt beam="2">  1       -2 0.25766700E-01 0.10122065E+04</pdfrwt>
<totfact> 0.16542472E+02</totfact>
</mgrwt>
</event>
<event>
 4    1  0.1755570E-005  0.1042362E+04  0.7818608E-02  0.9263266E-01
          2   -1    0    0  501    0  0.00000000000E+00  0.00000000000E+00  0.45981086185E+03  0.45981086186E+03  0.25500000000E-02 0.  1.
         -2   -1    0    0    0  501 -0.00000000000E+00 -0.00000000000E+00 -0.59074164455E+03  0.59074164455E+03  0.25500000000E-02 0. -1.
   -5000001    1    1    2    0    0 -0.31146501482E+03 -0.30519359747E+03  0.73369886881E+02  0.50797315647E+03  0.25000000000E+03 0.  0.
    5000001    1    1    2    0    0  0.31146501482E+03  0.30519359747E+03 -0.20430066958E+03  0.54257934994E+03  0.25000000000E+03 0.  0.
<mgrwt>
<rscale>  0 0.10423616E+04</rscale>
<asrwt>0</asrwt>
<pdfrwt beam="1">  1        2 0.70740132E-01 0.10423616E+04</pdfrwt>
<pdfrwt beam="2">  1       -2 0.90883330E-01 0.10423616E+04</pdfrwt>
<totfact> 0.69865623E+01</totfact>
</mgrwt>
</event>
<event>
 4    1  0.1755570E-005  0.9072956E+03  0.7818608E-02  0.9416507E-01
          2   -1    0    0  501    0  0.00000000000E+00  0.00000000000E+00  0.78410144336E+03  0.78410144336E+03  0.25500000000E-02 0.  1.
         -2   -1    0    0    0  501 -0.00000000000E+00 -0.00000000000E+00 -0.26246135136E+03  0.26246135137E+03  0.25500000000E-02 0. -1.
   -5000001    1    1    2    0    0 -0.15773967998E+03  0.23025018627E+03  0.55580731261E+03  0.67031240751E+03  0.25000000000E+03 0.  0.
    5000001    1    1    2    0    0  0.15773967998E+03 -0.23025018627E+03 -0.34167220607E+02  0.37625038722E+03  0.25000000000E+03 0.  0.
<mgrwt>
<rscale>  0 0.90729560E+03</rscale>
<asrwt>0</asrwt>
<pdfrwt beam="1">  1        2 0.12063099E+00 0.90729560E+03</pdfrwt>
<pdfrwt beam="2">  1       -2 0.40378670E-01 0.90729560E+03</pdfrwt>
<totfact> 0.20580486E+02</totfact>
</mgrwt>
</event>
<event>
 4    1  0.1755570E-005  0.9201752E+03  0.7818608E-02  0.9400707E-01
         -2   -1    0    0    0  501 -0.00000000000E+00  0.00000000000E+00  0.19302232671E+03  0.19302232673E+03  0.25500000000E-02 0. -1.
          2   -1    0    0  501    0  0.00000000000E+00 -0.00000000000E+00 -0.10966638767E+04  0.10966638767E+04  0.25500000000E-02 0.  1.
   -5000001    1    1    2    0    0  0.32734708460E+03 -0.72486577673E+02 -0.72057882698E+03  0.83315320537E+03  0.25000000000E+03 0.  0.
    5000001    1    1    2    0    0 -0.32734708460E+03  0.72486577673E+02 -0.18306272297E+03  0.45653299801E+03  0.25000000000E+03 0.  0.
<mgrwt>
<rscale>  0 0.92017523E+03</rscale>
<asrwt>0</asrwt>
<pdfrwt beam="1">  1        2 0.16871752E+00 0.92017523E+03</pdfrwt>
<pdfrwt beam="2">  1       -2 0.29695743E-01 0.92017523E+03</pdfrwt>
<totfact> 0.22885675E+02</totfact>
</mgrwt>
</event>
<event>
 4    1  0.1755570E-005  0.1100263E+04  0.7818608E-02  0.9204936E-01
          2   -1    0    0  501    0  0.00000000000E+00  0.00000000000E+00  0.86583003722E+03  0.86583003722E+03  0.25500000000E-02 0.  1.
         -2   -1    0    0    0  501 -0.00000000000E+00 -0.00000000000E+00 -0.34954255170E+03  0.34954255171E+03  0.25500000000E-02 0. -1.
   -5000001    1    1    2    0    0  0.42365773832E+03  0.14960878830E+03  0.47425384534E+03  0.69948936989E+03  0.25000000000E+03 0.  0.
    5000001    1    1    2    0    0 -0.42365773832E+03 -0.14960878830E+03  0.42033640182E+02  0.51588321903E+03  0.25000000000E+03 0.  0.
<mgrwt>
<rscale>  0 0.11002626E+04</rscale>
<asrwt>0</asrwt>
<pdfrwt beam="1">  1        2 0.13320462E+00 0.11002626E+04</pdfrwt>
<pdfrwt beam="2">  1       -2 0.53775777E-01 0.11002626E+04</pdfrwt>
<totfact> 0.10009752E+02</totfact>
</mgrwt>
</event>
<event>
 4    1  0.1755570E-005  0.1178563E+04  0.7818608E-02  0.9131830E-01
         -2   -1    0    0    0  501 -0.00000000000E+00  0.00000000000E+00  0.24400302392E+03  0.24400302393E+03  0.25500000000E-02 0. -1.
          2   -1    0    0  501    0  0.00000000000E+00 -0.00000000000E+00 -0.14231481346E+04  0.14231481347E+04  0.25500000000E-02 0.  1.
   -5000001    1    1    2    0    0 -0.19128974634E+03  0.49059414804E+03 -0.46724708616E+03  0.74705704245E+03  0.25000000000E+03 0.  0.
    5000001    1    1    2    0    0  0.19128974634E+03 -0.49059414804E+03 -0.71189802457E+03  0.92009411613E+03  0.25000000000E+03 0.  0.
<mgrwt>
<rscale>  0 0.11785626E+04</rscale>
<asrwt>0</asrwt>
<pdfrwt beam="1">  1        2 0.21894586E+00 0.11785626E+04</pdfrwt>
<pdfrwt beam="2">  1       -2 0.37538928E-01 0.11785626E+04</pdfrwt>
<totfact> 0.92772643E+01</totfact>
</mgrwt>
</event>
<event>
 4    1  0.1755570E-005  0.1630425E+04  0.7818608E-02  0.8802072E-01
         -2   -1    0    0    0  501 -0.00000000000E+00  0.00000000000E+00  0.44384186958E+03  0.44384186959E+03  0.25500000000E-02 0. -1.
          2   -1    0    0  501    0  0.00000000000E+00 -0.00000000000E+00 -0.14973163326E+04  0.14973163326E+04  0.25500000000E-02 0.  1.
   -5000001    1    1    2    0    0  0.75333212882E+03 -0.13463272225E+03 -0.67937554500E+03  0.10534165355E+04  0.25000000000E+03 0.  0.
    5000001    1    1    2    0    0 -0.75333212882E+03  0.13463272225E+03 -0.37409891800E+03  0.88774166662E+03  0.25000000000E+03 0.  0.
<mgrwt>
<rscale>  0 0.16304253E+04</rscale>
<asrwt>0</asrwt>
<pdfrwt beam="1">  1        2 0.23035636E+00 0.16304253E+04</pdfrwt>
<pdfrwt beam="2">  1       -2 0.68283366E-01 0.16304253E+04</pdfrwt>
<totfact> 0.23912694E+01</totfact>
</mgrwt>
</event>
<event>
 4    1  0.1755570E-005  0.5829343E+03  0.7818608E-02  0.9941458E-01
         -2   -1    0    0    0  501 -0.00000000000E+00  0.00000000000E+00  0.69590503538E+02  0.69590503584E+02  0.25500000000E-02 0. -1.
          2   -1    0    0  501    0  0.00000000000E+00 -0.00000000000E+00 -0.12207569881E+04  0.12207569881E+04  0.25500000000E-02 0.  1.
   -5000001    1    1    2    0    0 -0.54842215369E+02 -0.14255190725E+02 -0.88263713862E+03  0.91910782693E+03  0.25000000000E+03 0.  0.
    5000001    1    1    2    0    0  0.54842215369E+02  0.14255190725E+02 -0.26852934590E+03  0.37123966472E+03  0.25000000000E+03 0.  0.
<mgrwt>
<rscale>  0 0.58293428E+03</rscale>
<asrwt>0</asrwt>
<pdfrwt beam="1">  1        2 0.18780875E+00 0.58293428E+03</pdfrwt>
<pdfrwt beam="2">  1       -2 0.10706232E-01 0.58293428E+03</pdfrwt>
<totfact> 0.11442740E+03</totfact>
</mgrwt>
</event>
<event>
 4    1  0.1755570E-005  0.1087963E+04  0.7818608E-02  0.9217004E-01
          2   -1    0    0  501    0  0.00000000000E+00  0.00000000000E+00  0.26142471988E+04  0.26142471988E+04  0.25500000000E-02 0.  1.
         -2   -1    0    0    0  501 -0.00000000000E+00 -0.00000000000E+00 -0.11319349405E+03  0.11319349408E+03  0.25500000000E-02 0. -1.
   -5000001    1    1    2    0    0  0.40233530380E+03 -0.20541092445E+03  0.82105599443E+03  0.96989705152E+03  0.25000000000E+03 0.  0.
    5000001    1    1    2    0    0 -0.40233530380E+03  0.20541092445E+03  0.16799977103E+04  0.17575436413E+04  0.25000000000E+03 0.  0.
<mgrwt>
<rscale>  0 0.10879628E+04</rscale>
<asrwt>0</asrwt>
<pdfrwt beam="1">  1        2 0.40219186E+00 0.10879628E+04</pdfrwt>
<pdfrwt beam="2">  1       -2 0.17414385E-01 0.10879628E+04</pdfrwt>
<totfact> 0.81596310E+01</totfact>
</mgrwt>
</event>
<event>
 4    1  0.1755570E-005  0.6358146E+03  0.7818608E-02  0.9833767E-01
          2   -1    0    0  501    0  0.00000000000E+00  0.00000000000E+00  0.22167599883E+03  0.22167599884E+03  0.25500000000E-02 0.  1.
         -2   -1    0    0    0  501 -0.00000000000E+00 -0.00000000000E+00 -0.45591337779E+03  0.45591337779E+03  0.25500000000E-02 0. -1.
   -5000001    1    1    2    0    0 -0.70775899111E+02 -0.16844387986E+03 -0.40399305250E+02  0.31227339372E+03  0.25000000000E+03 0.  0.
    5000001    1    1    2    0    0  0.70775899111E+02  0.16844387986E+03 -0.19383807371E+03  0.36531598292E+03  0.25000000000E+03 0.  0.
<mgrwt>
<rscale>  0 0.63581461E+03</rscale>
<asrwt>0</asrwt>
<pdfrwt beam="1">  1        2 0.34104000E-01 0.63581461E+03</pdfrwt>
<pdfrwt beam="2">  1       -2 0.70140520E-01 0.63581461E+03</pdfrwt>
<totfact> 0.28798956E+02</totfact>
</mgrwt>
</event>
<event>
 4    1  0.1755570E-005  0.5810532E+03  0.7818608E-02  0.9945513E-01
         -2   -1    0    0    0  501 -0.00000000000E+00  0.00000000000E+00  0.72283555171E+02  0.72283555216E+02  0.25500000000E-02 0. -1.
          2   -1    0    0  501    0  0.00000000000E+00 -0.00000000000E+00 -0.11677027289E+04  0.11677027289E+04  0.25500000000E-02 0.  1.
   -5000001    1    1    2    0    0 -0.14979524524E+00 -0.14100173995E+03 -0.45169730548E+03  0.53517470875E+03  0.25000000000E+03 0.  0.
    5000001    1    1    2    0    0  0.14979524524E+00  0.14100173995E+03 -0.64372186821E+03  0.70481157533E+03  0.25000000000E+03 0.  0.
<mgrwt>
<rscale>  0 0.58105320E+03</rscale>
<asrwt>0</asrwt>
<pdfrwt beam="1">  1        2 0.17964656E+00 0.58105320E+03</pdfrwt>
<pdfrwt beam="2">  1       -2 0.11120548E-01 0.58105320E+03</pdfrwt>
<totfact> 0.11556149E+03</totfact>
</mgrwt>
</event>
<event>
 4    1  0.1755570E-005  0.8000888E+03  0.7818608E-02  0.9559889E-01
         -2   -1    0    0    0  501 -0.00000000000E+00  0.00000000000E+00  0.33660848056E+03  0.33660848057E+03  0.25500000000E-02 0. -1.
          2   -1    0    0  501    0  0.00000000000E+00 -0.00000000000E+00 -0.47543516922E+03  0.47543516923E+03  0.25500000000E-02 0.  1.
   -5000001    1    1    2    0    0  0.70445332704E+02  0.29538668825E+03 -0.14343921473E+03  0.41867726093E+03  0.25000000000E+03 0.  0.
    5000001    1    1    2    0    0 -0.70445332704E+02 -0.29538668825E+03  0.46125260688E+01  0.39336638887E+03  0.25000000000E+03 0.  0.
<mgrwt>
<rscale>  0 0.80008877E+03</rscale>
<asrwt>0</asrwt>
<pdfrwt beam="1">  1        2 0.73143872E-01 0.80008877E+03</pdfrwt>
<pdfrwt beam="2">  1       -2 0.51785920E-01 0.80008877E+03</pdfrwt>
<totfact> 0.23156470E+02</totfact>
</mgrwt>
</event>
<event>
 4    1  0.1755570E-005  0.6074657E+03  0.7818608E-02  0.9890037E-01
          2   -1    0    0  501    0  0.00000000000E+00  0.00000000000E+00  0.85842433517E+03  0.85842433518E+03  0.25500000000E-02 0.  1.
         -2   -1    0    0    0  501 -0.00000000000E+00 -0.00000000000E+00 -0.10746856429E+03  0.10746856432E+03  0.25500000000E-02 0. -1.
   -5000001    1    1    2    0    0  0.59170124844E+02  0.15427012090E+03  0.29672277104E+03  0.42171646486E+03  0.25000000000E+03 0.  0.
    5000001    1    1    2    0    0 -0.59170124844E+02 -0.15427012090E+03  0.45423299984E+03  0.54417643464E+03  0.25000000000E+03 0.  0.
<mgrwt>
<rscale>  0 0.60746566E+03</rscale>
<asrwt>0</asrwt>
<pdfrwt beam="1">  1        2 0.13206528E+00 0.60746566E+03</pdfrwt>
<pdfrwt beam="2">  1       -2 0.16533626E-01 0.60746566E+03</pdfrwt>
<totfact> 0.93510995E+02</totfact>
</mgrwt>
</event>
<event>
 4    1  0.1755570E-005  0.6260186E+03  0.7818608E-02  0.9852849E-01
          2   -1    0    0  501    0  0.00000000000E+00  0.00000000000E+00  0.30457788412E+04  0.30457788412E+04  0.25500000000E-02 0.  1.
         -2   -1    0    0    0  501 -0.00000000000E+00 -0.00000000000E+00 -0.32167413055E+02  0.32167413156E+02  0.25500000000E-02 0. -1.
   -5000001    1    1    2    0    0  0.54622802639E+01 -0.89121724334E+02  0.69142890337E+03  0.74063921492E+03  0.25000000000E+03 0.  0.
    5000001    1    1    2    0    0 -0.54622802639E+01  0.89121724334E+02  0.23221825247E+04  0.23373070394E+04  0.25000000000E+03 0.  0.
<mgrwt>
<rscale>  0 0.62601861E+03</rscale>
<asrwt>0</asrwt>
<pdfrwt beam="1">  1        2 0.46858133E+00 0.62601861E+03</pdfrwt>
<pdfrwt beam="2">  1       -2 0.49488331E-02 0.62601861E+03</pdfrwt>
<totfact> 0.36635929E+02</totfact>
</mgrwt>
</event>
<event>
 4    1  0.1755570E-005  0.1338321E+04  0.7818608E-02  0.8999716E-01
          2   -1    0    0  501    0  0.00000000000E+00  0.00000000000E+00  0.69654272059E+03  0.69654272059E+03  0.25500000000E-02 0.  1.
         -2   -1    0    0    0  501 -0.00000000000E+00 -0.00000000000E+00 -0.64285462817E+03  0.64285462818E+03  0.25500000000E-02 0. -1.
   -5000001    1    1    2    0    0 -0.35860803443E+03  0.41002730734E+03  0.32466295983E+03  0.68163637858E+03  0.25000000000E+03 0.  0.
    5000001    1    1    2    0    0  0.35860803443E+03 -0.41002730734E+03 -0.27097486741E+03  0.65776097018E+03  0.25000000000E+03 0.  0.
<mgrwt>
<rscale>  0 0.13383209E+04</rscale>
<asrwt>0</asrwt>
<pdfrwt beam="1">  1        2 0.10716042E+00 0.13383209E+04</pdfrwt>
<pdfrwt beam="2">  1       -2 0.98900712E-01 0.13383209E+04</pdfrwt>
<totfact> 0.34184412E+01</totfact>
</mgrwt>
</event>
<event>
 4    1  0.1755570E-005  0.7911284E+03  0.7818608E-02  0.9572948E-01
          2   -1    0    0  501    0  0.00000000000E+00  0.00000000000E+00  0.10854546538E+04  0.10854546538E+04  0.25500000000E-02 0.  1.
         -2   -1    0    0    0  501 -0.00000000000E+00 -0.00000000000E+00 -0.14415254263E+03  0.14415254266E+03  0.25500000000E-02 0. -1.
   -5000001    1    1    2    0    0  0.18381781038E+03 -0.22526251987E+03  0.31965029640E+03  0.49920787480E+03  0.25000000000E+03 0.  0.
    5000001    1    1    2    0    0 -0.18381781038E+03  0.22526251987E+03  0.62165181473E+03  0.73039932163E+03  0.25000000000E+03 0.  0.
<mgrwt>
<rscale>  0 0.79112843E+03</rscale>
<asrwt>0</asrwt>
<pdfrwt beam="1">  1        2 0.16699303E+00 0.79112843E+03</pdfrwt>
<pdfrwt beam="2">  1       -2 0.22177314E-01 0.79112843E+03</pdfrwt>
<totfact> 0.39751937E+02</totfact>
</mgrwt>
</event>
<event>
 4    1  0.1755570E-005  0.1150257E+04  0.7818608E-02  0.9157546E-01
         -2   -1    0    0    0  501 -0.00000000000E+00  0.00000000000E+00  0.25567983850E+03  0.25567983851E+03  0.25500000000E-02 0. -1.
          2   -1    0    0  501    0  0.00000000000E+00 -0.00000000000E+00 -0.12936990975E+04  0.12936990975E+04  0.25500000000E-02 0.  1.
   -5000001    1    1    2    0    0 -0.25484161194E+03 -0.43143436843E+03 -0.69562867327E+03  0.89301686015E+03  0.25000000000E+03 0.  0.
    5000001    1    1    2    0    0  0.25484161194E+03  0.43143436843E+03 -0.34239058574E+03  0.65636207587E+03  0.25000000000E+03 0.  0.
<mgrwt>
<rscale>  0 0.11502570E+04</rscale>
<asrwt>0</asrwt>
<pdfrwt beam="1">  1        2 0.19903063E+00 0.11502570E+04</pdfrwt>
<pdfrwt beam="2">  1       -2 0.39335361E-01 0.11502570E+04</pdfrwt>
<totfact> 0.10078381E+02</totfact>
</mgrwt>
</event>
<event>
 4    1  0.1755570E-005  0.1652590E+04  0.7818608E-02  0.8788876E-01
          2   -1    0    0  501    0  0.00000000000E+00  0.00000000000E+00  0.23574937999E+03  0.23574938000E+03  0.25500000000E-02 0.  1.
         -2   -1    0    0    0  501 -0.00000000000E+00 -0.00000000000E+00 -0.28961413230E+04  0.28961413230E+04  0.25500000000E-02 0. -1.
   -5000001    1    1    2    0    0 -0.65384875197E+03  0.33344525117E+03 -0.78896956438E+03  0.11061993037E+04  0.25000000000E+03 0.  0.
    5000001    1    1    2    0    0  0.65384875197E+03 -0.33344525117E+03 -0.18714223786E+04  0.20256913993E+04  0.25000000000E+03 0.  0.
<mgrwt>
<rscale>  0 0.16525901E+04</rscale>
<asrwt>0</asrwt>
<pdfrwt beam="1">  1        2 0.36269137E-01 0.16525901E+04</pdfrwt>
<pdfrwt beam="2">  1       -2 0.44556018E+00 0.16525901E+04</pdfrwt>
<totfact> 0.51289817E-01</totfact>
</mgrwt>
</event>
<event>
 4    1  0.1755570E-005  0.8687595E+03  0.7818608E-02  0.9465499E-01
          2   -1    0    0  501    0  0.00000000000E+00  0.00000000000E+00  0.24252498112E+04  0.24252498112E+04  0.25500000000E-02 0.  1.
         -2   -1    0    0    0  501 -0.00000000000E+00 -0.00000000000E+00 -0.77800543730E+02  0.77800543772E+02  0.25500000000E-02 0. -1.
   -5000001    1    1    2    0    0 -0.15600397301E+03  0.25036582086E+03  0.60353186211E+03  0.71677820310E+03  0.25000000000E+03 0.  0.
    5000001    1    1    2    0    0  0.15600397301E+03 -0.25036582086E+03  0.17439174054E+04  0.17862721519E+04  0.25000000000E+03 0.  0.
<mgrwt>
<rscale>  0 0.86875947E+03</rscale>
<asrwt>0</asrwt>
<pdfrwt beam="1">  1        2 0.37311525E+00 0.86875947E+03</pdfrwt>
<pdfrwt beam="2">  1       -2 0.11969318E-01 0.86875947E+03</pdfrwt>
<totfact> 0.20126259E+02</totfact>
</mgrwt>
</event>
<event>
 4    1  0.1755570E-005  0.8496222E+03  0.7818608E-02  0.9490844E-01
         -2   -1    0    0    0  501 -0.00000000000E+00  0.00000000000E+00  0.92528742791E+02  0.92528742826E+02  0.25500000000E-02 0. -1.
          2   -1    0    0  501    0  0.00000000000E+00 -0.00000000000E+00 -0.19503613026E+04  0.19503613026E+04  0.25500000000E-02 0.  1.
   -5000001    1    1    2    0    0  0.31214187893E+02 -0.15638408031E+03 -0.19749059903E+03  0.35627635735E+03  0.25000000000E+03 0.  0.
    5000001    1    1    2    0    0 -0.31214187893E+02  0.15638408031E+03 -0.16603419608E+04  0.16866136881E+04  0.25000000000E+03 0.  0.
<mgrwt>
<rscale>  0 0.84962222E+03</rscale>
<asrwt>0</asrwt>
<pdfrwt beam="1">  1        2 0.30005555E+00 0.84962222E+03</pdfrwt>
<pdfrwt beam="2">  1       -2 0.14235193E-01 0.84962222E+03</pdfrwt>
<totfact> 0.27650163E+02</totfact>
</mgrwt>
</event>
<event>
 4    1  0.1755570E-005  0.7445033E+03  0.7818608E-02  0.9644013E-01
          2   -1    0    0  501    0  0.00000000000E+00  0.00000000000E+00  0.16341462543E+04  0.16341462543E+04  0.25500000000E-02 0.  1.
         -2   -1    0    0    0  501 -0.00000000000E+00 -0.00000000000E+00 -0.84797366540E+02  0.84797366578E+02  0.25500000000E-02 0. -1.
   -5000001    1    1    2    0    0 -0.14836558871E+03  0.23160777062E+03  0.82181063442E+03  0.90195744144E+03  0.25000000000E+03 0.  0.
    5000001    1    1    2    0    0  0.14836558871E+03 -0.23160777062E+03  0.72753825333E+03  0.81698617943E+03  0.25000000000E+03 0.  0.
<mgrwt>
<rscale>  0 0.74450332E+03</rscale>
<asrwt>0</asrwt>
<pdfrwt beam="1">  1        2 0.25140714E+00 0.74450332E+03</pdfrwt>
<pdfrwt beam="2">  1       -2 0.13045748E-01 0.74450332E+03</pdfrwt>
<totfact> 0.48003530E+02</totfact>
</mgrwt>
</event>
<event>
 4    1  0.1755570E-005  0.2050129E+04  0.7818608E-02  0.8583536E-01
          2   -1    0    0  501    0  0.00000000000E+00  0.00000000000E+00  0.12129304768E+04  0.12129304768E+04  0.25500000000E-02 0.  1.
         -2   -1    0    0    0  501 -0.00000000000E+00 -0.00000000000E+00 -0.86629635227E+03  0.86629635227E+03  0.25500000000E-02 0. -1.
   -5000001    1    1    2    0    0 -0.62255687569E+03 -0.56109165962E+03 -0.36892672802E+03  0.94921433018E+03  0.25000000000E+03 0.  0.
    5000001    1    1    2    0    0  0.62255687569E+03  0.56109165962E+03  0.71556085257E+03  0.11300124989E+04  0.25000000000E+03 0.  0.
<mgrwt>
<rscale>  0 0.20501290E+04</rscale>
<asrwt>0</asrwt>
<pdfrwt beam="1">  1        2 0.18660469E+00 0.20501290E+04</pdfrwt>
<pdfrwt beam="2">  1       -2 0.13327636E+00 0.20501290E+04</pdfrwt>
<totfact> 0.70198141E+00</totfact>
</mgrwt>
</event>
<event>
 4    1  0.1755570E-005  0.7046440E+03  0.7818608E-02  0.9709323E-01
         -2   -1    0    0    0  501 -0.00000000000E+00  0.00000000000E+00  0.14587842529E+03  0.14587842531E+03  0.25500000000E-02 0. -1.
          2   -1    0    0  501    0  0.00000000000E+00 -0.00000000000E+00 -0.85091943724E+03  0.85091943725E+03  0.25500000000E-02 0.  1.
   -5000001    1    1    2    0    0 -0.21252036684E+03  0.76635039270E+02 -0.20692571101E+03  0.39541887340E+03  0.25000000000E+03 0.  0.
    5000001    1    1    2    0    0  0.21252036684E+03 -0.76635039270E+02 -0.49811530094E+03  0.60137898916E+03  0.25000000000E+03 0.  0.
<mgrwt>
<rscale>  0 0.70464399E+03</rscale>
<asrwt>0</asrwt>
<pdfrwt beam="1">  1        2 0.13091068E+00 0.70464399E+03</pdfrwt>
<pdfrwt beam="2">  1       -2 0.22442835E-01 0.70464399E+03</pdfrwt>
<totfact> 0.55483020E+02</totfact>
</mgrwt>
</event>
<event>
 4    1  0.1755570E-005  0.1447210E+04  0.7818608E-02  0.8920337E-01
          2   -1    0    0  501    0  0.00000000000E+00  0.00000000000E+00  0.11119161684E+04  0.11119161684E+04  0.25500000000E-02 0.  1.
         -2   -1    0    0    0  501 -0.00000000000E+00 -0.00000000000E+00 -0.47090275703E+03  0.47090275703E+03  0.25500000000E-02 0. -1.
   -5000001    1    1    2    0    0  0.65573181014E+03  0.97253396638E+02  0.48147801162E+03  0.85659996828E+03  0.25000000000E+03 0.  0.
    5000001    1    1    2    0    0 -0.65573181014E+03 -0.97253396638E+02  0.15953539979E+03  0.72621895719E+03  0.25000000000E+03 0.  0.
<mgrwt>
<rscale>  0 0.14472103E+04</rscale>
<asrwt>0</asrwt>
<pdfrwt beam="1">  1        2 0.17106402E+00 0.14472103E+04</pdfrwt>
<pdfrwt beam="2">  1       -2 0.72446579E-01 0.14472103E+04</pdfrwt>
<totfact> 0.35824435E+01</totfact>
</mgrwt>
</event>
<event>
 4    1  0.1755570E-005  0.6851257E+03  0.7818608E-02  0.9743013E-01
         -2   -1    0    0    0  501 -0.00000000000E+00  0.00000000000E+00  0.10816754658E+03  0.10816754661E+03  0.25500000000E-02 0. -1.
          2   -1    0    0  501    0  0.00000000000E+00 -0.00000000000E+00 -0.10848847492E+04  0.10848847492E+04  0.25500000000E-02 0.  1.
   -5000001    1    1    2    0    0 -0.13867323695E+03  0.99660088047E+02 -0.76744921190E+03  0.82500951064E+03  0.25000000000E+03 0.  0.
    5000001    1    1    2    0    0  0.13867323695E+03 -0.99660088047E+02 -0.20926799075E+03  0.36804278522E+03  0.25000000000E+03 0.  0.
<mgrwt>
<rscale>  0 0.68512575E+03</rscale>
<asrwt>0</asrwt>
<pdfrwt beam="1">  1        2 0.16690534E+00 0.68512575E+03</pdfrwt>
<pdfrwt beam="2">  1       -2 0.16641162E-01 0.68512575E+03</pdfrwt>
<totfact> 0.65885446E+02</totfact>
</mgrwt>
</event>
<event>
 4    1  0.1755570E-005  0.6240888E+03  0.7818608E-02  0.9856653E-01
          2   -1    0    0  501    0  0.00000000000E+00  0.00000000000E+00  0.11718274006E+04  0.11718274006E+04  0.25500000000E-02 0.  1.
         -2   -1    0    0    0  501 -0.00000000000E+00 -0.00000000000E+00 -0.83093886468E+02  0.83093886507E+02  0.25500000000E-02 0. -1.
   -5000001    1    1    2    0    0  0.18494743951E+03  0.25258872872E+02  0.53370247484E+03  0.61820861987E+03  0.25000000000E+03 0.  0.
    5000001    1    1    2    0    0 -0.18494743951E+03 -0.25258872872E+02  0.55503103931E+03  0.63671266725E+03  0.25000000000E+03 0.  0.
<mgrwt>
<rscale>  0 0.62408875E+03</rscale>
<asrwt>0</asrwt>
<pdfrwt beam="1">  1        2 0.18028114E+00 0.62408875E+03</pdfrwt>
<pdfrwt beam="2">  1       -2 0.12783675E-01 0.62408875E+03</pdfrwt>
<totfact> 0.91219641E+02</totfact>
</mgrwt>
</event>
<event>
 4    1  0.1755570E-005  0.7749967E+03  0.7818608E-02  0.9596931E-01
          2   -1    0    0  501    0  0.00000000000E+00  0.00000000000E+00  0.71016816617E+03  0.71016816618E+03  0.25500000000E-02 0.  1.
         -2   -1    0    0    0  501 -0.00000000000E+00 -0.00000000000E+00 -0.21143581042E+03  0.21143581044E+03  0.25500000000E-02 0. -1.
   -5000001    1    1    2    0    0  0.11997117165E+03 -0.21119391247E+03  0.48051600720E+02  0.35185921477E+03  0.25000000000E+03 0.  0.
    5000001    1    1    2    0    0 -0.11997117165E+03  0.21119391247E+03  0.45068075503E+03  0.56974476184E+03  0.25000000000E+03 0.  0.
<mgrwt>
<rscale>  0 0.77499673E+03</rscale>
<asrwt>0</asrwt>
<pdfrwt beam="1">  1        2 0.10925664E+00 0.77499673E+03</pdfrwt>
<pdfrwt beam="2">  1       -2 0.32528587E-01 0.77499673E+03</pdfrwt>
<totfact> 0.35618456E+02</totfact>
</mgrwt>
</event>
<event>
 4    1  0.1755570E-005  0.8875916E+03  0.7818608E-02  0.9441227E-01
         -2   -1    0    0    0  501 -0.00000000000E+00  0.00000000000E+00  0.88172772226E+02  0.88172772262E+02  0.25500000000E-02 0. -1.
          2   -1    0    0  501    0  0.00000000000E+00 -0.00000000000E+00 -0.22337364150E+04  0.22337364150E+04  0.25500000000E-02 0.  1.
   -5000001    1    1    2    0    0  0.23380188086E+03  0.26649387473E+03 -0.13177963944E+04  0.13873606747E+04  0.25000000000E+03 0.  0.
    5000001    1    1    2    0    0 -0.23380188086E+03 -0.26649387473E+03 -0.82776724842E+03  0.93454851255E+03  0.25000000000E+03 0.  0.
<mgrwt>
<rscale>  0 0.88759165E+03</rscale>
<asrwt>0</asrwt>
<pdfrwt beam="1">  1        2 0.34365172E+00 0.88759165E+03</pdfrwt>
<pdfrwt beam="2">  1       -2 0.13565043E-01 0.88759165E+03</pdfrwt>
<totfact> 0.20875540E+02</totfact>
</mgrwt>
</event>
<event>
 4    1  0.1755570E-005  0.8088810E+03  0.7818608E-02  0.9547250E-01
         -2   -1    0    0    0  501 -0.00000000000E+00  0.00000000000E+00  0.19863578516E+03  0.19863578518E+03  0.25500000000E-02 0. -1.
          2   -1    0    0  501    0  0.00000000000E+00 -0.00000000000E+00 -0.82347758091E+03  0.82347758091E+03  0.25500000000E-02 0.  1.
   -5000001    1    1    2    0    0  0.54374078029E+02  0.31186899694E+03 -0.34933279682E+03  0.53362178980E+03  0.25000000000E+03 0.  0.
    5000001    1    1    2    0    0 -0.54374078029E+02 -0.31186899694E+03 -0.27550899893E+03  0.48849157629E+03  0.25000000000E+03 0.  0.
<mgrwt>
<rscale>  0 0.80888099E+03</rscale>
<asrwt>0</asrwt>
<pdfrwt beam="1">  1        2 0.12668886E+00 0.80888099E+03</pdfrwt>
<pdfrwt beam="2">  1       -2 0.30559352E-01 0.80888099E+03</pdfrwt>
<totfact> 0.32960379E+02</totfact>
</mgrwt>
</event>
<event>
 4    1  0.1755570E-005  0.9511534E+03  0.7818608E-02  0.9363803E-01
          2   -1    0    0  501    0  0.00000000000E+00  0.00000000000E+00  0.77742577959E+03  0.77742577959E+03  0.25500000000E-02 0.  1.
         -2   -1    0    0    0  501 -0.00000000000E+00 -0.00000000000E+00 -0.29092577430E+03  0.29092577431E+03  0.25500000000E-02 0. -1.
   -5000001    1    1    2    0    0 -0.33869323060E+03  0.62111821519E+02  0.47092677012E+01  0.42555042008E+03  0.25000000000E+03 0.  0.
    5000001    1    1    2    0    0  0.33869323060E+03 -0.62111821519E+02  0.48179073758E+03  0.64280113383E+03  0.25000000000E+03 0.  0.
<mgrwt>
<rscale>  0 0.95115340E+03</rscale>
<asrwt>0</asrwt>
<pdfrwt beam="1">  1        2 0.11960396E+00 0.95115340E+03</pdfrwt>
<pdfrwt beam="2">  1       -2 0.44757812E-01 0.95115340E+03</pdfrwt>
<totfact> 0.16945321E+02</totfact>
</mgrwt>
</event>
<event>
 4    1  0.1755570E-005  0.6023032E+03  0.7818608E-02  0.9900639E-01
         -2   -1    0    0    0  501 -0.00000000000E+00  0.00000000000E+00  0.11420267993E+03  0.11420267996E+03  0.25500000000E-02 0. -1.
          2   -1    0    0  501    0  0.00000000000E+00 -0.00000000000E+00 -0.79413459204E+03  0.79413459204E+03  0.25500000000E-02 0.  1.
   -5000001    1    1    2    0    0 -0.98234956472E+02  0.13420377224E+03 -0.30519635513E+03  0.42814200254E+03  0.25000000000E+03 0.  0.
    5000001    1    1    2    0    0  0.98234956472E+02 -0.13420377224E+03 -0.37473555698E+03  0.48019526947E+03  0.25000000000E+03 0.  0.
<mgrwt>
<rscale>  0 0.60230324E+03</rscale>
<asrwt>0</asrwt>
<pdfrwt beam="1">  1        2 0.12217455E+00 0.60230324E+03</pdfrwt>
<pdfrwt beam="2">  1       -2 0.17569644E-01 0.60230324E+03</pdfrwt>
<totfact> 0.93512529E+02</totfact>
</mgrwt>
</event>
<event>
 4    1  0.1755570E-005  0.8382558E+03  0.7818608E-02  0.9506237E-01
         -2   -1    0    0    0  501 -0.00000000000E+00  0.00000000000E+00  0.44043649114E+02  0.44043649188E+02  0.25500000000E-02 0. -1.
          2   -1    0    0  501    0  0.00000000000E+00 -0.00000000000E+00 -0.39885026273E+04  0.39885026273E+04  0.25500000000E-02 0.  1.
   -5000001    1    1    2    0    0 -0.76109586608E+02 -0.20810812923E+03 -0.75459080516E+03  0.82523266165E+03  0.25000000000E+03 0.  0.
    5000001    1    1    2    0    0  0.76109586608E+02  0.20810812923E+03 -0.31898681731E+04  0.32073136149E+04  0.25000000000E+03 0.  0.
<mgrwt>
<rscale>  0 0.83825583E+03</rscale>
<asrwt>0</asrwt>
<pdfrwt beam="1">  1        2 0.61361550E+00 0.83825583E+03</pdfrwt>
<pdfrwt beam="2">  1       -2 0.67759492E-02 0.83825583E+03</pdfrwt>
<totfact> 0.48639927E+01</totfact>
</mgrwt>
</event>
<event>
 4    1  0.1755570E-005  0.5647303E+03  0.7818608E-02  0.9981408E-01
          2   -1    0    0  501    0  0.00000000000E+00  0.00000000000E+00  0.13252410891E+04  0.13252410891E+04  0.25500000000E-02 0.  1.
         -2   -1    0    0    0  501 -0.00000000000E+00 -0.00000000000E+00 -0.60162692055E+02  0.60162692109E+02  0.25500000000E-02 0. -1.
   -5000001    1    1    2    0    0  0.11786068308E+03  0.26091062177E+02  0.50605738127E+03  0.57720529908E+03  0.25000000000E+03 0.  0.
    5000001    1    1    2    0    0 -0.11786068308E+03 -0.26091062177E+02  0.75902101577E+03  0.80819848213E+03  0.25000000000E+03 0.  0.
<mgrwt>
<rscale>  0 0.56473028E+03</rscale>
<asrwt>0</asrwt>
<pdfrwt beam="1">  1        2 0.20388325E+00 0.56473028E+03</pdfrwt>
<pdfrwt beam="2">  1       -2 0.92557985E-02 0.56473028E+03</pdfrwt>
<totfact> 0.12621647E+03</totfact>
</mgrwt>
</event>
<event>
 4    1  0.1755570E-005  0.9999661E+03  0.7818608E-02  0.9308582E-01
          2   -1    0    0  501    0  0.00000000000E+00  0.00000000000E+00  0.11268507922E+04  0.11268507922E+04  0.25500000000E-02 0.  1.
         -2   -1    0    0    0  501 -0.00000000000E+00 -0.00000000000E+00 -0.22184219207E+03  0.22184219208E+03  0.25500000000E-02 0. -1.
   -5000001    1    1    2    0    0 -0.13702260017E+03 -0.39079950455E+03  0.62302031696E+03  0.78876724137E+03  0.25000000000E+03 0.  0.
    5000001    1    1    2    0    0  0.13702260017E+03  0.39079950455E+03  0.28198828315E+03  0.55992574288E+03  0.25000000000E+03 0.  0.
<mgrwt>
<rscale>  0 0.99996610E+03</rscale>
<asrwt>0</asrwt>
<pdfrwt beam="1">  1        2 0.17336166E+00 0.99996610E+03</pdfrwt>
<pdfrwt beam="2">  1       -2 0.34129569E-01 0.99996610E+03</pdfrwt>
<totfact> 0.16810080E+02</totfact>
</mgrwt>
</event>
<event>
 4    1  0.1755570E-005  0.9371882E+03  0.7818608E-02  0.9380252E-01
          2   -1    0    0  501    0  0.00000000000E+00  0.00000000000E+00  0.85298036829E+03  0.85298036830E+03  0.25500000000E-02 0.  1.
         -2   -1    0    0    0  501 -0.00000000000E+00 -0.00000000000E+00 -0.25742731772E+03  0.25742731773E+03  0.25500000000E-02 0. -1.
   -5000001    1    1    2    0    0 -0.24519459801E+03 -0.10850258481E+03 -0.48037752513E+02  0.36973074997E+03  0.25000000000E+03 0.  0.
    5000001    1    1    2    0    0  0.24519459801E+03  0.10850258481E+03  0.64359080309E+03  0.74067693607E+03  0.25000000000E+03 0.  0.
<mgrwt>
<rscale>  0 0.93718824E+03</rscale>
<asrwt>0</asrwt>
<pdfrwt beam="1">  1        2 0.13122775E+00 0.93718824E+03</pdfrwt>
<pdfrwt beam="2">  1       -2 0.39604203E-01 0.93718824E+03</pdfrwt>
<totfact> 0.19059580E+02</totfact>
</mgrwt>
</event>
<event>
 4    1  0.1755570E-005  0.8447900E+03  0.7818608E-02  0.9497356E-01
         -2   -1    0    0    0  501 -0.00000000000E+00  0.00000000000E+00  0.60585237278E+02  0.60585237332E+02  0.25500000000E-02 0. -1.
          2   -1    0    0  501    0  0.00000000000E+00 -0.00000000000E+00 -0.29449011096E+04  0.29449011096E+04  0.25500000000E-02 0.  1.
   -5000001    1    1    2    0    0 -0.30908480595E+03  0.12349186659E+03 -0.11872469167E+04  0.12581092559E+04  0.25000000000E+03 0.  0.
    5000001    1    1    2    0    0  0.30908480595E+03 -0.12349186659E+03 -0.16970689556E+04  0.17473770911E+04  0.25000000000E+03 0.  0.
<mgrwt>
<rscale>  0 0.84478999E+03</rscale>
<asrwt>0</asrwt>
<pdfrwt beam="1">  1        2 0.45306160E+00 0.84478999E+03</pdfrwt>
<pdfrwt beam="2">  1       -2 0.93208080E-02 0.84478999E+03</pdfrwt>
<totfact> 0.15111533E+02</totfact>
</mgrwt>
</event>
<event>
 4    1  0.1755570E-005  0.6533167E+03  0.7818608E-02  0.9800576E-01
          2   -1    0    0  501    0  0.00000000000E+00  0.00000000000E+00  0.72191521226E+03  0.72191521226E+03  0.25500000000E-02 0. -1.
         -2   -1    0    0    0  501 -0.00000000000E+00 -0.00000000000E+00 -0.14780914217E+03  0.14780914219E+03  0.25500000000E-02 0.  1.
   -5000001    1    1    2    0    0  0.19736535452E+03 -0.16831997943E+02  0.38089652306E+03  0.49680837412E+03  0.25000000000E+03 0.  0.
    5000001    1    1    2    0    0 -0.19736535452E+03  0.16831997943E+02  0.19320954703E+03  0.37291598033E+03  0.25000000000E+03 0.  0.
<mgrwt>
<rscale>  0 0.65331667E+03</rscale>
<asrwt>0</asrwt>
<pdfrwt beam="1">  1        2 0.11106388E+00 0.65331667E+03</pdfrwt>
<pdfrwt beam="2">  1       -2 0.22739868E-01 0.65331667E+03</pdfrwt>
<totfact> 0.67345252E+02</totfact>
</mgrwt>
</event>
<event>
 4    1  0.1755570E-005  0.5999833E+03  0.7818608E-02  0.9905441E-01
         -2   -1    0    0    0  501 -0.00000000000E+00  0.00000000000E+00  0.64569397170E+02  0.64569397221E+02  0.25500000000E-02 0. -1.
          2   -1    0    0  501    0  0.00000000000E+00 -0.00000000000E+00 -0.13937714443E+04  0.13937714444E+04  0.25500000000E-02 0.  1.
   -5000001    1    1    2    0    0  0.51441970353E+02 -0.15158355474E+03 -0.76974201404E+03  0.82500098094E+03  0.25000000000E+03 0.  0.
    5000001    1    1    2    0    0 -0.51441970353E+02  0.15158355474E+03 -0.55946003314E+03  0.63333986063E+03  0.25000000000E+03 0.  0.
<mgrwt>
<rscale>  0 0.59998327E+03</rscale>
<asrwt>0</asrwt>
<pdfrwt beam="1">  1        2 0.21442635E+00 0.59998327E+03</pdfrwt>
<pdfrwt beam="2">  1       -2 0.99337545E-02 0.59998327E+03</pdfrwt>
<totfact> 0.10286312E+03</totfact>
</mgrwt>
</event>
<event>
 4    1  0.1755570E-005  0.7854160E+03  0.7818608E-02  0.9581370E-01
         -2   -1    0    0    0  501 -0.00000000000E+00  0.00000000000E+00  0.12512201263E+03  0.12512201265E+03  0.25500000000E-02 0. -1.
          2   -1    0    0  501    0  0.00000000000E+00 -0.00000000000E+00 -0.12325535581E+04  0.12325535581E+04  0.25500000000E-02 0.  1.
   -5000001    1    1    2    0    0 -0.14406309878E+03  0.26497905004E+03 -0.60110320664E+03  0.71749086295E+03  0.25000000000E+03 0.  0.
    5000001    1    1    2    0    0  0.14406309878E+03 -0.26497905004E+03 -0.50632833880E+03  0.64018470777E+03  0.25000000000E+03 0.  0.
<mgrwt>
<rscale>  0 0.78541602E+03</rscale>
<asrwt>0</asrwt>
<pdfrwt beam="1">  1        2 0.18962362E+00 0.78541602E+03</pdfrwt>
<pdfrwt beam="2">  1       -2 0.19249541E-01 0.78541602E+03</pdfrwt>
<totfact> 0.41615449E+02</totfact>
</mgrwt>
</event>
<event>
 4    1  0.1755570E-005  0.9711308E+03  0.7818608E-02  0.9340787E-01
          2   -1    0    0  501    0  0.00000000000E+00  0.00000000000E+00  0.38250136437E+03  0.38250136438E+03  0.25500000000E-02 0.  1.
         -2   -1    0    0    0  501 -0.00000000000E+00 -0.00000000000E+00 -0.61639972686E+03  0.61639972687E+03  0.25500000000E-02 0. -1.
   -5000001    1    1    2    0    0 -0.35915648242E+03  0.96325778332E+02 -0.30938652821E+03  0.54451084312E+03  0.25000000000E+03 0.  0.
    5000001    1    1    2    0    0  0.35915648242E+03 -0.96325778332E+02  0.75488165721E+02  0.45439024813E+03  0.25000000000E+03 0.  0.
<mgrwt>
<rscale>  0 0.97113076E+03</rscale>
<asrwt>0</asrwt>
<pdfrwt beam="1">  1        2 0.58846364E-01 0.97113076E+03</pdfrwt>
<pdfrwt beam="2">  1       -2 0.94830727E-01 0.97113076E+03</pdfrwt>
<totfact> 0.78294507E+01</totfact>
</mgrwt>
</event>
<event>
 4    1  0.1755570E-005  0.9418042E+03  0.7818608E-02  0.9374782E-01
         -2   -1    0    0    0  501 -0.00000000000E+00  0.00000000000E+00  0.18076539815E+03  0.18076539816E+03  0.25500000000E-02 0. -1.
          2   -1    0    0  501    0  0.00000000000E+00 -0.00000000000E+00 -0.12267213748E+04  0.12267213748E+04  0.25500000000E-02 0.  1.
   -5000001    1    1    2    0    0  0.28858077428E+03 -0.16869024668E+03 -0.84873388810E+03  0.94582475936E+03  0.25000000000E+03 0.  0.
    5000001    1    1    2    0    0 -0.28858077428E+03  0.16869024668E+03 -0.19722208858E+03  0.46166201363E+03  0.25000000000E+03 0.  0.
<mgrwt>
<rscale>  0 0.94180418E+03</rscale>
<asrwt>0</asrwt>
<pdfrwt beam="1">  1        2 0.18872636E+00 0.94180418E+03</pdfrwt>
<pdfrwt beam="2">  1       -2 0.27810062E-01 0.94180418E+03</pdfrwt>
<totfact> 0.21542226E+02</totfact>
</mgrwt>
</event>
<event>
 4    1  0.1755570E-005  0.8396259E+03  0.7818608E-02  0.9504367E-01
          2   -1    0    0  501    0  0.00000000000E+00  0.00000000000E+00  0.74207399295E+03  0.74207399295E+03  0.25500000000E-02 0.  1.
         -2   -1    0    0    0  501 -0.00000000000E+00 -0.00000000000E+00 -0.23750046038E+03  0.23750046040E+03  0.25500000000E-02 0. -1.
   -5000001    1    1    2    0    0  0.17430152642E+03 -0.27840214073E+03  0.34155217684E+03  0.53576735956E+03  0.25000000000E+03 0.  0.
    5000001    1    1    2    0    0 -0.17430152642E+03  0.27840214073E+03  0.16302135573E+03  0.44380709379E+03  0.25000000000E+03 0.  0.
<mgrwt>
<rscale>  0 0.83962590E+03</rscale>
<asrwt>0</asrwt>
<pdfrwt beam="1">  1        2 0.11416523E+00 0.83962590E+03</pdfrwt>
<pdfrwt beam="2">  1       -2 0.36538533E-01 0.83962590E+03</pdfrwt>
<totfact> 0.26925294E+02</totfact>
</mgrwt>
</event>
<event>
 4    1  0.1755570E-005  0.8690039E+03  0.7818608E-02  0.9465180E-01
         -2   -1    0    0    0  501 -0.00000000000E+00  0.00000000000E+00  0.59694731950E+02  0.59694732005E+02  0.25500000000E-02 0. -1.
          2   -1    0    0  501    0  0.00000000000E+00 -0.00000000000E+00 -0.31626229556E+04  0.31626229556E+04  0.25500000000E-02 0.  1.
   -5000001    1    1    2    0    0 -0.25169219682E+03 -0.99999674595E+02 -0.69826370312E+03  0.78957019697E+03  0.25000000000E+03 0.  0.
    5000001    1    1    2    0    0  0.25169219682E+03  0.99999674595E+02 -0.24046645205E+04  0.24327474906E+04  0.25000000000E+03 0.  0.
<mgrwt>
<rscale>  0 0.86900387E+03</rscale>
<asrwt>0</asrwt>
<pdfrwt beam="1">  1        2 0.48655725E+00 0.86900387E+03</pdfrwt>
<pdfrwt beam="2">  1       -2 0.91838074E-02 0.86900387E+03</pdfrwt>
<totfact> 0.11310492E+02</totfact>
</mgrwt>
</event>
<event>
 4    1  0.1755570E-005  0.6490715E+03  0.7818608E-02  0.9808523E-01
         -2   -1    0    0    0  501 -0.00000000000E+00  0.00000000000E+00  0.86119487099E+02  0.86119487137E+02  0.25500000000E-02 0. -1.
          2   -1    0    0  501    0  0.00000000000E+00 -0.00000000000E+00 -0.12229921678E+04  0.12229921678E+04  0.25500000000E-02 0.  1.
   -5000001    1    1    2    0    0  0.39533174272E+02 -0.77113253374E+02 -0.94745309597E+03  0.98370559355E+03  0.25000000000E+03 0.  0.
    5000001    1    1    2    0    0 -0.39533174272E+02  0.77113253374E+02 -0.18941958474E+03  0.32540606140E+03  0.25000000000E+03 0.  0.
<mgrwt>
<rscale>  0 0.64907152E+03</rscale>
<asrwt>0</asrwt>
<pdfrwt beam="1">  1        2 0.18815263E+00 0.64907152E+03</pdfrwt>
<pdfrwt beam="2">  1       -2 0.13249153E-01 0.64907152E+03</pdfrwt>
<totfact> 0.80116663E+02</totfact>
</mgrwt>
</event>
<event>
 4    1  0.1755570E-005  0.6742165E+03  0.7818608E-02  0.9762371E-01
         -2   -1    0    0    0  501 -0.00000000000E+00  0.00000000000E+00  0.76524595669E+02  0.76524595712E+02  0.25500000000E-02 0. -1.
          2   -1    0    0  501    0  0.00000000000E+00 -0.00000000000E+00 -0.14850385676E+04  0.14850385676E+04  0.25500000000E-02 0.  1.
   -5000001    1    1    2    0    0 -0.12392476104E+03  0.15885019574E+03 -0.46634735513E+03  0.56618953251E+03  0.25000000000E+03 0.  0.
    5000001    1    1    2    0    0  0.12392476104E+03 -0.15885019574E+03 -0.94216661682E+03  0.99537363083E+03  0.25000000000E+03 0.  0.
<mgrwt>
<rscale>  0 0.67421651E+03</rscale>
<asrwt>0</asrwt>
<pdfrwt beam="1">  1        2 0.22846745E+00 0.67421651E+03</pdfrwt>
<pdfrwt beam="2">  1       -2 0.11773016E-01 0.67421651E+03</pdfrwt>
<totfact> 0.69058471E+02</totfact>
</mgrwt>
</event>
<event>
 4    1  0.1755570E-005  0.6476661E+03  0.7818608E-02  0.9811168E-01
         -2   -1    0    0    0  501 -0.00000000000E+00  0.00000000000E+00  0.19122214906E+03  0.19122214907E+03  0.25500000000E-02 0.  1.
          2   -1    0    0  501    0  0.00000000000E+00 -0.00000000000E+00 -0.54840851478E+03  0.54840851479E+03  0.25500000000E-02 0. -1.
   -5000001    1    1    2    0    0  0.19594915955E+03  0.58241450740E+02 -0.15109708852E+03  0.35653677212E+03  0.25000000000E+03 0.  0.
    5000001    1    1    2    0    0 -0.19594915955E+03 -0.58241450740E+02 -0.20608927720E+03  0.38309389174E+03  0.25000000000E+03 0.  0.
<mgrwt>
<rscale>  0 0.64766613E+03</rscale>
<asrwt>0</asrwt>
<pdfrwt beam="1">  1        2 0.84370540E-01 0.64766613E+03</pdfrwt>
<pdfrwt beam="2">  1       -2 0.29418792E-01 0.64766613E+03</pdfrwt>
<totfact> 0.59094947E+02</totfact>
</mgrwt>
</event>
<event>
 4    1  0.1755570E-005  0.9231706E+03  0.7818608E-02  0.9397072E-01
         -2   -1    0    0    0  501 -0.00000000000E+00  0.00000000000E+00  0.35717636428E+03  0.35717636428E+03  0.25500000000E-02 0. -1.
          2   -1    0    0  501    0  0.00000000000E+00 -0.00000000000E+00 -0.59651482916E+03  0.59651482917E+03  0.25500000000E-02 0.  1.
   -5000001    1    1    2    0    0 -0.12051496999E+03  0.24200065260E+03  0.16787223971E+03  0.40468415180E+03  0.25000000000E+03 0.  0.
    5000001    1    1    2    0    0  0.12051496999E+03 -0.24200065260E+03 -0.40721070460E+03  0.54900704166E+03  0.25000000000E+03 0.  0.
<mgrwt>
<rscale>  0 0.92317062E+03</rscale>
<asrwt>0</asrwt>
<pdfrwt beam="1">  1        2 0.91771512E-01 0.92317062E+03</pdfrwt>
<pdfrwt beam="2">  1       -2 0.54950210E-01 0.92317062E+03</pdfrwt>
<totfact> 0.15598313E+02</totfact>
</mgrwt>
</event>
<event>
 4    1  0.1755570E-005  0.5607145E+03  0.7818608E-02  0.9990439E-01
          2   -1    0    0  501    0  0.00000000000E+00  0.00000000000E+00  0.15812949668E+04  0.15812949668E+04  0.25500000000E-02 0.  1.
         -2   -1    0    0    0  501 -0.00000000000E+00 -0.00000000000E+00 -0.49706208518E+02  0.49706208583E+02  0.25500000000E-02 0. -1.
   -5000001    1    1    2    0    0 -0.82929556047E+02  0.81074781073E+02  0.61606237459E+03  0.67489501463E+03  0.25000000000E+03 0.  0.
    5000001    1    1    2    0    0  0.82929556047E+02 -0.81074781073E+02  0.91552638370E+03  0.95610616076E+03  0.25000000000E+03 0.  0.
<mgrwt>
<rscale>  0 0.56071446E+03</rscale>
<asrwt>0</asrwt>
<pdfrwt beam="1">  1        2 0.24327611E+00 0.56071446E+03</pdfrwt>
<pdfrwt beam="2">  1       -2 0.76471102E-02 0.56071446E+03</pdfrwt>
<totfact> 0.12343880E+03</totfact>
</mgrwt>
</event>
<event>
 4    1  0.1755570E-005  0.1142838E+04  0.7818608E-02  0.9164416E-01
          2   -1    0    0  501    0  0.00000000000E+00  0.00000000000E+00  0.27391134168E+04  0.27391134168E+04  0.25500000000E-02 0.  1.
         -2   -1    0    0    0  501 -0.00000000000E+00 -0.00000000000E+00 -0.11920639345E+03  0.11920639347E+03  0.25500000000E-02 0. -1.
   -5000001    1    1    2    0    0 -0.41896717127E+03  0.17219573157E+03  0.19166113510E+04  0.19852163437E+04  0.25000000000E+03 0.  0.
    5000001    1    1    2    0    0  0.41896717127E+03 -0.17219573157E+03  0.70329567235E+03  0.87310346656E+03  0.25000000000E+03 0.  0.
<mgrwt>
<rscale>  0 0.11428383E+04</rscale>
<asrwt>0</asrwt>
<pdfrwt beam="1">  1        2 0.42140206E+00 0.11428383E+04</pdfrwt>
<pdfrwt beam="2">  1       -2 0.18339445E-01 0.11428383E+04</pdfrwt>
<totfact> 0.62707394E+01</totfact>
</mgrwt>
</event>
<event>
 4    1  0.1755570E-005  0.5389325E+03  0.7818608E-02  0.1004089E+00
         -2   -1    0    0    0  501 -0.00000000000E+00  0.00000000000E+00  0.15249702863E+03  0.15249702866E+03  0.25500000000E-02 0. -1.
          2   -1    0    0  501    0  0.00000000000E+00 -0.00000000000E+00 -0.47615391115E+03  0.47615391115E+03  0.25500000000E-02 0.  1.
   -5000001    1    1    2    0    0  0.44606018473E+02  0.77399590591E+02 -0.10797239209E+03  0.28659803028E+03  0.25000000000E+03 0.  0.
    5000001    1    1    2    0    0 -0.44606018473E+02 -0.77399590591E+02 -0.21568449042E+03  0.34205290952E+03  0.25000000000E+03 0.  0.
<mgrwt>
<rscale>  0 0.53893249E+03</rscale>
<asrwt>0</asrwt>
<pdfrwt beam="1">  1        2 0.73254447E-01 0.53893249E+03</pdfrwt>
<pdfrwt beam="2">  1       -2 0.23461082E-01 0.53893249E+03</pdfrwt>
<totfact> 0.10499434E+03</totfact>
</mgrwt>
</event>
<event>
 4    1  0.1755570E-005  0.1413577E+04  0.7818608E-02  0.8944049E-01
          2   -1    0    0  501    0  0.00000000000E+00  0.00000000000E+00  0.26150347968E+04  0.26150347968E+04  0.25500000000E-02 0.  1.
         -2   -1    0    0    0  501 -0.00000000000E+00 -0.00000000000E+00 -0.19102983966E+03  0.19102983968E+03  0.25500000000E-02 0. -1.
   -5000001    1    1    2    0    0 -0.48330301119E+03  0.44754229312E+03  0.13238345264E+04  0.14996378756E+04  0.25000000000E+03 0.  0.
    5000001    1    1    2    0    0  0.48330301119E+03 -0.44754229312E+03  0.11001704308E+04  0.13064267609E+04  0.25000000000E+03 0.  0.
<mgrwt>
<rscale>  0 0.14135766E+04</rscale>
<asrwt>0</asrwt>
<pdfrwt beam="1">  1        2 0.40231301E+00 0.14135766E+04</pdfrwt>
<pdfrwt beam="2">  1       -2 0.29389209E-01 0.14135766E+04</pdfrwt>
<totfact> 0.31036454E+01</totfact>
</mgrwt>
</event>
<event>
 4    1  0.1755570E-005  0.9112204E+03  0.7818608E-02  0.9411663E-01
         -2   -1    0    0    0  501 -0.00000000000E+00  0.00000000000E+00  0.18572911533E+03  0.18572911535E+03  0.25500000000E-02 0. -1.
          2   -1    0    0  501    0  0.00000000000E+00 -0.00000000000E+00 -0.11176527213E+04  0.11176527213E+04  0.25500000000E-02 0.  1.
   -5000001    1    1    2    0    0  0.82206415792E+02 -0.31438465979E+03 -0.75018828294E+03  0.85491407110E+03  0.25000000000E+03 0.  0.
    5000001    1    1    2    0    0 -0.82206415792E+02  0.31438465979E+03 -0.18173532303E+03  0.44846776556E+03  0.25000000000E+03 0.  0.
<mgrwt>
<rscale>  0 0.91122039E+03</rscale>
<asrwt>0</asrwt>
<pdfrwt beam="1">  1        2 0.17194657E+00 0.91122039E+03</pdfrwt>
<pdfrwt beam="2">  1       -2 0.28573711E-01 0.91122039E+03</pdfrwt>
<totfact> 0.23870594E+02</totfact>
</mgrwt>
</event>
<event>
 4    1  0.1755570E-005  0.5776644E+03  0.7818608E-02  0.9952860E-01
          2   -1    0    0  501    0  0.00000000000E+00  0.00000000000E+00  0.22267196247E+04  0.22267196247E+04  0.25500000000E-02 0.  1.
         -2   -1    0    0    0  501 -0.00000000000E+00 -0.00000000000E+00 -0.37464995859E+02  0.37464995946E+02  0.25500000000E-02 0. -1.
   -5000001    1    1    2    0    0  0.66389294507E+02  0.68803586912E+02  0.15200848643E+04  0.15434699436E+04  0.25000000000E+03 0.  0.
    5000001    1    1    2    0    0 -0.66389294507E+02 -0.68803586912E+02  0.66916976456E+03  0.72071467711E+03  0.25000000000E+03 0.  0.
<mgrwt>
<rscale>  0 0.57766441E+03</rscale>
<asrwt>0</asrwt>
<pdfrwt beam="1">  1        2 0.34257231E+00 0.57766441E+03</pdfrwt>
<pdfrwt beam="2">  1       -2 0.57638446E-02 0.57766441E+03</pdfrwt>
<totfact> 0.85964856E+02</totfact>
</mgrwt>
</event>
<event>
 4    1  0.1755570E-005  0.5346558E+03  0.7818608E-02  0.1005109E+00
         -2   -1    0    0    0  501 -0.00000000000E+00  0.00000000000E+00  0.61905719018E+02  0.61905719071E+02  0.25500000000E-02 0. -1.
          2   -1    0    0  501    0  0.00000000000E+00 -0.00000000000E+00 -0.11544038204E+04  0.11544038204E+04  0.25500000000E-02 0.  1.
   -5000001    1    1    2    0    0 -0.51436120381E+02 -0.50185832667E+02 -0.40601409011E+03  0.48219470512E+03  0.25000000000E+03 0.  0.
    5000001    1    1    2    0    0  0.51436120381E+02  0.50185832667E+02 -0.68648401124E+03  0.73411483432E+03  0.25000000000E+03 0.  0.
<mgrwt>
<rscale>  0 0.53465577E+03</rscale>
<asrwt>0</asrwt>
<pdfrwt beam="1">  1        2 0.17760057E+00 0.53465577E+03</pdfrwt>
<pdfrwt beam="2">  1       -2 0.95239577E-02 0.53465577E+03</pdfrwt>
<totfact> 0.15152452E+03</totfact>
</mgrwt>
</event>
<event>
 4    1  0.1755570E-005  0.6050062E+03  0.7818608E-02  0.9895074E-01
          2   -1    0    0  501    0  0.00000000000E+00  0.00000000000E+00  0.10694364636E+04  0.10694364636E+04  0.25500000000E-02 0. -1.
         -2   -1    0    0    0  501 -0.00000000000E+00 -0.00000000000E+00 -0.85566690669E+02  0.85566690707E+02  0.25500000000E-02 0.  1.
   -5000001    1    1    2    0    0  0.11351977690E+03 -0.12695009080E+03  0.48763467824E+03  0.57383851798E+03  0.25000000000E+03 0.  0.
    5000001    1    1    2    0    0 -0.11351977690E+03  0.12695009080E+03  0.49623509465E+03  0.58116463628E+03  0.25000000000E+03 0.  0.
<mgrwt>
<rscale>  0 0.60500624E+03</rscale>
<asrwt>0</asrwt>
<pdfrwt beam="1">  1        2 0.16452870E+00 0.60500624E+03</pdfrwt>
<pdfrwt beam="2">  1       -2 0.13164105E-01 0.60500624E+03</pdfrwt>
<totfact> 0.10022760E+03</totfact>
</mgrwt>
</event>
<event>
 4    1  0.1755570E-005  0.5367059E+03  0.7818608E-02  0.1004619E+00
         -2   -1    0    0    0  501 -0.00000000000E+00  0.00000000000E+00  0.38275675364E+02  0.38275675449E+02  0.25500000000E-02 0. -1.
          2   -1    0    0  501    0  0.00000000000E+00 -0.00000000000E+00 -0.18814381617E+04  0.18814381617E+04  0.25500000000E-02 0.  1.
   -5000001    1    1    2    0    0 -0.69742124003E+02  0.55467994233E+02 -0.10634271161E+04  0.10960464833E+04  0.25000000000E+03 0.  0.
    5000001    1    1    2    0    0  0.69742124003E+02 -0.55467994233E+02 -0.77973537026E+03  0.82366735390E+03  0.25000000000E+03 0.  0.
<mgrwt>
<rscale>  0 0.53670594E+03</rscale>
<asrwt>0</asrwt>
<pdfrwt beam="1">  1        2 0.28945195E+00 0.53670594E+03</pdfrwt>
<pdfrwt beam="2">  1       -2 0.58885669E-02 0.53670594E+03</pdfrwt>
<totfact> 0.12827385E+03</totfact>
</mgrwt>
</event>
<event>
 4    1  0.1755570E-005  0.1209193E+04  0.7818608E-02  0.9104848E-01
         -2   -1    0    0    0  501 -0.00000000000E+00  0.00000000000E+00  0.19335118865E+03  0.19335118867E+03  0.25500000000E-02 0. -1.
          2   -1    0    0  501    0  0.00000000000E+00 -0.00000000000E+00 -0.18905342553E+04  0.18905342554E+04  0.25500000000E-02 0.  1.
   -5000001    1    1    2    0    0  0.32267316156E+03 -0.42563353100E+03 -0.10782278689E+04  0.12289659105E+04  0.25000000000E+03 0.  0.
    5000001    1    1    2    0    0 -0.32267316156E+03  0.42563353100E+03 -0.61895519778E+03  0.85491953350E+03  0.25000000000E+03 0.  0.
<mgrwt>
<rscale>  0 0.12091932E+04</rscale>
<asrwt>0</asrwt>
<pdfrwt beam="1">  1        2 0.29085141E+00 0.12091932E+04</pdfrwt>
<pdfrwt beam="2">  1       -2 0.29746338E-01 0.12091932E+04</pdfrwt>
<totfact> 0.79016781E+01</totfact>
</mgrwt>
</event>
<event>
 4    1  0.1755570E-005  0.8752049E+03  0.7818608E-02  0.9457118E-01
          2   -1    0    0  501    0  0.00000000000E+00  0.00000000000E+00  0.23422574540E+03  0.23422574541E+03  0.25500000000E-02 0. -1.
         -2   -1    0    0    0  501 -0.00000000000E+00 -0.00000000000E+00 -0.81756986699E+03  0.81756986699E+03  0.25500000000E-02 0.  1.
   -5000001    1    1    2    0    0  0.10376900318E+03 -0.27045632798E+03 -0.54683625144E+03  0.66741629981E+03  0.25000000000E+03 0.  0.
    5000001    1    1    2    0    0 -0.10376900318E+03  0.27045632798E+03 -0.36507870153E+02  0.38437931259E+03  0.25000000000E+03 0.  0.
<mgrwt>
<rscale>  0 0.87520492E+03</rscale>
<asrwt>0</asrwt>
<pdfrwt beam="1">  1        2 0.36034730E-01 0.87520492E+03</pdfrwt>
<pdfrwt beam="2">  1       -2 0.12577998E+00 0.87520492E+03</pdfrwt>
<totfact> 0.68607687E+01</totfact>
</mgrwt>
</event>
<event>
 4    1  0.1755570E-005  0.7906756E+03  0.7818608E-02  0.9573613E-01
          2   -1    0    0  501    0  0.00000000000E+00  0.00000000000E+00  0.11371705275E+04  0.11371705275E+04  0.25500000000E-02 0.  1.
         -2   -1    0    0    0  501 -0.00000000000E+00 -0.00000000000E+00 -0.13743933520E+03  0.13743933523E+03  0.25500000000E-02 0. -1.
   -5000001    1    1    2    0    0  0.89384614188E+02  0.26832737019E+03  0.31047336751E+03  0.48875648208E+03  0.25000000000E+03 0.  0.
    5000001    1    1    2    0    0 -0.89384614188E+02 -0.26832737019E+03  0.68925782483E+03  0.78585338069E+03  0.25000000000E+03 0.  0.
<mgrwt>
<rscale>  0 0.79067556E+03</rscale>
<asrwt>0</asrwt>
<pdfrwt beam="1">  1        2 0.17494930E+00 0.79067556E+03</pdfrwt>
<pdfrwt beam="2">  1       -2 0.21144514E-01 0.79067556E+03</pdfrwt>
<totfact> 0.40221384E+02</totfact>
</mgrwt>
</event>
<event>
 4    1  0.1755570E-005  0.7185409E+03  0.7818608E-02  0.9686040E-01
         -2   -1    0    0    0  501 -0.00000000000E+00  0.00000000000E+00  0.71871962251E+02  0.71871962296E+02  0.25500000000E-02 0. -1.
          2   -1    0    0  501    0  0.00000000000E+00 -0.00000000000E+00 -0.17959057413E+04  0.17959057413E+04  0.25500000000E-02 0.  1.
   -5000001    1    1    2    0    0 -0.59644185841E+02  0.18143277548E+03 -0.13129964274E+04  0.13501610642E+04  0.25000000000E+03 0.  0.
    5000001    1    1    2    0    0  0.59644185841E+02 -0.18143277548E+03 -0.41103735163E+03  0.51761663937E+03  0.25000000000E+03 0.  0.
<mgrwt>
<rscale>  0 0.71854094E+03</rscale>
<asrwt>0</asrwt>
<pdfrwt beam="1">  1        2 0.27629316E+00 0.71854094E+03</pdfrwt>
<pdfrwt beam="2">  1       -2 0.11057226E-01 0.71854094E+03</pdfrwt>
<totfact> 0.51559452E+02</totfact>
</mgrwt>
</event>
<event>
 4    1  0.1755570E-005  0.5433426E+03  0.7818608E-02  0.1003047E+00
          2   -1    0    0  501    0  0.00000000000E+00  0.00000000000E+00  0.68441794819E+02  0.68441794867E+02  0.25500000000E-02 0.  1.
         -2   -1    0    0    0  501 -0.00000000000E+00 -0.00000000000E+00 -0.10783660093E+04  0.10783660093E+04  0.25500000000E-02 0. -1.
   -5000001    1    1    2    0    0 -0.43881238726E+02 -0.84658855986E+02 -0.40568015985E+03  0.48597230076E+03  0.25000000000E+03 0.  0.
    5000001    1    1    2    0    0  0.43881238726E+02  0.84658855986E+02 -0.60424405461E+03  0.66083550339E+03  0.25000000000E+03 0.  0.
<mgrwt>
<rscale>  0 0.54334264E+03</rscale>
<asrwt>0</asrwt>
<pdfrwt beam="1">  1        2 0.10529508E-01 0.54334264E+03</pdfrwt>
<pdfrwt beam="2">  1       -2 0.16590245E+00 0.54334264E+03</pdfrwt>
<totfact> 0.14484532E+02</totfact>
</mgrwt>
</event>
<event>
 4    1  0.1755570E-005  0.6679509E+03  0.7818608E-02  0.9773667E-01
         -2   -1    0    0    0  501 -0.00000000000E+00  0.00000000000E+00  0.20919706253E+03  0.20919706255E+03  0.25500000000E-02 0. -1.
          2   -1    0    0  501    0  0.00000000000E+00 -0.00000000000E+00 -0.53317955007E+03  0.53317955007E+03  0.25500000000E-02 0.  1.
   -5000001    1    1    2    0    0 -0.20370355683E+03  0.44448975489E+02 -0.24493017343E+03  0.40738389799E+03  0.25000000000E+03 0.  0.
    5000001    1    1    2    0    0  0.20370355683E+03 -0.44448975489E+02 -0.79052314104E+02  0.33499271463E+03  0.25000000000E+03 0.  0.
<mgrwt>
<rscale>  0 0.66795088E+03</rscale>
<asrwt>0</asrwt>
<pdfrwt beam="1">  1        2 0.82027622E-01 0.66795088E+03</pdfrwt>
<pdfrwt beam="2">  1       -2 0.32184164E-01 0.66795088E+03</pdfrwt>
<totfact> 0.51659150E+02</totfact>
</mgrwt>
</event>
<event>
 4    1  0.1755570E-005  0.7138734E+03  0.7818608E-02  0.9693797E-01
          2   -1    0    0  501    0  0.00000000000E+00  0.00000000000E+00  0.96545413553E+03  0.96545413553E+03  0.25500000000E-02 0.  1.
         -2   -1    0    0    0  501 -0.00000000000E+00 -0.00000000000E+00 -0.13196256299E+03  0.13196256302E+03  0.25500000000E-02 0. -1.
   -5000001    1    1    2    0    0 -0.21100359008E+03  0.14215397527E+03  0.39649493615E+03  0.53332776236E+03  0.25000000000E+03 0.  0.
    5000001    1    1    2    0    0  0.21100359008E+03 -0.14215397527E+03  0.43699663639E+03  0.56408893618E+03  0.25000000000E+03 0.  0.
<mgrwt>
<rscale>  0 0.71387338E+03</rscale>
<asrwt>0</asrwt>
<pdfrwt beam="1">  1        2 0.14853141E+00 0.71387338E+03</pdfrwt>
<pdfrwt beam="2">  1       -2 0.20301932E-01 0.71387338E+03</pdfrwt>
<totfact> 0.55485756E+02</totfact>
</mgrwt>
</event>
<event>
 4    1  0.1755570E-005  0.7702170E+03  0.7818608E-02  0.9604156E-01
          2   -1    0    0  501    0  0.00000000000E+00  0.00000000000E+00  0.26589467916E+03  0.26589467917E+03  0.25500000000E-02 0.  1.
         -2   -1    0    0    0  501 -0.00000000000E+00 -0.00000000000E+00 -0.55777181693E+03  0.55777181693E+03  0.25500000000E-02 0. -1.
   -5000001    1    1    2    0    0  0.23364981346E+03  0.14126818625E+03 -0.32463562907E+02  0.37162187596E+03  0.25000000000E+03 0.  0.
    5000001    1    1    2    0    0 -0.23364981346E+03 -0.14126818625E+03 -0.25941357486E+03  0.45204462014E+03  0.25000000000E+03 0.  0.
<mgrwt>
<rscale>  0 0.77021700E+03</rscale>
<asrwt>0</asrwt>
<pdfrwt beam="1">  1        2 0.40906874E-01 0.77021700E+03</pdfrwt>
<pdfrwt beam="2">  1       -2 0.85811048E-01 0.77021700E+03</pdfrwt>
<totfact> 0.14934697E+02</totfact>
</mgrwt>
</event>
<event>
 4    1  0.1755570E-005  0.8353278E+03  0.7818608E-02  0.9510244E-01
         -2   -1    0    0    0  501 -0.00000000000E+00  0.00000000000E+00  0.65667751865E+02  0.65667751915E+02  0.25500000000E-02 0. -1.
          2   -1    0    0  501    0  0.00000000000E+00 -0.00000000000E+00 -0.26564503458E+04  0.26564503458E+04  0.25500000000E-02 0.  1.
   -5000001    1    1    2    0    0 -0.17580763682E+03 -0.27304176077E+03 -0.15577755995E+04  0.16107839540E+04  0.25000000000E+03 0.  0.
    5000001    1    1    2    0    0  0.17580763682E+03  0.27304176077E+03 -0.10330069945E+04  0.11113341437E+04  0.25000000000E+03 0.  0.
<mgrwt>
<rscale>  0 0.83532777E+03</rscale>
<asrwt>0</asrwt>
<pdfrwt beam="1">  1        2 0.40868459E+00 0.83532777E+03</pdfrwt>
<pdfrwt beam="2">  1       -2 0.10102733E-01 0.83532777E+03</pdfrwt>
<totfact> 0.19676014E+02</totfact>
</mgrwt>
</event>
<event>
 4    1  0.1755570E-005  0.6365868E+03  0.7818608E-02  0.9832279E-01
          2   -1    0    0  501    0  0.00000000000E+00  0.00000000000E+00  0.14884482396E+04  0.14884482396E+04  0.25500000000E-02 0.  1.
         -2   -1    0    0    0  501 -0.00000000000E+00 -0.00000000000E+00 -0.68064628927E+02  0.68064628975E+02  0.25500000000E-02 0. -1.
   -5000001    1    1    2    0    0 -0.17785390518E+03 -0.64684765650E+02  0.57639040698E+03  0.65615701760E+03  0.25000000000E+03 0.  0.
    5000001    1    1    2    0    0  0.17785390518E+03  0.64684765650E+02  0.84399320372E+03  0.90035585099E+03  0.25000000000E+03 0.  0.
<mgrwt>
<rscale>  0 0.63658676E+03</rscale>
<asrwt>0</asrwt>
<pdfrwt beam="1">  1        2 0.22899202E+00 0.63658676E+03</pdfrwt>
<pdfrwt beam="2">  1       -2 0.10471482E-01 0.63658676E+03</pdfrwt>
<totfact> 0.83467599E+02</totfact>
</mgrwt>
</event>
<event>
 4    1  0.1755570E-005  0.8517100E+03  0.7818608E-02  0.9488045E-01
          2   -1    0    0  501    0  0.00000000000E+00  0.00000000000E+00  0.11312015043E+04  0.11312015043E+04  0.25500000000E-02 0.  1.
         -2   -1    0    0    0  501 -0.00000000000E+00 -0.00000000000E+00 -0.16031847276E+03  0.16031847278E+03  0.25500000000E-02 0. -1.
   -5000001    1    1    2    0    0  0.16375653272E+03  0.21760439639E+03  0.80598607320E+03  0.88672511272E+03  0.25000000000E+03 0.  0.
    5000001    1    1    2    0    0 -0.16375653272E+03 -0.21760439639E+03  0.16489695833E+03  0.40479486435E+03  0.25000000000E+03 0.  0.
<mgrwt>
<rscale>  0 0.85171004E+03</rscale>
<asrwt>0</asrwt>
<pdfrwt beam="1">  1        2 0.17403099E+00 0.85171004E+03</pdfrwt>
<pdfrwt beam="2">  1       -2 0.24664382E-01 0.85171004E+03</pdfrwt>
<totfact> 0.30726271E+02</totfact>
</mgrwt>
</event>
<event>
 4    1  0.1755570E-005  0.1202802E+04  0.7818608E-02  0.9110408E-01
         -2   -1    0    0    0  501 -0.00000000000E+00  0.00000000000E+00  0.32905251509E+03  0.32905251510E+03  0.25500000000E-02 0. -1.
          2   -1    0    0  501    0  0.00000000000E+00 -0.00000000000E+00 -0.10991649783E+04  0.10991649783E+04  0.25500000000E-02 0.  1.
   -5000001    1    1    2    0    0  0.48014465859E+03  0.24615400580E+03 -0.49160799070E+03  0.77156276754E+03  0.25000000000E+03 0.  0.
    5000001    1    1    2    0    0 -0.48014465859E+03 -0.24615400580E+03 -0.27850447248E+03  0.65665472581E+03  0.25000000000E+03 0.  0.
<mgrwt>
<rscale>  0 0.12028017E+04</rscale>
<asrwt>0</asrwt>
<pdfrwt beam="1">  1        2 0.16910230E+00 0.12028017E+04</pdfrwt>
<pdfrwt beam="2">  1       -2 0.50623464E-01 0.12028017E+04</pdfrwt>
<totfact> 0.79378005E+01</totfact>
</mgrwt>
</event>
<event>
 4    1  0.1755570E-005  0.1084620E+04  0.7818608E-02  0.9220313E-01
          2   -1    0    0  501    0  0.00000000000E+00  0.00000000000E+00  0.13784080031E+04  0.13784080031E+04  0.25500000000E-02 0.  1.
         -2   -1    0    0    0  501 -0.00000000000E+00 -0.00000000000E+00 -0.21336235129E+03  0.21336235131E+03  0.25500000000E-02 0. -1.
   -5000001    1    1    2    0    0 -0.10820127855E+03 -0.41720630222E+03  0.26833750984E+03  0.56592723426E+03  0.25000000000E+03 0.  0.
    5000001    1    1    2    0    0  0.10820127855E+03  0.41720630222E+03  0.89670814195E+03  0.10258431201E+04  0.25000000000E+03 0.  0.
<mgrwt>
<rscale>  0 0.10846204E+04</rscale>
<asrwt>0</asrwt>
<pdfrwt beam="1">  1        2 0.21206277E+00 0.10846204E+04</pdfrwt>
<pdfrwt beam="2">  1       -2 0.32824977E-01 0.10846204E+04</pdfrwt>
<totfact> 0.12796785E+02</totfact>
</mgrwt>
</event>
<event>
 4    1  0.1755570E-005  0.6356602E+03  0.7818608E-02  0.9834065E-01
         -2   -1    0    0    0  501 -0.00000000000E+00  0.00000000000E+00  0.51938290653E+02  0.51938290716E+02  0.25500000000E-02 0. -1.
          2   -1    0    0  501    0  0.00000000000E+00 -0.00000000000E+00 -0.19449232058E+04  0.19449232058E+04  0.25500000000E-02 0.  1.
   -5000001    1    1    2    0    0 -0.15492669603E+03 -0.86059488264E+02 -0.68165438746E+03  0.74736953417E+03  0.25000000000E+03 0.  0.
    5000001    1    1    2    0    0  0.15492669603E+03  0.86059488264E+02 -0.12113305277E+04  0.12494919623E+04  0.25000000000E+03 0.  0.
<mgrwt>
<rscale>  0 0.63566025E+03</rscale>
<asrwt>0</asrwt>
<pdfrwt beam="1">  1        2 0.29921890E+00 0.63566025E+03</pdfrwt>
<pdfrwt beam="2">  1       -2 0.79905077E-02 0.63566025E+03</pdfrwt>
<totfact> 0.72772016E+02</totfact>
</mgrwt>
</event>
<event>
 4    1  0.1755570E-005  0.9508391E+03  0.7818608E-02  0.9364170E-01
          2   -1    0    0  501    0  0.00000000000E+00  0.00000000000E+00  0.14939482847E+04  0.14939482847E+04  0.25500000000E-02 0.  1.
         -2   -1    0    0    0  501 -0.00000000000E+00 -0.00000000000E+00 -0.15129287497E+03  0.15129287499E+03  0.25500000000E-02 0. -1.
   -5000001    1    1    2    0    0  0.38005529038E+03  0.23140862880E+02  0.90696830006E+03  0.10149231599E+04  0.25000000000E+03 0.  0.
    5000001    1    1    2    0    0 -0.38005529038E+03 -0.23140862880E+02  0.43568710967E+03  0.63031799975E+03  0.25000000000E+03 0.  0.
<mgrwt>
<rscale>  0 0.95083906E+03</rscale>
<asrwt>0</asrwt>
<pdfrwt beam="1">  1        2 0.22983820E+00 0.95083906E+03</pdfrwt>
<pdfrwt beam="2">  1       -2 0.23275826E-01 0.95083906E+03</pdfrwt>
<totfact> 0.20884514E+02</totfact>
</mgrwt>
</event>
<event>
 4    1  0.1755570E-005  0.5489807E+03  0.7818608E-02  0.1001730E+00
         -2   -1    0    0    0  501 -0.00000000000E+00  0.00000000000E+00  0.82353930369E+02  0.82353930408E+02  0.25500000000E-02 0. -1.
          2   -1    0    0  501    0  0.00000000000E+00 -0.00000000000E+00 -0.91489202657E+03  0.91489202658E+03  0.25500000000E-02 0.  1.
   -5000001    1    1    2    0    0 -0.87939242840E+02  0.63959929922E+02 -0.47430664306E+03  0.54707492605E+03  0.25000000000E+03 0.  0.
    5000001    1    1    2    0    0  0.87939242840E+02 -0.63959929922E+02 -0.35823145315E+03  0.45017103093E+03  0.25000000000E+03 0.  0.
<mgrwt>
<rscale>  0 0.54898071E+03</rscale>
<asrwt>0</asrwt>
<pdfrwt beam="1">  1        2 0.14075261E+00 0.54898071E+03</pdfrwt>
<pdfrwt beam="2">  1       -2 0.12669836E-01 0.54898071E+03</pdfrwt>
<totfact> 0.13406223E+03</totfact>
</mgrwt>
</event>
<event>
 4    1  0.1755570E-005  0.9291047E+03  0.7818608E-02  0.9389913E-01
         -2   -1    0    0    0  501 -0.00000000000E+00  0.00000000000E+00  0.95249394033E+02  0.95249394067E+02  0.25500000000E-02 0. -1.
          2   -1    0    0  501    0  0.00000000000E+00 -0.00000000000E+00 -0.22657246755E+04  0.22657246755E+04  0.25500000000E-02 0.  1.
   -5000001    1    1    2    0    0  0.46946166308E+02  0.36977884481E+03 -0.78063528721E+03  0.90046198600E+03  0.25000000000E+03 0.  0.
    5000001    1    1    2    0    0 -0.46946166308E+02 -0.36977884481E+03 -0.13898399943E+04  0.14605120836E+04  0.25000000000E+03 0.  0.
<mgrwt>
<rscale>  0 0.92910474E+03</rscale>
<asrwt>0</asrwt>
<pdfrwt beam="1">  1        2 0.34857299E+00 0.92910474E+03</pdfrwt>
<pdfrwt beam="2">  1       -2 0.14653755E-01 0.92910474E+03</pdfrwt>
<totfact> 0.17533589E+02</totfact>
</mgrwt>
</event>
<event>
 4    1  0.1755570E-005  0.6487307E+03  0.7818608E-02  0.9809164E-01
          2   -1    0    0  501    0  0.00000000000E+00  0.00000000000E+00  0.14382447641E+04  0.14382447641E+04  0.25500000000E-02 0.  1.
         -2   -1    0    0    0  501 -0.00000000000E+00 -0.00000000000E+00 -0.73153665905E+02  0.73153665950E+02  0.25500000000E-02 0. -1.
   -5000001    1    1    2    0    0  0.12390640320E+03 -0.15887736658E+03  0.57532354457E+03  0.65885658174E+03  0.25000000000E+03 0.  0.
    5000001    1    1    2    0    0 -0.12390640320E+03  0.15887736658E+03  0.78976755364E+03  0.85254184833E+03  0.25000000000E+03 0.  0.
<mgrwt>
<rscale>  0 0.64873069E+03</rscale>
<asrwt>0</asrwt>
<pdfrwt beam="1">  1        2 0.22126840E+00 0.64873069E+03</pdfrwt>
<pdfrwt beam="2">  1       -2 0.11254412E-01 0.64873069E+03</pdfrwt>
<totfact> 0.79070684E+02</totfact>
</mgrwt>
</event>
<event>
 4    1  0.1755570E-005  0.1188294E+04  0.7818608E-02  0.9123165E-01
         -2   -1    0    0    0  501 -0.00000000000E+00  0.00000000000E+00  0.41690701475E+03  0.41690701476E+03  0.25500000000E-02 0. -1.
          2   -1    0    0  501    0  0.00000000000E+00 -0.00000000000E+00 -0.84673711938E+03  0.84673711939E+03  0.25500000000E-02 0.  1.
   -5000001    1    1    2    0    0  0.18644022976E+03  0.48134377404E+03 -0.37985975849E+03  0.68792821151E+03  0.25000000000E+03 0.  0.
    5000001    1    1    2    0    0 -0.18644022976E+03 -0.48134377404E+03 -0.49970346143E+02  0.57571592263E+03  0.25000000000E+03 0.  0.
<mgrwt>
<rscale>  0 0.11882940E+04</rscale>
<asrwt>0</asrwt>
<pdfrwt beam="1">  1        2 0.13026725E+00 0.11882940E+04</pdfrwt>
<pdfrwt beam="2">  1       -2 0.64139541E-01 0.11882940E+04</pdfrwt>
<totfact> 0.70807001E+01</totfact>
</mgrwt>
</event>
<event>
 4    1  0.1755570E-005  0.5646853E+03  0.7818608E-02  0.9981509E-01
         -2   -1    0    0    0  501 -0.00000000000E+00  0.00000000000E+00  0.41655544986E+03  0.41655544987E+03  0.25500000000E-02 0. -1.
          2   -1    0    0  501    0  0.00000000000E+00 -0.00000000000E+00 -0.19137276382E+03  0.19137276383E+03  0.25500000000E-02 0.  1.
   -5000001    1    1    2    0    0  0.44549604506E+02  0.10489909068E+03  0.18260110053E+03  0.32989642072E+03  0.25000000000E+03 0.  0.
    5000001    1    1    2    0    0 -0.44549604506E+02 -0.10489909068E+03  0.42581585516E+02  0.27803179299E+03  0.25000000000E+03 0.  0.
<mgrwt>
<rscale>  0 0.56468528E+03</rscale>
<asrwt>0</asrwt>
<pdfrwt beam="1">  1        2 0.29441964E-01 0.56468528E+03</pdfrwt>
<pdfrwt beam="2">  1       -2 0.64085453E-01 0.56468528E+03</pdfrwt>
<totfact> 0.41309248E+02</totfact>
</mgrwt>
</event>
<event>
 4    1  0.1755570E-005  0.6747967E+03  0.7818608E-02  0.9761331E-01
          2   -1    0    0  501    0  0.00000000000E+00  0.00000000000E+00  0.11460989367E+03  0.11460989370E+03  0.25500000000E-02 0.  1.
         -2   -1    0    0    0  501 -0.00000000000E+00 -0.00000000000E+00 -0.99326201763E+03  0.99326201764E+03  0.25500000000E-02 0. -1.
   -5000001    1    1    2    0    0 -0.20581393853E+03  0.90710953283E+02 -0.39436989487E+03  0.51828126371E+03  0.25000000000E+03 0.  0.
    5000001    1    1    2    0    0  0.20581393853E+03 -0.90710953283E+02 -0.48428222910E+03  0.58959064762E+03  0.25000000000E+03 0.  0.
<mgrwt>
<rscale>  0 0.67479672E+03</rscale>
<asrwt>0</asrwt>
<pdfrwt beam="1">  1        2 0.17632292E-01 0.67479672E+03</pdfrwt>
<pdfrwt beam="2">  1       -2 0.15280954E+00 0.67479672E+03</pdfrwt>
<totfact> 0.95459434E+01</totfact>
</mgrwt>
</event>
<event>
 4    1  0.1755570E-005  0.7617949E+03  0.7818608E-02  0.9617026E-01
          2   -1    0    0  501    0  0.00000000000E+00  0.00000000000E+00  0.27046471442E+04  0.27046471442E+04  0.25500000000E-02 0.  1.
         -2   -1    0    0    0  501 -0.00000000000E+00 -0.00000000000E+00 -0.53642074657E+02  0.53642074718E+02  0.25500000000E-02 0. -1.
   -5000001    1    1    2    0    0  0.24733865744E+03 -0.36226916891E+02  0.81224443289E+03  0.88584977267E+03  0.25000000000E+03 0.  0.
    5000001    1    1    2    0    0 -0.24733865744E+03  0.36226916891E+02  0.18387606366E+04  0.18724394462E+04  0.25000000000E+03 0.  0.
<mgrwt>
<rscale>  0 0.76179494E+03</rscale>
<asrwt>0</asrwt>
<pdfrwt beam="1">  1        2 0.41609946E+00 0.76179494E+03</pdfrwt>
<pdfrwt beam="2">  1       -2 0.82526289E-02 0.76179494E+03</pdfrwt>
<totfact> 0.25774307E+02</totfact>
</mgrwt>
</event>
<event>
 4    1  0.1755570E-005  0.7211017E+03  0.7818608E-02  0.9681811E-01
         -2   -1    0    0    0  501 -0.00000000000E+00  0.00000000000E+00  0.17570861175E+03  0.17570861177E+03  0.25500000000E-02 0. -1.
          2   -1    0    0  501    0  0.00000000000E+00 -0.00000000000E+00 -0.73984376962E+03  0.73984376962E+03  0.25500000000E-02 0.  1.
   -5000001    1    1    2    0    0  0.24244112712E+03  0.93141213812E+02 -0.27365176331E+03  0.45259062451E+03  0.25000000000E+03 0.  0.
    5000001    1    1    2    0    0 -0.24244112712E+03 -0.93141213812E+02 -0.29048339455E+03  0.46296175689E+03  0.25000000000E+03 0.  0.
<mgrwt>
<rscale>  0 0.72110172E+03</rscale>
<asrwt>0</asrwt>
<pdfrwt beam="1">  1        2 0.11382212E+00 0.72110172E+03</pdfrwt>
<pdfrwt beam="2">  1       -2 0.27032094E-01 0.72110172E+03</pdfrwt>
<totfact> 0.47721450E+02</totfact>
</mgrwt>
</event>
<event>
 4    1  0.1755570E-005  0.1121259E+04  0.7818608E-02  0.9184716E-01
         -2   -1    0    0    0  501 -0.00000000000E+00  0.00000000000E+00  0.15705265794E+03  0.15705265796E+03  0.25500000000E-02 0.  1.
          2   -1    0    0  501    0  0.00000000000E+00 -0.00000000000E+00 -0.20012729932E+04  0.20012729932E+04  0.25500000000E-02 0. -1.
   -5000001    1    1    2    0    0 -0.49465544859E+03 -0.40352004249E+02 -0.77944635675E+03  0.95726115565E+03  0.25000000000E+03 0.  0.
    5000001    1    1    2    0    0  0.49465544859E+03  0.40352004249E+02 -0.10647739785E+04  0.12010644955E+04  0.25000000000E+03 0.  0.
<mgrwt>
<rscale>  0 0.11212587E+04</rscale>
<asrwt>0</asrwt>
<pdfrwt beam="1">  1        2 0.30788813E+00 0.11212587E+04</pdfrwt>
<pdfrwt beam="2">  1       -2 0.24161949E-01 0.11212587E+04</pdfrwt>
<totfact> 0.10113516E+02</totfact>
</mgrwt>
</event>
<event>
 4    1  0.1755570E-005  0.7530648E+03  0.7818608E-02  0.9630554E-01
         -2   -1    0    0    0  501 -0.00000000000E+00  0.00000000000E+00  0.48919317710E+03  0.48919317711E+03  0.25500000000E-02 0. -1.
          2   -1    0    0  501    0  0.00000000000E+00 -0.00000000000E+00 -0.28981732588E+03  0.28981732589E+03  0.25500000000E-02 0.  1.
   -5000001    1    1    2    0    0 -0.20954061372E+03 -0.22496004662E+02 -0.93462343137E+02  0.34007138752E+03  0.25000000000E+03 0.  0.
    5000001    1    1    2    0    0  0.20954061372E+03  0.22496004662E+02  0.29283819436E+03  0.43893911548E+03  0.25000000000E+03 0.  0.
<mgrwt>
<rscale>  0 0.75306483E+03</rscale>
<asrwt>0</asrwt>
<pdfrwt beam="1">  1        2 0.44587281E-01 0.75306483E+03</pdfrwt>
<pdfrwt beam="2">  1       -2 0.75260488E-01 0.75306483E+03</pdfrwt>
<totfact> 0.18241588E+02</totfact>
</mgrwt>
</event>
<event>
 4    1  0.1755570E-005  0.1049721E+04  0.7818608E-02  0.9255632E-01
          2   -1    0    0  501    0  0.00000000000E+00  0.00000000000E+00  0.14358670700E+03  0.14358670702E+03  0.25500000000E-02 0.  1.
         -2   -1    0    0    0  501 -0.00000000000E+00 -0.00000000000E+00 -0.19185526361E+04  0.19185526361E+04  0.25500000000E-02 0. -1.
   -5000001    1    1    2    0    0  0.38892063410E+03  0.20632340709E+03 -0.11593327289E+04  0.12650616523E+04  0.25000000000E+03 0.  0.
    5000001    1    1    2    0    0 -0.38892063410E+03 -0.20632340709E+03 -0.61563320022E+03  0.79707769079E+03  0.25000000000E+03 0.  0.
<mgrwt>
<rscale>  0 0.10497212E+04</rscale>
<asrwt>0</asrwt>
<pdfrwt beam="1">  1        2 0.22090264E-01 0.10497212E+04</pdfrwt>
<pdfrwt beam="2">  1       -2 0.29516193E+00 0.10497212E+04</pdfrwt>
<totfact> 0.86852580E+00</totfact>
</mgrwt>
</event>
<event>
 4    1  0.1755570E-005  0.9095601E+03  0.7818608E-02  0.9413709E-01
          2   -1    0    0  501    0  0.00000000000E+00  0.00000000000E+00  0.25984757177E+04  0.25984757177E+04  0.25500000000E-02 0.  1.
         -2   -1    0    0    0  501 -0.00000000000E+00 -0.00000000000E+00 -0.79594706553E+02  0.79594706594E+02  0.25500000000E-02 0. -1.
   -5000001    1    1    2    0    0 -0.68565277993E+02  0.19693555602E+03  0.32444997854E+03  0.45962223526E+03  0.25000000000E+03 0.  0.
    5000001    1    1    2    0    0  0.68565277993E+02 -0.19693555602E+03  0.21944310326E+04  0.22184481891E+04  0.25000000000E+03 0.  0.
<mgrwt>
<rscale>  0 0.90956014E+03</rscale>
<asrwt>0</asrwt>
<pdfrwt beam="1">  1        2 0.39976561E+00 0.90956014E+03</pdfrwt>
<pdfrwt beam="2">  1       -2 0.12245336E-01 0.90956014E+03</pdfrwt>
<totfact> 0.15378196E+02</totfact>
</mgrwt>
</event>
<event>
 4    1  0.1755570E-005  0.6625919E+03  0.7818608E-02  0.9783434E-01
         -2   -1    0    0    0  501 -0.00000000000E+00  0.00000000000E+00  0.59876013159E+02  0.59876013213E+02  0.25500000000E-02 0. -1.
          2   -1    0    0  501    0  0.00000000000E+00 -0.00000000000E+00 -0.18330712677E+04  0.18330712677E+04  0.25500000000E-02 0.  1.
   -5000001    1    1    2    0    0  0.47780800386E+02  0.19584731116E+03 -0.65419017108E+03  0.72876879331E+03  0.25000000000E+03 0.  0.
    5000001    1    1    2    0    0 -0.47780800386E+02 -0.19584731116E+03 -0.11190050834E+04  0.11641784876E+04  0.25000000000E+03 0.  0.
<mgrwt>
<rscale>  0 0.66259188E+03</rscale>
<asrwt>0</asrwt>
<pdfrwt beam="1">  1        2 0.28201092E+00 0.66259188E+03</pdfrwt>
<pdfrwt beam="2">  1       -2 0.92116957E-02 0.66259188E+03</pdfrwt>
<totfact> 0.66486085E+02</totfact>
</mgrwt>
</event>
<event>
 4    1  0.1755570E-005  0.1811071E+04  0.7818608E-02  0.8700434E-01
          2   -1    0    0  501    0  0.00000000000E+00  0.00000000000E+00  0.62882359851E+03  0.62882359852E+03  0.25500000000E-02 0.  1.
         -2   -1    0    0    0  501 -0.00000000000E+00 -0.00000000000E+00 -0.13040137575E+04  0.13040137575E+04  0.25500000000E-02 0. -1.
   -5000001    1    1    2    0    0 -0.74339326049E+03 -0.41064213496E+03 -0.54074594466E+03  0.10373845379E+04  0.25000000000E+03 0.  0.
    5000001    1    1    2    0    0  0.74339326049E+03  0.41064213496E+03 -0.13444421431E+03  0.89545281814E+03  0.25000000000E+03 0.  0.
<mgrwt>
<rscale>  0 0.18110711E+04</rscale>
<asrwt>0</asrwt>
<pdfrwt beam="1">  1        2 0.96742092E-01 0.18110711E+04</pdfrwt>
<pdfrwt beam="2">  1       -2 0.20061750E+00 0.18110711E+04</pdfrwt>
<totfact> 0.58164947E+00</totfact>
</mgrwt>
</event>
<event>
 4    1  0.1755570E-005  0.1068936E+04  0.7818608E-02  0.9236009E-01
         -2   -1    0    0    0  501 -0.00000000000E+00  0.00000000000E+00  0.57822125403E+03  0.57822125403E+03  0.25500000000E-02 0. -1.
          2   -1    0    0  501    0  0.00000000000E+00 -0.00000000000E+00 -0.49402557232E+03  0.49402557232E+03  0.25500000000E-02 0.  1.
   -5000001    1    1    2    0    0 -0.33963888545E+03 -0.10485485183E+03  0.35419969923E+03  0.56063048383E+03  0.25000000000E+03 0.  0.
    5000001    1    1    2    0    0  0.33963888545E+03  0.10485485183E+03 -0.27000401752E+03  0.51161634253E+03  0.25000000000E+03 0.  0.
<mgrwt>
<rscale>  0 0.10689361E+04</rscale>
<asrwt>0</asrwt>
<pdfrwt beam="1">  1        2 0.76003934E-01 0.10689361E+04</pdfrwt>
<pdfrwt beam="2">  1       -2 0.88957116E-01 0.10689361E+04</pdfrwt>
<totfact> 0.67466440E+01</totfact>
</mgrwt>
</event>
<event>
 4    1  0.1755570E-005  0.9164787E+03  0.7818608E-02  0.9405213E-01
         -2   -1    0    0    0  501 -0.00000000000E+00  0.00000000000E+00  0.74408439454E+02  0.74408439497E+02  0.25500000000E-02 0. -1.
          2   -1    0    0  501    0  0.00000000000E+00 -0.00000000000E+00 -0.28220363886E+04  0.28220363886E+04  0.25500000000E-02 0.  1.
   -5000001    1    1    2    0    0 -0.16219947088E+03 -0.30703868019E+03 -0.85545052200E+03  0.95649203608E+03  0.25000000000E+03 0.  0.
    5000001    1    1    2    0    0  0.16219947088E+03  0.30703868019E+03 -0.18921774272E+04  0.19399527921E+04  0.25000000000E+03 0.  0.
<mgrwt>
<rscale>  0 0.91647875E+03</rscale>
<asrwt>0</asrwt>
<pdfrwt beam="1">  1        2 0.43415936E+00 0.91647875E+03</pdfrwt>
<pdfrwt beam="2">  1       -2 0.11447454E-01 0.91647875E+03</pdfrwt>
<totfact> 0.12705869E+02</totfact>
</mgrwt>
</event>
<event>
 4    1  0.1755570E-005  0.7245247E+03  0.7818608E-02  0.9676187E-01
         -2   -1    0    0    0  501 -0.00000000000E+00  0.00000000000E+00  0.67568053748E+03  0.67568053749E+03  0.25500000000E-02 0. -1.
          2   -1    0    0  501    0  0.00000000000E+00 -0.00000000000E+00 -0.19422491578E+03  0.19422491580E+03  0.25500000000E-02 0.  1.
   -5000001    1    1    2    0    0 -0.51884514116E+02 -0.21762570934E+03  0.40483191621E+03  0.52577736025E+03  0.25000000000E+03 0.  0.
    5000001    1    1    2    0    0  0.51884514116E+02  0.21762570934E+03  0.76623705493E+02  0.34412809303E+03  0.25000000000E+03 0.  0.
<mgrwt>
<rscale>  0 0.72452466E+03</rscale>
<asrwt>0</asrwt>
<pdfrwt beam="1">  1        2 0.29880756E-01 0.72452466E+03</pdfrwt>
<pdfrwt beam="2">  1       -2 0.10395085E+00 0.72452466E+03</pdfrwt>
<totfact> 0.13593421E+02</totfact>
</mgrwt>
</event>
<event>
 4    1  0.1755570E-005  0.6327213E+03  0.7818608E-02  0.9839753E-01
         -2   -1    0    0    0  501 -0.00000000000E+00  0.00000000000E+00  0.13526803002E+03  0.13526803005E+03  0.25500000000E-02 0.  1.
          2   -1    0    0  501    0  0.00000000000E+00 -0.00000000000E+00 -0.73989445236E+03  0.73989445236E+03  0.25500000000E-02 0. -1.
   -5000001    1    1    2    0    0 -0.42497612471E+02  0.15282708560E+03 -0.45647269211E+03  0.54408591583E+03  0.25000000000E+03 0.  0.
    5000001    1    1    2    0    0  0.42497612471E+02 -0.15282708560E+03 -0.14815373022E+03  0.33107656658E+03  0.25000000000E+03 0.  0.
<mgrwt>
<rscale>  0 0.63272131E+03</rscale>
<asrwt>0</asrwt>
<pdfrwt beam="1">  1        2 0.11382991E+00 0.63272131E+03</pdfrwt>
<pdfrwt beam="2">  1       -2 0.20810467E-01 0.63272131E+03</pdfrwt>
<totfact> 0.76360791E+02</totfact>
</mgrwt>
</event>
<event>
 4    1  0.1755570E-005  0.5795611E+03  0.7818608E-02  0.9948742E-01
          2   -1    0    0  501    0  0.00000000000E+00  0.00000000000E+00  0.31829786370E+03  0.31829786371E+03  0.25500000000E-02 0.  1.
         -2   -1    0    0    0  501 -0.00000000000E+00 -0.00000000000E+00 -0.26381820323E+03  0.26381820324E+03  0.25500000000E-02 0. -1.
   -5000001    1    1    2    0    0 -0.64722446361E+02 -0.64516552503E+02  0.14229344552E+03  0.30182578625E+03  0.25000000000E+03 0.  0.
    5000001    1    1    2    0    0  0.64722446361E+02  0.64516552503E+02 -0.87813785051E+02  0.28029028070E+03  0.25000000000E+03 0.  0.
<mgrwt>
<rscale>  0 0.57956111E+03</rscale>
<asrwt>0</asrwt>
<pdfrwt beam="1">  1        2 0.48968902E-01 0.57956111E+03</pdfrwt>
<pdfrwt beam="2">  1       -2 0.40587416E-01 0.57956111E+03</pdfrwt>
<totfact> 0.59486049E+02</totfact>
</mgrwt>
</event>
<event>
 4    1  0.1755570E-005  0.6164192E+03  0.7818608E-02  0.9871915E-01
         -2   -1    0    0    0  501 -0.00000000000E+00  0.00000000000E+00  0.31296954194E+03  0.31296954195E+03  0.25500000000E-02 0. -1.
          2   -1    0    0  501    0  0.00000000000E+00 -0.00000000000E+00 -0.30352201735E+03  0.30352201736E+03  0.25500000000E-02 0.  1.
   -5000001    1    1    2    0    0 -0.39435986144E+02 -0.16009838780E+03  0.77577742658E+02  0.30936224226E+03  0.25000000000E+03 0.  0.
    5000001    1    1    2    0    0  0.39435986144E+02  0.16009838780E+03 -0.68130218061E+02  0.30712931705E+03  0.25000000000E+03 0.  0.
<mgrwt>
<rscale>  0 0.61641917E+03</rscale>
<asrwt>0</asrwt>
<pdfrwt beam="1">  1        2 0.46695695E-01 0.61641917E+03</pdfrwt>
<pdfrwt beam="2">  1       -2 0.48149161E-01 0.61641917E+03</pdfrwt>
<totfact> 0.44678117E+02</totfact>
</mgrwt>
</event>
<event>
 4    1  0.1755570E-005  0.6213325E+03  0.7818608E-02  0.9862110E-01
          2   -1    0    0  501    0  0.00000000000E+00  0.00000000000E+00  0.27534289179E+04  0.27534289179E+04  0.25500000000E-02 0.  1.
         -2   -1    0    0    0  501 -0.00000000000E+00 -0.00000000000E+00 -0.35052118453E+02  0.35052118545E+02  0.25500000000E-02 0. -1.
   -5000001    1    1    2    0    0 -0.10978984776E+03  0.66244329508E+02  0.76428459239E+03  0.81429298169E+03  0.25000000000E+03 0.  0.
    5000001    1    1    2    0    0  0.10978984776E+03 -0.66244329508E+02  0.19540922071E+04  0.19741880548E+04  0.25000000000E+03 0.  0.
<mgrwt>
<rscale>  0 0.62133249E+03</rscale>
<asrwt>0</asrwt>
<pdfrwt beam="1">  1        2 0.42360461E+00 0.62133249E+03</pdfrwt>
<pdfrwt beam="2">  1       -2 0.53926316E-02 0.62133249E+03</pdfrwt>
<totfact> 0.47968410E+02</totfact>
</mgrwt>
</event>
<event>
 4    1  0.1755570E-005  0.6271146E+03  0.7818608E-02  0.9850696E-01
          2   -1    0    0  501    0  0.00000000000E+00  0.00000000000E+00  0.53559721955E+03  0.53559721956E+03  0.25500000000E-02 0.  1.
         -2   -1    0    0    0  501 -0.00000000000E+00 -0.00000000000E+00 -0.18356737904E+03  0.18356737906E+03  0.25500000000E-02 0. -1.
   -5000001    1    1    2    0    0 -0.14182869725E+03  0.21720121619E+02  0.31754413581E+03  0.42886060817E+03  0.25000000000E+03 0.  0.
    5000001    1    1    2    0    0  0.14182869725E+03 -0.21720121619E+02  0.34485704698E+02  0.29030399046E+03  0.25000000000E+03 0.  0.
<mgrwt>
<rscale>  0 0.62711459E+03</rscale>
<asrwt>0</asrwt>
<pdfrwt beam="1">  1        2 0.82399570E-01 0.62711459E+03</pdfrwt>
<pdfrwt beam="2">  1       -2 0.28241136E-01 0.62711459E+03</pdfrwt>
<totfact> 0.65526513E+02</totfact>
</mgrwt>
</event>
<event>
 4    1  0.1755570E-005  0.5622159E+03  0.7818608E-02  0.9987053E-01
          2   -1    0    0  501    0  0.00000000000E+00  0.00000000000E+00  0.17342244832E+04  0.17342244832E+04  0.25500000000E-02 0.  1.
         -2   -1    0    0    0  501 -0.00000000000E+00 -0.00000000000E+00 -0.45566004443E+02  0.45566004514E+02  0.25500000000E-02 0. -1.
   -5000001    1    1    2    0    0  0.85057962523E+02  0.48215676346E+02  0.11084697507E+04  0.11405107613E+04  0.25000000000E+03 0.  0.
    5000001    1    1    2    0    0 -0.85057962523E+02 -0.48215676346E+02  0.58018872804E+03  0.63927972640E+03  0.25000000000E+03 0.  0.
<mgrwt>
<rscale>  0 0.56221590E+03</rscale>
<asrwt>0</asrwt>
<pdfrwt beam="1">  1        2 0.26680373E+00 0.56221590E+03</pdfrwt>
<pdfrwt beam="2">  1       -2 0.70101555E-02 0.56221590E+03</pdfrwt>
<totfact> 0.11698118E+03</totfact>
</mgrwt>
</event>
<event>
 4    1  0.1755570E-005  0.1041764E+04  0.7818608E-02  0.9263888E-01
         -2   -1    0    0    0  501 -0.00000000000E+00  0.00000000000E+00  0.91153733958E+02  0.91153733994E+02  0.25500000000E-02 0. -1.
          2   -1    0    0  501    0  0.00000000000E+00 -0.00000000000E+00 -0.29764904530E+04  0.29764904530E+04  0.25500000000E-02 0.  1.
   -5000001    1    1    2    0    0 -0.18843363544E+03  0.33151313765E+03 -0.21841740148E+04  0.22312607024E+04  0.25000000000E+03 0.  0.
    5000001    1    1    2    0    0  0.18843363544E+03 -0.33151313765E+03 -0.70116270428E+03  0.83638348458E+03  0.25000000000E+03 0.  0.
<mgrwt>
<rscale>  0 0.10417643E+04</rscale>
<asrwt>0</asrwt>
<pdfrwt beam="1">  1        2 0.45792153E+00 0.10417643E+04</pdfrwt>
<pdfrwt beam="2">  1       -2 0.14023654E-01 0.10417643E+04</pdfrwt>
<totfact> 0.72098776E+01</totfact>
</mgrwt>
</event>
<event>
 4    1  0.1755570E-005  0.7683436E+03  0.7818608E-02  0.9607004E-01
         -2   -1    0    0    0  501 -0.00000000000E+00  0.00000000000E+00  0.37598782258E+03  0.37598782259E+03  0.25500000000E-02 0. -1.
          2   -1    0    0  501    0  0.00000000000E+00 -0.00000000000E+00 -0.39253395032E+03  0.39253395033E+03  0.25500000000E-02 0.  1.
   -5000001    1    1    2    0    0 -0.21584378799E+03  0.19266132804E+03  0.28898129329E+02  0.38346059774E+03  0.25000000000E+03 0.  0.
    5000001    1    1    2    0    0  0.21584378799E+03 -0.19266132804E+03 -0.45444257069E+02  0.38506117519E+03  0.25000000000E+03 0.  0.
<mgrwt>
<rscale>  0 0.76834363E+03</rscale>
<asrwt>0</asrwt>
<pdfrwt beam="1">  1        2 0.60389838E-01 0.76834363E+03</pdfrwt>
<pdfrwt beam="2">  1       -2 0.57844280E-01 0.76834363E+03</pdfrwt>
<totfact> 0.22917446E+02</totfact>
</mgrwt>
</event>
<event>
 4    1  0.1755570E-005  0.7011276E+03  0.7818608E-02  0.9715306E-01
         -2   -1    0    0    0  501 -0.00000000000E+00  0.00000000000E+00  0.72511210789E+02  0.72511210833E+02  0.25500000000E-02 0. -1.
          2   -1    0    0  501    0  0.00000000000E+00 -0.00000000000E+00 -0.16948408757E+04  0.16948408757E+04  0.25500000000E-02 0.  1.
   -5000001    1    1    2    0    0 -0.19005718099E+03  0.84039016743E+02 -0.48047183557E+03  0.58011849923E+03  0.25000000000E+03 0.  0.
    5000001    1    1    2    0    0  0.19005718099E+03 -0.84039016743E+02 -0.11418578294E+04  0.11872335873E+04  0.25000000000E+03 0.  0.
<mgrwt>
<rscale>  0 0.70112756E+03</rscale>
<asrwt>0</asrwt>
<pdfrwt beam="1">  1        2 0.26074472E+00 0.70112756E+03</pdfrwt>
<pdfrwt beam="2">  1       -2 0.11155572E-01 0.70112756E+03</pdfrwt>
<totfact> 0.57753995E+02</totfact>
</mgrwt>
</event>
<event>
 4    1  0.1755570E-005  0.6162048E+03  0.7818608E-02  0.9872345E-01
         -2   -1    0    0    0  501 -0.00000000000E+00  0.00000000000E+00  0.11799860794E+03  0.11799860797E+03  0.25500000000E-02 0. -1.
          2   -1    0    0  501    0  0.00000000000E+00 -0.00000000000E+00 -0.80447645245E+03  0.80447645246E+03  0.25500000000E-02 0.  1.
   -5000001    1    1    2    0    0 -0.10288750128E+03  0.14778647326E+03 -0.34421132496E+03  0.46196116269E+03  0.25000000000E+03 0.  0.
    5000001    1    1    2    0    0  0.10288750128E+03 -0.14778647326E+03 -0.34226651956E+03  0.46051389774E+03  0.25000000000E+03 0.  0.
<mgrwt>
<rscale>  0 0.61620484E+03</rscale>
<asrwt>0</asrwt>
<pdfrwt beam="1">  1        2 0.12376560E+00 0.61620484E+03</pdfrwt>
<pdfrwt beam="2">  1       -2 0.18153632E-01 0.61620484E+03</pdfrwt>
<totfact> 0.86883170E+02</totfact>
</mgrwt>
</event>
<event>
 4    1  0.1755570E-005  0.7153006E+03  0.7818608E-02  0.9691418E-01
          2   -1    0    0  501    0  0.00000000000E+00  0.00000000000E+00  0.27399417265E+04  0.27399417265E+04  0.25500000000E-02 0.  1.
         -2   -1    0    0    0  501 -0.00000000000E+00 -0.00000000000E+00 -0.46684837808E+02  0.46684837877E+02  0.25500000000E-02 0. -1.
   -5000001    1    1    2    0    0 -0.94689598453E+02 -0.23049573851E+03  0.15710762588E+04  0.16102406704E+04  0.25000000000E+03 0.  0.
    5000001    1    1    2    0    0  0.94689598453E+02  0.23049573851E+03  0.11221806298E+04  0.11763858939E+04  0.25000000000E+03 0.  0.
<mgrwt>
<rscale>  0 0.71530059E+03</rscale>
<asrwt>0</asrwt>
<pdfrwt beam="1">  1        2 0.42152960E+00 0.71530059E+03</pdfrwt>
<pdfrwt beam="2">  1       -2 0.71822809E-02 0.71530059E+03</pdfrwt>
<totfact> 0.30824406E+02</totfact>
</mgrwt>
</event>
<event>
 4    1  0.1755570E-005  0.7428006E+03  0.7818608E-02  0.9646713E-01
         -2   -1    0    0    0  501 -0.00000000000E+00  0.00000000000E+00  0.16765572813E+03  0.16765572815E+03  0.25500000000E-02 0. -1.
          2   -1    0    0  501    0  0.00000000000E+00 -0.00000000000E+00 -0.82274663754E+03  0.82274663755E+03  0.25500000000E-02 0.  1.
   -5000001    1    1    2    0    0 -0.15717054952E+03  0.17312610856E+02 -0.62698503957E+03  0.69326225051E+03  0.25000000000E+03 0.  0.
    5000001    1    1    2    0    0  0.15717054952E+03 -0.17312610856E+02 -0.28105869840E+02  0.29714011518E+03  0.25000000000E+03 0.  0.
<mgrwt>
<rscale>  0 0.74280061E+03</rscale>
<asrwt>0</asrwt>
<pdfrwt beam="1">  1        2 0.12657640E+00 0.74280061E+03</pdfrwt>
<pdfrwt beam="2">  1       -2 0.25793189E-01 0.74280061E+03</pdfrwt>
<totfact> 0.45178299E+02</totfact>
</mgrwt>
</event>
<event>
 4    1  0.1755570E-005  0.5226360E+03  0.7818608E-02  0.1008034E+00
          2   -1    0    0  501    0  0.00000000000E+00  0.00000000000E+00  0.99228804267E+03  0.99228804268E+03  0.25500000000E-02 0.  1.
         -2   -1    0    0    0  501 -0.00000000000E+00 -0.00000000000E+00 -0.68817809813E+02  0.68817809860E+02  0.25500000000E-02 0. -1.
   -5000001    1    1    2    0    0  0.73254194450E+02 -0.19679530438E+02  0.44996134045E+03  0.52030632211E+03  0.25000000000E+03 0.  0.
    5000001    1    1    2    0    0 -0.73254194450E+02  0.19679530438E+02  0.47350889241E+03  0.54079953043E+03  0.25000000000E+03 0.  0.
<mgrwt>
<rscale>  0 0.52263597E+03</rscale>
<asrwt>0</asrwt>
<pdfrwt beam="1">  1        2 0.15265970E+00 0.52263597E+03</pdfrwt>
<pdfrwt beam="2">  1       -2 0.10587356E-01 0.52263597E+03</pdfrwt>
<totfact> 0.16042780E+03</totfact>
</mgrwt>
</event>
<event>
 4    1  0.1755570E-005  0.6871025E+03  0.7818608E-02  0.9739546E-01
         -2   -1    0    0    0  501 -0.00000000000E+00  0.00000000000E+00  0.97890466117E+02  0.97890466150E+02  0.25500000000E-02 0. -1.
          2   -1    0    0  501    0  0.00000000000E+00 -0.00000000000E+00 -0.12057095596E+04  0.12057095596E+04  0.25500000000E-02 0.  1.
   -5000001    1    1    2    0    0  0.22044135535E+03  0.75502854193E+02 -0.62051325746E+03  0.70840085744E+03  0.25000000000E+03 0.  0.
    5000001    1    1    2    0    0 -0.22044135535E+03 -0.75502854193E+02 -0.48730583603E+03  0.59519916832E+03  0.25000000000E+03 0.  0.
<mgrwt>
<rscale>  0 0.68710253E+03</rscale>
<asrwt>0</asrwt>
<pdfrwt beam="1">  1        2 0.18549377E+00 0.68710253E+03</pdfrwt>
<pdfrwt beam="2">  1       -2 0.15060073E-01 0.68710253E+03</pdfrwt>
<totfact> 0.66045458E+02</totfact>
</mgrwt>
</event>
<event>
 4    1  0.1755570E-005  0.1171977E+04  0.7818608E-02  0.9137745E-01
          2   -1    0    0  501    0  0.00000000000E+00  0.00000000000E+00  0.30759161647E+04  0.30759161647E+04  0.25500000000E-02 0.  1.
         -2   -1    0    0    0  501 -0.00000000000E+00 -0.00000000000E+00 -0.11163586204E+03  0.11163586207E+03  0.25500000000E-02 0. -1.
   -5000001    1    1    2    0    0  0.12635197786E+03 -0.48604468489E+03  0.19427305018E+04  0.20221043644E+04  0.25000000000E+03 0.  0.
    5000001    1    1    2    0    0 -0.12635197786E+03  0.48604468489E+03  0.10215498009E+04  0.11654476624E+04  0.25000000000E+03 0.  0.
<mgrwt>
<rscale>  0 0.11719771E+04</rscale>
<asrwt>0</asrwt>
<pdfrwt beam="1">  1        2 0.47321785E+00 0.11719771E+04</pdfrwt>
<pdfrwt beam="2">  1       -2 0.17174749E-01 0.11719771E+04</pdfrwt>
<totfact> 0.43686340E+01</totfact>
</mgrwt>
</event>
<event>
 4    1  0.1755570E-005  0.6683855E+03  0.7818608E-02  0.9772879E-01
         -2   -1    0    0    0  501 -0.00000000000E+00  0.00000000000E+00  0.53700011421E+03  0.53700011422E+03  0.25500000000E-02 0. -1.
          2   -1    0    0  501    0  0.00000000000E+00 -0.00000000000E+00 -0.20797906339E+03  0.20797906341E+03  0.25500000000E-02 0.  1.
   -5000001    1    1    2    0    0  0.11913888337E+03 -0.14810924851E+03  0.29185933687E+03  0.42873336182E+03  0.25000000000E+03 0.  0.
    5000001    1    1    2    0    0 -0.11913888337E+03  0.14810924851E+03  0.37161713955E+02  0.31624581580E+03  0.25000000000E+03 0.  0.
<mgrwt>
<rscale>  0 0.66838546E+03</rscale>
<asrwt>0</asrwt>
<pdfrwt beam="1">  1        2 0.31996779E-01 0.66838546E+03</pdfrwt>
<pdfrwt beam="2">  1       -2 0.82615401E-01 0.66838546E+03</pdfrwt>
<totfact> 0.21493040E+02</totfact>
</mgrwt>
</event>
<event>
 4    1  0.1755570E-005  0.6127511E+03  0.7818608E-02  0.9879299E-01
          2   -1    0    0  501    0  0.00000000000E+00  0.00000000000E+00  0.83278517066E+03  0.83278517066E+03  0.25500000000E-02 0.  1.
         -2   -1    0    0    0  501 -0.00000000000E+00 -0.00000000000E+00 -0.11271333274E+03  0.11271333277E+03  0.25500000000E-02 0. -1.
   -5000001    1    1    2    0    0  0.11403721225E+03  0.12594061292E+03  0.43719506093E+03  0.53151203661E+03  0.25000000000E+03 0.  0.
    5000001    1    1    2    0    0 -0.11403721225E+03 -0.12594061292E+03  0.28287677698E+03  0.41398646682E+03  0.25000000000E+03 0.  0.
<mgrwt>
<rscale>  0 0.61275115E+03</rscale>
<asrwt>0</asrwt>
<pdfrwt beam="1">  1        2 0.12812080E+00 0.61275115E+03</pdfrwt>
<pdfrwt beam="2">  1       -2 0.17340513E-01 0.61275115E+03</pdfrwt>
<totfact> 0.89783354E+02</totfact>
</mgrwt>
</event>
<event>
 4    1  0.1755570E-005  0.5887749E+03  0.7818608E-02  0.9928972E-01
         -2   -1    0    0    0  501 -0.00000000000E+00  0.00000000000E+00  0.95793792759E+02  0.95793792793E+02  0.25500000000E-02 0. -1.
          2   -1    0    0  501    0  0.00000000000E+00 -0.00000000000E+00 -0.90469292944E+03  0.90469292945E+03  0.25500000000E-02 0.  1.
   -5000001    1    1    2    0    0 -0.14658972335E+03 -0.49065684259E+02 -0.37663244935E+03  0.47775306411E+03  0.25000000000E+03 0.  0.
    5000001    1    1    2    0    0  0.14658972335E+03  0.49065684259E+02 -0.43226668734E+03  0.52273365813E+03  0.25000000000E+03 0.  0.
<mgrwt>
<rscale>  0 0.58877489E+03</rscale>
<asrwt>0</asrwt>
<pdfrwt beam="1">  1        2 0.13918352E+00 0.58877489E+03</pdfrwt>
<pdfrwt beam="2">  1       -2 0.14737507E-01 0.58877489E+03</pdfrwt>
<totfact> 0.10575636E+03</totfact>
</mgrwt>
</event>
<event>
 4    1  0.1755570E-005  0.5568413E+03  0.7818608E-02  0.9999227E-01
         -2   -1    0    0    0  501 -0.00000000000E+00  0.00000000000E+00  0.25677058475E+02  0.25677058601E+02  0.25500000000E-02 0. -1.
          2   -1    0    0  501    0  0.00000000000E+00 -0.00000000000E+00 -0.30189615970E+04  0.30189615970E+04  0.25500000000E-02 0.  1.
   -5000001    1    1    2    0    0  0.12133882621E+03 -0.17005557421E+02 -0.15097578183E+04  0.15352136560E+04  0.25000000000E+03 0.  0.
    5000001    1    1    2    0    0 -0.12133882621E+03  0.17005557421E+02 -0.14835267203E+04  0.15094249996E+04  0.25000000000E+03 0.  0.
<mgrwt>
<rscale>  0 0.55684128E+03</rscale>
<asrwt>0</asrwt>
<pdfrwt beam="1">  1        2 0.46445535E+00 0.55684128E+03</pdfrwt>
<pdfrwt beam="2">  1       -2 0.39503191E-02 0.55684128E+03</pdfrwt>
<totfact> 0.54293265E+02</totfact>
</mgrwt>
</event>
<event>
 4    1  0.1755570E-005  0.5303989E+03  0.7818608E-02  0.1006135E+00
          2   -1    0    0  501    0  0.00000000000E+00  0.00000000000E+00  0.31774043944E+04  0.31774043944E+04  0.25500000000E-02 0.  1.
         -2   -1    0    0    0  501 -0.00000000000E+00 -0.00000000000E+00 -0.22134653569E+02  0.22134653716E+02  0.25500000000E-02 0. -1.
   -5000001    1    1    2    0    0 -0.70262520340E+02  0.23508870671E+01  0.19018350677E+04  0.19194840382E+04  0.25000000000E+03 0.  0.
    5000001    1    1    2    0    0  0.70262520340E+02 -0.23508870671E+01  0.12534346732E+04  0.12800550099E+04  0.25000000000E+03 0.  0.
<mgrwt>
<rscale>  0 0.53039889E+03</rscale>
<asrwt>0</asrwt>
<pdfrwt beam="1">  1        2 0.48883124E+00 0.53039889E+03</pdfrwt>
<pdfrwt beam="2">  1       -2 0.34053328E-02 0.53039889E+03</pdfrwt>
<totfact> 0.54542743E+02</totfact>
</mgrwt>
</event>
<event>
 4    1  0.1755570E-005  0.7429172E+03  0.7818608E-02  0.9646528E-01
         -2   -1    0    0    0  501 -0.00000000000E+00  0.00000000000E+00  0.18936487716E+03  0.18936487718E+03  0.25500000000E-02 0. -1.
          2   -1    0    0  501    0  0.00000000000E+00 -0.00000000000E+00 -0.72865415553E+03  0.72865415554E+03  0.25500000000E-02 0.  1.
   -5000001    1    1    2    0    0 -0.25361724697E+03  0.10938925089E+02 -0.13980763826E+03  0.38273691194E+03  0.25000000000E+03 0.  0.
    5000001    1    1    2    0    0  0.25361724697E+03 -0.10938925089E+02 -0.39948164011E+03  0.53528212078E+03  0.25000000000E+03 0.  0.
<mgrwt>
<rscale>  0 0.74291724E+03</rscale>
<asrwt>0</asrwt>
<pdfrwt beam="1">  1        2 0.11210064E+00 0.74291724E+03</pdfrwt>
<pdfrwt beam="2">  1       -2 0.29133058E-01 0.74291724E+03</pdfrwt>
<totfact> 0.42383926E+02</totfact>
</mgrwt>
</event>
<event>
 4    1  0.1755570E-005  0.7937517E+03  0.7818608E-02  0.9569106E-01
          2   -1    0    0  501    0  0.00000000000E+00  0.00000000000E+00  0.19815754543E+04  0.19815754543E+04  0.25500000000E-02 0.  1.
         -2   -1    0    0    0  501 -0.00000000000E+00 -0.00000000000E+00 -0.79487481178E+02  0.79487481219E+02  0.25500000000E-02 0. -1.
   -5000001    1    1    2    0    0 -0.25247876381E+03 -0.15723507043E+03  0.74102263437E+03  0.83670959012E+03  0.25000000000E+03 0.  0.
    5000001    1    1    2    0    0  0.25247876381E+03  0.15723507043E+03  0.11610653388E+04  0.12243533454E+04  0.25000000000E+03 0.  0.
<mgrwt>
<rscale>  0 0.79375170E+03</rscale>
<asrwt>0</asrwt>
<pdfrwt beam="1">  1        2 0.30485778E+00 0.79375170E+03</pdfrwt>
<pdfrwt beam="2">  1       -2 0.12228843E-01 0.79375170E+03</pdfrwt>
<totfact> 0.34411056E+02</totfact>
</mgrwt>
</event>
<event>
 4    1  0.1755570E-005  0.6876462E+03  0.7818608E-02  0.9738595E-01
          2   -1    0    0  501    0  0.00000000000E+00  0.00000000000E+00  0.96345241138E+03  0.96345241138E+03  0.25500000000E-02 0.  1.
         -2   -1    0    0    0  501 -0.00000000000E+00 -0.00000000000E+00 -0.12269865728E+03  0.12269865730E+03  0.25500000000E-02 0. -1.
   -5000001    1    1    2    0    0  0.18785240531E+03  0.14042513854E+03  0.46236275755E+03  0.57557542102E+03  0.25000000000E+03 0.  0.
    5000001    1    1    2    0    0 -0.18785240531E+03 -0.14042513854E+03  0.37839099656E+03  0.51057564767E+03  0.25000000000E+03 0.  0.
<mgrwt>
<rscale>  0 0.68764618E+03</rscale>
<asrwt>0</asrwt>
<pdfrwt beam="1">  1        2 0.14822345E+00 0.68764618E+03</pdfrwt>
<pdfrwt beam="2">  1       -2 0.18876716E-01 0.68764618E+03</pdfrwt>
<totfact> 0.63241331E+02</totfact>
</mgrwt>
</event>
<event>
 4    1  0.1755570E-005  0.5439155E+03  0.7818608E-02  0.1002912E+00
          2   -1    0    0  501    0  0.00000000000E+00  0.00000000000E+00  0.11651083117E+03  0.11651083120E+03  0.25500000000E-02 0.  1.
         -2   -1    0    0    0  501 -0.00000000000E+00 -0.00000000000E+00 -0.63479954834E+03  0.63479954835E+03  0.25500000000E-02 0. -1.
   -5000001    1    1    2    0    0  0.34787171387E+02  0.66066622029E+02 -0.36511874591E+03  0.44876123323E+03  0.25000000000E+03 0.  0.
    5000001    1    1    2    0    0 -0.34787171387E+02 -0.66066622029E+02 -0.15316997126E+03  0.30254914632E+03  0.25000000000E+03 0.  0.
<mgrwt>
<rscale>  0 0.54391552E+03</rscale>
<asrwt>0</asrwt>
<pdfrwt beam="1">  1        2 0.17924744E-01 0.54391552E+03</pdfrwt>
<pdfrwt beam="2">  1       -2 0.97661467E-01 0.54391552E+03</pdfrwt>
<totfact> 0.28600090E+02</totfact>
</mgrwt>
</event>
<event>
 4    1  0.1755570E-005  0.1078703E+04  0.7818608E-02  0.9226201E-01
         -2   -1    0    0    0  501 -0.00000000000E+00  0.00000000000E+00  0.26226682827E+03  0.26226682828E+03  0.25500000000E-02 0. -1.
          2   -1    0    0  501    0  0.00000000000E+00 -0.00000000000E+00 -0.11091760469E+04  0.11091760469E+04  0.25500000000E-02 0.  1.
   -5000001    1    1    2    0    0 -0.47759063712E+03  0.16625066749E+02 -0.41639022247E+03  0.68135895597E+03  0.25000000000E+03 0.  0.
    5000001    1    1    2    0    0  0.47759063712E+03 -0.16625066749E+02 -0.43051899620E+03  0.69008391924E+03  0.25000000000E+03 0.  0.
<mgrwt>
<rscale>  0 0.10787031E+04</rscale>
<asrwt>0</asrwt>
<pdfrwt beam="1">  1        2 0.17064247E+00 0.10787031E+04</pdfrwt>
<pdfrwt beam="2">  1       -2 0.40348743E-01 0.10787031E+04</pdfrwt>
<totfact> 0.12419564E+02</totfact>
</mgrwt>
</event>
<event>
 4    1  0.1755570E-005  0.1128970E+04  0.7818608E-02  0.9177407E-01
         -2   -1    0    0    0  501 -0.00000000000E+00  0.00000000000E+00  0.34735620472E+03  0.34735620473E+03  0.25500000000E-02 0. -1.
          2   -1    0    0  501    0  0.00000000000E+00 -0.00000000000E+00 -0.91733866733E+03  0.91733866733E+03  0.25500000000E-02 0.  1.
   -5000001    1    1    2    0    0  0.32850914418E+03  0.37317168188E+03 -0.17890741213E+03  0.58453676025E+03  0.25000000000E+03 0.  0.
    5000001    1    1    2    0    0 -0.32850914418E+03 -0.37317168188E+03 -0.39107505048E+03  0.68015811182E+03  0.25000000000E+03 0.  0.
<mgrwt>
<rscale>  0 0.11289699E+04</rscale>
<asrwt>0</asrwt>
<pdfrwt beam="1">  1        2 0.14112902E+00 0.11289699E+04</pdfrwt>
<pdfrwt beam="2">  1       -2 0.53439416E-01 0.11289699E+04</pdfrwt>
<totfact> 0.93369352E+01</totfact>
</mgrwt>
</event>
<event>
 4    1  0.1755570E-005  0.7016172E+03  0.7818608E-02  0.9714471E-01
          2   -1    0    0  501    0  0.00000000000E+00  0.00000000000E+00  0.44917975291E+03  0.44917975292E+03  0.25500000000E-02 0.  1.
         -2   -1    0    0    0  501 -0.00000000000E+00 -0.00000000000E+00 -0.27398092798E+03  0.27398092799E+03  0.25500000000E-02 0. -1.
   -5000001    1    1    2    0    0 -0.10919039128E+02  0.18098414425E+03 -0.83920001551E+02  0.32002664350E+03  0.25000000000E+03 0.  0.
    5000001    1    1    2    0    0  0.10919039128E+02 -0.18098414425E+03  0.25911882649E+03  0.40313403742E+03  0.25000000000E+03 0.  0.
<mgrwt>
<rscale>  0 0.70161723E+03</rscale>
<asrwt>0</asrwt>
<pdfrwt beam="1">  1        2 0.69104576E-01 0.70161723E+03</pdfrwt>
<pdfrwt beam="2">  1       -2 0.42150913E-01 0.70161723E+03</pdfrwt>
<totfact> 0.37486228E+02</totfact>
</mgrwt>
</event>
<event>
 4    1  0.1755570E-005  0.8604864E+03  0.7818608E-02  0.9476369E-01
          2   -1    0    0  501    0  0.00000000000E+00  0.00000000000E+00  0.34371502892E+03  0.34371502893E+03  0.25500000000E-02 0.  1.
         -2   -1    0    0    0  501 -0.00000000000E+00 -0.00000000000E+00 -0.53855437024E+03  0.53855437025E+03  0.25500000000E-02 0. -1.
   -5000001    1    1    2    0    0 -0.21168555379E+03 -0.26236300014E+03 -0.19449544288E+03  0.46257279949E+03  0.25000000000E+03 0.  0.
    5000001    1    1    2    0    0  0.21168555379E+03  0.26236300014E+03 -0.34389843350E+00  0.41969659969E+03  0.25000000000E+03 0.  0.
<mgrwt>
<rscale>  0 0.86048645E+03</rscale>
<asrwt>0</asrwt>
<pdfrwt beam="1">  1        2 0.52879235E-01 0.86048645E+03</pdfrwt>
<pdfrwt beam="2">  1       -2 0.82854519E-01 0.86048645E+03</pdfrwt>
<totfact> 0.12108865E+02</totfact>
</mgrwt>
</event>
<event>
 4    1  0.1755570E-005  0.5776212E+03  0.7818608E-02  0.9952954E-01
          2   -1    0    0  501    0  0.00000000000E+00  0.00000000000E+00  0.15428637508E+04  0.15428637508E+04  0.25500000000E-02 0.  1.
         -2   -1    0    0    0  501 -0.00000000000E+00 -0.00000000000E+00 -0.54062815908E+02  0.54062815968E+02  0.25500000000E-02 0. -1.
   -5000001    1    1    2    0    0 -0.14047452439E+03  0.34174511850E+02  0.73541225088E+03  0.79008364621E+03  0.25000000000E+03 0.  0.
    5000001    1    1    2    0    0  0.14047452439E+03 -0.34174511850E+02  0.75338868401E+03  0.80684292056E+03  0.25000000000E+03 0.  0.
<mgrwt>
<rscale>  0 0.57762119E+03</rscale>
<asrwt>0</asrwt>
<pdfrwt beam="1">  1        2 0.23736362E+00 0.57762119E+03</pdfrwt>
<pdfrwt beam="2">  1       -2 0.83173574E-02 0.57762119E+03</pdfrwt>
<totfact> 0.11325706E+03</totfact>
</mgrwt>
</event>
<event>
 4    1  0.1755570E-005  0.8484678E+03  0.7818608E-02  0.9492396E-01
          2   -1    0    0  501    0  0.00000000000E+00  0.00000000000E+00  0.94037560095E+03  0.94037560096E+03  0.25500000000E-02 0.  1.
         -2   -1    0    0    0  501 -0.00000000000E+00 -0.00000000000E+00 -0.19138565055E+03  0.19138565057E+03  0.25500000000E-02 0. -1.
   -5000001    1    1    2    0    0  0.88520050166E+02 -0.28111302517E+03  0.60788374517E+03  0.72033532459E+03  0.25000000000E+03 0.  0.
    5000001    1    1    2    0    0 -0.88520050166E+02  0.28111302517E+03  0.14110620523E+03  0.41142592694E+03  0.25000000000E+03 0.  0.
<mgrwt>
<rscale>  0 0.84846779E+03</rscale>
<asrwt>0</asrwt>
<pdfrwt beam="1">  1        2 0.14467317E+00 0.84846779E+03</pdfrwt>
<pdfrwt beam="2">  1       -2 0.29443946E-01 0.84846779E+03</pdfrwt>
<totfact> 0.29338140E+02</totfact>
</mgrwt>
</event>
<event>
 4    1  0.1755570E-005  0.6563610E+03  0.7818608E-02  0.9794916E-01
          2   -1    0    0  501    0  0.00000000000E+00  0.00000000000E+00  0.17105668386E+04  0.17105668386E+04  0.25500000000E-02 0. -1.
         -2   -1    0    0    0  501 -0.00000000000E+00 -0.00000000000E+00 -0.62963007472E+02  0.62963007524E+02  0.25500000000E-02 0.  1.
   -5000001    1    1    2    0    0  0.10691552310E+02  0.19100134362E+03  0.10744773721E+04  0.11196416595E+04  0.25000000000E+03 0.  0.
    5000001    1    1    2    0    0 -0.10691552310E+02 -0.19100134362E+03  0.57312645901E+03  0.65388818660E+03  0.25000000000E+03 0.  0.
<mgrwt>
<rscale>  0 0.65636098E+03</rscale>
<asrwt>0</asrwt>
<pdfrwt beam="1">  1        2 0.26316410E+00 0.65636098E+03</pdfrwt>
<pdfrwt beam="2">  1       -2 0.96866177E-02 0.65636098E+03</pdfrwt>
<totfact> 0.71476050E+02</totfact>
</mgrwt>
</event>
<event>
 4    1  0.1755570E-005  0.5699182E+03  0.7818608E-02  0.9969860E-01
          2   -1    0    0  501    0  0.00000000000E+00  0.00000000000E+00  0.80394066370E+03  0.80394066370E+03  0.25500000000E-02 0.  1.
         -2   -1    0    0    0  501 -0.00000000000E+00 -0.00000000000E+00 -0.10100457258E+03  0.10100457262E+03  0.25500000000E-02 0. -1.
   -5000001    1    1    2    0    0 -0.21804432855E+02 -0.13084307034E+03  0.40428267643E+03  0.49349754286E+03  0.25000000000E+03 0.  0.
    5000001    1    1    2    0    0  0.21804432855E+02  0.13084307034E+03  0.29865341468E+03  0.41144769346E+03  0.25000000000E+03 0.  0.
<mgrwt>
<rscale>  0 0.56991818E+03</rscale>
<asrwt>0</asrwt>
<pdfrwt beam="1">  1        2 0.12368318E+00 0.56991818E+03</pdfrwt>
<pdfrwt beam="2">  1       -2 0.15539165E-01 0.56991818E+03</pdfrwt>
<totfact> 0.11347441E+03</totfact>
</mgrwt>
</event>
<event>
 4    1  0.1755570E-005  0.8875495E+03  0.7818608E-02  0.9441280E-01
         -2   -1    0    0    0  501 -0.00000000000E+00  0.00000000000E+00  0.81213378126E+02  0.81213378166E+02  0.25500000000E-02 0. -1.
          2   -1    0    0  501    0  0.00000000000E+00 -0.00000000000E+00 -0.24249208735E+04  0.24249208735E+04  0.25500000000E-02 0.  1.
   -5000001    1    1    2    0    0 -0.20549374664E+03  0.82939124435E+02 -0.19966775864E+04  0.20244327507E+04  0.25000000000E+03 0.  0.
    5000001    1    1    2    0    0  0.20549374664E+03 -0.82939124435E+02 -0.34702990899E+03  0.48170150094E+03  0.25000000000E+03 0.  0.
<mgrwt>
<rscale>  0 0.88754947E+03</rscale>
<asrwt>0</asrwt>
<pdfrwt beam="1">  1        2 0.37306469E+00 0.88754947E+03</pdfrwt>
<pdfrwt beam="2">  1       -2 0.12494368E-01 0.88754947E+03</pdfrwt>
<totfact> 0.18718969E+02</totfact>
</mgrwt>
</event>
<event>
 4    1  0.1755570E-005  0.9323773E+03  0.7818608E-02  0.9385989E-01
          2   -1    0    0  501    0  0.00000000000E+00  0.00000000000E+00  0.12923802376E+04  0.12923802376E+04  0.25500000000E-02 0.  1.
         -2   -1    0    0    0  501 -0.00000000000E+00 -0.00000000000E+00 -0.16816403585E+03  0.16816403587E+03  0.25500000000E-02 0. -1.
   -5000001    1    1    2    0    0 -0.21827016546E+03 -0.31362767497E+03  0.41492883721E+03  0.61698470288E+03  0.25000000000E+03 0.  0.
    5000001    1    1    2    0    0  0.21827016546E+03  0.31362767497E+03  0.70928736456E+03  0.84355957060E+03  0.25000000000E+03 0.  0.
<mgrwt>
<rscale>  0 0.93237734E+03</rscale>
<asrwt>0</asrwt>
<pdfrwt beam="1">  1        2 0.19882773E+00 0.93237734E+03</pdfrwt>
<pdfrwt beam="2">  1       -2 0.25871391E-01 0.93237734E+03</pdfrwt>
<totfact> 0.22511793E+02</totfact>
</mgrwt>
</event>
<event>
 4    1  0.1755570E-005  0.6203708E+03  0.7818608E-02  0.9864022E-01
          2   -1    0    0  501    0  0.00000000000E+00  0.00000000000E+00  0.16023877282E+04  0.16023877282E+04  0.25500000000E-02 0.  1.
         -2   -1    0    0    0  501 -0.00000000000E+00 -0.00000000000E+00 -0.60044754636E+02  0.60044754690E+02  0.25500000000E-02 0. -1.
   -5000001    1    1    2    0    0  0.15183164584E+03 -0.18775176392E+02  0.10432624079E+04  0.10836520695E+04  0.25000000000E+03 0.  0.
    5000001    1    1    2    0    0 -0.15183164584E+03  0.18775176392E+02  0.49908056559E+03  0.57878041335E+03  0.25000000000E+03 0.  0.
<mgrwt>
<rscale>  0 0.62037079E+03</rscale>
<asrwt>0</asrwt>
<pdfrwt beam="1">  1        2 0.24652120E+00 0.62037079E+03</pdfrwt>
<pdfrwt beam="2">  1       -2 0.92376542E-02 0.62037079E+03</pdfrwt>
<totfact> 0.88589823E+02</totfact>
</mgrwt>
</event>
<event>
 4    1  0.1755570E-005  0.6658196E+03  0.7818608E-02  0.9777539E-01
         -2   -1    0    0    0  501 -0.00000000000E+00  0.00000000000E+00  0.15205314833E+03  0.15205314835E+03  0.25500000000E-02 0. -1.
          2   -1    0    0  501    0  0.00000000000E+00 -0.00000000000E+00 -0.72888287258E+03  0.72888287259E+03  0.25500000000E-02 0.  1.
   -5000001    1    1    2    0    0  0.21423540356E+03  0.46545719128E+02 -0.30997844851E+03  0.45458767103E+03  0.25000000000E+03 0.  0.
    5000001    1    1    2    0    0 -0.21423540356E+03 -0.46545719128E+02 -0.26685127574E+03  0.42634834991E+03  0.25000000000E+03 0.  0.
<mgrwt>
<rscale>  0 0.66581960E+03</rscale>
<asrwt>0</asrwt>
<pdfrwt beam="1">  1        2 0.11213582E+00 0.66581960E+03</pdfrwt>
<pdfrwt beam="2">  1       -2 0.23392792E-01 0.66581960E+03</pdfrwt>
<totfact> 0.63237583E+02</totfact>
</mgrwt>
</event>
<event>
 4    1  0.1755570E-005  0.7448779E+03  0.7818608E-02  0.9643421E-01
         -2   -1    0    0    0  501 -0.00000000000E+00  0.00000000000E+00  0.15210452798E+03  0.15210452800E+03  0.25500000000E-02 0. -1.
          2   -1    0    0  501    0  0.00000000000E+00 -0.00000000000E+00 -0.91194372000E+03  0.91194372000E+03  0.25500000000E-02 0.  1.
   -5000001    1    1    2    0    0  0.69484141622E+01  0.11177901631E+03 -0.74036262871E+03  0.78941728568E+03  0.25000000000E+03 0.  0.
    5000001    1    1    2    0    0 -0.69484141622E+01 -0.11177901631E+03 -0.19476563307E+02  0.27463096232E+03  0.25000000000E+03 0.  0.
<mgrwt>
<rscale>  0 0.74487789E+03</rscale>
<asrwt>0</asrwt>
<pdfrwt beam="1">  1        2 0.14029903E+00 0.74487789E+03</pdfrwt>
<pdfrwt beam="2">  1       -2 0.23400697E-01 0.74487789E+03</pdfrwt>
<totfact> 0.46742605E+02</totfact>
</mgrwt>
</event>
<event>
 4    1  0.1755570E-005  0.6262715E+03  0.7818608E-02  0.9852352E-01
          2   -1    0    0  501    0  0.00000000000E+00  0.00000000000E+00  0.65590434126E+03  0.65590434127E+03  0.25500000000E-02 0.  1.
         -2   -1    0    0    0  501 -0.00000000000E+00 -0.00000000000E+00 -0.14949433655E+03  0.14949433657E+03  0.25500000000E-02 0. -1.
   -5000001    1    1    2    0    0  0.12970500833E+02 -0.17063458670E+03  0.35503314090E+03  0.46672575160E+03  0.25000000000E+03 0.  0.
    5000001    1    1    2    0    0 -0.12970500833E+02  0.17063458670E+03  0.15137686381E+03  0.33867292624E+03  0.25000000000E+03 0.  0.
<mgrwt>
<rscale>  0 0.62627146E+03</rscale>
<asrwt>0</asrwt>
<pdfrwt beam="1">  1        2 0.10090836E+00 0.62627146E+03</pdfrwt>
<pdfrwt beam="2">  1       -2 0.22999129E-01 0.62627146E+03</pdfrwt>
<totfact> 0.74451540E+02</totfact>
</mgrwt>
</event>
<event>
 4    1  0.1755570E-005  0.1350909E+04  0.7818608E-02  0.8990140E-01
         -2   -1    0    0    0  501 -0.00000000000E+00  0.00000000000E+00  0.18314509461E+03  0.18314509463E+03  0.25500000000E-02 0. -1.
          2   -1    0    0  501    0  0.00000000000E+00 -0.00000000000E+00 -0.24911330371E+04  0.24911330371E+04  0.25500000000E-02 0.  1.
   -5000001    1    1    2    0    0  0.57721789026E+03  0.22473516936E+03 -0.13524733968E+04  0.15084331866E+04  0.25000000000E+03 0.  0.
    5000001    1    1    2    0    0 -0.57721789026E+03 -0.22473516936E+03 -0.95551454563E+03  0.11658449451E+04  0.25000000000E+03 0.  0.
<mgrwt>
<rscale>  0 0.13509090E+04</rscale>
<asrwt>0</asrwt>
<pdfrwt beam="1">  1        2 0.38325121E+00 0.13509090E+04</pdfrwt>
<pdfrwt beam="2">  1       -2 0.28176170E-01 0.13509090E+04</pdfrwt>
<totfact> 0.39807017E+01</totfact>
</mgrwt>
</event>
<event>
 4    1  0.1755570E-005  0.5641191E+03  0.7818608E-02  0.9982777E-01
         -2   -1    0    0    0  501 -0.00000000000E+00  0.00000000000E+00  0.16123519800E+03  0.16123519802E+03  0.25500000000E-02 0. -1.
          2   -1    0    0  501    0  0.00000000000E+00 -0.00000000000E+00 -0.49342570239E+03  0.49342570240E+03  0.25500000000E-02 0.  1.
   -5000001    1    1    2    0    0  0.23063313004E+02 -0.12812845575E+03 -0.15399187264E+03  0.32118890768E+03  0.25000000000E+03 0.  0.
    5000001    1    1    2    0    0 -0.23063313004E+02  0.12812845575E+03 -0.17819863176E+03  0.33347199274E+03  0.25000000000E+03 0.  0.
<mgrwt>
<rscale>  0 0.56411910E+03</rscale>
<asrwt>0</asrwt>
<pdfrwt beam="1">  1        2 0.75911645E-01 0.56411910E+03</pdfrwt>
<pdfrwt beam="2">  1       -2 0.24805415E-01 0.56411910E+03</pdfrwt>
<totfact> 0.91242270E+02</totfact>
</mgrwt>
</event>
<event>
 4    1  0.1755570E-005  0.7259348E+03  0.7818608E-02  0.9673880E-01
         -2   -1    0    0    0  501 -0.00000000000E+00  0.00000000000E+00  0.13575083021E+03  0.13575083024E+03  0.25500000000E-02 0. -1.
          2   -1    0    0  501    0  0.00000000000E+00 -0.00000000000E+00 -0.97049364973E+03  0.97049364973E+03  0.25500000000E-02 0.  1.
   -5000001    1    1    2    0    0 -0.20799636453E+03  0.11823048484E+03 -0.58433564595E+03  0.67910903567E+03  0.25000000000E+03 0.  0.
    5000001    1    1    2    0    0  0.20799636453E+03 -0.11823048484E+03 -0.25040717356E+03  0.42713544430E+03  0.25000000000E+03 0.  0.
<mgrwt>
<rscale>  0 0.72593476E+03</rscale>
<asrwt>0</asrwt>
<pdfrwt beam="1">  1        2 0.14930671E+00 0.72593476E+03</pdfrwt>
<pdfrwt beam="2">  1       -2 0.20884744E-01 0.72593476E+03</pdfrwt>
<totfact> 0.52377140E+02</totfact>
</mgrwt>
</event>
<event>
 4    1  0.1755570E-005  0.1066196E+04  0.7818608E-02  0.9238780E-01
          2   -1    0    0  501    0  0.00000000000E+00  0.00000000000E+00  0.47217725530E+03  0.47217725530E+03  0.25500000000E-02 0.  1.
         -2   -1    0    0    0  501 -0.00000000000E+00 -0.00000000000E+00 -0.60187913096E+03  0.60187913096E+03  0.25500000000E-02 0. -1.
   -5000001    1    1    2    0    0  0.18123161957E+03  0.25883186005E+03  0.28679956291E+03  0.49456326289E+03  0.25000000000E+03 0.  0.
    5000001    1    1    2    0    0 -0.18123161957E+03 -0.25883186005E+03 -0.41650143858E+03  0.57949312338E+03  0.25000000000E+03 0.  0.
<mgrwt>
<rscale>  0 0.10661963E+04</rscale>
<asrwt>0</asrwt>
<pdfrwt beam="1">  1        2 0.72642655E-01 0.10661963E+04</pdfrwt>
<pdfrwt beam="2">  1       -2 0.92596790E-01 0.10661963E+04</pdfrwt>
<totfact> 0.64799328E+01</totfact>
</mgrwt>
</event>
<event>
 4    1  0.1755570E-005  0.1043492E+04  0.7818608E-02  0.9262089E-01
         -2   -1    0    0    0  501 -0.00000000000E+00  0.00000000000E+00  0.99034874503E+02  0.99034874536E+02  0.25500000000E-02 0. -1.
          2   -1    0    0  501    0  0.00000000000E+00 -0.00000000000E+00 -0.27487180957E+04  0.27487180957E+04  0.25500000000E-02 0.  1.
   -5000001    1    1    2    0    0  0.30820667325E+03  0.18741636117E+03 -0.20948173729E+04  0.21402981268E+04  0.25000000000E+03 0.  0.
    5000001    1    1    2    0    0 -0.30820667325E+03 -0.18741636117E+03 -0.55486584832E+03  0.70745484344E+03  0.25000000000E+03 0.  0.
<mgrwt>
<rscale>  0 0.10434921E+04</rscale>
<asrwt>0</asrwt>
<pdfrwt beam="1">  1        2 0.42287965E+00 0.10434921E+04</pdfrwt>
<pdfrwt beam="2">  1       -2 0.15236137E-01 0.10434921E+04</pdfrwt>
<totfact> 0.85922032E+01</totfact>
</mgrwt>
</event>
<event>
 4    1  0.1755570E-005  0.6069202E+03  0.7818608E-02  0.9891152E-01
         -2   -1    0    0    0  501 -0.00000000000E+00  0.00000000000E+00  0.41657710617E+02  0.41657710695E+02  0.25500000000E-02 0. -1.
          2   -1    0    0  501    0  0.00000000000E+00 -0.00000000000E+00 -0.22105880732E+04  0.22105880732E+04  0.25500000000E-02 0.  1.
   -5000001    1    1    2    0    0  0.12840152178E+03  0.11444754209E+03 -0.10782029740E+04  0.11200923371E+04  0.25000000000E+03 0.  0.
    5000001    1    1    2    0    0 -0.12840152178E+03 -0.11444754209E+03 -0.10907273886E+04  0.11321534467E+04  0.25000000000E+03 0.  0.
<mgrwt>
<rscale>  0 0.60692022E+03</rscale>
<asrwt>0</asrwt>
<pdfrwt beam="1">  1        2 0.34009038E+00 0.60692022E+03</pdfrwt>
<pdfrwt beam="2">  1       -2 0.64088803E-02 0.60692022E+03</pdfrwt>
<totfact> 0.74129242E+02</totfact>
</mgrwt>
</event>
<event>
 4    1  0.1755570E-005  0.8512026E+03  0.7818608E-02  0.9488724E-01
         -2   -1    0    0    0  501 -0.00000000000E+00  0.00000000000E+00  0.74414954114E+02  0.74414954158E+02  0.25500000000E-02 0. -1.
          2   -1    0    0  501    0  0.00000000000E+00 -0.00000000000E+00 -0.24341407720E+04  0.24341407720E+04  0.25500000000E-02 0.  1.
   -5000001    1    1    2    0    0 -0.30726958743E+03  0.61625571354E+02 -0.75868756224E+03  0.85809039588E+03  0.25000000000E+03 0.  0.
    5000001    1    1    2    0    0  0.30726958743E+03 -0.61625571354E+02 -0.16010382556E+04  0.16504653303E+04  0.25000000000E+03 0.  0.
<mgrwt>
<rscale>  0 0.85120262E+03</rscale>
<asrwt>0</asrwt>
<pdfrwt beam="1">  1        2 0.37448314E+00 0.85120262E+03</pdfrwt>
<pdfrwt beam="2">  1       -2 0.11448456E-01 0.85120262E+03</pdfrwt>
<totfact> 0.21447248E+02</totfact>
</mgrwt>
</event>
<event>
 4    1  0.1755570E-005  0.6584921E+03  0.7818608E-02  0.9790974E-01
         -2   -1    0    0    0  501 -0.00000000000E+00  0.00000000000E+00  0.38629939483E+02  0.38629939567E+02  0.25500000000E-02 0. -1.
          2   -1    0    0  501    0  0.00000000000E+00 -0.00000000000E+00 -0.28061905336E+04  0.28061905336E+04  0.25500000000E-02 0.  1.
   -5000001    1    1    2    0    0  0.17424588178E+03  0.10628241914E+03 -0.16652703859E+04  0.16962555934E+04  0.25000000000E+03 0.  0.
    5000001    1    1    2    0    0 -0.17424588178E+03 -0.10628241914E+03 -0.11022902082E+04  0.11485648797E+04  0.25000000000E+03 0.  0.
<mgrwt>
<rscale>  0 0.65849213E+03</rscale>
<asrwt>0</asrwt>
<pdfrwt beam="1">  1        2 0.43172146E+00 0.65849213E+03</pdfrwt>
<pdfrwt beam="2">  1       -2 0.59430698E-02 0.65849213E+03</pdfrwt>
<totfact> 0.38227498E+02</totfact>
</mgrwt>
</event>
<event>
 4    1  0.1755570E-005  0.6694763E+03  0.7818608E-02  0.9770904E-01
         -2   -1    0    0    0  501 -0.00000000000E+00  0.00000000000E+00  0.59052152839E+02  0.59052152894E+02  0.25500000000E-02 0.  1.
          2   -1    0    0  501    0  0.00000000000E+00 -0.00000000000E+00 -0.18974691521E+04  0.18974691521E+04  0.25500000000E-02 0. -1.
   -5000001    1    1    2    0    0  0.15307954160E+03 -0.10699015409E+03 -0.56524741177E+03  0.64566622619E+03  0.25000000000E+03 0.  0.
    5000001    1    1    2    0    0 -0.15307954160E+03  0.10699015409E+03 -0.12731695875E+04  0.13108550788E+04  0.25000000000E+03 0.  0.
<mgrwt>
<rscale>  0 0.66947633E+03</rscale>
<asrwt>0</asrwt>
<pdfrwt beam="1">  1        2 0.29191828E+00 0.66947633E+03</pdfrwt>
<pdfrwt beam="2">  1       -2 0.90849481E-02 0.66947633E+03</pdfrwt>
<totfact> 0.62703909E+02</totfact>
</mgrwt>
</event>
<event>
 4    1  0.1755570E-005  0.8883551E+03  0.7818608E-02  0.9440256E-01
          2   -1    0    0  501    0  0.00000000000E+00  0.00000000000E+00  0.21706112524E+04  0.21706112524E+04  0.25500000000E-02 0.  1.
         -2   -1    0    0    0  501 -0.00000000000E+00 -0.00000000000E+00 -0.90893154945E+02  0.90893154981E+02  0.25500000000E-02 0. -1.
   -5000001    1    1    2    0    0 -0.35866175488E+03 -0.33287110575E+02  0.12207202863E+04  0.12970752883E+04  0.25000000000E+03 0.  0.
    5000001    1    1    2    0    0  0.35866175488E+03  0.33287110575E+02  0.85899781110E+03  0.96442911902E+03  0.25000000000E+03 0.  0.
<mgrwt>
<rscale>  0 0.88835512E+03</rscale>
<asrwt>0</asrwt>
<pdfrwt beam="1">  1        2 0.33394017E+00 0.88835512E+03</pdfrwt>
<pdfrwt beam="2">  1       -2 0.13983563E-01 0.88835512E+03</pdfrwt>
<totfact> 0.21498376E+02</totfact>
</mgrwt>
</event>
<event>
 4    1  0.1755570E-005  0.9040831E+03  0.7818608E-02  0.9420492E-01
          2   -1    0    0  501    0  0.00000000000E+00  0.00000000000E+00  0.85276186881E+03  0.85276186881E+03  0.25500000000E-02 0.  1.
         -2   -1    0    0    0  501 -0.00000000000E+00 -0.00000000000E+00 -0.23962322734E+03  0.23962322736E+03  0.25500000000E-02 0. -1.
   -5000001    1    1    2    0    0 -0.12759294989E+03 -0.35042590036E+03  0.37008482780E+03  0.58184280718E+03  0.25000000000E+03 0.  0.
    5000001    1    1    2    0    0  0.12759294989E+03  0.35042590036E+03  0.24305381367E+03  0.51054228898E+03  0.25000000000E+03 0.  0.
<mgrwt>
<rscale>  0 0.90408307E+03</rscale>
<asrwt>0</asrwt>
<pdfrwt beam="1">  1        2 0.13119413E+00 0.90408307E+03</pdfrwt>
<pdfrwt beam="2">  1       -2 0.36865113E-01 0.90408307E+03</pdfrwt>
<totfact> 0.21942580E+02</totfact>
</mgrwt>
</event>
<event>
 4    1  0.1755570E-005  0.6694580E+03  0.7818608E-02  0.9770937E-01
          2   -1    0    0  501    0  0.00000000000E+00  0.00000000000E+00  0.57877060050E+03  0.57877060051E+03  0.25500000000E-02 0.  1.
         -2   -1    0    0    0  501 -0.00000000000E+00 -0.00000000000E+00 -0.19358881538E+03  0.19358881540E+03  0.25500000000E-02 0. -1.
   -5000001    1    1    2    0    0  0.12419721454E+03  0.18471196369E+03  0.19231470162E+03  0.38604196933E+03  0.25000000000E+03 0.  0.
    5000001    1    1    2    0    0 -0.12419721454E+03 -0.18471196369E+03  0.19286708351E+03  0.38631744658E+03  0.25000000000E+03 0.  0.
<mgrwt>
<rscale>  0 0.66945803E+03</rscale>
<asrwt>0</asrwt>
<pdfrwt beam="1">  1        2 0.89041628E-01 0.66945803E+03</pdfrwt>
<pdfrwt beam="2">  1       -2 0.29782896E-01 0.66945803E+03</pdfrwt>
<totfact> 0.54166963E+02</totfact>
</mgrwt>
</event>
<event>
 4    1  0.1755570E-005  0.6026892E+03  0.7818608E-02  0.9899843E-01
         -2   -1    0    0    0  501 -0.00000000000E+00  0.00000000000E+00  0.70849873025E+02  0.70849873070E+02  0.25500000000E-02 0. -1.
          2   -1    0    0  501    0  0.00000000000E+00 -0.00000000000E+00 -0.12817039020E+04  0.12817039020E+04  0.25500000000E-02 0.  1.
   -5000001    1    1    2    0    0  0.11892951924E+03 -0.11869645745E+03 -0.62492432780E+03  0.69373157275E+03  0.25000000000E+03 0.  0.
    5000001    1    1    2    0    0 -0.11892951924E+03  0.11869645745E+03 -0.58592970120E+03  0.65882220235E+03  0.25000000000E+03 0.  0.
<mgrwt>
<rscale>  0 0.60268917E+03</rscale>
<asrwt>0</asrwt>
<pdfrwt beam="1">  1        2 0.19718520E+00 0.60268917E+03</pdfrwt>
<pdfrwt beam="2">  1       -2 0.10899981E-01 0.60268917E+03</pdfrwt>
<totfact> 0.10238711E+03</totfact>
</mgrwt>
</event>
<event>
 4    1  0.1755570E-005  0.8564030E+03  0.7818608E-02  0.9481783E-01
         -2   -1    0    0    0  501 -0.00000000000E+00  0.00000000000E+00  0.80134250312E+02  0.80134250353E+02  0.25500000000E-02 0. -1.
          2   -1    0    0  501    0  0.00000000000E+00 -0.00000000000E+00 -0.22881166399E+04  0.22881166399E+04  0.25500000000E-02 0.  1.
   -5000001    1    1    2    0    0 -0.45551725894E+01 -0.29987995880E+03 -0.61782652279E+03  0.73086137643E+03  0.25000000000E+03 0.  0.
    5000001    1    1    2    0    0  0.45551725894E+01  0.29987995880E+03 -0.15901558668E+04  0.16373895138E+04  0.25000000000E+03 0.  0.
<mgrwt>
<rscale>  0 0.85640297E+03</rscale>
<asrwt>0</asrwt>
<pdfrwt beam="1">  1        2 0.35201789E+00 0.85640297E+03</pdfrwt>
<pdfrwt beam="2">  1       -2 0.12328348E-01 0.85640297E+03</pdfrwt>
<totfact> 0.22899461E+02</totfact>
</mgrwt>
</event>
<event>
 4    1  0.1755570E-005  0.5738869E+03  0.7818608E-02  0.9961114E-01
          2   -1    0    0  501    0  0.00000000000E+00  0.00000000000E+00  0.56509161945E+03  0.56509161946E+03  0.25500000000E-02 0.  1.
         -2   -1    0    0    0  501 -0.00000000000E+00 -0.00000000000E+00 -0.14570478492E+03  0.14570478494E+03  0.25500000000E-02 0. -1.
   -5000001    1    1    2    0    0  0.81603421373E+02  0.11422799021E+03  0.22378264835E+03  0.36371118464E+03  0.25000000000E+03 0.  0.
    5000001    1    1    2    0    0 -0.81603421373E+02 -0.11422799021E+03  0.19560418618E+03  0.34708521977E+03  0.25000000000E+03 0.  0.
<mgrwt>
<rscale>  0 0.57388693E+03</rscale>
<asrwt>0</asrwt>
<pdfrwt beam="1">  1        2 0.86937171E-01 0.57388693E+03</pdfrwt>
<pdfrwt beam="2">  1       -2 0.22416121E-01 0.57388693E+03</pdfrwt>
<totfact> 0.93312324E+02</totfact>
</mgrwt>
</event>
<event>
 4    1  0.1755570E-005  0.6654197E+03  0.7818608E-02  0.9778268E-01
         -2   -1    0    0    0  501 -0.00000000000E+00  0.00000000000E+00  0.82159416958E+02  0.82159416997E+02  0.25500000000E-02 0. -1.
          2   -1    0    0  501    0  0.00000000000E+00 -0.00000000000E+00 -0.13473300163E+04  0.13473300163E+04  0.25500000000E-02 0.  1.
   -5000001    1    1    2    0    0 -0.20465851679E+03 -0.78638293021E+02 -0.65677189175E+03  0.73615107648E+03  0.25000000000E+03 0.  0.
    5000001    1    1    2    0    0  0.20465851679E+03  0.78638293021E+02 -0.60839870758E+03  0.69333835680E+03  0.25000000000E+03 0.  0.
<mgrwt>
<rscale>  0 0.66541971E+03</rscale>
<asrwt>0</asrwt>
<pdfrwt beam="1">  1        2 0.20728152E+00 0.66541971E+03</pdfrwt>
<pdfrwt beam="2">  1       -2 0.12639911E-01 0.66541971E+03</pdfrwt>
<totfact> 0.73409247E+02</totfact>
</mgrwt>
</event>
<event>
 4    1  0.1755570E-005  0.7612039E+03  0.7818608E-02  0.9617935E-01
         -2   -1    0    0    0  501 -0.00000000000E+00  0.00000000000E+00  0.10316906851E+03  0.10316906854E+03  0.25500000000E-02 0. -1.
          2   -1    0    0  501    0  0.00000000000E+00 -0.00000000000E+00 -0.14040822820E+04  0.14040822820E+04  0.25500000000E-02 0.  1.
   -5000001    1    1    2    0    0  0.13616699811E+03  0.10295863823E+03 -0.11072349176E+04  0.11478724212E+04  0.25000000000E+03 0.  0.
    5000001    1    1    2    0    0 -0.13616699811E+03 -0.10295863823E+03 -0.19367829588E+03  0.35937892934E+03  0.25000000000E+03 0.  0.
<mgrwt>
<rscale>  0 0.76120394E+03</rscale>
<asrwt>0</asrwt>
<pdfrwt beam="1">  1        2 0.21601264E+00 0.76120394E+03</pdfrwt>
<pdfrwt beam="2">  1       -2 0.15872165E-01 0.76120394E+03</pdfrwt>
<totfact> 0.46277038E+02</totfact>
</mgrwt>
</event>
<event>
 4    1  0.1755570E-005  0.9632927E+03  0.7818608E-02  0.9349747E-01
          2   -1    0    0  501    0  0.00000000000E+00  0.00000000000E+00  0.16488208052E+04  0.16488208052E+04  0.25500000000E-02 0.  1.
         -2   -1    0    0    0  501 -0.00000000000E+00 -0.00000000000E+00 -0.14069642815E+03  0.14069642817E+03  0.25500000000E-02 0. -1.
   -5000001    1    1    2    0    0  0.20708092672E+03  0.62117735576E+02  0.14049023644E+04  0.14432573495E+04  0.25000000000E+03 0.  0.
    5000001    1    1    2    0    0 -0.20708092672E+03 -0.62117735576E+02  0.10322201260E+03  0.34625988386E+03  0.25000000000E+03 0.  0.
<mgrwt>
<rscale>  0 0.96329268E+03</rscale>
<asrwt>0</asrwt>
<pdfrwt beam="1">  1        2 0.25366473E+00 0.96329268E+03</pdfrwt>
<pdfrwt beam="2">  1       -2 0.21645605E-01 0.96329268E+03</pdfrwt>
<totfact> 0.19474110E+02</totfact>
</mgrwt>
</event>
<event>
 4    1  0.1755570E-005  0.6523570E+03  0.7818608E-02  0.9802366E-01
          2   -1    0    0  501    0  0.00000000000E+00  0.00000000000E+00  0.11303299831E+04  0.11303299831E+04  0.25500000000E-02 0.  1.
         -2   -1    0    0    0  501 -0.00000000000E+00 -0.00000000000E+00 -0.94125088747E+02  0.94125088782E+02  0.25500000000E-02 0. -1.
   -5000001    1    1    2    0    0 -0.21872812845E+02  0.12808477793E+03  0.82656752037E+03  0.87326857037E+03  0.25000000000E+03 0.  0.
    5000001    1    1    2    0    0  0.21872812845E+02 -0.12808477793E+03  0.20963737401E+03  0.35118650154E+03  0.25000000000E+03 0.  0.
<mgrwt>
<rscale>  0 0.65235699E+03</rscale>
<asrwt>0</asrwt>
<pdfrwt beam="1">  1        2 0.17389692E+00 0.65235699E+03</pdfrwt>
<pdfrwt beam="2">  1       -2 0.14480783E-01 0.65235699E+03</pdfrwt>
<totfact> 0.78349958E+02</totfact>
</mgrwt>
</event>
<event>
 4    1  0.1755570E-005  0.6255061E+03  0.7818608E-02  0.9853858E-01
          2   -1    0    0  501    0  0.00000000000E+00  0.00000000000E+00  0.26106780358E+04  0.26106780358E+04  0.25500000000E-02 0.  1.
         -2   -1    0    0    0  501 -0.00000000000E+00 -0.00000000000E+00 -0.37467074922E+02  0.37467075009E+02  0.25500000000E-02 0. -1.
   -5000001    1    1    2    0    0  0.42559256841E+02  0.18066200449E+03  0.11621332411E+04  0.12031224877E+04  0.25000000000E+03 0.  0.
    5000001    1    1    2    0    0 -0.42559256841E+02 -0.18066200449E+03  0.14110777198E+04  0.14450226232E+04  0.25000000000E+03 0.  0.
<mgrwt>
<rscale>  0 0.62550610E+03</rscale>
<asrwt>0</asrwt>
<pdfrwt beam="1">  1        2 0.40164283E+00 0.62550610E+03</pdfrwt>
<pdfrwt beam="2">  1       -2 0.57641645E-02 0.62550610E+03</pdfrwt>
<totfact> 0.52244487E+02</totfact>
</mgrwt>
</event>
<event>
 4    1  0.1755570E-005  0.6300574E+03  0.7818608E-02  0.9844937E-01
         -2   -1    0    0    0  501 -0.00000000000E+00  0.00000000000E+00  0.65093471153E+02  0.65093471203E+02  0.25500000000E-02 0. -1.
          2   -1    0    0  501    0  0.00000000000E+00 -0.00000000000E+00 -0.15246242528E+04  0.15246242528E+04  0.25500000000E-02 0.  1.
   -5000001    1    1    2    0    0  0.80565548836E+02  0.15184105551E+03 -0.51572156645E+03  0.59834375396E+03  0.25000000000E+03 0.  0.
    5000001    1    1    2    0    0 -0.80565548836E+02 -0.15184105551E+03 -0.94380921524E+03  0.99137397009E+03  0.25000000000E+03 0.  0.
<mgrwt>
<rscale>  0 0.63005741E+03</rscale>
<asrwt>0</asrwt>
<pdfrwt beam="1">  1        2 0.23455755E+00 0.63005741E+03</pdfrwt>
<pdfrwt beam="2">  1       -2 0.10014381E-01 0.63005741E+03</pdfrwt>
<totfact> 0.85737971E+02</totfact>
</mgrwt>
</event>
<event>
 4    1  0.1755570E-005  0.1030075E+04  0.7818608E-02  0.9276160E-01
          2   -1    0    0  501    0  0.00000000000E+00  0.00000000000E+00  0.90534868767E+03  0.90534868768E+03  0.25500000000E-02 0.  1.
         -2   -1    0    0    0  501 -0.00000000000E+00 -0.00000000000E+00 -0.29299630089E+03  0.29299630090E+03  0.25500000000E-02 0. -1.
   -5000001    1    1    2    0    0  0.31524852253E+03 -0.31336838780E+03  0.38992525783E+03  0.64196813327E+03  0.25000000000E+03 0.  0.
    5000001    1    1    2    0    0 -0.31524852253E+03  0.31336838780E+03  0.22242712895E+03  0.55637685531E+03  0.25000000000E+03 0.  0.
<mgrwt>
<rscale>  0 0.10300754E+04</rscale>
<asrwt>0</asrwt>
<pdfrwt beam="1">  1        2 0.13928441E+00 0.10300754E+04</pdfrwt>
<pdfrwt beam="2">  1       -2 0.45076354E-01 0.10300754E+04</pdfrwt>
<totfact> 0.13522584E+02</totfact>
</mgrwt>
</event>
<event>
 4    1  0.1755570E-005  0.1395661E+04  0.7818608E-02  0.8956965E-01
         -2   -1    0    0    0  501 -0.00000000000E+00  0.00000000000E+00  0.34465714931E+03  0.34465714932E+03  0.25500000000E-02 0. -1.
          2   -1    0    0  501    0  0.00000000000E+00 -0.00000000000E+00 -0.14129044202E+04  0.14129044202E+04  0.25500000000E-02 0.  1.
   -5000001    1    1    2    0    0 -0.63791935799E+03 -0.65266829205E+02 -0.38907532326E+03  0.79062030929E+03  0.25000000000E+03 0.  0.
    5000001    1    1    2    0    0  0.63791935799E+03  0.65266829205E+02 -0.67917194761E+03  0.96694126022E+03  0.25000000000E+03 0.  0.
<mgrwt>
<rscale>  0 0.13956613E+04</rscale>
<asrwt>0</asrwt>
<pdfrwt beam="1">  1        2 0.21736991E+00 0.13956613E+04</pdfrwt>
<pdfrwt beam="2">  1       -2 0.53024177E-01 0.13956613E+04</pdfrwt>
<totfact> 0.46448624E+01</totfact>
</mgrwt>
</event>
<event>
 4    1  0.1755570E-005  0.8044974E+03  0.7818608E-02  0.9553530E-01
         -2   -1    0    0    0  501 -0.00000000000E+00  0.00000000000E+00  0.74116344182E+02  0.74116344226E+02  0.25500000000E-02 0. -1.
          2   -1    0    0  501    0  0.00000000000E+00 -0.00000000000E+00 -0.21831086673E+04  0.21831086673E+04  0.25500000000E-02 0.  1.
   -5000001    1    1    2    0    0 -0.27272088336E+03 -0.15784332632E+03 -0.10444432681E+04  0.11192197891E+04  0.25000000000E+03 0.  0.
    5000001    1    1    2    0    0  0.27272088336E+03  0.15784332632E+03 -0.10645490550E+04  0.11380052225E+04  0.25000000000E+03 0.  0.
<mgrwt>
<rscale>  0 0.80449744E+03</rscale>
<asrwt>0</asrwt>
<pdfrwt beam="1">  1        2 0.33586282E+00 0.80449744E+03</pdfrwt>
<pdfrwt beam="2">  1       -2 0.11402516E-01 0.80449744E+03</pdfrwt>
<totfact> 0.29921730E+02</totfact>
</mgrwt>
</event>
<event>
 4    1  0.1755570E-005  0.6361970E+03  0.7818608E-02  0.9833030E-01
         -2   -1    0    0    0  501 -0.00000000000E+00  0.00000000000E+00  0.32844748227E+02  0.32844748326E+02  0.25500000000E-02 0. -1.
          2   -1    0    0  501    0  0.00000000000E+00 -0.00000000000E+00 -0.30807558312E+04  0.30807558312E+04  0.25500000000E-02 0.  1.
   -5000001    1    1    2    0    0  0.18707837865E+03  0.25872506752E+02 -0.12550506008E+04  0.12935685977E+04  0.25000000000E+03 0.  0.
    5000001    1    1    2    0    0 -0.18707837865E+03 -0.25872506752E+02 -0.17928604822E+04  0.18200319819E+04  0.25000000000E+03 0.  0.
<mgrwt>
<rscale>  0 0.63619698E+03</rscale>
<asrwt>0</asrwt>
<pdfrwt beam="1">  1        2 0.47396221E+00 0.63619698E+03</pdfrwt>
<pdfrwt beam="2">  1       -2 0.50530406E-02 0.63619698E+03</pdfrwt>
<totfact> 0.33712488E+02</totfact>
</mgrwt>
</event>
<event>
 4    1  0.1755570E-005  0.9015000E+03  0.7818608E-02  0.9423708E-01
          2   -1    0    0  501    0  0.00000000000E+00  0.00000000000E+00  0.68645976412E+03  0.68645976412E+03  0.25500000000E-02 0.  1.
         -2   -1    0    0    0  501 -0.00000000000E+00 -0.00000000000E+00 -0.29597593670E+03  0.29597593671E+03  0.25500000000E-02 0. -1.
   -5000001    1    1    2    0    0  0.35876585217E+03 -0.39432185380E+02  0.84064500280E+02  0.44702871734E+03  0.25000000000E+03 0.  0.
    5000001    1    1    2    0    0 -0.35876585217E+03  0.39432185380E+02  0.30641932714E+03  0.53540698349E+03  0.25000000000E+03 0.  0.
<mgrwt>
<rscale>  0 0.90150002E+03</rscale>
<asrwt>0</asrwt>
<pdfrwt beam="1">  1        2 0.10560919E+00 0.90150002E+03</pdfrwt>
<pdfrwt beam="2">  1       -2 0.45534760E-01 0.90150002E+03</pdfrwt>
<totfact> 0.19262510E+02</totfact>
</mgrwt>
</event>
<event>
 4    1  0.1755570E-005  0.1047494E+04  0.7818608E-02  0.9257935E-01
          2   -1    0    0  501    0  0.00000000000E+00  0.00000000000E+00  0.28648737555E+04  0.28648737555E+04  0.25500000000E-02 0. -1.
         -2   -1    0    0    0  501 -0.00000000000E+00 -0.00000000000E+00 -0.95749789168E+02  0.95749789202E+02  0.25500000000E-02 0.  1.
   -5000001    1    1    2    0    0  0.83031942902E+02 -0.43227616248E+03  0.10047933044E+04  0.11251073588E+04  0.25000000000E+03 0.  0.
    5000001    1    1    2    0    0 -0.83031942902E+02  0.43227616248E+03  0.17643306619E+04  0.18355161859E+04  0.25000000000E+03 0.  0.
<mgrwt>
<rscale>  0 0.10474943E+04</rscale>
<asrwt>0</asrwt>
<pdfrwt beam="1">  1        2 0.44074988E+00 0.10474943E+04</pdfrwt>
<pdfrwt beam="2">  1       -2 0.14730734E-01 0.10474943E+04</pdfrwt>
<totfact> 0.77529198E+01</totfact>
</mgrwt>
</event>
<event>
 4    1  0.1755570E-005  0.6476663E+03  0.7818608E-02  0.9811168E-01
         -2   -1    0    0    0  501 -0.00000000000E+00  0.00000000000E+00  0.92113941105E+02  0.92113941140E+02  0.25500000000E-02 0. -1.
          2   -1    0    0  501    0  0.00000000000E+00 -0.00000000000E+00 -0.11384585738E+04  0.11384585738E+04  0.25500000000E-02 0.  1.
   -5000001    1    1    2    0    0 -0.14810191792E+03  0.13943395224E+03 -0.58301210663E+03  0.66616748765E+03  0.25000000000E+03 0.  0.
    5000001    1    1    2    0    0  0.14810191792E+03 -0.13943395224E+03 -0.46333252609E+03  0.56440502732E+03  0.25000000000E+03 0.  0.
<mgrwt>
<rscale>  0 0.64766629E+03</rscale>
<asrwt>0</asrwt>
<pdfrwt beam="1">  1        2 0.17514746E+00 0.64766629E+03</pdfrwt>
<pdfrwt beam="2">  1       -2 0.14171376E-01 0.64766629E+03</pdfrwt>
<totfact> 0.80348376E+02</totfact>
</mgrwt>
</event>
<event>
 4    1  0.1755570E-005  0.8937651E+03  0.7818608E-02  0.9433409E-01
         -2   -1    0    0    0  501 -0.00000000000E+00  0.00000000000E+00  0.12120630083E+03  0.12120630086E+03  0.25500000000E-02 0. -1.
          2   -1    0    0  501    0  0.00000000000E+00 -0.00000000000E+00 -0.16476373541E+04  0.16476373541E+04  0.25500000000E-02 0.  1.
   -5000001    1    1    2    0    0 -0.75347177902E+02 -0.35449936561E+03 -0.61175313321E+03  0.75371671962E+03  0.25000000000E+03 0.  0.
    5000001    1    1    2    0    0  0.75347177902E+02  0.35449936561E+03 -0.91467792008E+03  0.10151269354E+04  0.25000000000E+03 0.  0.
<mgrwt>
<rscale>  0 0.89376513E+03</rscale>
<asrwt>0</asrwt>
<pdfrwt beam="1">  1        2 0.25348265E+00 0.89376513E+03</pdfrwt>
<pdfrwt beam="2">  1       -2 0.18647124E-01 0.89376513E+03</pdfrwt>
<totfact> 0.25457630E+02</totfact>
</mgrwt>
</event>
<event>
 4    1  0.1755570E-005  0.7083329E+03  0.7818608E-02  0.9703087E-01
         -2   -1    0    0    0  501 -0.00000000000E+00  0.00000000000E+00  0.15185014084E+03  0.15185014087E+03  0.25500000000E-02 0. -1.
          2   -1    0    0  501    0  0.00000000000E+00 -0.00000000000E+00 -0.82603714982E+03  0.82603714982E+03  0.25500000000E-02 0.  1.
   -5000001    1    1    2    0    0 -0.15360459111E+03  0.19808371805E+03 -0.35105873819E+03  0.49857172747E+03  0.25000000000E+03 0.  0.
    5000001    1    1    2    0    0  0.15360459111E+03 -0.19808371805E+03 -0.32312827078E+03  0.47931556322E+03  0.25000000000E+03 0.  0.
<mgrwt>
<rscale>  0 0.70833285E+03</rscale>
<asrwt>0</asrwt>
<pdfrwt beam="1">  1        2 0.12708264E+00 0.70833285E+03</pdfrwt>
<pdfrwt beam="2">  1       -2 0.23361561E-01 0.70833285E+03</pdfrwt>
<totfact> 0.53761217E+02</totfact>
</mgrwt>
</event>
<event>
 4    1  0.1755570E-005  0.1022723E+04  0.7818608E-02  0.9283968E-01
          2   -1    0    0  501    0  0.00000000000E+00  0.00000000000E+00  0.12647796149E+04  0.12647796149E+04  0.25500000000E-02 0.  1.
         -2   -1    0    0    0  501 -0.00000000000E+00 -0.00000000000E+00 -0.20674786756E+03  0.20674786758E+03  0.25500000000E-02 0. -1.
   -5000001    1    1    2    0    0  0.44179751750E+03  0.50733435304E+02  0.47852204585E+03  0.69945855938E+03  0.25000000000E+03 0.  0.
    5000001    1    1    2    0    0 -0.44179751750E+03 -0.50733435304E+02  0.57950970152E+03  0.77206892314E+03  0.25000000000E+03 0.  0.
<mgrwt>
<rscale>  0 0.10227228E+04</rscale>
<asrwt>0</asrwt>
<pdfrwt beam="1">  1        2 0.19458148E+00 0.10227228E+04</pdfrwt>
<pdfrwt beam="2">  1       -2 0.31807364E-01 0.10227228E+04</pdfrwt>
<totfact> 0.15863343E+02</totfact>
</mgrwt>
</event>
<event>
 4    1  0.1755570E-005  0.7978025E+03  0.7818608E-02  0.9563203E-01
          2   -1    0    0  501    0  0.00000000000E+00  0.00000000000E+00  0.48799236705E+03  0.48799236706E+03  0.25500000000E-02 0.  1.
         -2   -1    0    0    0  501 -0.00000000000E+00 -0.00000000000E+00 -0.32607515875E+03  0.32607515876E+03  0.25500000000E-02 0. -1.
   -5000001    1    1    2    0    0  0.20187230948E+03  0.23634840037E+03  0.84052392493E+02  0.40764911428E+03  0.25000000000E+03 0.  0.
    5000001    1    1    2    0    0 -0.20187230948E+03 -0.23634840037E+03  0.77864815806E+02  0.40641841153E+03  0.25000000000E+03 0.  0.
<mgrwt>
<rscale>  0 0.79780245E+03</rscale>
<asrwt>0</asrwt>
<pdfrwt beam="1">  1        2 0.75075749E-01 0.79780245E+03</pdfrwt>
<pdfrwt beam="2">  1       -2 0.50165409E-01 0.79780245E+03</pdfrwt>
<totfact> 0.23980463E+02</totfact>
</mgrwt>
</event>
<event>
 4    1  0.1755570E-005  0.7756683E+03  0.7818608E-02  0.9595920E-01
          2   -1    0    0  501    0  0.00000000000E+00  0.00000000000E+00  0.66104918203E+03  0.66104918203E+03  0.25500000000E-02 0. -1.
         -2   -1    0    0    0  501 -0.00000000000E+00 -0.00000000000E+00 -0.22754027880E+03  0.22754027881E+03  0.25500000000E-02 0.  1.
   -5000001    1    1    2    0    0 -0.11335186538E+03 -0.26170954628E+03  0.12386511717E+03  0.39897756735E+03  0.25000000000E+03 0.  0.
    5000001    1    1    2    0    0  0.11335186538E+03  0.26170954628E+03  0.30964378606E+03  0.48961189349E+03  0.25000000000E+03 0.  0.
<mgrwt>
<rscale>  0 0.77566827E+03</rscale>
<asrwt>0</asrwt>
<pdfrwt beam="1">  1        2 0.10169987E+00 0.77566827E+03</pdfrwt>
<pdfrwt beam="2">  1       -2 0.35006197E-01 0.77566827E+03</pdfrwt>
<totfact> 0.33913946E+02</totfact>
</mgrwt>
</event>
<event>
 4    1  0.1755570E-005  0.7027685E+03  0.7818608E-02  0.9712509E-01
         -2   -1    0    0    0  501 -0.00000000000E+00  0.00000000000E+00  0.96443980670E+02  0.96443980704E+02  0.25500000000E-02 0. -1.
          2   -1    0    0  501    0  0.00000000000E+00 -0.00000000000E+00 -0.12802344288E+04  0.12802344289E+04  0.25500000000E-02 0.  1.
   -5000001    1    1    2    0    0 -0.76839513094E+02  0.23442597054E+03 -0.61253929310E+03  0.70609081005E+03  0.25000000000E+03 0.  0.
    5000001    1    1    2    0    0  0.76839513094E+02 -0.23442597054E+03 -0.57125115508E+03  0.67058759951E+03  0.25000000000E+03 0.  0.
<mgrwt>
<rscale>  0 0.70276854E+03</rscale>
<asrwt>0</asrwt>
<pdfrwt beam="1">  1        2 0.19695913E+00 0.70276854E+03</pdfrwt>
<pdfrwt beam="2">  1       -2 0.14837536E-01 0.70276854E+03</pdfrwt>
<totfact> 0.61232838E+02</totfact>
</mgrwt>
</event>
<event>
 4    1  0.1755570E-005  0.6542074E+03  0.7818608E-02  0.9798916E-01
         -2   -1    0    0    0  501 -0.00000000000E+00  0.00000000000E+00  0.55239119215E+02  0.55239119274E+02  0.25500000000E-02 0. -1.
          2   -1    0    0  501    0  0.00000000000E+00 -0.00000000000E+00 -0.19369758360E+04  0.19369758360E+04  0.25500000000E-02 0.  1.
   -5000001    1    1    2    0    0 -0.17548827353E+03 -0.11657858443E+03 -0.90890954269E+03  0.96592093739E+03  0.25000000000E+03 0.  0.
    5000001    1    1    2    0    0  0.17548827353E+03  0.11657858443E+03 -0.97282717409E+03  0.10262940179E+04  0.25000000000E+03 0.  0.
<mgrwt>
<rscale>  0 0.65420743E+03</rscale>
<asrwt>0</asrwt>
<pdfrwt beam="1">  1        2 0.29799623E+00 0.65420743E+03</pdfrwt>
<pdfrwt beam="2">  1       -2 0.84983275E-02 0.65420743E+03</pdfrwt>
<totfact> 0.66515308E+02</totfact>
</mgrwt>
</event>
<event>
 4    1  0.1755570E-005  0.9848055E+03  0.7818608E-02  0.9325369E-01
         -2   -1    0    0    0  501 -0.00000000000E+00  0.00000000000E+00  0.40185296732E+03  0.40185296732E+03  0.25500000000E-02 0. -1.
          2   -1    0    0  501    0  0.00000000000E+00 -0.00000000000E+00 -0.60335614771E+03  0.60335614772E+03  0.25500000000E-02 0.  1.
   -5000001    1    1    2    0    0 -0.18111328911E+03  0.18045152588E+03  0.24478185277E+03  0.43333928062E+03  0.25000000000E+03 0.  0.
    5000001    1    1    2    0    0  0.18111328911E+03 -0.18045152588E+03 -0.44628503317E+03  0.57186983442E+03  0.25000000000E+03 0.  0.
<mgrwt>
<rscale>  0 0.98480548E+03</rscale>
<asrwt>0</asrwt>
<pdfrwt beam="1">  1        2 0.92824023E-01 0.98480548E+03</pdfrwt>
<pdfrwt beam="2">  1       -2 0.61823533E-01 0.98480548E+03</pdfrwt>
<totfact> 0.11970544E+02</totfact>
</mgrwt>
</event>
<event>
 4    1  0.1755570E-005  0.6858148E+03  0.7818608E-02  0.9741803E-01
         -2   -1    0    0    0  501 -0.00000000000E+00  0.00000000000E+00  0.58590726094E+02  0.58590726150E+02  0.25500000000E-02 0. -1.
          2   -1    0    0  501    0  0.00000000000E+00 -0.00000000000E+00 -0.20068957094E+04  0.20068957094E+04  0.25500000000E-02 0.  1.
   -5000001    1    1    2    0    0  0.21798045356E+02  0.23358304347E+03 -0.99529555892E+03  0.10526867733E+04  0.25000000000E+03 0.  0.
    5000001    1    1    2    0    0 -0.21798045356E+02 -0.23358304347E+03 -0.95300942436E+03  0.10127996623E+04  0.25000000000E+03 0.  0.
<mgrwt>
<rscale>  0 0.68581478E+03</rscale>
<asrwt>0</asrwt>
<pdfrwt beam="1">  1        2 0.30875313E+00 0.68581478E+03</pdfrwt>
<pdfrwt beam="2">  1       -2 0.90139594E-02 0.68581478E+03</pdfrwt>
<totfact> 0.55313434E+02</totfact>
</mgrwt>
</event>
<event>
 4    1  0.1755570E-005  0.6341080E+03  0.7818608E-02  0.9837065E-01
          2   -1    0    0  501    0  0.00000000000E+00  0.00000000000E+00  0.90488127683E+03  0.90488127684E+03  0.25500000000E-02 0.  1.
         -2   -1    0    0    0  501 -0.00000000000E+00 -0.00000000000E+00 -0.11108997867E+03  0.11108997870E+03  0.25500000000E-02 0. -1.
   -5000001    1    1    2    0    0  0.90942103253E+02 -0.15824863946E+03  0.50685578349E+03  0.59389888306E+03  0.25000000000E+03 0.  0.
    5000001    1    1    2    0    0 -0.90942103253E+02  0.15824863946E+03  0.28693551467E+03  0.42207237248E+03  0.25000000000E+03 0.  0.
<mgrwt>
<rscale>  0 0.63410801E+03</rscale>
<asrwt>0</asrwt>
<pdfrwt beam="1">  1        2 0.13921251E+00 0.63410801E+03</pdfrwt>
<pdfrwt beam="2">  1       -2 0.17090766E-01 0.63410801E+03</pdfrwt>
<totfact> 0.82144494E+02</totfact>
</mgrwt>
</event>
<event>
 4    1  0.1755570E-005  0.8224565E+03  0.7818608E-02  0.9528069E-01
         -2   -1    0    0    0  501 -0.00000000000E+00  0.00000000000E+00  0.11892524797E+04  0.11892524797E+04  0.25500000000E-02 0. -1.
          2   -1    0    0  501    0  0.00000000000E+00 -0.00000000000E+00 -0.14219745976E+03  0.14219745979E+03  0.25500000000E-02 0.  1.
   -5000001    1    1    2    0    0  0.64573855115E+02 -0.17572157596E+03  0.95658900313E+03  0.10062854346E+04  0.25000000000E+03 0.  0.
    5000001    1    1    2    0    0 -0.64573855115E+02  0.17572157596E+03  0.90466016793E+02  0.32516450485E+03  0.25000000000E+03 0.  0.
<mgrwt>
<rscale>  0 0.82245652E+03</rscale>
<asrwt>0</asrwt>
<pdfrwt beam="1">  1        2 0.21876532E-01 0.82245652E+03</pdfrwt>
<pdfrwt beam="2">  1       -2 0.18296192E+00 0.82245652E+03</pdfrwt>
<totfact> 0.44705360E+01</totfact>
</mgrwt>
</event>
<event>
 4    1  0.1755570E-005  0.9772748E+03  0.7818608E-02  0.9333827E-01
          2   -1    0    0  501    0  0.00000000000E+00  0.00000000000E+00  0.72141147563E+03  0.72141147563E+03  0.25500000000E-02 0.  1.
         -2   -1    0    0    0  501 -0.00000000000E+00 -0.00000000000E+00 -0.33097129365E+03  0.33097129366E+03  0.25500000000E-02 0. -1.
   -5000001    1    1    2    0    0  0.36085375990E+03  0.21167934518E+03  0.15725568903E+03  0.51210636877E+03  0.25000000000E+03 0.  0.
    5000001    1    1    2    0    0 -0.36085375990E+03 -0.21167934518E+03  0.23318449295E+03  0.54027640052E+03  0.25000000000E+03 0.  0.
<mgrwt>
<rscale>  0 0.97727476E+03</rscale>
<asrwt>0</asrwt>
<pdfrwt beam="1">  1        2 0.11098638E+00 0.97727476E+03</pdfrwt>
<pdfrwt beam="2">  1       -2 0.50918661E-01 0.97727476E+03</pdfrwt>
<totfact> 0.14370380E+02</totfact>
</mgrwt>
</event>
<event>
 4    1  0.1755570E-005  0.7122860E+03  0.7818608E-02  0.9696449E-01
         -2   -1    0    0    0  501 -0.00000000000E+00  0.00000000000E+00  0.10573228040E+03  0.10573228043E+03  0.25500000000E-02 0. -1.
          2   -1    0    0  501    0  0.00000000000E+00 -0.00000000000E+00 -0.11996131493E+04  0.11996131493E+04  0.25500000000E-02 0.  1.
   -5000001    1    1    2    0    0 -0.13833255431E+03  0.19485038997E+03 -0.39105762102E+03  0.52204275018E+03  0.25000000000E+03 0.  0.
    5000001    1    1    2    0    0  0.13833255431E+03 -0.19485038997E+03 -0.70282324788E+03  0.78330267956E+03  0.25000000000E+03 0.  0.
<mgrwt>
<rscale>  0 0.71228599E+03</rscale>
<asrwt>0</asrwt>
<pdfrwt beam="1">  1        2 0.18455586E+00 0.71228599E+03</pdfrwt>
<pdfrwt beam="2">  1       -2 0.16266505E-01 0.71228599E+03</pdfrwt>
<totfact> 0.58366487E+02</totfact>
</mgrwt>
</event>
<event>
 4    1  0.1755570E-005  0.7395181E+03  0.7818608E-02  0.9651940E-01
         -2   -1    0    0    0  501 -0.00000000000E+00  0.00000000000E+00  0.81384343602E+02  0.81384343642E+02  0.25500000000E-02 0. -1.
          2   -1    0    0  501    0  0.00000000000E+00 -0.00000000000E+00 -0.16799517025E+04  0.16799517025E+04  0.25500000000E-02 0.  1.
   -5000001    1    1    2    0    0 -0.11994474882E+03 -0.22517993605E+03 -0.57171867171E+03  0.67413276582E+03  0.25000000000E+03 0.  0.
    5000001    1    1    2    0    0  0.11994474882E+03  0.22517993605E+03 -0.10268486872E+04  0.10872032804E+04  0.25000000000E+03 0.  0.
<mgrwt>
<rscale>  0 0.73951813E+03</rscale>
<asrwt>0</asrwt>
<pdfrwt beam="1">  1        2 0.25845408E+00 0.73951813E+03</pdfrwt>
<pdfrwt beam="2">  1       -2 0.12520669E-01 0.73951813E+03</pdfrwt>
<totfact> 0.48524327E+02</totfact>
</mgrwt>
</event>
<event>
 4    1  0.1755570E-005  0.6204869E+03  0.7818608E-02  0.9863791E-01
         -2   -1    0    0    0  501 -0.00000000000E+00  0.00000000000E+00  0.85509194681E+02  0.85509194719E+02  0.25500000000E-02 0. -1.
          2   -1    0    0  501    0  0.00000000000E+00 -0.00000000000E+00 -0.11256215344E+04  0.11256215344E+04  0.25500000000E-02 0.  1.
   -5000001    1    1    2    0    0  0.14435654344E+03  0.30226768306E+02 -0.73386335464E+03  0.78918178669E+03  0.25000000000E+03 0.  0.
    5000001    1    1    2    0    0 -0.14435654344E+03 -0.30226768306E+02 -0.30624898507E+03  0.42194894242E+03  0.25000000000E+03 0.  0.
<mgrwt>
<rscale>  0 0.62048688E+03</rscale>
<asrwt>0</asrwt>
<pdfrwt beam="1">  1        2 0.17317253E+00 0.62048688E+03</pdfrwt>
<pdfrwt beam="2">  1       -2 0.13155262E-01 0.62048688E+03</pdfrwt>
<totfact> 0.92701139E+02</totfact>
</mgrwt>
</event>
<event>
 4    1  0.1755570E-005  0.1446433E+04  0.7818608E-02  0.8920877E-01
          2   -1    0    0  501    0  0.00000000000E+00  0.00000000000E+00  0.15881923484E+04  0.15881923484E+04  0.25500000000E-02 0.  1.
         -2   -1    0    0    0  501 -0.00000000000E+00 -0.00000000000E+00 -0.32933187114E+03  0.32933187115E+03  0.25500000000E-02 0. -1.
   -5000001    1    1    2    0    0  0.56754348388E+03  0.13696000887E+03  0.17081246950E+03  0.65767815066E+03  0.25000000000E+03 0.  0.
    5000001    1    1    2    0    0 -0.56754348388E+03 -0.13696000887E+03  0.10880480078E+04  0.12598460689E+04  0.25000000000E+03 0.  0.
<mgrwt>
<rscale>  0 0.14464333E+04</rscale>
<asrwt>0</asrwt>
<pdfrwt beam="1">  1        2 0.24433729E+00 0.14464333E+04</pdfrwt>
<pdfrwt beam="2">  1       -2 0.50666440E-01 0.14464333E+04</pdfrwt>
<totfact> 0.40446835E+01</totfact>
</mgrwt>
</event>
<event>
 4    1  0.1755570E-005  0.7976190E+03  0.7818608E-02  0.9563470E-01
         -2   -1    0    0    0  501 -0.00000000000E+00  0.00000000000E+00  0.57094108309E+02  0.57094108366E+02  0.25500000000E-02 0. -1.
          2   -1    0    0  501    0  0.00000000000E+00 -0.00000000000E+00 -0.27857340915E+04  0.27857340916E+04  0.25500000000E-02 0.  1.
   -5000001    1    1    2    0    0 -0.18189361255E+03 -0.14096987877E+03 -0.21084599223E+04  0.21356640739E+04  0.25000000000E+03 0.  0.
    5000001    1    1    2    0    0  0.18189361255E+03  0.14096987877E+03 -0.62018006099E+03  0.70716412597E+03  0.25000000000E+03 0.  0.
<mgrwt>
<rscale>  0 0.79761897E+03</rscale>
<asrwt>0</asrwt>
<pdfrwt beam="1">  1        2 0.42857437E+00 0.79761897E+03</pdfrwt>
<pdfrwt beam="2">  1       -2 0.87837111E-02 0.79761897E+03</pdfrwt>
<totfact> 0.20820213E+02</totfact>
</mgrwt>
</event>
<event>
 4    1  0.1755570E-005  0.6420376E+03  0.7818608E-02  0.9821836E-01
         -2   -1    0    0    0  501 -0.00000000000E+00  0.00000000000E+00  0.47406115251E+03  0.47406115252E+03  0.25500000000E-02 0. -1.
          2   -1    0    0  501    0  0.00000000000E+00 -0.00000000000E+00 -0.21738349595E+03  0.21738349597E+03  0.25500000000E-02 0.  1.
   -5000001    1    1    2    0    0 -0.15421562919E+03 -0.12919159760E+03  0.13797990590E+03  0.34930127914E+03  0.25000000000E+03 0.  0.
    5000001    1    1    2    0    0  0.15421562919E+03  0.12919159760E+03  0.11869775066E+03  0.34214336935E+03  0.25000000000E+03 0.  0.
<mgrwt>
<rscale>  0 0.64203760E+03</rscale>
<asrwt>0</asrwt>
<pdfrwt beam="1">  1        2 0.33443615E-01 0.64203760E+03</pdfrwt>
<pdfrwt beam="2">  1       -2 0.72932485E-01 0.64203760E+03</pdfrwt>
<totfact> 0.27022399E+02</totfact>
</mgrwt>
</event>
<event>
 4    1  0.1755570E-005  0.9510865E+03  0.7818608E-02  0.9363882E-01
         -2   -1    0    0    0  501 -0.00000000000E+00  0.00000000000E+00  0.15799103835E+03  0.15799103837E+03  0.25500000000E-02 0. -1.
          2   -1    0    0  501    0  0.00000000000E+00 -0.00000000000E+00 -0.14313556259E+04  0.14313556259E+04  0.25500000000E-02 0.  1.
   -5000001    1    1    2    0    0  0.17639204569E+03 -0.99731359514E+01 -0.12448006721E+04  0.12818901398E+04  0.25000000000E+03 0.  0.
    5000001    1    1    2    0    0 -0.17639204569E+03  0.99731359514E+01 -0.28563915520E+02  0.30745652456E+03  0.25000000000E+03 0.  0.
<mgrwt>
<rscale>  0 0.95108646E+03</rscale>
<asrwt>0</asrwt>
<pdfrwt beam="1">  1        2 0.22020855E+00 0.95108646E+03</pdfrwt>
<pdfrwt beam="2">  1       -2 0.24306315E-01 0.95108646E+03</pdfrwt>
<totfact> 0.20955714E+02</totfact>
</mgrwt>
</event>
<event>
 4    1  0.1755570E-005  0.1210101E+04  0.7818608E-02  0.9104061E-01
          2   -1    0    0  501    0  0.00000000000E+00  0.00000000000E+00  0.16591921173E+04  0.16591921173E+04  0.25500000000E-02 0.  1.
         -2   -1    0    0    0  501 -0.00000000000E+00 -0.00000000000E+00 -0.22064112384E+03  0.22064112385E+03  0.25500000000E-02 0. -1.
   -5000001    1    1    2    0    0 -0.34140886248E+03  0.39411097692E+03  0.44268020060E+03  0.72825080399E+03  0.25000000000E+03 0.  0.
    5000001    1    1    2    0    0  0.34140886248E+03 -0.39411097692E+03  0.99587079281E+03  0.11515824371E+04  0.25000000000E+03 0.  0.
<mgrwt>
<rscale>  0 0.12101008E+04</rscale>
<asrwt>0</asrwt>
<pdfrwt beam="1">  1        2 0.25526032E+00 0.12101008E+04</pdfrwt>
<pdfrwt beam="2">  1       -2 0.33944789E-01 0.12101008E+04</pdfrwt>
<totfact> 0.82746899E+01</totfact>
</mgrwt>
</event>
<event>
 4    1  0.1755570E-005  0.6528798E+03  0.7818608E-02  0.9801390E-01
          2   -1    0    0  501    0  0.00000000000E+00  0.00000000000E+00  0.17848275035E+04  0.17848275035E+04  0.25500000000E-02 0.  1.
         -2   -1    0    0    0  501 -0.00000000000E+00 -0.00000000000E+00 -0.59704936348E+02  0.59704936402E+02  0.25500000000E-02 0. -1.
   -5000001    1    1    2    0    0  0.16738315816E+03  0.94610868602E+02  0.11005296850E+04  0.11448292125E+04  0.25000000000E+03 0.  0.
    5000001    1    1    2    0    0 -0.16738315816E+03 -0.94610868602E+02  0.62459288219E+03  0.69970322750E+03  0.25000000000E+03 0.  0.
<mgrwt>
<rscale>  0 0.65287981E+03</rscale>
<asrwt>0</asrwt>
<pdfrwt beam="1">  1        2 0.27458879E+00 0.65287981E+03</pdfrwt>
<pdfrwt beam="2">  1       -2 0.91853768E-02 0.65287981E+03</pdfrwt>
<totfact> 0.70988756E+02</totfact>
</mgrwt>
</event>
<event>
 4    1  0.1755570E-005  0.9818531E+03  0.7818608E-02  0.9328675E-01
         -2   -1    0    0    0  501 -0.00000000000E+00  0.00000000000E+00  0.27846855461E+03  0.27846855462E+03  0.25500000000E-02 0. -1.
          2   -1    0    0  501    0  0.00000000000E+00 -0.00000000000E+00 -0.86547969536E+03  0.86547969536E+03  0.25500000000E-02 0.  1.
   -5000001    1    1    2    0    0  0.40560985469E+03  0.93085197170E+02 -0.37852266848E+03  0.61560021013E+03  0.25000000000E+03 0.  0.
    5000001    1    1    2    0    0 -0.40560985469E+03 -0.93085197170E+02 -0.20848847226E+03  0.52834803986E+03  0.25000000000E+03 0.  0.
<mgrwt>
<rscale>  0 0.98185310E+03</rscale>
<asrwt>0</asrwt>
<pdfrwt beam="1">  1        2 0.13315072E+00 0.98185310E+03</pdfrwt>
<pdfrwt beam="2">  1       -2 0.42841316E-01 0.98185310E+03</pdfrwt>
<totfact> 0.15972902E+02</totfact>
</mgrwt>
</event>
<event>
 4    1  0.1755570E-005  0.6674332E+03  0.7818608E-02  0.9774606E-01
         -2   -1    0    0    0  501 -0.00000000000E+00  0.00000000000E+00  0.43175479612E+02  0.43175479688E+02  0.25500000000E-02 0. -1.
          2   -1    0    0  501    0  0.00000000000E+00 -0.00000000000E+00 -0.25793986808E+04  0.25793986808E+04  0.25500000000E-02 0.  1.
   -5000001    1    1    2    0    0 -0.12412629324E+03  0.18242230499E+03 -0.13210544834E+04  0.13624867640E+04  0.25000000000E+03 0.  0.
    5000001    1    1    2    0    0  0.12412629324E+03 -0.18242230499E+03 -0.12151687178E+04  0.12600873964E+04  0.25000000000E+03 0.  0.
<mgrwt>
<rscale>  0 0.66743322E+03</rscale>
<asrwt>0</asrwt>
<pdfrwt beam="1">  1        2 0.39683045E+00 0.66743322E+03</pdfrwt>
<pdfrwt beam="2">  1       -2 0.66423835E-02 0.66743322E+03</pdfrwt>
<totfact> 0.43391431E+02</totfact>
</mgrwt>
</event>
<event>
 4    1  0.1755570E-005  0.8536777E+03  0.7818608E-02  0.9485414E-01
          2   -1    0    0  501    0  0.00000000000E+00  0.00000000000E+00  0.62240980216E+03  0.62240980217E+03  0.25500000000E-02 0.  1.
         -2   -1    0    0    0  501 -0.00000000000E+00 -0.00000000000E+00 -0.29271939035E+03  0.29271939036E+03  0.25500000000E-02 0. -1.
   -5000001    1    1    2    0    0  0.27951456746E+03  0.19879292588E+03  0.21331498925E+03  0.47502663655E+03  0.25000000000E+03 0.  0.
    5000001    1    1    2    0    0 -0.27951456746E+03 -0.19879292588E+03  0.11637542257E+03  0.44010255597E+03  0.25000000000E+03 0.  0.
<mgrwt>
<rscale>  0 0.85367773E+03</rscale>
<asrwt>0</asrwt>
<pdfrwt beam="1">  1        2 0.95755354E-01 0.85367773E+03</pdfrwt>
<pdfrwt beam="2">  1       -2 0.45033752E-01 0.85367773E+03</pdfrwt>
<totfact> 0.22284413E+02</totfact>
</mgrwt>
</event>
<event>
 4    1  0.1755570E-005  0.1045824E+04  0.7818608E-02  0.9259666E-01
          2   -1    0    0  501    0  0.00000000000E+00  0.00000000000E+00  0.26228530987E+04  0.26228530987E+04  0.25500000000E-02 0.  1.
         -2   -1    0    0    0  501 -0.00000000000E+00 -0.00000000000E+00 -0.10425181686E+03  0.10425181689E+03  0.25500000000E-02 0. -1.
   -5000001    1    1    2    0    0 -0.50822770131E+02 -0.45158271808E+03  0.10857955124E+04  0.12033128438E+04  0.25000000000E+03 0.  0.
    5000001    1    1    2    0    0  0.50822770131E+02  0.45158271808E+03  0.14328057694E+04  0.15237920718E+04  0.25000000000E+03 0.  0.
<mgrwt>
<rscale>  0 0.10458245E+04</rscale>
<asrwt>0</asrwt>
<pdfrwt beam="1">  1        2 0.40351583E+00 0.10458245E+04</pdfrwt>
<pdfrwt beam="2">  1       -2 0.16038742E-01 0.10458245E+04</pdfrwt>
<totfact> 0.93272856E+01</totfact>
</mgrwt>
</event>
<event>
 4    1  0.1755570E-005  0.7829103E+03  0.7818608E-02  0.9585089E-01
          2   -1    0    0  501    0  0.00000000000E+00  0.00000000000E+00  0.10230529634E+04  0.10230529634E+04  0.25500000000E-02 0.  1.
         -2   -1    0    0    0  501 -0.00000000000E+00 -0.00000000000E+00 -0.14978415469E+03  0.14978415472E+03  0.25500000000E-02 0. -1.
   -5000001    1    1    2    0    0 -0.18715083946E+03  0.23603281163E+03  0.43596702292E+03  0.58592164148E+03  0.25000000000E+03 0.  0.
    5000001    1    1    2    0    0  0.18715083946E+03 -0.23603281163E+03  0.43730178579E+03  0.58691547665E+03  0.25000000000E+03 0.  0.
<mgrwt>
<rscale>  0 0.78291027E+03</rscale>
<asrwt>0</asrwt>
<pdfrwt beam="1">  1        2 0.15739277E+00 0.78291027E+03</pdfrwt>
<pdfrwt beam="2">  1       -2 0.23043715E-01 0.78291027E+03</pdfrwt>
<totfact> 0.40628467E+02</totfact>
</mgrwt>
</event>
<event>
 4    1  0.1755570E-005  0.5376581E+03  0.7818608E-02  0.1004392E+00
          2   -1    0    0  501    0  0.00000000000E+00  0.00000000000E+00  0.14404271274E+04  0.14404271274E+04  0.25500000000E-02 0.  1.
         -2   -1    0    0    0  501 -0.00000000000E+00 -0.00000000000E+00 -0.50171958095E+02  0.50171958159E+02  0.25500000000E-02 0. -1.
   -5000001    1    1    2    0    0 -0.78837726273E+02 -0.57569120239E+02  0.65222631787E+03  0.70528629677E+03  0.25000000000E+03 0.  0.
    5000001    1    1    2    0    0  0.78837726273E+02  0.57569120239E+02  0.73802885143E+03  0.78531278879E+03  0.25000000000E+03 0.  0.
<mgrwt>
<rscale>  0 0.53765807E+03</rscale>
<asrwt>0</asrwt>
<pdfrwt beam="1">  1        2 0.22160415E+00 0.53765807E+03</pdfrwt>
<pdfrwt beam="2">  1       -2 0.77187636E-02 0.53765807E+03</pdfrwt>
<totfact> 0.14552655E+03</totfact>
</mgrwt>
</event>
<event>
 4    1  0.1755570E-005  0.7514164E+03  0.7818608E-02  0.9633131E-01
          2   -1    0    0  501    0  0.00000000000E+00  0.00000000000E+00  0.22331132103E+03  0.22331132105E+03  0.25500000000E-02 0.  1.
         -2   -1    0    0    0  501 -0.00000000000E+00 -0.00000000000E+00 -0.63210694436E+03  0.63210694437E+03  0.25500000000E-02 0. -1.
   -5000001    1    1    2    0    0  0.26826715493E+03  0.81710168013E+02 -0.20847369577E+03  0.42965695596E+03  0.25000000000E+03 0.  0.
    5000001    1    1    2    0    0 -0.26826715493E+03 -0.81710168013E+02 -0.20032192756E+03  0.42576130946E+03  0.25000000000E+03 0.  0.
<mgrwt>
<rscale>  0 0.75141636E+03</rscale>
<asrwt>0</asrwt>
<pdfrwt beam="1">  1        2 0.34355588E-01 0.75141636E+03</pdfrwt>
<pdfrwt beam="2">  1       -2 0.97247222E-01 0.75141636E+03</pdfrwt>
<totfact> 0.13594307E+02</totfact>
</mgrwt>
</event>
<event>
 4    1  0.1755570E-005  0.9610343E+03  0.7818608E-02  0.9352345E-01
         -2   -1    0    0    0  501 -0.00000000000E+00  0.00000000000E+00  0.28588350129E+03  0.28588350131E+03  0.25500000000E-02 0. -1.
          2   -1    0    0  501    0  0.00000000000E+00 -0.00000000000E+00 -0.80766016496E+03  0.80766016496E+03  0.25500000000E-02 0.  1.
   -5000001    1    1    2    0    0  0.63253492893E+02 -0.39226590001E+03 -0.14416151148E+03  0.49107645236E+03  0.25000000000E+03 0.  0.
    5000001    1    1    2    0    0 -0.63253492893E+02  0.39226590001E+03 -0.37761515218E+03  0.60246721390E+03  0.25000000000E+03 0.  0.
<mgrwt>
<rscale>  0 0.96103427E+03</rscale>
<asrwt>0</asrwt>
<pdfrwt beam="1">  1        2 0.12425541E+00 0.96103427E+03</pdfrwt>
<pdfrwt beam="2">  1       -2 0.43982077E-01 0.96103427E+03</pdfrwt>
<totfact> 0.16671227E+02</totfact>
</mgrwt>
</event>
<event>
 4    1  0.1755570E-005  0.7416419E+03  0.7818608E-02  0.9648555E-01
         -2   -1    0    0    0  501 -0.00000000000E+00  0.00000000000E+00  0.82002204118E+03  0.82002204119E+03  0.25500000000E-02 0.  1.
          2   -1    0    0  501    0  0.00000000000E+00 -0.00000000000E+00 -0.16768840285E+03  0.16768840287E+03  0.25500000000E-02 0. -1.
   -5000001    1    1    2    0    0  0.19232331358E+03  0.93789450758E+02  0.98499206961E+02  0.34349208403E+03  0.25000000000E+03 0.  0.
    5000001    1    1    2    0    0 -0.19232331358E+03 -0.93789450758E+02  0.55383443137E+03  0.64421836002E+03  0.25000000000E+03 0.  0.
<mgrwt>
<rscale>  0 0.74164193E+03</rscale>
<asrwt>0</asrwt>
<pdfrwt beam="1">  1        2 0.25798216E-01 0.74164193E+03</pdfrwt>
<pdfrwt beam="2">  1       -2 0.12615724E+00 0.74164193E+03</pdfrwt>
<totfact> 0.99998605E+01</totfact>
</mgrwt>
</event>
<event>
 4    1  0.1755570E-005  0.7052067E+03  0.7818608E-02  0.9708369E-01
         -2   -1    0    0    0  501 -0.00000000000E+00  0.00000000000E+00  0.47177455412E+02  0.47177455481E+02  0.25500000000E-02 0. -1.
          2   -1    0    0  501    0  0.00000000000E+00 -0.00000000000E+00 -0.26353502291E+04  0.26353502291E+04  0.25500000000E-02 0.  1.
   -5000001    1    1    2    0    0  0.10015502033E+02  0.10539399385E+03 -0.21499267819E+04  0.21670010087E+04  0.25000000000E+03 0.  0.
    5000001    1    1    2    0    0 -0.10015502033E+02 -0.10539399385E+03 -0.43824599181E+03  0.51552667589E+03  0.25000000000E+03 0.  0.
<mgrwt>
<rscale>  0 0.70520669E+03</rscale>
<asrwt>0</asrwt>
<pdfrwt beam="1">  1        2 0.40543838E+00 0.70520669E+03</pdfrwt>
<pdfrwt beam="2">  1       -2 0.72580721E-02 0.70520669E+03</pdfrwt>
<totfact> 0.34895873E+02</totfact>
</mgrwt>
</event>
<event>
 4    1  0.1755570E-005  0.7817185E+03  0.7818608E-02  0.9586862E-01
         -2   -1    0    0    0  501 -0.00000000000E+00  0.00000000000E+00  0.79634305285E+02  0.79634305326E+02  0.25500000000E-02 0. -1.
          2   -1    0    0  501    0  0.00000000000E+00 -0.00000000000E+00 -0.19184062201E+04  0.19184062201E+04  0.25500000000E-02 0.  1.
   -5000001    1    1    2    0    0 -0.27947438722E+03  0.77828463773E+02 -0.71963249488E+03  0.81518962860E+03  0.25000000000E+03 0.  0.
    5000001    1    1    2    0    0  0.27947438722E+03 -0.77828463773E+02 -0.11191394199E+04  0.11828508968E+04  0.25000000000E+03 0.  0.
<mgrwt>
<rscale>  0 0.78171848E+03</rscale>
<asrwt>0</asrwt>
<pdfrwt beam="1">  1        2 0.29513938E+00 0.78171848E+03</pdfrwt>
<pdfrwt beam="2">  1       -2 0.12251433E-01 0.78171848E+03</pdfrwt>
<totfact> 0.37173743E+02</totfact>
</mgrwt>
</event>
<event>
 4    1  0.1755570E-005  0.7213676E+03  0.7818608E-02  0.9681373E-01
          2   -1    0    0  501    0  0.00000000000E+00  0.00000000000E+00  0.46330098181E+03  0.46330098182E+03  0.25500000000E-02 0.  1.
         -2   -1    0    0    0  501 -0.00000000000E+00 -0.00000000000E+00 -0.28079545492E+03  0.28079545493E+03  0.25500000000E-02 0. -1.
   -5000001    1    1    2    0    0 -0.14238883379E+03 -0.20214841673E+03  0.17412239204E+03  0.39237376286E+03  0.25000000000E+03 0.  0.
    5000001    1    1    2    0    0  0.14238883379E+03  0.20214841673E+03  0.83831348523E+01  0.35172267389E+03  0.25000000000E+03 0.  0.
<mgrwt>
<rscale>  0 0.72136762E+03</rscale>
<asrwt>0</asrwt>
<pdfrwt beam="1">  1        2 0.71277074E-01 0.72136762E+03</pdfrwt>
<pdfrwt beam="2">  1       -2 0.43199301E-01 0.72136762E+03</pdfrwt>
<totfact> 0.34453581E+02</totfact>
</mgrwt>
</event>
<event>
 4    1  0.1755570E-005  0.7878265E+03  0.7818608E-02  0.9577807E-01
          2   -1    0    0  501    0  0.00000000000E+00  0.00000000000E+00  0.12805677205E+04  0.12805677205E+04  0.25500000000E-02 0.  1.
         -2   -1    0    0    0  501 -0.00000000000E+00 -0.00000000000E+00 -0.12117099511E+03  0.12117099514E+03  0.25500000000E-02 0. -1.
   -5000001    1    1    2    0    0  0.28594566954E+03 -0.74851836298E+02  0.70922885226E+03  0.80800574763E+03  0.25000000000E+03 0.  0.
    5000001    1    1    2    0    0 -0.28594566954E+03  0.74851836298E+02  0.45016787316E+03  0.59373296805E+03  0.25000000000E+03 0.  0.
<mgrwt>
<rscale>  0 0.78782654E+03</rscale>
<asrwt>0</asrwt>
<pdfrwt beam="1">  1        2 0.19701043E+00 0.78782654E+03</pdfrwt>
<pdfrwt beam="2">  1       -2 0.18641690E-01 0.78782654E+03</pdfrwt>
<totfact> 0.41249286E+02</totfact>
</mgrwt>
</event>
<event>
 4    1  0.1755570E-005  0.7184570E+03  0.7818608E-02  0.9686179E-01
         -2   -1    0    0    0  501 -0.00000000000E+00  0.00000000000E+00  0.11297889052E+03  0.11297889055E+03  0.25500000000E-02 0. -1.
          2   -1    0    0  501    0  0.00000000000E+00 -0.00000000000E+00 -0.11422056687E+04  0.11422056687E+04  0.25500000000E-02 0.  1.
   -5000001    1    1    2    0    0 -0.17362511821E+03  0.17529715252E+03 -0.38305700096E+03  0.51971861554E+03  0.25000000000E+03 0.  0.
    5000001    1    1    2    0    0  0.17362511821E+03 -0.17529715252E+03 -0.64616977724E+03  0.73546594372E+03  0.25000000000E+03 0.  0.
<mgrwt>
<rscale>  0 0.71845704E+03</rscale>
<asrwt>0</asrwt>
<pdfrwt beam="1">  1        2 0.17572394E+00 0.71845704E+03</pdfrwt>
<pdfrwt beam="2">  1       -2 0.17381369E-01 0.71845704E+03</pdfrwt>
<totfact> 0.56363771E+02</totfact>
</mgrwt>
</event>
<event>
 4    1  0.1755570E-005  0.8239161E+03  0.7818608E-02  0.9526030E-01
          2   -1    0    0  501    0  0.00000000000E+00  0.00000000000E+00  0.62277264618E+03  0.62277264619E+03  0.25500000000E-02 0.  1.
         -2   -1    0    0    0  501 -0.00000000000E+00 -0.00000000000E+00 -0.27250622500E+03  0.27250622501E+03  0.25500000000E-02 0. -1.
   -5000001    1    1    2    0    0  0.25248103409E+03  0.33918698935E+02  0.39864916842E+03  0.53508719869E+03  0.25000000000E+03 0.  0.
    5000001    1    1    2    0    0 -0.25248103409E+03 -0.33918698935E+02 -0.48382747237E+02  0.36019167251E+03  0.25000000000E+03 0.  0.
<mgrwt>
<rscale>  0 0.82391607E+03</rscale>
<asrwt>0</asrwt>
<pdfrwt beam="1">  1        2 0.95811175E-01 0.82391607E+03</pdfrwt>
<pdfrwt beam="2">  1       -2 0.41924035E-01 0.82391607E+03</pdfrwt>
<totfact> 0.25693808E+02</totfact>
</mgrwt>
</event>
<event>
 4    1  0.1755570E-005  0.7843456E+03  0.7818608E-02  0.9582957E-01
         -2   -1    0    0    0  501 -0.00000000000E+00  0.00000000000E+00  0.11827133017E+03  0.11827133020E+03  0.25500000000E-02 0. -1.
          2   -1    0    0  501    0  0.00000000000E+00 -0.00000000000E+00 -0.13003955641E+04  0.13003955641E+04  0.25500000000E-02 0.  1.
   -5000001    1    1    2    0    0  0.27064744632E+03  0.86135011749E+02 -0.77754730548E+03  0.86472486533E+03  0.25000000000E+03 0.  0.
    5000001    1    1    2    0    0 -0.27064744632E+03 -0.86135011749E+02 -0.40457692849E+03  0.55394202902E+03  0.25000000000E+03 0.  0.
<mgrwt>
<rscale>  0 0.78434562E+03</rscale>
<asrwt>0</asrwt>
<pdfrwt beam="1">  1        2 0.20006085E+00 0.78434562E+03</pdfrwt>
<pdfrwt beam="2">  1       -2 0.18195590E-01 0.78434562E+03</pdfrwt>
<totfact> 0.41902723E+02</totfact>
</mgrwt>
</event>
<event>
 4    1  0.1755570E-005  0.8739724E+03  0.7818608E-02  0.9458715E-01
         -2   -1    0    0    0  501 -0.00000000000E+00  0.00000000000E+00  0.16651795417E+03  0.16651795419E+03  0.25500000000E-02 0. -1.
          2   -1    0    0  501    0  0.00000000000E+00 -0.00000000000E+00 -0.11467648610E+04  0.11467648610E+04  0.25500000000E-02 0.  1.
   -5000001    1    1    2    0    0  0.20006187329E+03 -0.47819368030E+02 -0.49084625210E+02  0.32744579022E+03  0.25000000000E+03 0.  0.
    5000001    1    1    2    0    0 -0.20006187329E+03  0.47819368030E+02 -0.93116228162E+03  0.98583702497E+03  0.25000000000E+03 0.  0.
<mgrwt>
<rscale>  0 0.87397240E+03</rscale>
<asrwt>0</asrwt>
<pdfrwt beam="1">  1        2 0.17642536E+00 0.87397240E+03</pdfrwt>
<pdfrwt beam="2">  1       -2 0.25618147E-01 0.87397240E+03</pdfrwt>
<totfact> 0.28040230E+02</totfact>
</mgrwt>
</event>
<event>
 4    1  0.1755570E-005  0.5863992E+03  0.7818608E-02  0.9934032E-01
          2   -1    0    0  501    0  0.00000000000E+00  0.00000000000E+00  0.41403920052E+03  0.41403920053E+03  0.25500000000E-02 0.  1.
         -2   -1    0    0    0  501 -0.00000000000E+00 -0.00000000000E+00 -0.20762770359E+03  0.20762770361E+03  0.25500000000E-02 0. -1.
   -5000001    1    1    2    0    0 -0.11050949929E+03 -0.35657611297E+02  0.20912560108E+03  0.34600192443E+03  0.25000000000E+03 0.  0.
    5000001    1    1    2    0    0  0.11050949929E+03  0.35657611297E+02 -0.27141041601E+01  0.27566497971E+03  0.25000000000E+03 0.  0.
<mgrwt>
<rscale>  0 0.58639921E+03</rscale>
<asrwt>0</asrwt>
<pdfrwt beam="1">  1        2 0.63698338E-01 0.58639921E+03</pdfrwt>
<pdfrwt beam="2">  1       -2 0.31942724E-01 0.58639921E+03</pdfrwt>
<totfact> 0.70086002E+02</totfact>
</mgrwt>
</event>
<event>
 4    1  0.1755570E-005  0.1101730E+04  0.7818608E-02  0.9203507E-01
         -2   -1    0    0    0  501 -0.00000000000E+00  0.00000000000E+00  0.55115914449E+03  0.55115914449E+03  0.25500000000E-02 0. -1.
          2   -1    0    0  501    0  0.00000000000E+00 -0.00000000000E+00 -0.55057137478E+03  0.55057137479E+03  0.25500000000E-02 0.  1.
   -5000001    1    1    2    0    0 -0.46841625828E+03 -0.11701529269E+03 -0.88284218521E+02  0.55081800351E+03  0.25000000000E+03 0.  0.
    5000001    1    1    2    0    0  0.46841625828E+03  0.11701529269E+03  0.88871988228E+02  0.55091251578E+03  0.25000000000E+03 0.  0.
<mgrwt>
<rscale>  0 0.11017304E+04</rscale>
<asrwt>0</asrwt>
<pdfrwt beam="1">  1        2 0.84703289E-01 0.11017304E+04</pdfrwt>
<pdfrwt beam="2">  1       -2 0.84793714E-01 0.11017304E+04</pdfrwt>
<totfact> 0.66174152E+01</totfact>
</mgrwt>
</event>
<event>
 4    1  0.1755570E-005  0.8956284E+03  0.7818608E-02  0.9431063E-01
         -2   -1    0    0    0  501 -0.00000000000E+00  0.00000000000E+00  0.10774123776E+03  0.10774123779E+03  0.25500000000E-02 0. -1.
          2   -1    0    0  501    0  0.00000000000E+00 -0.00000000000E+00 -0.18612888758E+04  0.18612888758E+04  0.25500000000E-02 0.  1.
   -5000001    1    1    2    0    0 -0.35618998599E+03 -0.17308455005E+02 -0.64759583087E+03  0.78041735558E+03  0.25000000000E+03 0.  0.
    5000001    1    1    2    0    0  0.35618998599E+03  0.17308455005E+02 -0.11059518072E+04  0.11886127580E+04  0.25000000000E+03 0.  0.
<mgrwt>
<rscale>  0 0.89562842E+03</rscale>
<asrwt>0</asrwt>
<pdfrwt beam="1">  1        2 0.28635211E+00 0.89562842E+03</pdfrwt>
<pdfrwt beam="2">  1       -2 0.16575576E-01 0.89562842E+03</pdfrwt>
<totfact> 0.23805460E+02</totfact>
</mgrwt>
</event>
<event>
 4    1  0.1755570E-005  0.7299716E+03  0.7818608E-02  0.9667307E-01
          2   -1    0    0  501    0  0.00000000000E+00  0.00000000000E+00  0.37182566076E+03  0.37182566077E+03  0.25500000000E-02 0.  1.
         -2   -1    0    0    0  501 -0.00000000000E+00 -0.00000000000E+00 -0.35827173050E+03  0.35827173051E+03  0.25500000000E-02 0. -1.
   -5000001    1    1    2    0    0  0.26202995988E+03 -0.45110621542E+02  0.11244823421E+02  0.36513163942E+03  0.25000000000E+03 0.  0.
    5000001    1    1    2    0    0 -0.26202995988E+03  0.45110621542E+02  0.23091068418E+01  0.36496575185E+03  0.25000000000E+03 0.  0.
<mgrwt>
<rscale>  0 0.72997157E+03</rscale>
<asrwt>0</asrwt>
<pdfrwt beam="1">  1        2 0.57203948E-01 0.72997157E+03</pdfrwt>
<pdfrwt beam="2">  1       -2 0.55118728E-01 0.72997157E+03</pdfrwt>
<totfact> 0.26966492E+02</totfact>
</mgrwt>
</event>
<event>
 4    1  0.1755570E-005  0.9686082E+03  0.7818608E-02  0.9343661E-01
          2   -1    0    0  501    0  0.00000000000E+00  0.00000000000E+00  0.29269976151E+03  0.29269976152E+03  0.25500000000E-02 0.  1.
         -2   -1    0    0    0  501 -0.00000000000E+00 -0.00000000000E+00 -0.80133459819E+03  0.80133459819E+03  0.25500000000E-02 0. -1.
   -5000001    1    1    2    0    0  0.20888156286E+03 -0.35771439202E+03 -0.27852524192E+03  0.55827180114E+03  0.25000000000E+03 0.  0.
    5000001    1    1    2    0    0 -0.20888156286E+03  0.35771439202E+03 -0.23010959476E+03  0.53576255857E+03  0.25000000000E+03 0.  0.
<mgrwt>
<rscale>  0 0.96860817E+03</rscale>
<asrwt>0</asrwt>
<pdfrwt beam="1">  1        2 0.45030733E-01 0.96860817E+03</pdfrwt>
<pdfrwt beam="2">  1       -2 0.12328225E+00 0.96860817E+03</pdfrwt>
<totfact> 0.55991474E+01</totfact>
</mgrwt>
</event>
<event>
 4    1  0.1755570E-005  0.9119726E+03  0.7818608E-02  0.9410738E-01
         -2   -1    0    0    0  501 -0.00000000000E+00  0.00000000000E+00  0.36809684908E+03  0.36809684908E+03  0.25500000000E-02 0. -1.
          2   -1    0    0  501    0  0.00000000000E+00 -0.00000000000E+00 -0.56486090130E+03  0.56486090130E+03  0.25500000000E-02 0.  1.
   -5000001    1    1    2    0    0 -0.26222920571E+03 -0.27687256869E+03 -0.97388957673E+02  0.46626943359E+03  0.25000000000E+03 0.  0.
    5000001    1    1    2    0    0  0.26222920571E+03  0.27687256869E+03 -0.99375094549E+02  0.46668831680E+03  0.25000000000E+03 0.  0.
<mgrwt>
<rscale>  0 0.91197263E+03</rscale>
<asrwt>0</asrwt>
<pdfrwt beam="1">  1        2 0.86901677E-01 0.91197263E+03</pdfrwt>
<pdfrwt beam="2">  1       -2 0.56630284E-01 0.91197263E+03</pdfrwt>
<totfact> 0.15649596E+02</totfact>
</mgrwt>
</event>
<event>
 4    1  0.1755570E-005  0.1281116E+04  0.7818608E-02  0.9044676E-01
          2   -1    0    0  501    0  0.00000000000E+00  0.00000000000E+00  0.18564104875E+04  0.18564104875E+04  0.25500000000E-02 0.  1.
         -2   -1    0    0    0  501 -0.00000000000E+00 -0.00000000000E+00 -0.22102559736E+03  0.22102559737E+03  0.25500000000E-02 0. -1.
   -5000001    1    1    2    0    0 -0.21045345459E+03  0.55084085560E+03  0.80164513810E+03  0.10260853922E+04  0.25000000000E+03 0.  0.
    5000001    1    1    2    0    0  0.21045345459E+03 -0.55084085560E+03  0.83373975205E+03  0.10513506926E+04  0.25000000000E+03 0.  0.
<mgrwt>
<rscale>  0 0.12811155E+04</rscale>
<asrwt>0</asrwt>
<pdfrwt beam="1">  1        2 0.28560162E+00 0.12811155E+04</pdfrwt>
<pdfrwt beam="2">  1       -2 0.34003937E-01 0.12811155E+04</pdfrwt>
<totfact> 0.63806957E+01</totfact>
</mgrwt>
</event>
<event>
 4    1  0.1755570E-005  0.6518059E+03  0.7818608E-02  0.9803396E-01
          2   -1    0    0  501    0  0.00000000000E+00  0.00000000000E+00  0.42943979531E+03  0.42943979532E+03  0.25500000000E-02 0.  1.
         -2   -1    0    0    0  501 -0.00000000000E+00 -0.00000000000E+00 -0.24732857992E+03  0.24732857993E+03  0.25500000000E-02 0. -1.
   -5000001    1    1    2    0    0  0.93913478360E+02 -0.18321684643E+03  0.53266995322E+02  0.32821567151E+03  0.25000000000E+03 0.  0.
    5000001    1    1    2    0    0 -0.93913478360E+02  0.18321684643E+03  0.12884422007E+03  0.34855270373E+03  0.25000000000E+03 0.  0.
<mgrwt>
<rscale>  0 0.65180591E+03</rscale>
<asrwt>0</asrwt>
<pdfrwt beam="1">  1        2 0.66067661E-01 0.65180591E+03</pdfrwt>
<pdfrwt beam="2">  1       -2 0.38050550E-01 0.65180591E+03</pdfrwt>
<totfact> 0.48206361E+02</totfact>
</mgrwt>
</event>
<event>
 4    1  0.1755570E-005  0.9042747E+03  0.7818608E-02  0.9420254E-01
         -2   -1    0    0    0  501 -0.00000000000E+00  0.00000000000E+00  0.28128238606E+03  0.28128238607E+03  0.25500000000E-02 0. -1.
          2   -1    0    0  501    0  0.00000000000E+00 -0.00000000000E+00 -0.72677205522E+03  0.72677205522E+03  0.25500000000E-02 0.  1.
   -5000001    1    1    2    0    0  0.26267168539E+03  0.28395113107E+02 -0.52212841254E+03  0.63633385572E+03  0.25000000000E+03 0.  0.
    5000001    1    1    2    0    0 -0.26267168539E+03 -0.28395113107E+02  0.76638743384E+02  0.37172058557E+03  0.25000000000E+03 0.  0.
<mgrwt>
<rscale>  0 0.90427469E+03</rscale>
<asrwt>0</asrwt>
<pdfrwt beam="1">  1        2 0.11181108E+00 0.90427469E+03</pdfrwt>
<pdfrwt beam="2">  1       -2 0.43274213E-01 0.90427469E+03</pdfrwt>
<totfact> 0.19824235E+02</totfact>
</mgrwt>
</event>
<event>
 4    1  0.1755570E-005  0.7271938E+03  0.7818608E-02  0.9671825E-01
          2   -1    0    0  501    0  0.00000000000E+00  0.00000000000E+00  0.13902973688E+04  0.13902973688E+04  0.25500000000E-02 0.  1.
         -2   -1    0    0    0  501 -0.00000000000E+00 -0.00000000000E+00 -0.95089521764E+02  0.95089521798E+02  0.25500000000E-02 0. -1.
   -5000001    1    1    2    0    0  0.21466400202E+03  0.36507794872E+02  0.95255995349E+03  0.10086049365E+04  0.25000000000E+03 0.  0.
    5000001    1    1    2    0    0 -0.21466400202E+03 -0.36507794872E+02  0.34264789355E+03  0.47678195415E+03  0.25000000000E+03 0.  0.
<mgrwt>
<rscale>  0 0.72719382E+03</rscale>
<asrwt>0</asrwt>
<pdfrwt beam="1">  1        2 0.21389190E+00 0.72719382E+03</pdfrwt>
<pdfrwt beam="2">  1       -2 0.14629158E-01 0.72719382E+03</pdfrwt>
<totfact> 0.54191403E+02</totfact>
</mgrwt>
</event>
<event>
 4    1  0.1755570E-005  0.1334373E+04  0.7818608E-02  0.9002742E-01
          2   -1    0    0  501    0  0.00000000000E+00  0.00000000000E+00  0.64605847422E+03  0.64605847422E+03  0.25500000000E-02 0.  1.
         -2   -1    0    0    0  501 -0.00000000000E+00 -0.00000000000E+00 -0.68900591569E+03  0.68900591569E+03  0.25500000000E-02 0. -1.
   -5000001    1    1    2    0    0  0.42688350009E+03  0.73833038472E+02 -0.46324201698E+03  0.68174335825E+03  0.25000000000E+03 0.  0.
    5000001    1    1    2    0    0 -0.42688350009E+03 -0.73833038472E+02  0.42029457551E+03  0.65332103167E+03  0.25000000000E+03 0.  0.
<mgrwt>
<rscale>  0 0.13343734E+04</rscale>
<asrwt>0</asrwt>
<pdfrwt beam="1">  1        2 0.99393612E-01 0.13343734E+04</pdfrwt>
<pdfrwt beam="2">  1       -2 0.10600091E+00 0.13343734E+04</pdfrwt>
<totfact> 0.31832813E+01</totfact>
</mgrwt>
</event>
<event>
 4    1  0.1755570E-005  0.8022729E+03  0.7818608E-02  0.9556733E-01
          2   -1    0    0  501    0  0.00000000000E+00  0.00000000000E+00  0.20698760943E+04  0.20698760943E+04  0.25500000000E-02 0.  1.
         -2   -1    0    0    0  501 -0.00000000000E+00 -0.00000000000E+00 -0.77739176593E+02  0.77739176634E+02  0.25500000000E-02 0. -1.
   -5000001    1    1    2    0    0 -0.25213504353E+03  0.43926715336E+02  0.51045518990E+03  0.62335073385E+03  0.25000000000E+03 0.  0.
    5000001    1    1    2    0    0  0.25213504353E+03 -0.43926715336E+02  0.14816817278E+04  0.15242645371E+04  0.25000000000E+03 0.  0.
<mgrwt>
<rscale>  0 0.80227293E+03</rscale>
<asrwt>0</asrwt>
<pdfrwt beam="1">  1        2 0.31844242E+00 0.80227293E+03</pdfrwt>
<pdfrwt beam="2">  1       -2 0.11959875E-01 0.80227293E+03</pdfrwt>
<totfact> 0.31922423E+02</totfact>
</mgrwt>
</event>
<event>
 4    1  0.1755570E-005  0.8320097E+03  0.7818608E-02  0.9514806E-01
         -2   -1    0    0    0  501 -0.00000000000E+00  0.00000000000E+00  0.13912747777E+03  0.13912747779E+03  0.25500000000E-02 0. -1.
          2   -1    0    0  501    0  0.00000000000E+00 -0.00000000000E+00 -0.12438953081E+04  0.12438953081E+04  0.25500000000E-02 0.  1.
   -5000001    1    1    2    0    0  0.32147675760E+03  0.66635771429E+02 -0.63990803435E+03  0.76142624340E+03  0.25000000000E+03 0.  0.
    5000001    1    1    2    0    0 -0.32147675760E+03 -0.66635771429E+02 -0.46485979596E+03  0.62159654247E+03  0.25000000000E+03 0.  0.
<mgrwt>
<rscale>  0 0.83200966E+03</rscale>
<asrwt>0</asrwt>
<pdfrwt beam="1">  1        2 0.19136850E+00 0.83200966E+03</pdfrwt>
<pdfrwt beam="2">  1       -2 0.21404228E-01 0.83200966E+03</pdfrwt>
<totfact> 0.33937565E+02</totfact>
</mgrwt>
</event>
<event>
 4    1  0.1755570E-005  0.1608612E+04  0.7818608E-02  0.8815275E-01
          2   -1    0    0  501    0  0.00000000000E+00  0.00000000000E+00  0.18105817969E+04  0.18105817969E+04  0.25500000000E-02 0.  1.
         -2   -1    0    0    0  501 -0.00000000000E+00 -0.00000000000E+00 -0.35729298576E+03  0.35729298577E+03  0.25500000000E-02 0. -1.
   -5000001    1    1    2    0    0 -0.51278723633E+03  0.39407942466E+03  0.12759886708E+04  0.14522039907E+04  0.25000000000E+03 0.  0.
    5000001    1    1    2    0    0  0.51278723633E+03 -0.39407942466E+03  0.17730014036E+03  0.71567079196E+03  0.25000000000E+03 0.  0.
<mgrwt>
<rscale>  0 0.16086120E+04</rscale>
<asrwt>0</asrwt>
<pdfrwt beam="1">  1        2 0.27855103E+00 0.16086120E+04</pdfrwt>
<pdfrwt beam="2">  1       -2 0.54968154E-01 0.16086120E+04</pdfrwt>
<totfact> 0.25391905E+01</totfact>
</mgrwt>
</event>
<event>
 4    1  0.1755570E-005  0.7696343E+03  0.7818608E-02  0.9605041E-01
         -2   -1    0    0    0  501 -0.00000000000E+00  0.00000000000E+00  0.64465832543E+02  0.64465832593E+02  0.25500000000E-02 0. -1.
          2   -1    0    0  501    0  0.00000000000E+00 -0.00000000000E+00 -0.22970963475E+04  0.22970963475E+04  0.25500000000E-02 0.  1.
   -5000001    1    1    2    0    0 -0.21267382354E+03 -0.47916286882E+02 -0.17149177943E+04  0.17467023693E+04  0.25000000000E+03 0.  0.
    5000001    1    1    2    0    0  0.21267382354E+03  0.47916286882E+02 -0.51771272061E+03  0.61485981073E+03  0.25000000000E+03 0.  0.
<mgrwt>
<rscale>  0 0.76963427E+03</rscale>
<asrwt>0</asrwt>
<pdfrwt beam="1">  1        2 0.35339937E+00 0.76963427E+03</pdfrwt>
<pdfrwt beam="2">  1       -2 0.99178222E-02 0.76963427E+03</pdfrwt>
<totfact> 0.32609634E+02</totfact>
</mgrwt>
</event>
<event>
 4    1  0.1755570E-005  0.5610559E+03  0.7818608E-02  0.9989668E-01
          2   -1    0    0  501    0  0.00000000000E+00  0.00000000000E+00  0.20274010046E+04  0.20274010046E+04  0.25500000000E-02 0.  1.
         -2   -1    0    0    0  501 -0.00000000000E+00 -0.00000000000E+00 -0.38816163509E+02  0.38816163592E+02  0.25500000000E-02 0. -1.
   -5000001    1    1    2    0    0  0.59999357597E+02 -0.25866161235E+02  0.13964854094E+04  0.14201902970E+04  0.25000000000E+03 0.  0.
    5000001    1    1    2    0    0 -0.59999357597E+02  0.25866161235E+02  0.59209943167E+03  0.64602687111E+03  0.25000000000E+03 0.  0.
<mgrwt>
<rscale>  0 0.56105589E+03</rscale>
<asrwt>0</asrwt>
<pdfrwt beam="1">  1        2 0.31190786E+00 0.56105589E+03</pdfrwt>
<pdfrwt beam="2">  1       -2 0.59717173E-02 0.56105589E+03</pdfrwt>
<totfact> 0.10452397E+03</totfact>
</mgrwt>
</event>
<event>
 4    1  0.1755570E-005  0.5655050E+03  0.7818608E-02  0.9979675E-01
          2   -1    0    0  501    0  0.00000000000E+00  0.00000000000E+00  0.19696436346E+04  0.19696436346E+04  0.25500000000E-02 0.  1.
         -2   -1    0    0    0  501 -0.00000000000E+00 -0.00000000000E+00 -0.40590577275E+02  0.40590577355E+02  0.25500000000E-02 0. -1.
   -5000001    1    1    2    0    0  0.40557708232E+02  0.11530524297E+03  0.78647794494E+03  0.83425882353E+03  0.25000000000E+03 0.  0.
    5000001    1    1    2    0    0 -0.40557708232E+02 -0.11530524297E+03  0.11425751124E+04  0.11759753884E+04  0.25000000000E+03 0.  0.
<mgrwt>
<rscale>  0 0.56550499E+03</rscale>
<asrwt>0</asrwt>
<pdfrwt beam="1">  1        2 0.30302218E+00 0.56550499E+03</pdfrwt>
<pdfrwt beam="2">  1       -2 0.62447024E-02 0.56550499E+03</pdfrwt>
<totfact> 0.10469317E+03</totfact>
</mgrwt>
</event>
<event>
 4    1  0.1755570E-005  0.8184748E+03  0.7818608E-02  0.9533654E-01
         -2   -1    0    0    0  501 -0.00000000000E+00  0.00000000000E+00  0.14309304304E+03  0.14309304307E+03  0.25500000000E-02 0. -1.
          2   -1    0    0  501    0  0.00000000000E+00 -0.00000000000E+00 -0.11703939835E+04  0.11703939835E+04  0.25500000000E-02 0.  1.
   -5000001    1    1    2    0    0  0.19204701484E+03  0.22528518918E+03 -0.30232974777E+03  0.49146591821E+03  0.25000000000E+03 0.  0.
    5000001    1    1    2    0    0 -0.19204701484E+03 -0.22528518918E+03 -0.72497119268E+03  0.82202110836E+03  0.25000000000E+03 0.  0.
<mgrwt>
<rscale>  0 0.81847477E+03</rscale>
<asrwt>0</asrwt>
<pdfrwt beam="1">  1        2 0.18006061E+00 0.81847477E+03</pdfrwt>
<pdfrwt beam="2">  1       -2 0.22014315E-01 0.81847477E+03</pdfrwt>
<totfact> 0.35719554E+02</totfact>
</mgrwt>
</event>
<event>
 4    1  0.1755570E-005  0.6169487E+03  0.7818608E-02  0.9870854E-01
          2   -1    0    0  501    0  0.00000000000E+00  0.00000000000E+00  0.35187418690E+03  0.35187418691E+03  0.25500000000E-02 0.  1.
         -2   -1    0    0    0  501 -0.00000000000E+00 -0.00000000000E+00 -0.27042745164E+03  0.27042745165E+03  0.25500000000E-02 0. -1.
   -5000001    1    1    2    0    0  0.88281512603E+02  0.90731187565E+02 -0.89355478209E+02  0.29412612150E+03  0.25000000000E+03 0.  0.
    5000001    1    1    2    0    0 -0.88281512603E+02 -0.90731187565E+02  0.17080221347E+03  0.32817551705E+03  0.25000000000E+03 0.  0.
<mgrwt>
<rscale>  0 0.61694875E+03</rscale>
<asrwt>0</asrwt>
<pdfrwt beam="1">  1        2 0.54134490E-01 0.61694875E+03</pdfrwt>
<pdfrwt beam="2">  1       -2 0.41604224E-01 0.61694875E+03</pdfrwt>
<totfact> 0.50689578E+02</totfact>
</mgrwt>
</event>
<event>
 4    1  0.1755570E-005  0.8303429E+03  0.7818608E-02  0.9517107E-01
          2   -1    0    0  501    0  0.00000000000E+00  0.00000000000E+00  0.67906315492E+03  0.67906315492E+03  0.25500000000E-02 0.  1.
         -2   -1    0    0    0  501 -0.00000000000E+00 -0.00000000000E+00 -0.25383106293E+03  0.25383106295E+03  0.25500000000E-02 0. -1.
   -5000001    1    1    2    0    0  0.58124509327E+02  0.26209018451E+03  0.43104341000E+03  0.56601072844E+03  0.25000000000E+03 0.  0.
    5000001    1    1    2    0    0 -0.58124509327E+02 -0.26209018451E+03 -0.58113180168E+01  0.36688348943E+03  0.25000000000E+03 0.  0.
<mgrwt>
<rscale>  0 0.83034287E+03</rscale>
<asrwt>0</asrwt>
<pdfrwt beam="1">  1        2 0.10447125E+00 0.83034287E+03</pdfrwt>
<pdfrwt beam="2">  1       -2 0.39050933E-01 0.83034287E+03</pdfrwt>
<totfact> 0.26517919E+02</totfact>
</mgrwt>
</event>
<event>
 4    1  0.1755570E-005  0.6478113E+03  0.7818608E-02  0.9810895E-01
         -2   -1    0    0    0  501 -0.00000000000E+00  0.00000000000E+00  0.12798391705E+03  0.12798391708E+03  0.25500000000E-02 0. -1.
          2   -1    0    0  501    0  0.00000000000E+00 -0.00000000000E+00 -0.81975049977E+03  0.81975049977E+03  0.25500000000E-02 0.  1.
   -5000001    1    1    2    0    0  0.17915533063E+03  0.97334635892E+02 -0.30337585251E+03  0.44284034564E+03  0.25000000000E+03 0.  0.
    5000001    1    1    2    0    0 -0.17915533063E+03 -0.97334635892E+02 -0.38839073021E+03  0.50489407121E+03  0.25000000000E+03 0.  0.
<mgrwt>
<rscale>  0 0.64781133E+03</rscale>
<asrwt>0</asrwt>
<pdfrwt beam="1">  1        2 0.12611546E+00 0.64781133E+03</pdfrwt>
<pdfrwt beam="2">  1       -2 0.19689834E-01 0.64781133E+03</pdfrwt>
<totfact> 0.73560310E+02</totfact>
</mgrwt>
</event>
<event>
 4    1  0.1755570E-005  0.5949061E+03  0.7818608E-02  0.9916031E-01
          2   -1    0    0  501    0  0.00000000000E+00  0.00000000000E+00  0.57069305447E+03  0.57069305448E+03  0.25500000000E-02 0.  1.
         -2   -1    0    0    0  501 -0.00000000000E+00 -0.00000000000E+00 -0.15503658814E+03  0.15503658816E+03  0.25500000000E-02 0. -1.
   -5000001    1    1    2    0    0 -0.12423477694E+03 -0.67251821693E+02  0.30248869125E+03  0.41708092219E+03  0.25000000000E+03 0.  0.
    5000001    1    1    2    0    0  0.12423477694E+03  0.67251821693E+02  0.11316777508E+03  0.30864872046E+03  0.25000000000E+03 0.  0.
<mgrwt>
<rscale>  0 0.59490606E+03</rscale>
<asrwt>0</asrwt>
<pdfrwt beam="1">  1        2 0.87798929E-01 0.59490606E+03</pdfrwt>
<pdfrwt beam="2">  1       -2 0.23851783E-01 0.59490606E+03</pdfrwt>
<totfact> 0.82578839E+02</totfact>
</mgrwt>
</event>
<event>
 4    1  0.1755570E-005  0.1034417E+04  0.7818608E-02  0.9271582E-01
          2   -1    0    0  501    0  0.00000000000E+00  0.00000000000E+00  0.14097021182E+04  0.14097021182E+04  0.25500000000E-02 0.  1.
         -2   -1    0    0    0  501 -0.00000000000E+00 -0.00000000000E+00 -0.18975979871E+03  0.18975979873E+03  0.25500000000E-02 0. -1.
   -5000001    1    1    2    0    0 -0.38754177129E+03 -0.23045022225E+03  0.54605193949E+03  0.75097846177E+03  0.25000000000E+03 0.  0.
    5000001    1    1    2    0    0  0.38754177129E+03  0.23045022225E+03  0.67389038003E+03  0.84848345518E+03  0.25000000000E+03 0.  0.
<mgrwt>
<rscale>  0 0.10344173E+04</rscale>
<asrwt>0</asrwt>
<pdfrwt beam="1">  1        2 0.21687725E+00 0.10344173E+04</pdfrwt>
<pdfrwt beam="2">  1       -2 0.29193816E-01 0.10344173E+04</pdfrwt>
<totfact> 0.15343452E+02</totfact>
</mgrwt>
</event>
<event>
 4    1  0.1755570E-005  0.8275571E+03  0.7818608E-02  0.9520964E-01
          2   -1    0    0  501    0  0.00000000000E+00  0.00000000000E+00  0.17307705640E+04  0.17307705640E+04  0.25500000000E-02 0.  1.
         -2   -1    0    0    0  501 -0.00000000000E+00 -0.00000000000E+00 -0.98922799972E+02  0.98922800005E+02  0.25500000000E-02 0. -1.
   -5000001    1    1    2    0    0 -0.20349410653E+03  0.14612587188E+03  0.12898638708E+04  0.13375393179E+04  0.25000000000E+03 0.  0.
    5000001    1    1    2    0    0  0.20349410653E+03 -0.14612587188E+03  0.34198389319E+03  0.49215404604E+03  0.25000000000E+03 0.  0.
<mgrwt>
<rscale>  0 0.82755706E+03</rscale>
<asrwt>0</asrwt>
<pdfrwt beam="1">  1        2 0.26627237E+00 0.82755706E+03</pdfrwt>
<pdfrwt beam="2">  1       -2 0.15218893E-01 0.82755706E+03</pdfrwt>
<totfact> 0.32617108E+02</totfact>
</mgrwt>
</event>
<event>
 4    1  0.1755570E-005  0.1032713E+04  0.7818608E-02  0.9273376E-01
         -2   -1    0    0    0  501 -0.00000000000E+00  0.00000000000E+00  0.50987457265E+03  0.50987457266E+03  0.25500000000E-02 0.  1.
          2   -1    0    0  501    0  0.00000000000E+00 -0.00000000000E+00 -0.52292108982E+03  0.52292108982E+03  0.25500000000E-02 0. -1.
   -5000001    1    1    2    0    0  0.36884467929E+03  0.10370942559E+03 -0.24596275690E+03  0.51942248717E+03  0.25000000000E+03 0.  0.
    5000001    1    1    2    0    0 -0.36884467929E+03 -0.10370942559E+03  0.23291623973E+03  0.51337317531E+03  0.25000000000E+03 0.  0.
<mgrwt>
<rscale>  0 0.10327133E+04</rscale>
<asrwt>0</asrwt>
<pdfrwt beam="1">  1        2 0.80449398E-01 0.10327133E+04</pdfrwt>
<pdfrwt beam="2">  1       -2 0.78442242E-01 0.10327133E+04</pdfrwt>
<totfact> 0.84199394E+01</totfact>
</mgrwt>
</event>
<event>
 4    1  0.1755570E-005  0.5888490E+03  0.7818608E-02  0.9928815E-01
          2   -1    0    0  501    0  0.00000000000E+00  0.00000000000E+00  0.62511281086E+03  0.62511281086E+03  0.25500000000E-02 0.  1.
         -2   -1    0    0    0  501 -0.00000000000E+00 -0.00000000000E+00 -0.13867220663E+03  0.13867220665E+03  0.25500000000E-02 0. -1.
   -5000001    1    1    2    0    0  0.95315950176E+02  0.12225239216E+03  0.25936858180E+03  0.39217705054E+03  0.25000000000E+03 0.  0.
    5000001    1    1    2    0    0 -0.95315950176E+02 -0.12225239216E+03  0.22707202243E+03  0.37160796697E+03  0.25000000000E+03 0.  0.
<mgrwt>
<rscale>  0 0.58884895E+03</rscale>
<asrwt>0</asrwt>
<pdfrwt beam="1">  1        2 0.96171202E-01 0.58884895E+03</pdfrwt>
<pdfrwt beam="2">  1       -2 0.21334186E-01 0.58884895E+03</pdfrwt>
<totfact> 0.90227354E+02</totfact>
</mgrwt>
</event>
<event>
 4    1  0.1755570E-005  0.8010985E+03  0.7818608E-02  0.9558428E-01
          2   -1    0    0  501    0  0.00000000000E+00  0.00000000000E+00  0.86375090380E+03  0.86375090380E+03  0.25500000000E-02 0.  1.
         -2   -1    0    0    0  501 -0.00000000000E+00 -0.00000000000E+00 -0.18574766917E+03  0.18574766919E+03  0.25500000000E-02 0. -1.
   -5000001    1    1    2    0    0  0.25823747231E+03 -0.11484639640E+03  0.51507593996E+03  0.63849785497E+03  0.25000000000E+03 0.  0.
    5000001    1    1    2    0    0 -0.25823747231E+03  0.11484639640E+03  0.16292729467E+03  0.41100071803E+03  0.25000000000E+03 0.  0.
<mgrwt>
<rscale>  0 0.80109854E+03</rscale>
<asrwt>0</asrwt>
<pdfrwt beam="1">  1        2 0.13288475E+00 0.80109854E+03</pdfrwt>
<pdfrwt beam="2">  1       -2 0.28576564E-01 0.80109854E+03</pdfrwt>
<totfact> 0.34993165E+02</totfact>
</mgrwt>
</event>
<event>
 4    1  0.1755570E-005  0.8263141E+03  0.7818608E-02  0.9522691E-01
          2   -1    0    0  501    0  0.00000000000E+00  0.00000000000E+00  0.32521247226E+04  0.32521247226E+04  0.25500000000E-02 0.  1.
         -2   -1    0    0    0  501 -0.00000000000E+00 -0.00000000000E+00 -0.52488371691E+02  0.52488371753E+02  0.25500000000E-02 0. -1.
   -5000001    1    1    2    0    0  0.24095562585E+03  0.15776369054E+03  0.96433523730E+03  0.10370108223E+04  0.25000000000E+03 0.  0.
    5000001    1    1    2    0    0 -0.24095562585E+03 -0.15776369054E+03  0.22353011136E+04  0.22676022720E+04  0.25000000000E+03 0.  0.
<mgrwt>
<rscale>  0 0.82631406E+03</rscale>
<asrwt>0</asrwt>
<pdfrwt beam="1">  1        2 0.50032688E+00 0.82631406E+03</pdfrwt>
<pdfrwt beam="2">  1       -2 0.80751341E-02 0.82631406E+03</pdfrwt>
<totfact> 0.12260075E+02</totfact>
</mgrwt>
</event>
<event>
 4    1  0.1755570E-005  0.1013084E+04  0.7818608E-02  0.9294309E-01
         -2   -1    0    0    0  501 -0.00000000000E+00  0.00000000000E+00  0.82277538212E+02  0.82277538252E+02  0.25500000000E-02 0.  1.
          2   -1    0    0  501    0  0.00000000000E+00 -0.00000000000E+00 -0.31185302274E+04  0.31185302274E+04  0.25500000000E-02 0. -1.
   -5000001    1    1    2    0    0 -0.21302398225E+03 -0.28688286331E+03 -0.70396387392E+03  0.82809789883E+03  0.25000000000E+03 0.  0.
    5000001    1    1    2    0    0  0.21302398225E+03  0.28688286331E+03 -0.23322888153E+04  0.23727098669E+04  0.25000000000E+03 0.  0.
<mgrwt>
<rscale>  0 0.10130844E+04</rscale>
<asrwt>0</asrwt>
<pdfrwt beam="1">  1        2 0.47977379E+00 0.10130844E+04</pdfrwt>
<pdfrwt beam="2">  1       -2 0.12658085E-01 0.10130844E+04</pdfrwt>
<totfact> 0.70060197E+01</totfact>
</mgrwt>
</event>
<event>
 4    1  0.1755570E-005  0.8461599E+03  0.7818608E-02  0.9495506E-01
          2   -1    0    0  501    0  0.00000000000E+00  0.00000000000E+00  0.11072011601E+03  0.11072011604E+03  0.25500000000E-02 0.  1.
         -2   -1    0    0    0  501 -0.00000000000E+00 -0.00000000000E+00 -0.16166588179E+04  0.16166588179E+04  0.25500000000E-02 0. -1.
   -5000001    1    1    2    0    0 -0.33077435640E+03  0.81258603702E+02 -0.70814994887E+03  0.82461565933E+03  0.25000000000E+03 0.  0.
    5000001    1    1    2    0    0  0.33077435640E+03 -0.81258603702E+02 -0.79778875300E+03  0.90276327458E+03  0.25000000000E+03 0.  0.
<mgrwt>
<rscale>  0 0.84615992E+03</rscale>
<asrwt>0</asrwt>
<pdfrwt beam="1">  1        2 0.17033865E-01 0.84615992E+03</pdfrwt>
<pdfrwt beam="2">  1       -2 0.24871672E+00 0.84615992E+03</pdfrwt>
<totfact> 0.22937884E+01</totfact>
</mgrwt>
</event>
<event>
 4    1  0.1755570E-005  0.7515570E+03  0.7818608E-02  0.9632911E-01
          2   -1    0    0  501    0  0.00000000000E+00  0.00000000000E+00  0.58744426211E+03  0.58744426211E+03  0.25500000000E-02 0.  1.
         -2   -1    0    0    0  501 -0.00000000000E+00 -0.00000000000E+00 -0.24037936011E+03  0.24037936012E+03  0.25500000000E-02 0. -1.
   -5000001    1    1    2    0    0  0.26909003612E+03 -0.73769057240E+02  0.14126544734E+03  0.40038387574E+03  0.25000000000E+03 0.  0.
    5000001    1    1    2    0    0 -0.26909003612E+03  0.73769057240E+02  0.20579945466E+03  0.42743974649E+03  0.25000000000E+03 0.  0.
<mgrwt>
<rscale>  0 0.75155699E+03</rscale>
<asrwt>0</asrwt>
<pdfrwt beam="1">  1        2 0.90376039E-01 0.75155699E+03</pdfrwt>
<pdfrwt beam="2">  1       -2 0.36981441E-01 0.75155699E+03</pdfrwt>
<totfact> 0.35292283E+02</totfact>
</mgrwt>
</event>
<event>
 4    1  0.1755570E-005  0.5597612E+03  0.7818608E-02  0.9992595E-01
         -2   -1    0    0    0  501 -0.00000000000E+00  0.00000000000E+00  0.47578329365E+02  0.47578329433E+02  0.25500000000E-02 0. -1.
          2   -1    0    0  501    0  0.00000000000E+00 -0.00000000000E+00 -0.16464039014E+04  0.16464039014E+04  0.25500000000E-02 0.  1.
   -5000001    1    1    2    0    0  0.11575962227E+03 -0.47681637958E+02 -0.83761064636E+03  0.88304327394E+03  0.25000000000E+03 0.  0.
    5000001    1    1    2    0    0 -0.11575962227E+03  0.47681637958E+02 -0.76121492566E+03  0.81093895689E+03  0.25000000000E+03 0.  0.
<mgrwt>
<rscale>  0 0.55976119E+03</rscale>
<asrwt>0</asrwt>
<pdfrwt beam="1">  1        2 0.25329286E+00 0.55976119E+03</pdfrwt>
<pdfrwt beam="2">  1       -2 0.73197443E-02 0.55976119E+03</pdfrwt>
<totfact> 0.12193103E+03</totfact>
</mgrwt>
</event>
<event>
 4    1  0.1755570E-005  0.6054573E+03  0.7818608E-02  0.9894148E-01
          2   -1    0    0  501    0  0.00000000000E+00  0.00000000000E+00  0.10130522363E+04  0.10130522363E+04  0.25500000000E-02 0. -1.
         -2   -1    0    0    0  501 -0.00000000000E+00 -0.00000000000E+00 -0.90463880477E+02  0.90463880513E+02  0.25500000000E-02 0.  1.
   -5000001    1    1    2    0    0 -0.15617050356E+03 -0.60916326986E+02  0.40238641483E+03  0.50250855904E+03  0.25000000000E+03 0.  0.
    5000001    1    1    2    0    0  0.15617050356E+03  0.60916326986E+02  0.52020194095E+03  0.60100755772E+03  0.25000000000E+03 0.  0.
<mgrwt>
<rscale>  0 0.60545730E+03</rscale>
<asrwt>0</asrwt>
<pdfrwt beam="1">  1        2 0.15585420E+00 0.60545730E+03</pdfrwt>
<pdfrwt beam="2">  1       -2 0.13917519E-01 0.60545730E+03</pdfrwt>
<totfact> 0.99024592E+02</totfact>
</mgrwt>
</event>
<event>
 4    1  0.1755570E-005  0.5980134E+03  0.7818608E-02  0.9909536E-01
          2   -1    0    0  501    0  0.00000000000E+00  0.00000000000E+00  0.31015445748E+03  0.31015445749E+03  0.25500000000E-02 0.  1.
         -2   -1    0    0    0  501 -0.00000000000E+00 -0.00000000000E+00 -0.28825963259E+03  0.28825963260E+03  0.25500000000E-02 0. -1.
   -5000001    1    1    2    0    0  0.16637214938E+02 -0.15630191815E+03  0.57860840227E+02  0.30092351748E+03  0.25000000000E+03 0.  0.
    5000001    1    1    2    0    0 -0.16637214938E+02  0.15630191815E+03 -0.35966015332E+02  0.29749057262E+03  0.25000000000E+03 0.  0.
<mgrwt>
<rscale>  0 0.59801341E+03</rscale>
<asrwt>0</asrwt>
<pdfrwt beam="1">  1        2 0.47716070E-01 0.59801341E+03</pdfrwt>
<pdfrwt beam="2">  1       -2 0.44347636E-01 0.59801341E+03</pdfrwt>
<totfact> 0.51426839E+02</totfact>
</mgrwt>
</event>
<event>
 4    1  0.1755570E-005  0.1295901E+04  0.7818608E-02  0.9032822E-01
          2   -1    0    0  501    0  0.00000000000E+00  0.00000000000E+00  0.11428142032E+04  0.11428142032E+04  0.25500000000E-02 0.  1.
         -2   -1    0    0    0  501 -0.00000000000E+00 -0.00000000000E+00 -0.36737379224E+03  0.36737379225E+03  0.25500000000E-02 0. -1.
   -5000001    1    1    2    0    0 -0.41664407006E+03 -0.31640753500E+02 -0.11045686456E+03  0.49929363838E+03  0.25000000000E+03 0.  0.
    5000001    1    1    2    0    0  0.41664407006E+03  0.31640753500E+02  0.88589727548E+03  0.10108943570E+04  0.25000000000E+03 0.  0.
<mgrwt>
<rscale>  0 0.12959012E+04</rscale>
<asrwt>0</asrwt>
<pdfrwt beam="1">  1        2 0.17581756E+00 0.12959012E+04</pdfrwt>
<pdfrwt beam="2">  1       -2 0.56519047E-01 0.12959012E+04</pdfrwt>
<totfact> 0.59053004E+01</totfact>
</mgrwt>
</event>
<event>
 4    1  0.1755570E-005  0.7718942E+03  0.7818608E-02  0.9601614E-01
          2   -1    0    0  501    0  0.00000000000E+00  0.00000000000E+00  0.28367277229E+03  0.28367277230E+03  0.25500000000E-02 0.  1.
         -2   -1    0    0    0  501 -0.00000000000E+00 -0.00000000000E+00 -0.52509501068E+03  0.52509501068E+03  0.25500000000E-02 0. -1.
   -5000001    1    1    2    0    0  0.54003440023E+02  0.28884194855E+03 -0.13165591236E+03  0.40765098067E+03  0.25000000000E+03 0.  0.
    5000001    1    1    2    0    0 -0.54003440023E+02 -0.28884194855E+03 -0.10976632602E+03  0.40111680232E+03  0.25000000000E+03 0.  0.
<mgrwt>
<rscale>  0 0.77189418E+03</rscale>
<asrwt>0</asrwt>
<pdfrwt beam="1">  1        2 0.43641965E-01 0.77189418E+03</pdfrwt>
<pdfrwt beam="2">  1       -2 0.80783847E-01 0.77189418E+03</pdfrwt>
<totfact> 0.15935338E+02</totfact>
</mgrwt>
</event>
<event>
 4    1  0.1755570E-005  0.5284063E+03  0.7818608E-02  0.1006619E+00
          2   -1    0    0  501    0  0.00000000000E+00  0.00000000000E+00  0.21012899581E+04  0.21012899581E+04  0.25500000000E-02 0.  1.
         -2   -1    0    0    0  501 -0.00000000000E+00 -0.00000000000E+00 -0.33219267974E+02  0.33219268072E+02  0.25500000000E-02 0. -1.
   -5000001    1    1    2    0    0  0.33126144536E+02  0.58517296698E+02  0.12470870796E+04  0.12736749191E+04  0.25000000000E+03 0.  0.
    5000001    1    1    2    0    0 -0.33126144536E+02 -0.58517296698E+02  0.82098361048E+03  0.86083430702E+03  0.25000000000E+03 0.  0.
<mgrwt>
<rscale>  0 0.52840634E+03</rscale>
<asrwt>0</asrwt>
<pdfrwt beam="1">  1        2 0.32327547E+00 0.52840634E+03</pdfrwt>
<pdfrwt beam="2">  1       -2 0.51106552E-02 0.52840634E+03</pdfrwt>
<totfact> 0.12172544E+03</totfact>
</mgrwt>
</event>
<event>
 4    1  0.1755570E-005  0.6519857E+03  0.7818608E-02  0.9803060E-01
         -2   -1    0    0    0  501 -0.00000000000E+00  0.00000000000E+00  0.55949120257E+02  0.55949120315E+02  0.25500000000E-02 0. -1.
          2   -1    0    0  501    0  0.00000000000E+00 -0.00000000000E+00 -0.18994280098E+04  0.18994280098E+04  0.25500000000E-02 0.  1.
   -5000001    1    1    2    0    0 -0.17081929270E+03 -0.12072494364E+03 -0.90916339849E+03  0.96583219449E+03  0.25000000000E+03 0.  0.
    5000001    1    1    2    0    0  0.17081929270E+03  0.12072494364E+03 -0.93431549101E+03  0.98954493557E+03  0.25000000000E+03 0.  0.
<mgrwt>
<rscale>  0 0.65198566E+03</rscale>
<asrwt>0</asrwt>
<pdfrwt beam="1">  1        2 0.29221964E+00 0.65198566E+03</pdfrwt>
<pdfrwt beam="2">  1       -2 0.86075584E-02 0.65198566E+03</pdfrwt>
<totfact> 0.68305353E+02</totfact>
</mgrwt>
</event>
<event>
 4    1  0.1755570E-005  0.8410848E+03  0.7818608E-02  0.9502381E-01
          2   -1    0    0  501    0  0.00000000000E+00  0.00000000000E+00  0.30348064435E+04  0.30348064435E+04  0.25500000000E-02 0.  1.
         -2   -1    0    0    0  501 -0.00000000000E+00 -0.00000000000E+00 -0.58275839501E+02  0.58275839557E+02  0.25500000000E-02 0. -1.
   -5000001    1    1    2    0    0 -0.67545122199E+02  0.16068824247E+03  0.42259926125E+03  0.52103089199E+03  0.25000000000E+03 0.  0.
    5000001    1    1    2    0    0  0.67545122199E+02 -0.16068824247E+03  0.25539313427E+04  0.25720513910E+04  0.25000000000E+03 0.  0.
<mgrwt>
<rscale>  0 0.84108476E+03</rscale>
<asrwt>0</asrwt>
<pdfrwt beam="1">  1        2 0.46689332E+00 0.84108476E+03</pdfrwt>
<pdfrwt beam="2">  1       -2 0.89655134E-02 0.84108476E+03</pdfrwt>
<totfact> 0.14182274E+02</totfact>
</mgrwt>
</event>
<event>
 4    1  0.1755570E-005  0.1465150E+04  0.7818608E-02  0.8907964E-01
         -2   -1    0    0    0  501 -0.00000000000E+00  0.00000000000E+00  0.24864156955E+03  0.24864156956E+03  0.25500000000E-02 0. -1.
          2   -1    0    0  501    0  0.00000000000E+00 -0.00000000000E+00 -0.21583934331E+04  0.21583934331E+04  0.25500000000E-02 0.  1.
   -5000001    1    1    2    0    0 -0.20532681177E+03  0.56610649346E+03 -0.15035284661E+04  0.16388207681E+04  0.25000000000E+03 0.  0.
    5000001    1    1    2    0    0  0.20532681177E+03 -0.56610649346E+03 -0.40622339749E+03  0.76821423459E+03  0.25000000000E+03 0.  0.
<mgrwt>
<rscale>  0 0.14651503E+04</rscale>
<asrwt>0</asrwt>
<pdfrwt beam="1">  1        2 0.33206052E+00 0.14651503E+04</pdfrwt>
<pdfrwt beam="2">  1       -2 0.38252551E-01 0.14651503E+04</pdfrwt>
<totfact> 0.34102272E+01</totfact>
</mgrwt>
</event>
<event>
 4    1  0.1755570E-005  0.6658321E+03  0.7818608E-02  0.9777517E-01
         -2   -1    0    0    0  501 -0.00000000000E+00  0.00000000000E+00  0.10818716498E+03  0.10818716501E+03  0.25500000000E-02 0. -1.
          2   -1    0    0  501    0  0.00000000000E+00 -0.00000000000E+00 -0.10244570858E+04  0.10244570858E+04  0.25500000000E-02 0.  1.
   -5000001    1    1    2    0    0 -0.15699889573E+03  0.10425258728E+03 -0.65071112145E+03  0.72210956149E+03  0.25000000000E+03 0.  0.
    5000001    1    1    2    0    0  0.15699889573E+03 -0.10425258728E+03 -0.26555879940E+03  0.41053468935E+03  0.25000000000E+03 0.  0.
<mgrwt>
<rscale>  0 0.66583213E+03</rscale>
<asrwt>0</asrwt>
<pdfrwt beam="1">  1        2 0.15760878E+00 0.66583213E+03</pdfrwt>
<pdfrwt beam="2">  1       -2 0.16644180E-01 0.66583213E+03</pdfrwt>
<totfact> 0.71857460E+02</totfact>
</mgrwt>
</event>
<event>
 4    1  0.1755570E-005  0.6416789E+03  0.7818608E-02  0.9822520E-01
         -2   -1    0    0    0  501 -0.00000000000E+00  0.00000000000E+00  0.42978622195E+02  0.42978622271E+02  0.25500000000E-02 0. -1.
          2   -1    0    0  501    0  0.00000000000E+00 -0.00000000000E+00 -0.23950968835E+04  0.23950968835E+04  0.25500000000E-02 0.  1.
   -5000001    1    1    2    0    0  0.80967015714E+02 -0.12871036573E+03 -0.67607927324E+03  0.73668527852E+03  0.25000000000E+03 0.  0.
    5000001    1    1    2    0    0 -0.80967015714E+02  0.12871036573E+03 -0.16760389880E+04  0.17013902272E+04  0.25000000000E+03 0.  0.
<mgrwt>
<rscale>  0 0.64167894E+03</rscale>
<asrwt>0</asrwt>
<pdfrwt beam="1">  1        2 0.36847634E+00 0.64167894E+03</pdfrwt>
<pdfrwt beam="2">  1       -2 0.66120976E-02 0.64167894E+03</pdfrwt>
<totfact> 0.55650463E+02</totfact>
</mgrwt>
</event>
<event>
 4    1  0.1755570E-005  0.8069274E+03  0.7818608E-02  0.9550044E-01
          2   -1    0    0  501    0  0.00000000000E+00  0.00000000000E+00  0.16388901893E+04  0.16388901893E+04  0.25500000000E-02 0.  1.
         -2   -1    0    0    0  501 -0.00000000000E+00 -0.00000000000E+00 -0.99325109406E+02  0.99325109439E+02  0.25500000000E-02 0. -1.
   -5000001    1    1    2    0    0  0.30101720092E+03 -0.93743179456E+02  0.70574300181E+03  0.81238680660E+03  0.25000000000E+03 0.  0.
    5000001    1    1    2    0    0 -0.30101720092E+03  0.93743179456E+02  0.83382207811E+03  0.92582849215E+03  0.25000000000E+03 0.  0.
<mgrwt>
<rscale>  0 0.80692738E+03</rscale>
<asrwt>0</asrwt>
<pdfrwt beam="1">  1        2 0.25213693E+00 0.80692738E+03</pdfrwt>
<pdfrwt beam="2">  1       -2 0.15280787E-01 0.80692738E+03</pdfrwt>
<totfact> 0.36433527E+02</totfact>
</mgrwt>
</event>
<event>
 4    1  0.1755570E-005  0.6169066E+03  0.7818608E-02  0.9870938E-01
          2   -1    0    0  501    0  0.00000000000E+00  0.00000000000E+00  0.17093437291E+04  0.17093437292E+04  0.25500000000E-02 0.  1.
         -2   -1    0    0    0  501 -0.00000000000E+00 -0.00000000000E+00 -0.55660802396E+02  0.55660802455E+02  0.25500000000E-02 0. -1.
   -5000001    1    1    2    0    0  0.14072529561E+03  0.79560876439E+02  0.59600011012E+03  0.66622043886E+03  0.25000000000E+03 0.  0.
    5000001    1    1    2    0    0 -0.14072529561E+03 -0.79560876439E+02  0.10576828166E+04  0.10987840928E+04  0.25000000000E+03 0.  0.
<mgrwt>
<rscale>  0 0.61690662E+03</rscale>
<asrwt>0</asrwt>
<pdfrwt beam="1">  1        2 0.26297588E+00 0.61690662E+03</pdfrwt>
<pdfrwt beam="2">  1       -2 0.85632030E-02 0.61690662E+03</pdfrwt>
<totfact> 0.87516051E+02</totfact>
</mgrwt>
</event>
<event>
 4    1  0.1755570E-005  0.1051908E+04  0.7818608E-02  0.9253376E-01
          2   -1    0    0  501    0  0.00000000000E+00  0.00000000000E+00  0.12370954458E+04  0.12370954459E+04  0.25500000000E-02 0.  1.
         -2   -1    0    0    0  501 -0.00000000000E+00 -0.00000000000E+00 -0.22361074341E+03  0.22361074343E+03  0.25500000000E-02 0. -1.
   -5000001    1    1    2    0    0 -0.14015520942E+03  0.37143329285E+03  0.17660673082E+03  0.50129443557E+03  0.25000000000E+03 0.  0.
    5000001    1    1    2    0    0  0.14015520942E+03 -0.37143329285E+03  0.83687797162E+03  0.95941175370E+03  0.25000000000E+03 0.  0.
<mgrwt>
<rscale>  0 0.10519084E+04</rscale>
<asrwt>0</asrwt>
<pdfrwt beam="1">  1        2 0.19032238E+00 0.10519084E+04</pdfrwt>
<pdfrwt beam="2">  1       -2 0.34401653E-01 0.10519084E+04</pdfrwt>
<totfact> 0.14174066E+02</totfact>
</mgrwt>
</event>
<event>
 4    1  0.1755570E-005  0.6164439E+03  0.7818608E-02  0.9871865E-01
          2   -1    0    0  501    0  0.00000000000E+00  0.00000000000E+00  0.34175808429E+03  0.34175808430E+03  0.25500000000E-02 0.  1.
         -2   -1    0    0    0  501 -0.00000000000E+00 -0.00000000000E+00 -0.27797667735E+03  0.27797667736E+03  0.25500000000E-02 0. -1.
   -5000001    1    1    2    0    0  0.92976120979E+02 -0.13289672225E+03 -0.47235746653E+02  0.30172390296E+03  0.25000000000E+03 0.  0.
    5000001    1    1    2    0    0 -0.92976120979E+02  0.13289672225E+03  0.11101715359E+03  0.31801085870E+03  0.25000000000E+03 0.  0.
<mgrwt>
<rscale>  0 0.61644392E+03</rscale>
<asrwt>0</asrwt>
<pdfrwt beam="1">  1        2 0.52578166E-01 0.61644392E+03</pdfrwt>
<pdfrwt beam="2">  1       -2 0.42765643E-01 0.61644392E+03</pdfrwt>
<totfact> 0.49604451E+02</totfact>
</mgrwt>
</event>
<event>
 4    1  0.1755570E-005  0.6698707E+03  0.7818608E-02  0.9770191E-01
         -2   -1    0    0    0  501 -0.00000000000E+00  0.00000000000E+00  0.19411854730E+03  0.19411854732E+03  0.25500000000E-02 0. -1.
          2   -1    0    0  501    0  0.00000000000E+00 -0.00000000000E+00 -0.57790302902E+03  0.57790302903E+03  0.25500000000E-02 0.  1.
   -5000001    1    1    2    0    0 -0.20036992567E+02  0.21583157567E+03 -0.13204080209E+03  0.35625766454E+03  0.25000000000E+03 0.  0.
    5000001    1    1    2    0    0  0.20036992567E+02 -0.21583157567E+03 -0.25174367962E+03  0.41576391180E+03  0.25000000000E+03 0.  0.
<mgrwt>
<rscale>  0 0.66987072E+03</rscale>
<asrwt>0</asrwt>
<pdfrwt beam="1">  1        2 0.88908157E-01 0.66987072E+03</pdfrwt>
<pdfrwt beam="2">  1       -2 0.29864392E-01 0.66987072E+03</pdfrwt>
<totfact> 0.53989628E+02</totfact>
</mgrwt>
</event>
<event>
 4    1  0.1755570E-005  0.6232420E+03  0.7818608E-02  0.9858326E-01
          2   -1    0    0  501    0  0.00000000000E+00  0.00000000000E+00  0.10344681307E+04  0.10344681307E+04  0.25500000000E-02 0.  1.
         -2   -1    0    0    0  501 -0.00000000000E+00 -0.00000000000E+00 -0.93872064041E+02  0.93872064076E+02  0.25500000000E-02 0. -1.
   -5000001    1    1    2    0    0  0.16830754933E+03  0.34115016274E+01  0.32695776115E+03  0.44468016268E+03  0.25000000000E+03 0.  0.
    5000001    1    1    2    0    0 -0.16830754933E+03 -0.34115016274E+01  0.61363830551E+03  0.68366003210E+03  0.25000000000E+03 0.  0.
<mgrwt>
<rscale>  0 0.62324204E+03</rscale>
<asrwt>0</asrwt>
<pdfrwt beam="1">  1        2 0.15914894E+00 0.62324204E+03</pdfrwt>
<pdfrwt beam="2">  1       -2 0.14441856E-01 0.62324204E+03</pdfrwt>
<totfact> 0.90193583E+02</totfact>
</mgrwt>
</event>
<event>
 4    1  0.1755570E-005  0.1200736E+04  0.7818608E-02  0.9112213E-01
          2   -1    0    0  501    0  0.00000000000E+00  0.00000000000E+00  0.12196729903E+04  0.12196729903E+04  0.25500000000E-02 0.  1.
         -2   -1    0    0    0  501 -0.00000000000E+00 -0.00000000000E+00 -0.29552319559E+03  0.29552319560E+03  0.25500000000E-02 0. -1.
   -5000001    1    1    2    0    0 -0.83128228662E+02  0.53945789922E+03  0.45694407300E+03  0.75446869602E+03  0.25000000000E+03 0.  0.
    5000001    1    1    2    0    0  0.83128228662E+02 -0.53945789922E+03  0.46720572167E+03  0.76072748984E+03  0.25000000000E+03 0.  0.
<mgrwt>
<rscale>  0 0.12007359E+04</rscale>
<asrwt>0</asrwt>
<pdfrwt beam="1">  1        2 0.18764200E+00 0.12007359E+04</pdfrwt>
<pdfrwt beam="2">  1       -2 0.45465106E-01 0.12007359E+04</pdfrwt>
<totfact> 0.83412587E+01</totfact>
</mgrwt>
</event>
<event>
 4    1  0.1755570E-005  0.1144711E+04  0.7818608E-02  0.9162677E-01
          2   -1    0    0  501    0  0.00000000000E+00  0.00000000000E+00  0.28687330182E+04  0.28687330182E+04  0.25500000000E-02 0.  1.
         -2   -1    0    0    0  501 -0.00000000000E+00 -0.00000000000E+00 -0.11419347586E+03  0.11419347589E+03  0.25500000000E-02 0. -1.
   -5000001    1    1    2    0    0 -0.11599146015E+03 -0.44324780817E+03  0.76521499399E+03  0.92627027660E+03  0.25000000000E+03 0.  0.
    5000001    1    1    2    0    0  0.11599146015E+03  0.44324780817E+03  0.19893245484E+04  0.20566562175E+04  0.25000000000E+03 0.  0.
<mgrwt>
<rscale>  0 0.11447106E+04</rscale>
<asrwt>0</asrwt>
<pdfrwt beam="1">  1        2 0.44134354E+00 0.11447106E+04</pdfrwt>
<pdfrwt beam="2">  1       -2 0.17568227E-01 0.11447106E+04</pdfrwt>
<totfact> 0.56504000E+01</totfact>
</mgrwt>
</event>
<event>
 4    1  0.1755570E-005  0.6485531E+03  0.7818608E-02  0.9809498E-01
          2   -1    0    0  501    0  0.00000000000E+00  0.00000000000E+00  0.14168129857E+04  0.14168129857E+04  0.25500000000E-02 0.  1.
         -2   -1    0    0    0  501 -0.00000000000E+00 -0.00000000000E+00 -0.74219584802E+02  0.74219584846E+02  0.25500000000E-02 0. -1.
   -5000001    1    1    2    0    0 -0.12799067873E+03  0.87788594216E+02  0.98456062109E+03  0.10275933377E+04  0.25000000000E+03 0.  0.
    5000001    1    1    2    0    0  0.12799067873E+03 -0.87788594216E+02  0.35803277982E+03  0.46343923285E+03  0.25000000000E+03 0.  0.
<mgrwt>
<rscale>  0 0.64855307E+03</rscale>
<asrwt>0</asrwt>
<pdfrwt beam="1">  1        2 0.21797122E+00 0.64855307E+03</pdfrwt>
<pdfrwt beam="2">  1       -2 0.11418398E-01 0.64855307E+03</pdfrwt>
<totfact> 0.79379188E+02</totfact>
</mgrwt>
</event>
<event>
 4    1  0.1755570E-005  0.9003194E+03  0.7818608E-02  0.9425182E-01
          2   -1    0    0  501    0  0.00000000000E+00  0.00000000000E+00  0.36331807276E+03  0.36331807277E+03  0.25500000000E-02 0.  1.
         -2   -1    0    0    0  501 -0.00000000000E+00 -0.00000000000E+00 -0.55775855212E+03  0.55775855213E+03  0.25500000000E-02 0. -1.
   -5000001    1    1    2    0    0  0.36460507291E+03 -0.78147066501E+02 -0.13115020787E+03  0.46770097308E+03  0.25000000000E+03 0.  0.
    5000001    1    1    2    0    0 -0.36460507291E+03  0.78147066501E+02 -0.63290271489E+02  0.45337565181E+03  0.25000000000E+03 0.  0.
<mgrwt>
<rscale>  0 0.90031941E+03</rscale>
<asrwt>0</asrwt>
<pdfrwt beam="1">  1        2 0.55895088E-01 0.90031941E+03</pdfrwt>
<pdfrwt beam="2">  1       -2 0.85809008E-01 0.90031941E+03</pdfrwt>
<totfact> 0.10488800E+02</totfact>
</mgrwt>
</event>
<event>
 4    1  0.1755570E-005  0.6009392E+03  0.7818608E-02  0.9903459E-01
          2   -1    0    0  501    0  0.00000000000E+00  0.00000000000E+00  0.48502108258E+02  0.48502108325E+02  0.25500000000E-02 0.  1.
         -2   -1    0    0    0  501 -0.00000000000E+00 -0.00000000000E+00 -0.18614030750E+04  0.18614030750E+04  0.25500000000E-02 0. -1.
   -5000001    1    1    2    0    0 -0.95886638972E+02  0.13621178796E+03 -0.88789817346E+03  0.93734255486E+03  0.25000000000E+03 0.  0.
    5000001    1    1    2    0    0  0.95886638972E+02 -0.13621178796E+03 -0.92500279325E+03  0.97256262843E+03  0.25000000000E+03 0.  0.
<mgrwt>
<rscale>  0 0.60093918E+03</rscale>
<asrwt>0</asrwt>
<pdfrwt beam="1">  1        2 0.74618642E-02 0.60093918E+03</pdfrwt>
<pdfrwt beam="2">  1       -2 0.28636965E+00 0.60093918E+03</pdfrwt>
<totfact> 0.39284347E+01</totfact>
</mgrwt>
</event>
<event>
 4    1  0.1755570E-005  0.5259526E+03  0.7818608E-02  0.1007218E+00
          2   -1    0    0  501    0  0.00000000000E+00  0.00000000000E+00  0.32829987831E+03  0.32829987832E+03  0.25500000000E-02 0.  1.
         -2   -1    0    0    0  501 -0.00000000000E+00 -0.00000000000E+00 -0.21065052835E+03  0.21065052836E+03  0.25500000000E-02 0. -1.
   -5000001    1    1    2    0    0 -0.78296575792E+02 -0.19438663967E+02  0.71304625115E+02  0.27219949486E+03  0.25000000000E+03 0.  0.
    5000001    1    1    2    0    0  0.78296575792E+02  0.19438663967E+02  0.46344724846E+02  0.26675091182E+03  0.25000000000E+03 0.  0.
<mgrwt>
<rscale>  0 0.52595263E+03</rscale>
<asrwt>0</asrwt>
<pdfrwt beam="1">  1        2 0.50507673E-01 0.52595263E+03</pdfrwt>
<pdfrwt beam="2">  1       -2 0.32407774E-01 0.52595263E+03</pdfrwt>
<totfact> 0.88323736E+02</totfact>
</mgrwt>
</event>
<event>
 4    1  0.1755570E-005  0.9017207E+03  0.7818608E-02  0.9423433E-01
         -2   -1    0    0    0  501 -0.00000000000E+00  0.00000000000E+00  0.30487075346E+03  0.30487075347E+03  0.25500000000E-02 0. -1.
          2   -1    0    0  501    0  0.00000000000E+00 -0.00000000000E+00 -0.66675817044E+03  0.66675817044E+03  0.25500000000E-02 0.  1.
   -5000001    1    1    2    0    0  0.21268649876E+03 -0.84497420185E+02  0.13942773036E+03  0.36649072671E+03  0.25000000000E+03 0.  0.
    5000001    1    1    2    0    0 -0.21268649876E+03  0.84497420185E+02 -0.50131514733E+03  0.60513819720E+03  0.25000000000E+03 0.  0.
<mgrwt>
<rscale>  0 0.90172072E+03</rscale>
<asrwt>0</asrwt>
<pdfrwt beam="1">  1        2 0.10257818E+00 0.90172072E+03</pdfrwt>
<pdfrwt beam="2">  1       -2 0.46903193E-01 0.90172072E+03</pdfrwt>
<totfact> 0.18825751E+02</totfact>
</mgrwt>
</event>
<event>
 4    1  0.1755570E-005  0.6654401E+03  0.7818608E-02  0.9778231E-01
         -2   -1    0    0    0  501 -0.00000000000E+00  0.00000000000E+00  0.11408411591E+04  0.11408411591E+04  0.25500000000E-02 0. -1.
          2   -1    0    0  501    0  0.00000000000E+00 -0.00000000000E+00 -0.97035964346E+02  0.97035964379E+02  0.25500000000E-02 0.  1.
   -5000001    1    1    2    0    0 -0.16875871237E+03  0.93783423873E+00  0.78314682434E+03  0.83922543515E+03  0.25000000000E+03 0.  0.
    5000001    1    1    2    0    0  0.16875871237E+03 -0.93783423873E+00  0.26065837039E+03  0.39865168831E+03  0.25000000000E+03 0.  0.
<mgrwt>
<rscale>  0 0.66544007E+03</rscale>
<asrwt>0</asrwt>
<pdfrwt beam="1">  1        2 0.14928609E-01 0.66544007E+03</pdfrwt>
<pdfrwt beam="2">  1       -2 0.17551403E+00 0.66544007E+03</pdfrwt>
<totfact> 0.80001505E+01</totfact>
</mgrwt>
</event>
<event>
 4    1  0.1755570E-005  0.1190766E+04  0.7818608E-02  0.9120978E-01
          2   -1    0    0  501    0  0.00000000000E+00  0.00000000000E+00  0.15761135400E+04  0.15761135400E+04  0.25500000000E-02 0.  1.
         -2   -1    0    0    0  501 -0.00000000000E+00 -0.00000000000E+00 -0.22490814809E+03  0.22490814811E+03  0.25500000000E-02 0. -1.
   -5000001    1    1    2    0    0  0.30864520689E+03  0.17959986017E+03  0.62227164286E+02  0.44032964184E+03  0.25000000000E+03 0.  0.
    5000001    1    1    2    0    0 -0.30864520689E+03 -0.17959986017E+03  0.12889782276E+04  0.13606920463E+04  0.25000000000E+03 0.  0.
<mgrwt>
<rscale>  0 0.11907658E+04</rscale>
<asrwt>0</asrwt>
<pdfrwt beam="1">  1        2 0.24247900E+00 0.11907658E+04</pdfrwt>
<pdfrwt beam="2">  1       -2 0.34601255E-01 0.11907658E+04</pdfrwt>
<totfact> 0.88877637E+01</totfact>
</mgrwt>
</event>
<event>
 4    1  0.1755570E-005  0.1881706E+04  0.7818608E-02  0.8664016E-01
         -2   -1    0    0    0  501 -0.00000000000E+00  0.00000000000E+00  0.54246595885E+03  0.54246595885E+03  0.25500000000E-02 0. -1.
          2   -1    0    0  501    0  0.00000000000E+00 -0.00000000000E+00 -0.16318158299E+04  0.16318158299E+04  0.25500000000E-02 0.  1.
   -5000001    1    1    2    0    0 -0.20305628263E+03 -0.60888297571E+03  0.19585812713E+03  0.71612201334E+03  0.25000000000E+03 0.  0.
    5000001    1    1    2    0    0  0.20305628263E+03  0.60888297571E+03 -0.12852079981E+04  0.14581597754E+04  0.25000000000E+03 0.  0.
<mgrwt>
<rscale>  0 0.18817062E+04</rscale>
<asrwt>0</asrwt>
<pdfrwt beam="1">  1        2 0.25104859E+00 0.18817062E+04</pdfrwt>
<pdfrwt beam="2">  1       -2 0.83456302E-01 0.18817062E+04</pdfrwt>
<totfact> 0.12611729E+01</totfact>
</mgrwt>
</event>
<event>
 4    1  0.1755570E-005  0.7365790E+03  0.7818608E-02  0.9656644E-01
          2   -1    0    0  501    0  0.00000000000E+00  0.00000000000E+00  0.86487146388E+03  0.86487146388E+03  0.25500000000E-02 0. -1.
         -2   -1    0    0    0  501 -0.00000000000E+00 -0.00000000000E+00 -0.15682926742E+03  0.15682926744E+03  0.25500000000E-02 0.  1.
   -5000001    1    1    2    0    0  0.19303223471E+03 -0.18460409001E+03  0.29522022526E+03  0.47010115410E+03  0.25000000000E+03 0.  0.
    5000001    1    1    2    0    0 -0.19303223471E+03  0.18460409001E+03  0.41282197120E+03  0.55159957722E+03  0.25000000000E+03 0.  0.
<mgrwt>
<rscale>  0 0.73657901E+03</rscale>
<asrwt>0</asrwt>
<pdfrwt beam="1">  1        2 0.13305715E+00 0.73657901E+03</pdfrwt>
<pdfrwt beam="2">  1       -2 0.24127580E-01 0.73657901E+03</pdfrwt>
<totfact> 0.47636895E+02</totfact>
</mgrwt>
</event>
<event>
 4    1  0.1755570E-005  0.8600802E+03  0.7818608E-02  0.9476907E-01
         -2   -1    0    0    0  501 -0.00000000000E+00  0.00000000000E+00  0.11739376924E+03  0.11739376927E+03  0.25500000000E-02 0. -1.
          2   -1    0    0  501    0  0.00000000000E+00 -0.00000000000E+00 -0.15753348887E+04  0.15753348887E+04  0.25500000000E-02 0.  1.
   -5000001    1    1    2    0    0  0.33591127974E+03 -0.44292443944E+02 -0.55698592642E+03  0.69823458141E+03  0.25000000000E+03 0.  0.
    5000001    1    1    2    0    0 -0.33591127974E+03  0.44292443944E+02 -0.90095519305E+03  0.99449407657E+03  0.25000000000E+03 0.  0.
<mgrwt>
<rscale>  0 0.86008023E+03</rscale>
<asrwt>0</asrwt>
<pdfrwt beam="1">  1        2 0.24235920E+00 0.86008023E+03</pdfrwt>
<pdfrwt beam="2">  1       -2 0.18060581E-01 0.86008023E+03</pdfrwt>
<totfact> 0.29567827E+02</totfact>
</mgrwt>
</event>
<event>
 4    1  0.1755570E-005  0.8314465E+03  0.7818608E-02  0.9515583E-01
         -2   -1    0    0    0  501 -0.00000000000E+00  0.00000000000E+00  0.71650502518E+03  0.71650502518E+03  0.25500000000E-02 0. -1.
          2   -1    0    0  501    0  0.00000000000E+00 -0.00000000000E+00 -0.24120671698E+03  0.24120671700E+03  0.25500000000E-02 0.  1.
   -5000001    1    1    2    0    0 -0.81390318835E+02  0.30527371455E+03  0.35573271990E+03  0.53745901500E+03  0.25000000000E+03 0.  0.
    5000001    1    1    2    0    0  0.81390318835E+02 -0.30527371455E+03  0.11956558830E+03  0.42025272718E+03  0.25000000000E+03 0.  0.
<mgrwt>
<rscale>  0 0.83144651E+03</rscale>
<asrwt>0</asrwt>
<pdfrwt beam="1">  1        2 0.37108726E-01 0.83144651E+03</pdfrwt>
<pdfrwt beam="2">  1       -2 0.11023154E+00 0.83144651E+03</pdfrwt>
<totfact> 0.92113191E+01</totfact>
</mgrwt>
</event>
<event>
 4    1  0.1755570E-005  0.8490599E+03  0.7818608E-02  0.9491600E-01
          2   -1    0    0  501    0  0.00000000000E+00  0.00000000000E+00  0.86188280172E+03  0.86188280172E+03  0.25500000000E-02 0. -1.
         -2   -1    0    0    0  501 -0.00000000000E+00 -0.00000000000E+00 -0.20910694270E+03  0.20910694272E+03  0.25500000000E-02 0.  1.
   -5000001    1    1    2    0    0  0.14259567589E+03  0.15819033057E+03 -0.12940446500E+02  0.32867181599E+03  0.25000000000E+03 0.  0.
    5000001    1    1    2    0    0 -0.14259567589E+03 -0.15819033057E+03  0.66571630552E+03  0.74231792845E+03  0.25000000000E+03 0.  0.
<mgrwt>
<rscale>  0 0.84905990E+03</rscale>
<asrwt>0</asrwt>
<pdfrwt beam="1">  1        2 0.13259735E+00 0.84905990E+03</pdfrwt>
<pdfrwt beam="2">  1       -2 0.32170299E-01 0.84905990E+03</pdfrwt>
<totfact> 0.28093960E+02</totfact>
</mgrwt>
</event>
<event>
 4    1  0.1755570E-005  0.6765721E+03  0.7818608E-02  0.9758158E-01
         -2   -1    0    0    0  501 -0.00000000000E+00  0.00000000000E+00  0.23238193989E+03  0.23238193990E+03  0.25500000000E-02 0. -1.
          2   -1    0    0  501    0  0.00000000000E+00 -0.00000000000E+00 -0.49245408139E+03  0.49245408140E+03  0.25500000000E-02 0.  1.
   -5000001    1    1    2    0    0  0.16888949980E+03  0.66576225562E+02  0.17565025055E+02  0.30945853851E+03  0.25000000000E+03 0.  0.
    5000001    1    1    2    0    0 -0.16888949980E+03 -0.66576225562E+02 -0.27763716656E+03  0.41537748279E+03  0.25000000000E+03 0.  0.
<mgrwt>
<rscale>  0 0.67657205E+03</rscale>
<asrwt>0</asrwt>
<pdfrwt beam="1">  1        2 0.75762166E-01 0.67657205E+03</pdfrwt>
<pdfrwt beam="2">  1       -2 0.35751068E-01 0.67657205E+03</pdfrwt>
<totfact> 0.46438071E+02</totfact>
</mgrwt>
</event>
<event>
 4    1  0.1755570E-005  0.6236733E+03  0.7818608E-02  0.9857473E-01
          2   -1    0    0  501    0  0.00000000000E+00  0.00000000000E+00  0.14285370944E+04  0.14285370944E+04  0.25500000000E-02 0.  1.
         -2   -1    0    0    0  501 -0.00000000000E+00 -0.00000000000E+00 -0.68071110847E+02  0.68071110895E+02  0.25500000000E-02 0. -1.
   -5000001    1    1    2    0    0 -0.21262154126E+02  0.16888600583E+03  0.49799184744E+03  0.58264092053E+03  0.25000000000E+03 0.  0.
    5000001    1    1    2    0    0  0.21262154126E+02 -0.16888600583E+03  0.86247413616E+03  0.91396728481E+03  0.25000000000E+03 0.  0.
<mgrwt>
<rscale>  0 0.62367333E+03</rscale>
<asrwt>0</asrwt>
<pdfrwt beam="1">  1        2 0.21977495E+00 0.62367333E+03</pdfrwt>
<pdfrwt beam="2">  1       -2 0.10472478E-01 0.62367333E+03</pdfrwt>
<totfact> 0.90171135E+02</totfact>
</mgrwt>
</event>
<event>
 4    1  0.1755570E-005  0.7854219E+03  0.7818608E-02  0.9581361E-01
          2   -1    0    0  501    0  0.00000000000E+00  0.00000000000E+00  0.10228730177E+04  0.10228730177E+04  0.25500000000E-02 0.  1.
         -2   -1    0    0    0  501 -0.00000000000E+00 -0.00000000000E+00 -0.15077326579E+03  0.15077326581E+03  0.25500000000E-02 0. -1.
   -5000001    1    1    2    0    0 -0.21167549106E+03 -0.15268948961E+03  0.66561307579E+03  0.75740435727E+03  0.25000000000E+03 0.  0.
    5000001    1    1    2    0    0  0.21167549106E+03  0.15268948961E+03  0.20648667613E+03  0.41624192625E+03  0.25000000000E+03 0.  0.
<mgrwt>
<rscale>  0 0.78542194E+03</rscale>
<asrwt>0</asrwt>
<pdfrwt beam="1">  1        2 0.15736508E+00 0.78542194E+03</pdfrwt>
<pdfrwt beam="2">  1       -2 0.23195887E-01 0.78542194E+03</pdfrwt>
<totfact> 0.40159934E+02</totfact>
</mgrwt>
</event>
<event>
 4    1  0.1755570E-005  0.7674241E+03  0.7818608E-02  0.9608404E-01
          2   -1    0    0  501    0  0.00000000000E+00  0.00000000000E+00  0.19511628364E+03  0.19511628366E+03  0.25500000000E-02 0.  1.
         -2   -1    0    0    0  501 -0.00000000000E+00 -0.00000000000E+00 -0.75460094678E+03  0.75460094679E+03  0.25500000000E-02 0. -1.
   -5000001    1    1    2    0    0 -0.34936363849E+02  0.28898854226E+03 -0.27983244530E+03  0.47491170181E+03  0.25000000000E+03 0.  0.
    5000001    1    1    2    0    0  0.34936363849E+02 -0.28898854226E+03 -0.27965221784E+03  0.47480552863E+03  0.25000000000E+03 0.  0.
<mgrwt>
<rscale>  0 0.76742409E+03</rscale>
<asrwt>0</asrwt>
<pdfrwt beam="1">  1        2 0.30017890E-01 0.76742409E+03</pdfrwt>
<pdfrwt beam="2">  1       -2 0.11609245E+00 0.76742409E+03</pdfrwt>
<totfact> 0.10334193E+02</totfact>
</mgrwt>
</event>
<event>
 4    1  0.1755570E-005  0.7328815E+03  0.7818608E-02  0.9662596E-01
          2   -1    0    0  501    0  0.00000000000E+00  0.00000000000E+00  0.44905627692E+03  0.44905627693E+03  0.25500000000E-02 0.  1.
         -2   -1    0    0    0  501 -0.00000000000E+00 -0.00000000000E+00 -0.29902450997E+03  0.29902450998E+03  0.25500000000E-02 0. -1.
   -5000001    1    1    2    0    0  0.19380863287E+03  0.15458672780E+03 -0.28678295219E+02  0.35324394857E+03  0.25000000000E+03 0.  0.
    5000001    1    1    2    0    0 -0.19380863287E+03 -0.15458672780E+03  0.17871006217E+03  0.39483683834E+03  0.25000000000E+03 0.  0.
<mgrwt>
<rscale>  0 0.73288153E+03</rscale>
<asrwt>0</asrwt>
<pdfrwt beam="1">  1        2 0.69085581E-01 0.73288153E+03</pdfrwt>
<pdfrwt beam="2">  1       -2 0.46003771E-01 0.73288153E+03</pdfrwt>
<totfact> 0.31495580E+02</totfact>
</mgrwt>
</event>
<event>
 4    1  0.1755570E-005  0.9159749E+03  0.7818608E-02  0.9405829E-01
         -2   -1    0    0    0  501 -0.00000000000E+00  0.00000000000E+00  0.19684337476E+03  0.19684337478E+03  0.25500000000E-02 0. -1.
          2   -1    0    0  501    0  0.00000000000E+00 -0.00000000000E+00 -0.10655806966E+04  0.10655806966E+04  0.25500000000E-02 0.  1.
   -5000001    1    1    2    0    0 -0.14885288726E+02  0.38099444605E+03 -0.37470291040E+03  0.59015304015E+03  0.25000000000E+03 0.  0.
    5000001    1    1    2    0    0  0.14885288726E+02 -0.38099444605E+03 -0.49403441145E+03  0.67227103123E+03  0.25000000000E+03 0.  0.
<mgrwt>
<rscale>  0 0.91597489E+03</rscale>
<asrwt>0</asrwt>
<pdfrwt beam="1">  1        2 0.16393549E+00 0.91597489E+03</pdfrwt>
<pdfrwt beam="2">  1       -2 0.30283597E-01 0.91597489E+03</pdfrwt>
<totfact> 0.23072125E+02</totfact>
</mgrwt>
</event>
<event>
 4    1  0.1755570E-005  0.6080929E+03  0.7818608E-02  0.9888757E-01
          2   -1    0    0  501    0  0.00000000000E+00  0.00000000000E+00  0.46879774090E+03  0.46879774091E+03  0.25500000000E-02 0.  1.
         -2   -1    0    0    0  501 -0.00000000000E+00 -0.00000000000E+00 -0.19719427851E+03  0.19719427852E+03  0.25500000000E-02 0. -1.
   -5000001    1    1    2    0    0 -0.34092262068E+02  0.14875106176E+03  0.22514780750E+03  0.36943293834E+03  0.25000000000E+03 0.  0.
    5000001    1    1    2    0    0  0.34092262068E+02 -0.14875106176E+03  0.46455654893E+02  0.29655908109E+03  0.25000000000E+03 0.  0.
<mgrwt>
<rscale>  0 0.60809286E+03</rscale>
<asrwt>0</asrwt>
<pdfrwt beam="1">  1        2 0.72122728E-01 0.60809286E+03</pdfrwt>
<pdfrwt beam="2">  1       -2 0.30337582E-01 0.60809286E+03</pdfrwt>
<totfact> 0.67003882E+02</totfact>
</mgrwt>
</event>
<event>
 4    1  0.1755570E-005  0.8720288E+03  0.7818608E-02  0.9461238E-01
          2   -1    0    0  501    0  0.00000000000E+00  0.00000000000E+00  0.60629215298E+03  0.60629215298E+03  0.25500000000E-02 0.  1.
         -2   -1    0    0    0  501 -0.00000000000E+00 -0.00000000000E+00 -0.31355934106E+03  0.31355934107E+03  0.25500000000E-02 0. -1.
   -5000001    1    1    2    0    0 -0.14443593440E+03  0.19800741254E+03  0.42050303156E+03  0.54716676993E+03  0.25000000000E+03 0.  0.
    5000001    1    1    2    0    0  0.14443593440E+03 -0.19800741254E+03 -0.12777021964E+03  0.37268472412E+03  0.25000000000E+03 0.  0.
<mgrwt>
<rscale>  0 0.87202883E+03</rscale>
<asrwt>0</asrwt>
<pdfrwt beam="1">  1        2 0.93275716E-01 0.87202883E+03</pdfrwt>
<pdfrwt beam="2">  1       -2 0.48239898E-01 0.87202883E+03</pdfrwt>
<totfact> 0.20022112E+02</totfact>
</mgrwt>
</event>
<event>
 4    1  0.1755570E-005  0.7724988E+03  0.7818608E-02  0.9600700E-01
          2   -1    0    0  501    0  0.00000000000E+00  0.00000000000E+00  0.11143944357E+04  0.11143944357E+04  0.25500000000E-02 0.  1.
         -2   -1    0    0    0  501 -0.00000000000E+00 -0.00000000000E+00 -0.13387413513E+03  0.13387413516E+03  0.25500000000E-02 0. -1.
   -5000001    1    1    2    0    0 -0.28629719667E+03 -0.42296373112E+02  0.40274061476E+03  0.55538731600E+03  0.25000000000E+03 0.  0.
    5000001    1    1    2    0    0  0.28629719667E+03  0.42296373112E+02  0.57777968580E+03  0.69288125485E+03  0.25000000000E+03 0.  0.
<mgrwt>
<rscale>  0 0.77249878E+03</rscale>
<asrwt>0</asrwt>
<pdfrwt beam="1">  1        2 0.17144529E+00 0.77249878E+03</pdfrwt>
<pdfrwt beam="2">  1       -2 0.20596022E-01 0.77249878E+03</pdfrwt>
<totfact> 0.43525637E+02</totfact>
</mgrwt>
</event>
<event>
 4    1  0.1755570E-005  0.1414657E+04  0.7818608E-02  0.8943277E-01
         -2   -1    0    0    0  501 -0.00000000000E+00  0.00000000000E+00  0.23497042842E+03  0.23497042843E+03  0.25500000000E-02 0. -1.
          2   -1    0    0  501    0  0.00000000000E+00 -0.00000000000E+00 -0.21292635071E+04  0.21292635071E+04  0.25500000000E-02 0.  1.
   -5000001    1    1    2    0    0 -0.23682791603E+03 -0.49304164088E+03 -0.32487801281E+03  0.68353730305E+03  0.25000000000E+03 0.  0.
    5000001    1    1    2    0    0  0.23682791603E+03  0.49304164088E+03 -0.15694150659E+04  0.16806966325E+04  0.25000000000E+03 0.  0.
<mgrwt>
<rscale>  0 0.14146575E+04</rscale>
<asrwt>0</asrwt>
<pdfrwt beam="1">  1        2 0.32757899E+00 0.14146575E+04</pdfrwt>
<pdfrwt beam="2">  1       -2 0.36149298E-01 0.14146575E+04</pdfrwt>
<totfact> 0.39653987E+01</totfact>
</mgrwt>
</event>
<event>
 4    1  0.1755570E-005  0.5978765E+03  0.7818608E-02  0.9909821E-01
          2   -1    0    0  501    0  0.00000000000E+00  0.00000000000E+00  0.70833679037E+03  0.70833679038E+03  0.25500000000E-02 0.  1.
         -2   -1    0    0    0  501 -0.00000000000E+00 -0.00000000000E+00 -0.12616042966E+03  0.12616042969E+03  0.25500000000E-02 0. -1.
   -5000001    1    1    2    0    0  0.63969009117E+02 -0.15077111296E+03  0.28224830275E+03  0.41108158197E+03  0.25000000000E+03 0.  0.
    5000001    1    1    2    0    0 -0.63969009117E+02  0.15077111296E+03  0.29992805796E+03  0.42341563810E+03  0.25000000000E+03 0.  0.
<mgrwt>
<rscale>  0 0.59787649E+03</rscale>
<asrwt>0</asrwt>
<pdfrwt beam="1">  1        2 0.10897489E+00 0.59787649E+03</pdfrwt>
<pdfrwt beam="2">  1       -2 0.19409297E-01 0.59787649E+03</pdfrwt>
<totfact> 0.91209708E+02</totfact>
</mgrwt>
</event>
<event>
 4    1  0.1755570E-005  0.8025509E+03  0.7818608E-02  0.9556332E-01
          2   -1    0    0  501    0  0.00000000000E+00  0.00000000000E+00  0.29381720105E+04  0.29381720105E+04  0.25500000000E-02 0.  1.
         -2   -1    0    0    0  501 -0.00000000000E+00 -0.00000000000E+00 -0.54803463286E+02  0.54803463345E+02  0.25500000000E-02 0. -1.
   -5000001    1    1    2    0    0  0.15931795054E+03  0.14234961437E+03  0.22992381384E+04  0.23226367859E+04  0.25000000000E+03 0.  0.
    5000001    1    1    2    0    0 -0.15931795054E+03 -0.14234961437E+03  0.58413040883E+03  0.67033868797E+03  0.25000000000E+03 0.  0.
<mgrwt>
<rscale>  0 0.80255094E+03</rscale>
<asrwt>0</asrwt>
<pdfrwt beam="1">  1        2 0.45202645E+00 0.80255094E+03</pdfrwt>
<pdfrwt beam="2">  1       -2 0.84313023E-02 0.80255094E+03</pdfrwt>
<totfact> 0.18018421E+02</totfact>
</mgrwt>
</event>
<event>
 4    1  0.1755570E-005  0.5616319E+03  0.7818608E-02  0.9988369E-01
          2   -1    0    0  501    0  0.00000000000E+00  0.00000000000E+00  0.14680260679E+04  0.14680260679E+04  0.25500000000E-02 0.  1.
         -2   -1    0    0    0  501 -0.00000000000E+00 -0.00000000000E+00 -0.53716762997E+02  0.53716763057E+02  0.25500000000E-02 0. -1.
   -5000001    1    1    2    0    0 -0.82691105150E+01  0.11613906868E+03  0.85055226130E+03  0.89414529617E+03  0.25000000000E+03 0.  0.
    5000001    1    1    2    0    0  0.82691105150E+01 -0.11613906868E+03  0.56375704361E+03  0.62759753480E+03  0.25000000000E+03 0.  0.
<mgrwt>
<rscale>  0 0.56163194E+03</rscale>
<asrwt>0</asrwt>
<pdfrwt beam="1">  1        2 0.22585018E+00 0.56163194E+03</pdfrwt>
<pdfrwt beam="2">  1       -2 0.82641170E-02 0.56163194E+03</pdfrwt>
<totfact> 0.12591222E+03</totfact>
</mgrwt>
</event>
<event>
 4    1  0.1755570E-005  0.6271073E+03  0.7818608E-02  0.9850710E-01
         -2   -1    0    0    0  501 -0.00000000000E+00  0.00000000000E+00  0.12269313484E+03  0.12269313487E+03  0.25500000000E-02 0. -1.
          2   -1    0    0  501    0  0.00000000000E+00 -0.00000000000E+00 -0.80131530740E+03  0.80131530740E+03  0.25500000000E-02 0.  1.
   -5000001    1    1    2    0    0  0.11348335637E+02  0.42506433000E+02 -0.61052236815E+03  0.66119070137E+03  0.25000000000E+03 0.  0.
    5000001    1    1    2    0    0 -0.11348335637E+02 -0.42506433000E+02 -0.68099804406E+02  0.26281774089E+03  0.25000000000E+03 0.  0.
<mgrwt>
<rscale>  0 0.62710729E+03</rscale>
<asrwt>0</asrwt>
<pdfrwt beam="1">  1        2 0.12327927E+00 0.62710729E+03</pdfrwt>
<pdfrwt beam="2">  1       -2 0.18875867E-01 0.62710729E+03</pdfrwt>
<totfact> 0.81623994E+02</totfact>
</mgrwt>
</event>
<event>
 4    1  0.1755570E-005  0.6207144E+03  0.7818608E-02  0.9863338E-01
         -2   -1    0    0    0  501 -0.00000000000E+00  0.00000000000E+00  0.66372439063E+02  0.66372439112E+02  0.25500000000E-02 0. -1.
          2   -1    0    0  501    0  0.00000000000E+00 -0.00000000000E+00 -0.14512287656E+04  0.14512287656E+04  0.25500000000E-02 0.  1.
   -5000001    1    1    2    0    0  0.10996890119E+03 -0.13372064008E+03 -0.84407717262E+03  0.89718484280E+03  0.25000000000E+03 0.  0.
    5000001    1    1    2    0    0 -0.10996890119E+03  0.13372064008E+03 -0.54077915389E+03  0.62041636188E+03  0.25000000000E+03 0.  0.
<mgrwt>
<rscale>  0 0.62071440E+03</rscale>
<asrwt>0</asrwt>
<pdfrwt beam="1">  1        2 0.22326594E+00 0.62071440E+03</pdfrwt>
<pdfrwt beam="2">  1       -2 0.10211146E-01 0.62071440E+03</pdfrwt>
<totfact> 0.91269227E+02</totfact>
</mgrwt>
</event>
<event>
 4    1  0.1755570E-005  0.6856438E+03  0.7818608E-02  0.9742103E-01
          2   -1    0    0  501    0  0.00000000000E+00  0.00000000000E+00  0.18883936546E+03  0.18883936548E+03  0.25500000000E-02 0. -1.
         -2   -1    0    0    0  501 -0.00000000000E+00 -0.00000000000E+00 -0.62236421565E+03  0.62236421566E+03  0.25500000000E-02 0.  1.
   -5000001    1    1    2    0    0  0.51197532993E+02 -0.21491212214E+03 -0.31006047612E+03  0.45546229974E+03  0.25000000000E+03 0.  0.
    5000001    1    1    2    0    0 -0.51197532993E+02  0.21491212214E+03 -0.12346437407E+03  0.35574128140E+03  0.25000000000E+03 0.  0.
<mgrwt>
<rscale>  0 0.68564382E+03</rscale>
<asrwt>0</asrwt>
<pdfrwt beam="1">  1        2 0.29052210E-01 0.68564382E+03</pdfrwt>
<pdfrwt beam="2">  1       -2 0.95748340E-01 0.68564382E+03</pdfrwt>
<totfact> 0.17067251E+02</totfact>
</mgrwt>
</event>
<event>
 4    1  0.1755570E-005  0.7150506E+03  0.7818608E-02  0.9691834E-01
         -2   -1    0    0    0  501 -0.00000000000E+00  0.00000000000E+00  0.33112545957E+02  0.33112546055E+02  0.25500000000E-02 0. -1.
          2   -1    0    0  501    0  0.00000000000E+00 -0.00000000000E+00 -0.38602993622E+04  0.38602993622E+04  0.25500000000E-02 0.  1.
   -5000001    1    1    2    0    0  0.14883348034E+03  0.13451867058E+03 -0.27758511552E+04  0.27942971054E+04  0.25000000000E+03 0.  0.
    5000001    1    1    2    0    0 -0.14883348034E+03 -0.13451867058E+03 -0.10513356611E+04  0.10991148029E+04  0.25000000000E+03 0.  0.
<mgrwt>
<rscale>  0 0.71505060E+03</rscale>
<asrwt>0</asrwt>
<pdfrwt beam="1">  1        2 0.59389185E+00 0.71505060E+03</pdfrwt>
<pdfrwt beam="2">  1       -2 0.50942409E-02 0.71505060E+03</pdfrwt>
<totfact> 0.97378245E+01</totfact>
</mgrwt>
</event>
<event>
 4    1  0.1755570E-005  0.6700353E+03  0.7818608E-02  0.9769894E-01
         -2   -1    0    0    0  501 -0.00000000000E+00  0.00000000000E+00  0.25639125949E+03  0.25639125950E+03  0.25500000000E-02 0. -1.
          2   -1    0    0  501    0  0.00000000000E+00 -0.00000000000E+00 -0.43775606135E+03  0.43775606135E+03  0.25500000000E-02 0.  1.
   -5000001    1    1    2    0    0  0.63049821868E+02 -0.18362407610E+03  0.23010871817E+02  0.31736821136E+03  0.25000000000E+03 0.  0.
    5000001    1    1    2    0    0 -0.63049821868E+02  0.18362407610E+03 -0.20437567367E+03  0.37677910949E+03  0.25000000000E+03 0.  0.
<mgrwt>
<rscale>  0 0.67003531E+03</rscale>
<asrwt>0</asrwt>
<pdfrwt beam="1">  1        2 0.67347086E-01 0.67003531E+03</pdfrwt>
<pdfrwt beam="2">  1       -2 0.39444809E-01 0.67003531E+03</pdfrwt>
<totfact> 0.43979917E+02</totfact>
</mgrwt>
</event>
<event>
 4    1  0.1755570E-005  0.6592298E+03  0.7818608E-02  0.9789613E-01
          2   -1    0    0  501    0  0.00000000000E+00  0.00000000000E+00  0.12560432401E+04  0.12560432401E+04  0.25500000000E-02 0.  1.
         -2   -1    0    0    0  501 -0.00000000000E+00 -0.00000000000E+00 -0.86498608526E+02  0.86498608564E+02  0.25500000000E-02 0. -1.
   -5000001    1    1    2    0    0 -0.17196710200E+03  0.11388439761E+01  0.32260497300E+03  0.44288593311E+03  0.25000000000E+03 0.  0.
    5000001    1    1    2    0    0  0.17196710200E+03 -0.11388439761E+01  0.84693965854E+03  0.89965591552E+03  0.25000000000E+03 0.  0.
<mgrwt>
<rscale>  0 0.65922983E+03</rscale>
<asrwt>0</asrwt>
<pdfrwt beam="1">  1        2 0.19323742E+00 0.65922983E+03</pdfrwt>
<pdfrwt beam="2">  1       -2 0.13307478E-01 0.65922983E+03</pdfrwt>
<totfact> 0.76051453E+02</totfact>
</mgrwt>
</event>
<event>
 4    1  0.1755570E-005  0.1216522E+04  0.7818608E-02  0.9098516E-01
          2   -1    0    0  501    0  0.00000000000E+00  0.00000000000E+00  0.19349727037E+04  0.19349727037E+04  0.25500000000E-02 0.  1.
         -2   -1    0    0    0  501 -0.00000000000E+00 -0.00000000000E+00 -0.19120766659E+03  0.19120766661E+03  0.25500000000E-02 0. -1.
   -5000001    1    1    2    0    0 -0.14786790316E+03 -0.50127962287E+03  0.11957380622E+04  0.13286969897E+04  0.25000000000E+03 0.  0.
    5000001    1    1    2    0    0  0.14786790316E+03  0.50127962287E+03  0.54802697490E+03  0.79748338059E+03  0.25000000000E+03 0.  0.
<mgrwt>
<rscale>  0 0.12165223E+04</rscale>
<asrwt>0</asrwt>
<pdfrwt beam="1">  1        2 0.29768811E+00 0.12165223E+04</pdfrwt>
<pdfrwt beam="2">  1       -2 0.29416563E-01 0.12165223E+04</pdfrwt>
<totfact> 0.76199327E+01</totfact>
</mgrwt>
</event>
<event>
 4    1  0.1755570E-005  0.9231551E+03  0.7818608E-02  0.9397090E-01
         -2   -1    0    0    0  501 -0.00000000000E+00  0.00000000000E+00  0.55330892260E+03  0.55330892260E+03  0.25500000000E-02 0. -1.
          2   -1    0    0  501    0  0.00000000000E+00 -0.00000000000E+00 -0.38505407344E+03  0.38505407344E+03  0.25500000000E-02 0.  1.
   -5000001    1    1    2    0    0 -0.38408069753E+03 -0.78132527142E+01  0.13956789662E+03  0.47912235066E+03  0.25000000000E+03 0.  0.
    5000001    1    1    2    0    0  0.38408069753E+03  0.78132527142E+01  0.28686952544E+02  0.45924064539E+03  0.25000000000E+03 0.  0.
<mgrwt>
<rscale>  0 0.92315514E+03</rscale>
<asrwt>0</asrwt>
<pdfrwt beam="1">  1        2 0.59239088E-01 0.92315514E+03</pdfrwt>
<pdfrwt beam="2">  1       -2 0.85124450E-01 0.92315514E+03</pdfrwt>
<totfact> 0.99966260E+01</totfact>
</mgrwt>
</event>
<event>
 4    1  0.1755570E-005  0.6347264E+03  0.7818608E-02  0.9835869E-01
          2   -1    0    0  501    0  0.00000000000E+00  0.00000000000E+00  0.13348118273E+04  0.13348118273E+04  0.25500000000E-02 0.  1.
         -2   -1    0    0    0  501 -0.00000000000E+00 -0.00000000000E+00 -0.75455889786E+02  0.75455889829E+02  0.25500000000E-02 0. -1.
   -5000001    1    1    2    0    0  0.11776384944E+03  0.13861862447E+03  0.78890840321E+03  0.84732515361E+03  0.25000000000E+03 0.  0.
    5000001    1    1    2    0    0 -0.11776384944E+03 -0.13861862447E+03  0.47044753426E+03  0.56294256348E+03  0.25000000000E+03 0.  0.
<mgrwt>
<rscale>  0 0.63472644E+03</rscale>
<asrwt>0</asrwt>
<pdfrwt beam="1">  1        2 0.20535567E+00 0.63472644E+03</pdfrwt>
<pdfrwt beam="2">  1       -2 0.11608598E-01 0.63472644E+03</pdfrwt>
<totfact> 0.85999231E+02</totfact>
</mgrwt>
</event>
<event>
 4    1  0.1755570E-005  0.7540662E+03  0.7818608E-02  0.9628993E-01
         -2   -1    0    0    0  501 -0.00000000000E+00  0.00000000000E+00  0.36873498895E+03  0.36873498896E+03  0.25500000000E-02 0. -1.
          2   -1    0    0  501    0  0.00000000000E+00 -0.00000000000E+00 -0.38551796679E+03  0.38551796680E+03  0.25500000000E-02 0.  1.
   -5000001    1    1    2    0    0 -0.51679802318E+02  0.25697260619E+03  0.96268265661E+02  0.37479768045E+03  0.25000000000E+03 0.  0.
    5000001    1    1    2    0    0  0.51679802318E+02 -0.25697260619E+03 -0.11305124350E+03  0.37945527530E+03  0.25000000000E+03 0.  0.
<mgrwt>
<rscale>  0 0.75406621E+03</rscale>
<asrwt>0</asrwt>
<pdfrwt beam="1">  1        2 0.59310456E-01 0.75406621E+03</pdfrwt>
<pdfrwt beam="2">  1       -2 0.56728460E-01 0.75406621E+03</pdfrwt>
<totfact> 0.24370819E+02</totfact>
</mgrwt>
</event>
<event>
 4    1  0.1755570E-005  0.8108854E+03  0.7818608E-02  0.9544393E-01
         -2   -1    0    0    0  501 -0.00000000000E+00  0.00000000000E+00  0.10703184915E+03  0.10703184918E+03  0.25500000000E-02 0. -1.
          2   -1    0    0  501    0  0.00000000000E+00 -0.00000000000E+00 -0.15358397967E+04  0.15358397967E+04  0.25500000000E-02 0.  1.
   -5000001    1    1    2    0    0 -0.28041924826E+03 -0.13211413217E+03 -0.56017758200E+03  0.68730489747E+03  0.25000000000E+03 0.  0.
    5000001    1    1    2    0    0  0.28041924826E+03  0.13211413217E+03 -0.86863036557E+03  0.95556674843E+03  0.25000000000E+03 0.  0.
<mgrwt>
<rscale>  0 0.81088538E+03</rscale>
<asrwt>0</asrwt>
<pdfrwt beam="1">  1        2 0.23628303E+00 0.81088538E+03</pdfrwt>
<pdfrwt beam="2">  1       -2 0.16466439E-01 0.81088538E+03</pdfrwt>
<totfact> 0.36568128E+02</totfact>
</mgrwt>
</event>
<event>
 4    1  0.1755570E-005  0.7680852E+03  0.7818608E-02  0.9607397E-01
          2   -1    0    0  501    0  0.00000000000E+00  0.00000000000E+00  0.37575987534E+04  0.37575987534E+04  0.25500000000E-02 0.  1.
         -2   -1    0    0    0  501 -0.00000000000E+00 -0.00000000000E+00 -0.39250793506E+02  0.39250793589E+02  0.25500000000E-02 0. -1.
   -5000001    1    1    2    0    0 -0.27079075049E+03  0.96599350757E+02  0.16205791834E+04  0.16647630327E+04  0.25000000000E+03 0.  0.
    5000001    1    1    2    0    0  0.27079075049E+03 -0.96599350757E+02  0.20977687764E+04  0.21320865143E+04  0.25000000000E+03 0.  0.
<mgrwt>
<rscale>  0 0.76808524E+03</rscale>
<asrwt>0</asrwt>
<pdfrwt beam="1">  1        2 0.57809242E+00 0.76808524E+03</pdfrwt>
<pdfrwt beam="2">  1       -2 0.60385804E-02 0.76808524E+03</pdfrwt>
<totfact> 0.88252328E+01</totfact>
</mgrwt>
</event>
<event>
 4    1  0.1755570E-005  0.8904141E+03  0.7818608E-02  0.9437644E-01
         -2   -1    0    0    0  501 -0.00000000000E+00  0.00000000000E+00  0.71458059719E+02  0.71458059765E+02  0.25500000000E-02 0. -1.
          2   -1    0    0  501    0  0.00000000000E+00 -0.00000000000E+00 -0.27737853416E+04  0.27737853416E+04  0.25500000000E-02 0.  1.
   -5000001    1    1    2    0    0 -0.19444634553E+03 -0.28491658668E+03 -0.17643801701E+04  0.18150824298E+04  0.25000000000E+03 0.  0.
    5000001    1    1    2    0    0  0.19444634553E+03  0.28491658668E+03 -0.93794711180E+03  0.10301609715E+04  0.25000000000E+03 0.  0.
<mgrwt>
<rscale>  0 0.89041410E+03</rscale>
<asrwt>0</asrwt>
<pdfrwt beam="1">  1        2 0.42673612E+00 0.89041410E+03</pdfrwt>
<pdfrwt beam="2">  1       -2 0.10993550E-01 0.89041410E+03</pdfrwt>
<totfact> 0.14545734E+02</totfact>
</mgrwt>
</event>
<event>
 4    1  0.1755570E-005  0.7261515E+03  0.7818608E-02  0.9673526E-01
         -2   -1    0    0    0  501 -0.00000000000E+00  0.00000000000E+00  0.75766638192E+02  0.75766638235E+02  0.25500000000E-02 0. -1.
          2   -1    0    0  501    0  0.00000000000E+00 -0.00000000000E+00 -0.17398687130E+04  0.17398687130E+04  0.25500000000E-02 0.  1.
   -5000001    1    1    2    0    0 -0.17150795719E+03  0.19862476108E+03 -0.77858624283E+03  0.85881506311E+03  0.25000000000E+03 0.  0.
    5000001    1    1    2    0    0  0.17150795719E+03 -0.19862476108E+03 -0.88551583197E+03  0.95682028812E+03  0.25000000000E+03 0.  0.
<mgrwt>
<rscale>  0 0.72615151E+03</rscale>
<asrwt>0</asrwt>
<pdfrwt beam="1">  1        2 0.26767208E+00 0.72615151E+03</pdfrwt>
<pdfrwt beam="2">  1       -2 0.11656407E-01 0.72615151E+03</pdfrwt>
<totfact> 0.50693395E+02</totfact>
</mgrwt>
</event>
<event>
 4    1  0.1755570E-005  0.6799899E+03  0.7818608E-02  0.9752078E-01
          2   -1    0    0  501    0  0.00000000000E+00  0.00000000000E+00  0.35363838550E+03  0.35363838551E+03  0.25500000000E-02 0.  1.
         -2   -1    0    0    0  501 -0.00000000000E+00 -0.00000000000E+00 -0.32687786200E+03  0.32687786201E+03  0.25500000000E-02 0. -1.
   -5000001    1    1    2    0    0 -0.43838538312E+02 -0.21826128881E+03 -0.46136368944E+02  0.33791770029E+03  0.25000000000E+03 0.  0.
    5000001    1    1    2    0    0  0.43838538312E+02  0.21826128881E+03  0.72896892448E+02  0.34259854723E+03  0.25000000000E+03 0.  0.
<mgrwt>
<rscale>  0 0.67998988E+03</rscale>
<asrwt>0</asrwt>
<pdfrwt beam="1">  1        2 0.54405906E-01 0.67998988E+03</pdfrwt>
<pdfrwt beam="2">  1       -2 0.50288902E-01 0.67998988E+03</pdfrwt>
<totfact> 0.34481872E+02</totfact>
</mgrwt>
</event>
<event>
 4    1  0.1755570E-005  0.5759696E+03  0.7818608E-02  0.9956555E-01
         -2   -1    0    0    0  501 -0.00000000000E+00  0.00000000000E+00  0.43811622619E+02  0.43811622693E+02  0.25500000000E-02 0. -1.
          2   -1    0    0  501    0  0.00000000000E+00 -0.00000000000E+00 -0.18929964311E+04  0.18929964311E+04  0.25500000000E-02 0.  1.
   -5000001    1    1    2    0    0  0.10196042542E+02 -0.12918571080E+03 -0.72164796660E+03  0.77464101031E+03  0.25000000000E+03 0.  0.
    5000001    1    1    2    0    0 -0.10196042542E+02  0.12918571080E+03 -0.11275368419E+04  0.11621670435E+04  0.25000000000E+03 0.  0.
<mgrwt>
<rscale>  0 0.57596960E+03</rscale>
<asrwt>0</asrwt>
<pdfrwt beam="1">  1        2 0.29123016E+00 0.57596960E+03</pdfrwt>
<pdfrwt beam="2">  1       -2 0.67402511E-02 0.57596960E+03</pdfrwt>
<totfact> 0.10207052E+03</totfact>
</mgrwt>
</event>
<event>
 4    1  0.1755570E-005  0.1766459E+04  0.7818608E-02  0.8724342E-01
          2   -1    0    0  501    0  0.00000000000E+00  0.00000000000E+00  0.13617510804E+04  0.13617510804E+04  0.25500000000E-02 0.  1.
         -2   -1    0    0    0  501 -0.00000000000E+00 -0.00000000000E+00 -0.57286150521E+03  0.57286150521E+03  0.25500000000E-02 0. -1.
   -5000001    1    1    2    0    0  0.65910920120E+03 -0.52251924869E+03  0.50474683871E+03  0.10122848787E+04  0.25000000000E+03 0.  0.
    5000001    1    1    2    0    0 -0.65910920120E+03  0.52251924869E+03  0.28414273651E+03  0.92232770699E+03  0.25000000000E+03 0.  0.
<mgrwt>
<rscale>  0 0.17664595E+04</rscale>
<asrwt>0</asrwt>
<pdfrwt beam="1">  1        2 0.20950016E+00 0.17664595E+04</pdfrwt>
<pdfrwt beam="2">  1       -2 0.88132540E-01 0.17664595E+04</pdfrwt>
<totfact> 0.15982874E+01</totfact>
</mgrwt>
</event>
<event>
 4    1  0.1755570E-005  0.8008229E+03  0.7818608E-02  0.9558827E-01
         -2   -1    0    0    0  501 -0.00000000000E+00  0.00000000000E+00  0.16461676107E+03  0.16461676109E+03  0.25500000000E-02 0. -1.
          2   -1    0    0  501    0  0.00000000000E+00 -0.00000000000E+00 -0.97395498602E+03  0.97395498602E+03  0.25500000000E-02 0.  1.
   -5000001    1    1    2    0    0  0.29932499305E+03 -0.23599827449E+02 -0.52924018892E+03  0.65783552723E+03  0.25000000000E+03 0.  0.
    5000001    1    1    2    0    0 -0.29932499305E+03  0.23599827449E+02 -0.28009803603E+03  0.48073621988E+03  0.25000000000E+03 0.  0.
<mgrwt>
<rscale>  0 0.80082286E+03</rscale>
<asrwt>0</asrwt>
<pdfrwt beam="1">  1        2 0.14983922E+00 0.80082286E+03</pdfrwt>
<pdfrwt beam="2">  1       -2 0.25325656E-01 0.80082286E+03</pdfrwt>
<totfact> 0.36831331E+02</totfact>
</mgrwt>
</event>
<event>
 4    1  0.1755570E-005  0.5976248E+03  0.7818608E-02  0.9910346E-01
         -2   -1    0    0    0  501 -0.00000000000E+00  0.00000000000E+00  0.21520992854E+03  0.21520992855E+03  0.25500000000E-02 0. -1.
          2   -1    0    0  501    0  0.00000000000E+00 -0.00000000000E+00 -0.41489184420E+03  0.41489184421E+03  0.25500000000E-02 0.  1.
   -5000001    1    1    2    0    0 -0.87050915979E+02 -0.92060473898E+02  0.94037354116E+01  0.28043078124E+03  0.25000000000E+03 0.  0.
    5000001    1    1    2    0    0  0.87050915979E+02  0.92060473898E+02 -0.20908565107E+03  0.34967099152E+03  0.25000000000E+03 0.  0.
<mgrwt>
<rscale>  0 0.59762478E+03</rscale>
<asrwt>0</asrwt>
<pdfrwt beam="1">  1        2 0.63829514E-01 0.59762478E+03</pdfrwt>
<pdfrwt beam="2">  1       -2 0.33109220E-01 0.59762478E+03</pdfrwt>
<totfact> 0.65371542E+02</totfact>
</mgrwt>
</event>
<event>
 4    1  0.1755570E-005  0.5979705E+03  0.7818608E-02  0.9909626E-01
          2   -1    0    0  501    0  0.00000000000E+00  0.00000000000E+00  0.14522092794E+04  0.14522092794E+04  0.25500000000E-02 0.  1.
         -2   -1    0    0    0  501 -0.00000000000E+00 -0.00000000000E+00 -0.61555987780E+02  0.61555987832E+02  0.25500000000E-02 0. -1.
   -5000001    1    1    2    0    0  0.10587558434E+03 -0.10288530983E+03  0.51459154450E+03  0.59084641321E+03  0.25000000000E+03 0.  0.
    5000001    1    1    2    0    0 -0.10587558434E+03  0.10288530983E+03  0.87606174712E+03  0.92291885402E+03  0.25000000000E+03 0.  0.
<mgrwt>
<rscale>  0 0.59797049E+03</rscale>
<asrwt>0</asrwt>
<pdfrwt beam="1">  1        2 0.22341682E+00 0.59797049E+03</pdfrwt>
<pdfrwt beam="2">  1       -2 0.94701518E-02 0.59797049E+03</pdfrwt>
<totfact> 0.10309195E+03</totfact>
</mgrwt>
</event>
<event>
 4    1  0.1755570E-005  0.8733607E+03  0.7818608E-02  0.9459508E-01
         -2   -1    0    0    0  501 -0.00000000000E+00  0.00000000000E+00  0.90391938778E+02  0.90391938814E+02  0.25500000000E-02 0. -1.
          2   -1    0    0  501    0  0.00000000000E+00 -0.00000000000E+00 -0.21095877732E+04  0.21095877732E+04  0.25500000000E-02 0.  1.
   -5000001    1    1    2    0    0 -0.62787981384E+02  0.30084226479E+03 -0.14723049796E+04  0.15246738509E+04  0.25000000000E+03 0.  0.
    5000001    1    1    2    0    0  0.62787981384E+02 -0.30084226479E+03 -0.54689085491E+03  0.67530586112E+03  0.25000000000E+03 0.  0.
<mgrwt>
<rscale>  0 0.87336070E+03</rscale>
<asrwt>0</asrwt>
<pdfrwt beam="1">  1        2 0.32455193E+00 0.87336070E+03</pdfrwt>
<pdfrwt beam="2">  1       -2 0.13906454E-01 0.87336070E+03</pdfrwt>
<totfact> 0.23476083E+02</totfact>
</mgrwt>
</event>
<event>
 4    1  0.1755570E-005  0.8388548E+03  0.7818608E-02  0.9505419E-01
          2   -1    0    0  501    0  0.00000000000E+00  0.00000000000E+00  0.70250336504E+03  0.70250336505E+03  0.25500000000E-02 0.  1.
         -2   -1    0    0    0  501 -0.00000000000E+00 -0.00000000000E+00 -0.25041780198E+03  0.25041780199E+03  0.25500000000E-02 0. -1.
   -5000001    1    1    2    0    0  0.32025920255E+02 -0.33507447280E+03  0.21366182937E+03  0.47058680306E+03  0.25000000000E+03 0.  0.
    5000001    1    1    2    0    0 -0.32025920255E+02  0.33507447280E+03  0.23842373369E+03  0.48233436398E+03  0.25000000000E+03 0.  0.
<mgrwt>
<rscale>  0 0.83885481E+03</rscale>
<asrwt>0</asrwt>
<pdfrwt beam="1">  1        2 0.10807744E+00 0.83885481E+03</pdfrwt>
<pdfrwt beam="2">  1       -2 0.38525816E-01 0.83885481E+03</pdfrwt>
<totfact> 0.26075192E+02</totfact>
</mgrwt>
</event>
<event>
 4    1  0.1755570E-005  0.6689095E+03  0.7818608E-02  0.9771930E-01
         -2   -1    0    0    0  501 -0.00000000000E+00  0.00000000000E+00  0.78879512229E+02  0.78879512270E+02  0.25500000000E-02 0.  1.
          2   -1    0    0  501    0  0.00000000000E+00 -0.00000000000E+00 -0.14181120926E+04  0.14181120926E+04  0.25500000000E-02 0. -1.
   -5000001    1    1    2    0    0  0.21895894809E+03  0.23482904253E+02 -0.60377608931E+03  0.68959410798E+03  0.25000000000E+03 0.  0.
    5000001    1    1    2    0    0 -0.21895894809E+03 -0.23482904253E+02 -0.73545649103E+03  0.80739749686E+03  0.25000000000E+03 0.  0.
<mgrwt>
<rscale>  0 0.66890953E+03</rscale>
<asrwt>0</asrwt>
<pdfrwt beam="1">  1        2 0.21817107E+00 0.66890953E+03</pdfrwt>
<pdfrwt beam="2">  1       -2 0.12135311E-01 0.66890953E+03</pdfrwt>
<totfact> 0.71613107E+02</totfact>
</mgrwt>
</event>
<event>
 4    1  0.1755570E-005  0.7093206E+03  0.7818608E-02  0.9701424E-01
          2   -1    0    0  501    0  0.00000000000E+00  0.00000000000E+00  0.47251508697E+03  0.47251508698E+03  0.25500000000E-02 0.  1.
         -2   -1    0    0    0  501 -0.00000000000E+00 -0.00000000000E+00 -0.26620084095E+03  0.26620084096E+03  0.25500000000E-02 0. -1.
   -5000001    1    1    2    0    0  0.24964515050E+03 -0.30959525148E+02  0.10487476090E+03  0.36983767904E+03  0.25000000000E+03 0.  0.
    5000001    1    1    2    0    0 -0.24964515050E+03  0.30959525148E+02  0.10143948512E+03  0.36887824890E+03  0.25000000000E+03 0.  0.
<mgrwt>
<rscale>  0 0.70932056E+03</rscale>
<asrwt>0</asrwt>
<pdfrwt beam="1">  1        2 0.72694627E-01 0.70932056E+03</pdfrwt>
<pdfrwt beam="2">  1       -2 0.40953976E-01 0.70932056E+03</pdfrwt>
<totfact> 0.37425440E+02</totfact>
</mgrwt>
</event>
<event>
 4    1  0.1755570E-005  0.8961779E+03  0.7818608E-02  0.9430372E-01
          2   -1    0    0  501    0  0.00000000000E+00  0.00000000000E+00  0.93611644366E+03  0.93611644366E+03  0.25500000000E-02 0.  1.
         -2   -1    0    0    0  501 -0.00000000000E+00 -0.00000000000E+00 -0.21448584440E+03  0.21448584441E+03  0.25500000000E-02 0. -1.
   -5000001    1    1    2    0    0  0.21211573396E+03  0.29694288496E+03  0.45264385659E+03  0.63289384768E+03  0.25000000000E+03 0.  0.
    5000001    1    1    2    0    0 -0.21211573396E+03 -0.29694288496E+03  0.26898674267E+03  0.51770844039E+03  0.25000000000E+03 0.  0.
<mgrwt>
<rscale>  0 0.89617794E+03</rscale>
<asrwt>0</asrwt>
<pdfrwt beam="1">  1        2 0.14401791E+00 0.89617794E+03</pdfrwt>
<pdfrwt beam="2">  1       -2 0.32997822E-01 0.89617794E+03</pdfrwt>
<totfact> 0.23805165E+02</totfact>
</mgrwt>
</event>
<event>
 4    1  0.1755570E-005  0.1567520E+04  0.7818608E-02  0.8840754E-01
         -2   -1    0    0    0  501 -0.00000000000E+00  0.00000000000E+00  0.68696928539E+03  0.68696928540E+03  0.25500000000E-02 0. -1.
          2   -1    0    0  501    0  0.00000000000E+00 -0.00000000000E+00 -0.89418842643E+03  0.89418842644E+03  0.25500000000E-02 0.  1.
   -5000001    1    1    2    0    0 -0.72005583894E+03 -0.15412035607E+03 -0.20216574782E+03  0.80349516797E+03  0.25000000000E+03 0.  0.
    5000001    1    1    2    0    0  0.72005583894E+03  0.15412035607E+03 -0.50533932164E+01  0.77766254387E+03  0.25000000000E+03 0.  0.
<mgrwt>
<rscale>  0 0.15675203E+04</rscale>
<asrwt>0</asrwt>
<pdfrwt beam="1">  1        2 0.13756745E+00 0.15675203E+04</pdfrwt>
<pdfrwt beam="2">  1       -2 0.10568758E+00 0.15675203E+04</pdfrwt>
<totfact> 0.20586461E+01</totfact>
</mgrwt>
</event>
<event>
 4    1  0.1755570E-005  0.1170977E+04  0.7818608E-02  0.9138647E-01
          2   -1    0    0  501    0  0.00000000000E+00  0.00000000000E+00  0.93398121590E+03  0.93398121590E+03  0.25500000000E-02 0.  1.
         -2   -1    0    0    0  501 -0.00000000000E+00 -0.00000000000E+00 -0.36702732693E+03  0.36702732694E+03  0.25500000000E-02 0. -1.
   -5000001    1    1    2    0    0 -0.12832822887E+03 -0.51286421550E+03  0.25207557976E+03  0.63682017538E+03  0.25000000000E+03 0.  0.
    5000001    1    1    2    0    0  0.12832822887E+03  0.51286421550E+03  0.31487830921E+03  0.66418836746E+03  0.25000000000E+03 0.  0.
<mgrwt>
<rscale>  0 0.11709767E+04</rscale>
<asrwt>0</asrwt>
<pdfrwt beam="1">  1        2 0.14368942E+00 0.11709767E+04</pdfrwt>
<pdfrwt beam="2">  1       -2 0.56465743E-01 0.11709767E+04</pdfrwt>
<totfact> 0.80947649E+01</totfact>
</mgrwt>
</event>
<event>
 4    1  0.1755570E-005  0.2836419E+04  0.7818608E-02  0.8292050E-01
         -2   -1    0    0    0  501 -0.00000000000E+00  0.00000000000E+00  0.89776876473E+03  0.89776876474E+03  0.25500000000E-02 0. -1.
          2   -1    0    0  501    0  0.00000000000E+00 -0.00000000000E+00 -0.22403527963E+04  0.22403527963E+04  0.25500000000E-02 0.  1.
   -5000001    1    1    2    0    0  0.11497049948E+04 -0.79137005645E+03 -0.70119712764E+03  0.15818550987E+04  0.25000000000E+03 0.  0.
    5000001    1    1    2    0    0 -0.11497049948E+04  0.79137005645E+03 -0.64138690394E+03  0.15562664624E+04  0.25000000000E+03 0.  0.
<mgrwt>
<rscale>  0 0.28364194E+04</rscale>
<asrwt>0</asrwt>
<pdfrwt beam="1">  1        2 0.34466966E+00 0.28364194E+04</pdfrwt>
<pdfrwt beam="2">  1       -2 0.13811827E+00 0.28364194E+04</pdfrwt>
<totfact> 0.15813864E+00</totfact>
</mgrwt>
</event>
<event>
 4    1  0.1755570E-005  0.8038354E+03  0.7818608E-02  0.9554482E-01
         -2   -1    0    0    0  501 -0.00000000000E+00  0.00000000000E+00  0.49468591470E+03  0.49468591471E+03  0.25500000000E-02 0. -1.
          2   -1    0    0  501    0  0.00000000000E+00 -0.00000000000E+00 -0.32654627958E+03  0.32654627959E+03  0.25500000000E-02 0.  1.
   -5000001    1    1    2    0    0  0.30324310433E+03  0.43031103862E+02  0.10187433098E+02  0.39548936777E+03  0.25000000000E+03 0.  0.
    5000001    1    1    2    0    0 -0.30324310433E+03 -0.43031103862E+02  0.15795220202E+03  0.42574282653E+03  0.25000000000E+03 0.  0.
<mgrwt>
<rscale>  0 0.80383542E+03</rscale>
<asrwt>0</asrwt>
<pdfrwt beam="1">  1        2 0.50237889E-01 0.80383542E+03</pdfrwt>
<pdfrwt beam="2">  1       -2 0.76105526E-01 0.80383542E+03</pdfrwt>
<totfact> 0.15553746E+02</totfact>
</mgrwt>
</event>
<event>
 4    1  0.1755570E-005  0.5560229E+03  0.7818608E-02  0.1000109E+00
          2   -1    0    0  501    0  0.00000000000E+00  0.00000000000E+00  0.15344934494E+03  0.15344934496E+03  0.25500000000E-02 0.  1.
         -2   -1    0    0    0  501 -0.00000000000E+00 -0.00000000000E+00 -0.50368643959E+03  0.50368643960E+03  0.25500000000E-02 0. -1.
   -5000001    1    1    2    0    0  0.85669039849E+02  0.85290554926E+02 -0.19082831536E+03  0.33694080948E+03  0.25000000000E+03 0.  0.
    5000001    1    1    2    0    0 -0.85669039849E+02 -0.85290554926E+02 -0.15940877929E+03  0.32019497508E+03  0.25000000000E+03 0.  0.
<mgrwt>
<rscale>  0 0.55602286E+03</rscale>
<asrwt>0</asrwt>
<pdfrwt beam="1">  1        2 0.23607592E-01 0.55602286E+03</pdfrwt>
<pdfrwt beam="2">  1       -2 0.77490221E-01 0.55602286E+03</pdfrwt>
<totfact> 0.35130911E+02</totfact>
</mgrwt>
</event>
<event>
 4    1  0.1755570E-005  0.2428725E+04  0.7818608E-02  0.8428827E-01
          2   -1    0    0  501    0  0.00000000000E+00  0.00000000000E+00  0.58510334735E+03  0.58510334735E+03  0.25500000000E-02 0.  1.
         -2   -1    0    0    0  501 -0.00000000000E+00 -0.00000000000E+00 -0.25203682556E+04  0.25203682556E+04  0.25500000000E-02 0. -1.
   -5000001    1    1    2    0    0  0.86201081519E+03 -0.24652745216E+03 -0.19649226726E+04  0.21742261932E+04  0.25000000000E+03 0.  0.
    5000001    1    1    2    0    0 -0.86201081519E+03  0.24652745216E+03  0.29657764305E+02  0.93124540974E+03  0.25000000000E+03 0.  0.
<mgrwt>
<rscale>  0 0.24287247E+04</rscale>
<asrwt>0</asrwt>
<pdfrwt beam="1">  1        2 0.90015901E-01 0.24287247E+04</pdfrwt>
<pdfrwt beam="2">  1       -2 0.38774896E+00 0.24287247E+04</pdfrwt>
<totfact> 0.40941681E-01</totfact>
</mgrwt>
</event>
<event>
 4    1  0.1755570E-005  0.5755788E+03  0.7818608E-02  0.9957409E-01
         -2   -1    0    0    0  501 -0.00000000000E+00  0.00000000000E+00  0.70637669818E+02  0.70637669864E+02  0.25500000000E-02 0. -1.
          2   -1    0    0  501    0  0.00000000000E+00 -0.00000000000E+00 -0.11725011386E+04  0.11725011386E+04  0.25500000000E-02 0.  1.
   -5000001    1    1    2    0    0 -0.10893192898E+03 -0.71871683769E+02 -0.42702877767E+03  0.51174728239E+03  0.25000000000E+03 0.  0.
    5000001    1    1    2    0    0  0.10893192898E+03  0.71871683769E+02 -0.67483469108E+03  0.73139152604E+03  0.25000000000E+03 0.  0.
<mgrwt>
<rscale>  0 0.57557883E+03</rscale>
<asrwt>0</asrwt>
<pdfrwt beam="1">  1        2 0.18038478E+00 0.57557883E+03</pdfrwt>
<pdfrwt beam="2">  1       -2 0.10867335E-01 0.57557883E+03</pdfrwt>
<totfact> 0.11922915E+03</totfact>
</mgrwt>
</event>
<event>
 4    1  0.1755570E-005  0.8395933E+03  0.7818608E-02  0.9504412E-01
          2   -1    0    0  501    0  0.00000000000E+00  0.00000000000E+00  0.60765300428E+03  0.60765300428E+03  0.25500000000E-02 0.  1.
         -2   -1    0    0    0  501 -0.00000000000E+00 -0.00000000000E+00 -0.29001624665E+03  0.29001624667E+03  0.25500000000E-02 0. -1.
   -5000001    1    1    2    0    0  0.25139404641E+03  0.20520240121E+03  0.60697491075E+02  0.41411493267E+03  0.25000000000E+03 0.  0.
    5000001    1    1    2    0    0 -0.25139404641E+03 -0.20520240121E+03  0.25693926655E+03  0.48355431828E+03  0.25000000000E+03 0.  0.
<mgrwt>
<rscale>  0 0.83959334E+03</rscale>
<asrwt>0</asrwt>
<pdfrwt beam="1">  1        2 0.93485076E-01 0.83959334E+03</pdfrwt>
<pdfrwt beam="2">  1       -2 0.44617885E-01 0.83959334E+03</pdfrwt>
<totfact> 0.23387521E+02</totfact>
</mgrwt>
</event>
<event>
 4    1  0.1755570E-005  0.8274820E+03  0.7818608E-02  0.9521068E-01
          2   -1    0    0  501    0  0.00000000000E+00  0.00000000000E+00  0.22842414646E+04  0.22842414646E+04  0.25500000000E-02 0.  1.
         -2   -1    0    0    0  501 -0.00000000000E+00 -0.00000000000E+00 -0.74940247989E+02  0.74940248033E+02  0.25500000000E-02 0. -1.
   -5000001    1    1    2    0    0 -0.15160961801E+03 -0.28662257056E+03  0.93493253397E+03  0.10206550922E+04  0.25000000000E+03 0.  0.
    5000001    1    1    2    0    0  0.15160961801E+03  0.28662257056E+03  0.12743686827E+04  0.13385266204E+04  0.25000000000E+03 0.  0.
<mgrwt>
<rscale>  0 0.82748202E+03</rscale>
<asrwt>0</asrwt>
<pdfrwt beam="1">  1        2 0.35142174E+00 0.82748202E+03</pdfrwt>
<pdfrwt beam="2">  1       -2 0.11529270E-01 0.82748202E+03</pdfrwt>
<totfact> 0.25776743E+02</totfact>
</mgrwt>
</event>
<event>
 4    1  0.1755570E-005  0.1002978E+04  0.7818608E-02  0.9305284E-01
         -2   -1    0    0    0  501 -0.00000000000E+00  0.00000000000E+00  0.12546826166E+03  0.12546826169E+03  0.25500000000E-02 0. -1.
          2   -1    0    0  501    0  0.00000000000E+00 -0.00000000000E+00 -0.20044219145E+04  0.20044219145E+04  0.25500000000E-02 0.  1.
   -5000001    1    1    2    0    0 -0.35271937234E+03  0.13127674767E+03 -0.14015502471E+04  0.14725785667E+04  0.25000000000E+03 0.  0.
    5000001    1    1    2    0    0  0.35271937234E+03 -0.13127674767E+03 -0.47740340578E+03  0.65731160947E+03  0.25000000000E+03 0.  0.
<mgrwt>
<rscale>  0 0.10029782E+04</rscale>
<asrwt>0</asrwt>
<pdfrwt beam="1">  1        2 0.30837258E+00 0.10029782E+04</pdfrwt>
<pdfrwt beam="2">  1       -2 0.19302811E-01 0.10029782E+04</pdfrwt>
<totfact> 0.15141838E+02</totfact>
</mgrwt>
</event>
<event>
 4    1  0.1755570E-005  0.8914993E+03  0.7818608E-02  0.9436271E-01
         -2   -1    0    0    0  501 -0.00000000000E+00  0.00000000000E+00  0.20457043690E+03  0.20457043692E+03  0.25500000000E-02 0. -1.
          2   -1    0    0  501    0  0.00000000000E+00 -0.00000000000E+00 -0.97126816475E+03  0.97126816476E+03  0.25500000000E-02 0.  1.
   -5000001    1    1    2    0    0 -0.68699147604E+02  0.35275375866E+03 -0.27269915465E+03  0.51577089495E+03  0.25000000000E+03 0.  0.
    5000001    1    1    2    0    0  0.68699147604E+02 -0.35275375866E+03 -0.49399857320E+03  0.66006770672E+03  0.25000000000E+03 0.  0.
<mgrwt>
<rscale>  0 0.89149931E+03</rscale>
<asrwt>0</asrwt>
<pdfrwt beam="1">  1        2 0.14942587E+00 0.89149931E+03</pdfrwt>
<pdfrwt beam="2">  1       -2 0.31472375E-01 0.89149931E+03</pdfrwt>
<totfact> 0.24682277E+02</totfact>
</mgrwt>
</event>
<event>
 4    1  0.1755570E-005  0.5813579E+03  0.7818608E-02  0.9944855E-01
          2   -1    0    0  501    0  0.00000000000E+00  0.00000000000E+00  0.43121926758E+03  0.43121926759E+03  0.25500000000E-02 0.  1.
         -2   -1    0    0    0  501 -0.00000000000E+00 -0.00000000000E+00 -0.19594268309E+03  0.19594268311E+03  0.25500000000E-02 0. -1.
   -5000001    1    1    2    0    0 -0.86874499403E+02  0.10368539489E+03  0.52049929534E+02  0.28897583796E+03  0.25000000000E+03 0.  0.
    5000001    1    1    2    0    0  0.86874499403E+02 -0.10368539489E+03  0.18322665495E+03  0.33818611273E+03  0.25000000000E+03 0.  0.
<mgrwt>
<rscale>  0 0.58135793E+03</rscale>
<asrwt>0</asrwt>
<pdfrwt beam="1">  1        2 0.66341425E-01 0.58135793E+03</pdfrwt>
<pdfrwt beam="2">  1       -2 0.30145029E-01 0.58135793E+03</pdfrwt>
<totfact> 0.74565927E+02</totfact>
</mgrwt>
</event>
<event>
 4    1  0.1755570E-005  0.7586407E+03  0.7818608E-02  0.9621891E-01
         -2   -1    0    0    0  501 -0.00000000000E+00  0.00000000000E+00  0.19373082962E+04  0.19373082962E+04  0.25500000000E-02 0. -1.
          2   -1    0    0  501    0  0.00000000000E+00 -0.00000000000E+00 -0.74270024547E+02  0.74270024591E+02  0.25500000000E-02 0.  1.
   -5000001    1    1    2    0    0  0.23588599515E+03  0.82846474123E+02  0.56720080983E+03  0.66837302433E+03  0.25000000000E+03 0.  0.
    5000001    1    1    2    0    0 -0.23588599515E+03 -0.82846474123E+02  0.12958374618E+04  0.13432052965E+04  0.25000000000E+03 0.  0.
<mgrwt>
<rscale>  0 0.75864072E+03</rscale>
<asrwt>0</asrwt>
<pdfrwt beam="1">  1        2 0.11426159E-01 0.75864072E+03</pdfrwt>
<pdfrwt beam="2">  1       -2 0.29804739E+00 0.75864072E+03</pdfrwt>
<totfact> 0.19065819E+01</totfact>
</mgrwt>
</event>
<event>
 4    1  0.1755570E-005  0.6171997E+03  0.7818608E-02  0.9870351E-01
         -2   -1    0    0    0  501 -0.00000000000E+00  0.00000000000E+00  0.70746012770E+02  0.70746012816E+02  0.25500000000E-02 0. -1.
          2   -1    0    0  501    0  0.00000000000E+00 -0.00000000000E+00 -0.13461376709E+04  0.13461376709E+04  0.25500000000E-02 0.  1.
   -5000001    1    1    2    0    0 -0.17054956830E+03 -0.28812445870E+02 -0.51586196155E+03  0.59877447813E+03  0.25000000000E+03 0.  0.
    5000001    1    1    2    0    0  0.17054956830E+03  0.28812445870E+02 -0.75952969657E+03  0.81810920558E+03  0.25000000000E+03 0.  0.
<mgrwt>
<rscale>  0 0.61719972E+03</rscale>
<asrwt>0</asrwt>
<pdfrwt beam="1">  1        2 0.20709808E+00 0.61719972E+03</pdfrwt>
<pdfrwt beam="2">  1       -2 0.10884003E-01 0.61719972E+03</pdfrwt>
<totfact> 0.94245172E+02</totfact>
</mgrwt>
</event>
<event>
 4    1  0.1755570E-005  0.1550754E+04  0.7818608E-02  0.8851387E-01
         -2   -1    0    0    0  501 -0.00000000000E+00  0.00000000000E+00  0.11773711383E+04  0.11773711383E+04  0.25500000000E-02 0. -1.
          2   -1    0    0  501    0  0.00000000000E+00 -0.00000000000E+00 -0.51063694669E+03  0.51063694669E+03  0.25500000000E-02 0.  1.
   -5000001    1    1    2    0    0  0.42986232356E+03  0.45225103069E+03  0.75409572064E+03  0.10101846207E+04  0.25000000000E+03 0.  0.
    5000001    1    1    2    0    0 -0.42986232356E+03 -0.45225103069E+03 -0.87361529057E+02  0.67782346428E+03  0.25000000000E+03 0.  0.
<mgrwt>
<rscale>  0 0.15507536E+04</rscale>
<asrwt>0</asrwt>
<pdfrwt beam="1">  1        2 0.78559531E-01 0.15507536E+04</pdfrwt>
<pdfrwt beam="2">  1       -2 0.18113402E+00 0.15507536E+04</pdfrwt>
<totfact> 0.10288411E+01</totfact>
</mgrwt>
</event>
<event>
 4    1  0.1755570E-005  0.7708250E+03  0.7818608E-02  0.9603234E-01
         -2   -1    0    0    0  501 -0.00000000000E+00  0.00000000000E+00  0.36135357276E+03  0.36135357277E+03  0.25500000000E-02 0. -1.
          2   -1    0    0  501    0  0.00000000000E+00 -0.00000000000E+00 -0.41107332418E+03  0.41107332419E+03  0.25500000000E-02 0.  1.
   -5000001    1    1    2    0    0  0.19304113912E+03  0.14409070475E+03  0.14286716956E+03  0.37541715561E+03  0.25000000000E+03 0.  0.
    5000001    1    1    2    0    0 -0.19304113912E+03 -0.14409070475E+03 -0.19258692098E+03  0.39700974134E+03  0.25000000000E+03 0.  0.
<mgrwt>
<rscale>  0 0.77082505E+03</rscale>
<asrwt>0</asrwt>
<pdfrwt beam="1">  1        2 0.63242050E-01 0.77082505E+03</pdfrwt>
<pdfrwt beam="2">  1       -2 0.55592857E-01 0.77082505E+03</pdfrwt>
<totfact> 0.23634134E+02</totfact>
</mgrwt>
</event>
<event>
 4    1  0.1755570E-005  0.7125528E+03  0.7818608E-02  0.9696003E-01
         -2   -1    0    0    0  501 -0.00000000000E+00  0.00000000000E+00  0.12172277540E+03  0.12172277543E+03  0.25500000000E-02 0. -1.
          2   -1    0    0  501    0  0.00000000000E+00 -0.00000000000E+00 -0.10428031201E+04  0.10428031201E+04  0.25500000000E-02 0.  1.
   -5000001    1    1    2    0    0  0.22127903319E+03  0.44573458645E+02 -0.27078038778E+03  0.43217267631E+03  0.25000000000E+03 0.  0.
    5000001    1    1    2    0    0 -0.22127903319E+03 -0.44573458645E+02 -0.65029995691E+03  0.73235321922E+03  0.25000000000E+03 0.  0.
<mgrwt>
<rscale>  0 0.71255285E+03</rscale>
<asrwt>0</asrwt>
<pdfrwt beam="1">  1        2 0.16043124E+00 0.71255285E+03</pdfrwt>
<pdfrwt beam="2">  1       -2 0.18726582E-01 0.71255285E+03</pdfrwt>
<totfact> 0.57036923E+02</totfact>
</mgrwt>
</event>
<event>
 4    1  0.1755570E-005  0.8373459E+03  0.7818608E-02  0.9507480E-01
          2   -1    0    0  501    0  0.00000000000E+00  0.00000000000E+00  0.20539157914E+03  0.20539157915E+03  0.25500000000E-02 0.  1.
         -2   -1    0    0    0  501 -0.00000000000E+00 -0.00000000000E+00 -0.85342864157E+03  0.85342864157E+03  0.25500000000E-02 0. -1.
   -5000001    1    1    2    0    0  0.30308224784E+03 -0.14457518906E+03 -0.33049370373E+03  0.53337315498E+03  0.25000000000E+03 0.  0.
    5000001    1    1    2    0    0 -0.30308224784E+03  0.14457518906E+03 -0.31754335871E+03  0.52544706575E+03  0.25000000000E+03 0.  0.
<mgrwt>
<rscale>  0 0.83734594E+03</rscale>
<asrwt>0</asrwt>
<pdfrwt beam="1">  1        2 0.31598705E-01 0.83734594E+03</pdfrwt>
<pdfrwt beam="2">  1       -2 0.13129671E+00 0.83734594E+03</pdfrwt>
<totfact> 0.71485819E+01</totfact>
</mgrwt>
</event>
<event>
 4    1  0.1755570E-005  0.7982880E+03  0.7818608E-02  0.9562498E-01
         -2   -1    0    0    0  501 -0.00000000000E+00  0.00000000000E+00  0.22284483614E+03  0.22284483616E+03  0.25500000000E-02 0. -1.
          2   -1    0    0  501    0  0.00000000000E+00 -0.00000000000E+00 -0.71491871324E+03  0.71491871324E+03  0.25500000000E-02 0.  1.
   -5000001    1    1    2    0    0  0.14650495556E+02  0.19122866754E+03  0.41787989944E+02  0.31785102865E+03  0.25000000000E+03 0.  0.
    5000001    1    1    2    0    0 -0.14650495556E+02 -0.19122866754E+03 -0.53386186704E+03  0.61991252075E+03  0.25000000000E+03 0.  0.
<mgrwt>
<rscale>  0 0.79828803E+03</rscale>
<asrwt>0</asrwt>
<pdfrwt beam="1">  1        2 0.10998749E+00 0.79828803E+03</pdfrwt>
<pdfrwt beam="2">  1       -2 0.34283821E-01 0.79828803E+03</pdfrwt>
<totfact> 0.31950157E+02</totfact>
</mgrwt>
</event>
<event>
 4    1  0.1755570E-005  0.6707354E+03  0.7818608E-02  0.9768630E-01
          2   -1    0    0  501    0  0.00000000000E+00  0.00000000000E+00  0.32418906484E+03  0.32418906485E+03  0.25500000000E-02 0.  1.
         -2   -1    0    0    0  501 -0.00000000000E+00 -0.00000000000E+00 -0.34693182066E+03  0.34693182067E+03  0.25500000000E-02 0. -1.
   -5000001    1    1    2    0    0  0.11713452437E+03  0.15047685781E+03 -0.12809055260E+03  0.33951578932E+03  0.25000000000E+03 0.  0.
    5000001    1    1    2    0    0 -0.11713452437E+03 -0.15047685781E+03  0.10534779678E+03  0.33160509619E+03  0.25000000000E+03 0.  0.
<mgrwt>
<rscale>  0 0.67073542E+03</rscale>
<asrwt>0</asrwt>
<pdfrwt beam="1">  1        2 0.49875241E-01 0.67073542E+03</pdfrwt>
<pdfrwt beam="2">  1       -2 0.53374126E-01 0.67073542E+03</pdfrwt>
<totfact> 0.33633869E+02</totfact>
</mgrwt>
</event>
<event>
 4    1  0.1755570E-005  0.7847849E+03  0.7818608E-02  0.9582305E-01
         -2   -1    0    0    0  501 -0.00000000000E+00  0.00000000000E+00  0.16340537975E+03  0.16340537977E+03  0.25500000000E-02 0. -1.
          2   -1    0    0  501    0  0.00000000000E+00 -0.00000000000E+00 -0.94226899569E+03  0.94226899569E+03  0.25500000000E-02 0.  1.
   -5000001    1    1    2    0    0  0.20241265616E+03  0.15551677926E+03 -0.16088129656E+03  0.39184071201E+03  0.25000000000E+03 0.  0.
    5000001    1    1    2    0    0 -0.20241265616E+03 -0.15551677926E+03 -0.61798231938E+03  0.71383366345E+03  0.25000000000E+03 0.  0.
<mgrwt>
<rscale>  0 0.78478487E+03</rscale>
<asrwt>0</asrwt>
<pdfrwt beam="1">  1        2 0.14496446E+00 0.78478487E+03</pdfrwt>
<pdfrwt beam="2">  1       -2 0.25139290E-01 0.78478487E+03</pdfrwt>
<totfact> 0.39173418E+02</totfact>
</mgrwt>
</event>
<event>
 4    1  0.1755570E-005  0.6952664E+03  0.7818608E-02  0.9725362E-01
          2   -1    0    0  501    0  0.00000000000E+00  0.00000000000E+00  0.87578578319E+03  0.87578578319E+03  0.25500000000E-02 0.  1.
         -2   -1    0    0    0  501 -0.00000000000E+00 -0.00000000000E+00 -0.13798905322E+03  0.13798905324E+03  0.25500000000E-02 0. -1.
   -5000001    1    1    2    0    0  0.95678733624E+01 -0.23371297535E+03  0.45681588511E+03  0.57087130944E+03  0.25000000000E+03 0.  0.
    5000001    1    1    2    0    0 -0.95678733624E+01  0.23371297535E+03  0.28098084486E+03  0.44290352700E+03  0.25000000000E+03 0.  0.
<mgrwt>
<rscale>  0 0.69526643E+03</rscale>
<asrwt>0</asrwt>
<pdfrwt beam="1">  1        2 0.13473628E+00 0.69526643E+03</pdfrwt>
<pdfrwt beam="2">  1       -2 0.21229085E-01 0.69526643E+03</pdfrwt>
<totfact> 0.58873150E+02</totfact>
</mgrwt>
</event>
<event>
 4    1  0.1755570E-005  0.5693539E+03  0.7818608E-02  0.9971109E-01
         -2   -1    0    0    0  501 -0.00000000000E+00  0.00000000000E+00  0.44477621447E+02  0.44477621520E+02  0.25500000000E-02 0. -1.
          2   -1    0    0  501    0  0.00000000000E+00 -0.00000000000E+00 -0.18220615571E+04  0.18220615571E+04  0.25500000000E-02 0.  1.
   -5000001    1    1    2    0    0  0.12293426205E+03  0.17390609038E+02 -0.10720775635E+04  0.11078201877E+04  0.25000000000E+03 0.  0.
    5000001    1    1    2    0    0 -0.12293426205E+03 -0.17390609038E+02 -0.70550637216E+03  0.75871899095E+03  0.25000000000E+03 0.  0.
<mgrwt>
<rscale>  0 0.56935389E+03</rscale>
<asrwt>0</asrwt>
<pdfrwt beam="1">  1        2 0.28031710E+00 0.56935389E+03</pdfrwt>
<pdfrwt beam="2">  1       -2 0.68427124E-02 0.56935389E+03</pdfrwt>
<totfact> 0.10890395E+03</totfact>
</mgrwt>
</event>
<event>
 4    1  0.1755570E-005  0.8827125E+03  0.7818608E-02  0.9447453E-01
         -2   -1    0    0    0  501 -0.00000000000E+00  0.00000000000E+00  0.87728137736E+02  0.87728137773E+02  0.25500000000E-02 0. -1.
          2   -1    0    0  501    0  0.00000000000E+00 -0.00000000000E+00 -0.22204429857E+04  0.22204429857E+04  0.25500000000E-02 0.  1.
   -5000001    1    1    2    0    0 -0.17465197528E+03  0.27769349203E+03 -0.14771349853E+04  0.15336377515E+04  0.25000000000E+03 0.  0.
    5000001    1    1    2    0    0  0.17465197528E+03 -0.27769349203E+03 -0.65557986265E+03  0.77453337197E+03  0.25000000000E+03 0.  0.
<mgrwt>
<rscale>  0 0.88271247E+03</rscale>
<asrwt>0</asrwt>
<pdfrwt beam="1">  1        2 0.34160657E+00 0.88271247E+03</pdfrwt>
<pdfrwt beam="2">  1       -2 0.13496638E-01 0.88271247E+03</pdfrwt>
<totfact> 0.21422456E+02</totfact>
</mgrwt>
</event>
<event>
 4    1  0.1755570E-005  0.9073733E+03  0.7818608E-02  0.9416411E-01
          2   -1    0    0  501    0  0.00000000000E+00  0.00000000000E+00  0.39933949973E+04  0.39933949973E+04  0.25500000000E-02 0.  1.
         -2   -1    0    0    0  501 -0.00000000000E+00 -0.00000000000E+00 -0.51543001924E+02  0.51543001987E+02  0.25500000000E-02 0. -1.
   -5000001    1    1    2    0    0 -0.17659069917E+03 -0.28629097180E+03  0.27454231476E+04  0.27772279444E+04  0.25000000000E+03 0.  0.
    5000001    1    1    2    0    0  0.17659069917E+03  0.28629097180E+03  0.11964288478E+04  0.12677100549E+04  0.25000000000E+03 0.  0.
<mgrwt>
<rscale>  0 0.90737328E+03</rscale>
<asrwt>0</asrwt>
<pdfrwt beam="1">  1        2 0.61436843E+00 0.90737328E+03</pdfrwt>
<pdfrwt beam="2">  1       -2 0.79296929E-02 0.90737328E+03</pdfrwt>
<totfact> 0.37139132E+01</totfact>
</mgrwt>
</event>
<event>
 4    1  0.1755570E-005  0.5851485E+03  0.7818608E-02  0.9936706E-01
          2   -1    0    0  501    0  0.00000000000E+00  0.00000000000E+00  0.86144040523E+03  0.86144040523E+03  0.25500000000E-02 0.  1.
         -2   -1    0    0    0  501 -0.00000000000E+00 -0.00000000000E+00 -0.99368092383E+02  0.99368092416E+02  0.25500000000E-02 0. -1.
   -5000001    1    1    2    0    0  0.78289369017E+02 -0.13022608269E+03  0.37543605933E+03  0.47596249070E+03  0.25000000000E+03 0.  0.
    5000001    1    1    2    0    0 -0.78289369017E+02  0.13022608269E+03  0.38663625352E+03  0.48484600694E+03  0.25000000000E+03 0.  0.
<mgrwt>
<rscale>  0 0.58514849E+03</rscale>
<asrwt>0</asrwt>
<pdfrwt beam="1">  1        2 0.13252929E+00 0.58514849E+03</pdfrwt>
<pdfrwt beam="2">  1       -2 0.15287399E-01 0.58514849E+03</pdfrwt>
<totfact> 0.10634199E+03</totfact>
</mgrwt>
</event>
<event>
 4    1  0.1755570E-005  0.5785304E+03  0.7818608E-02  0.9950978E-01
         -2   -1    0    0    0  501 -0.00000000000E+00  0.00000000000E+00  0.11998997465E+03  0.11998997467E+03  0.25500000000E-02 0.  1.
          2   -1    0    0  501    0  0.00000000000E+00 -0.00000000000E+00 -0.69734451898E+03  0.69734451898E+03  0.25500000000E-02 0. -1.
   -5000001    1    1    2    0    0  0.32961249692E+02  0.74762497795E+02 -0.45878922646E+03  0.52883213724E+03  0.25000000000E+03 0.  0.
    5000001    1    1    2    0    0 -0.32961249692E+02 -0.74762497795E+02 -0.11856531787E+03  0.28850235642E+03  0.25000000000E+03 0.  0.
<mgrwt>
<rscale>  0 0.57853038E+03</rscale>
<asrwt>0</asrwt>
<pdfrwt beam="1">  1        2 0.10728377E+00 0.57853038E+03</pdfrwt>
<pdfrwt beam="2">  1       -2 0.18459996E-01 0.57853038E+03</pdfrwt>
<totfact> 0.10147858E+03</totfact>
</mgrwt>
</event>
<event>
 4    1  0.1755570E-005  0.1251151E+04  0.7818608E-02  0.9069226E-01
          2   -1    0    0  501    0  0.00000000000E+00  0.00000000000E+00  0.14155356438E+04  0.14155356438E+04  0.25500000000E-02 0.  1.
         -2   -1    0    0    0  501 -0.00000000000E+00 -0.00000000000E+00 -0.27646397774E+03  0.27646397776E+03  0.25500000000E-02 0. -1.
   -5000001    1    1    2    0    0 -0.19899939040E+03  0.46575609182E+03  0.93320387762E+03  0.10908249042E+04  0.25000000000E+03 0.  0.
    5000001    1    1    2    0    0  0.19899939040E+03 -0.46575609182E+03  0.20586778842E+03  0.60117471733E+03  0.25000000000E+03 0.  0.
<mgrwt>
<rscale>  0 0.12511509E+04</rscale>
<asrwt>0</asrwt>
<pdfrwt beam="1">  1        2 0.21777471E+00 0.12511509E+04</pdfrwt>
<pdfrwt beam="2">  1       -2 0.42532920E-01 0.12511509E+04</pdfrwt>
<totfact> 0.73023360E+01</totfact>
</mgrwt>
</event>
<event>
 4    1  0.1755570E-005  0.7350617E+03  0.7818608E-02  0.9659082E-01
          2   -1    0    0  501    0  0.00000000000E+00  0.00000000000E+00  0.10905975384E+03  0.10905975387E+03  0.25500000000E-02 0.  1.
         -2   -1    0    0    0  501 -0.00000000000E+00 -0.00000000000E+00 -0.12385771362E+04  0.12385771362E+04  0.25500000000E-02 0. -1.
   -5000001    1    1    2    0    0 -0.21199934248E+03  0.11777066646E+03 -0.34965819048E+03  0.49353267496E+03  0.25000000000E+03 0.  0.
    5000001    1    1    2    0    0  0.21199934248E+03 -0.11777066646E+03 -0.77985919187E+03  0.85410421509E+03  0.25000000000E+03 0.  0.
<mgrwt>
<rscale>  0 0.73506168E+03</rscale>
<asrwt>0</asrwt>
<pdfrwt beam="1">  1        2 0.16778424E-01 0.73506168E+03</pdfrwt>
<pdfrwt beam="2">  1       -2 0.19055032E+00 0.73506168E+03</pdfrwt>
<totfact> 0.54709919E+01</totfact>
</mgrwt>
</event>
<event>
 4    1  0.1755570E-005  0.1116099E+04  0.7818608E-02  0.9189642E-01
         -2   -1    0    0    0  501 -0.00000000000E+00  0.00000000000E+00  0.42733895430E+03  0.42733895431E+03  0.25500000000E-02 0. -1.
          2   -1    0    0  501    0  0.00000000000E+00 -0.00000000000E+00 -0.72874021452E+03  0.72874021452E+03  0.25500000000E-02 0.  1.
   -5000001    1    1    2    0    0 -0.29048879967E+03 -0.40508771978E+03 -0.12899089161E+03  0.57237964112E+03  0.25000000000E+03 0.  0.
    5000001    1    1    2    0    0  0.29048879967E+03  0.40508771978E+03 -0.17241036860E+03  0.58369952771E+03  0.25000000000E+03 0.  0.
<mgrwt>
<rscale>  0 0.11160987E+04</rscale>
<asrwt>0</asrwt>
<pdfrwt beam="1">  1        2 0.11211388E+00 0.11160987E+04</pdfrwt>
<pdfrwt beam="2">  1       -2 0.65744455E-01 0.11160987E+04</pdfrwt>
<totfact> 0.82281126E+01</totfact>
</mgrwt>
</event>
<event>
 4    1  0.1755570E-005  0.6537091E+03  0.7818608E-02  0.9799844E-01
          2   -1    0    0  501    0  0.00000000000E+00  0.00000000000E+00  0.23942593240E+04  0.23942593240E+04  0.25500000000E-02 0.  1.
         -2   -1    0    0    0  501 -0.00000000000E+00 -0.00000000000E+00 -0.44620848278E+02  0.44620848351E+02  0.25500000000E-02 0. -1.
   -5000001    1    1    2    0    0 -0.10574583312E+03 -0.69774329692E+02  0.54738159422E+03  0.61496117601E+03  0.25000000000E+03 0.  0.
    5000001    1    1    2    0    0  0.10574583312E+03  0.69774329692E+02  0.18022568815E+04  0.18239189964E+04  0.25000000000E+03 0.  0.
<mgrwt>
<rscale>  0 0.65370905E+03</rscale>
<asrwt>0</asrwt>
<pdfrwt beam="1">  1        2 0.36834777E+00 0.65370905E+03</pdfrwt>
<pdfrwt beam="2">  1       -2 0.68647426E-02 0.65370905E+03</pdfrwt>
<totfact> 0.52452309E+02</totfact>
</mgrwt>
</event>
<event>
 4    1  0.1755570E-005  0.1225855E+04  0.7818608E-02  0.9090522E-01
         -2   -1    0    0    0  501 -0.00000000000E+00  0.00000000000E+00  0.11017160651E+03  0.11017160654E+03  0.25500000000E-02 0. -1.
          2   -1    0    0  501    0  0.00000000000E+00 -0.00000000000E+00 -0.34099529831E+04  0.34099529831E+04  0.25500000000E-02 0.  1.
   -5000001    1    1    2    0    0 -0.36551592661E+03  0.34932656850E+03 -0.23387619989E+04  0.24058135072E+04  0.25000000000E+03 0.  0.
    5000001    1    1    2    0    0  0.36551592661E+03 -0.34932656850E+03 -0.96101937765E+03  0.11143110824E+04  0.25000000000E+03 0.  0.
<mgrwt>
<rscale>  0 0.12258548E+04</rscale>
<asrwt>0</asrwt>
<pdfrwt beam="1">  1        2 0.52460807E+00 0.12258548E+04</pdfrwt>
<pdfrwt beam="2">  1       -2 0.16949481E-01 0.12258548E+04</pdfrwt>
<totfact> 0.26945266E+01</totfact>
</mgrwt>
</event>
<event>
 4    1  0.1755570E-005  0.8221119E+03  0.7818608E-02  0.9528551E-01
         -2   -1    0    0    0  501 -0.00000000000E+00  0.00000000000E+00  0.24862305726E+03  0.24862305728E+03  0.25500000000E-02 0. -1.
          2   -1    0    0  501    0  0.00000000000E+00 -0.00000000000E+00 -0.67961109900E+03  0.67961109900E+03  0.25500000000E-02 0.  1.
   -5000001    1    1    2    0    0  0.30150828012E+03 -0.55040696398E+02 -0.34188229858E+03  0.52280037044E+03  0.25000000000E+03 0.  0.
    5000001    1    1    2    0    0 -0.30150828012E+03  0.55040696398E+02 -0.89105743149E+02  0.40543378585E+03  0.25000000000E+03 0.  0.
<mgrwt>
<rscale>  0 0.82211189E+03</rscale>
<asrwt>0</asrwt>
<pdfrwt beam="1">  1        2 0.10455555E+00 0.82211189E+03</pdfrwt>
<pdfrwt beam="2">  1       -2 0.38249702E-01 0.82211189E+03</pdfrwt>
<totfact> 0.27587263E+02</totfact>
</mgrwt>
</event>
<event>
 4    1  0.1755570E-005  0.7215000E+03  0.7818608E-02  0.9681155E-01
          2   -1    0    0  501    0  0.00000000000E+00  0.00000000000E+00  0.80253240115E+03  0.80253240116E+03  0.25500000000E-02 0.  1.
         -2   -1    0    0    0  501 -0.00000000000E+00 -0.00000000000E+00 -0.16216237358E+03  0.16216237360E+03  0.25500000000E-02 0. -1.
   -5000001    1    1    2    0    0  0.23827100023E+03  0.56413751922E+02  0.43739777951E+03  0.56015390606E+03  0.25000000000E+03 0.  0.
    5000001    1    1    2    0    0 -0.23827100023E+03 -0.56413751922E+02  0.20297224806E+03  0.40454086869E+03  0.25000000000E+03 0.  0.
<mgrwt>
<rscale>  0 0.72149999E+03</rscale>
<asrwt>0</asrwt>
<pdfrwt beam="1">  1        2 0.12346652E+00 0.72149999E+03</pdfrwt>
<pdfrwt beam="2">  1       -2 0.24948058E-01 0.72149999E+03</pdfrwt>
<totfact> 0.49636537E+02</totfact>
</mgrwt>
</event>
<event>
 4    1  0.1755570E-005  0.5118753E+03  0.7818608E-02  0.1010725E+00
          2   -1    0    0  501    0  0.00000000000E+00  0.00000000000E+00  0.13457914646E+04  0.13457914646E+04  0.25500000000E-02 0.  1.
         -2   -1    0    0    0  501 -0.00000000000E+00 -0.00000000000E+00 -0.48673280537E+02  0.48673280604E+02  0.25500000000E-02 0. -1.
   -5000001    1    1    2    0    0  0.51228996628E+02 -0.19257570112E+02  0.64046788610E+03  0.68970600783E+03  0.25000000000E+03 0.  0.
    5000001    1    1    2    0    0 -0.51228996628E+02  0.19257570112E+02  0.65665029795E+03  0.70475873737E+03  0.25000000000E+03 0.  0.
<mgrwt>
<rscale>  0 0.51187532E+03</rscale>
<asrwt>0</asrwt>
<pdfrwt beam="1">  1        2 0.20704481E+00 0.51187532E+03</pdfrwt>
<pdfrwt beam="2">  1       -2 0.74881981E-02 0.51187532E+03</pdfrwt>
<totfact> 0.17260336E+03</totfact>
</mgrwt>
</event>
<event>
 4    1  0.1755570E-005  0.5743280E+03  0.7818608E-02  0.9960147E-01
         -2   -1    0    0    0  501 -0.00000000000E+00  0.00000000000E+00  0.76591495677E+02  0.76591495719E+02  0.25500000000E-02 0. -1.
          2   -1    0    0  501    0  0.00000000000E+00 -0.00000000000E+00 -0.10766622370E+04  0.10766622370E+04  0.25500000000E-02 0.  1.
   -5000001    1    1    2    0    0  0.39096803778E+00 -0.14128952794E+03 -0.49895862517E+03  0.57569314152E+03  0.25000000000E+03 0.  0.
    5000001    1    1    2    0    0 -0.39096803778E+00  0.14128952794E+03 -0.50111211618E+03  0.57756059123E+03  0.25000000000E+03 0.  0.
<mgrwt>
<rscale>  0 0.57432803E+03</rscale>
<asrwt>0</asrwt>
<pdfrwt beam="1">  1        2 0.16564033E+00 0.57432803E+03</pdfrwt>
<pdfrwt beam="2">  1       -2 0.11783308E-01 0.57432803E+03</pdfrwt>
<totfact> 0.11924868E+03</totfact>
</mgrwt>
</event>
<event>
 4    1  0.1755570E-005  0.6370470E+03  0.7818608E-02  0.9831393E-01
         -2   -1    0    0    0  501 -0.00000000000E+00  0.00000000000E+00  0.86534572687E+02  0.86534572724E+02  0.25500000000E-02 0. -1.
          2   -1    0    0  501    0  0.00000000000E+00 -0.00000000000E+00 -0.11724470807E+04  0.11724470807E+04  0.25500000000E-02 0.  1.
   -5000001    1    1    2    0    0 -0.19102128552E+03  0.42713490779E+02 -0.59309427866E+03  0.67273649908E+03  0.25000000000E+03 0.  0.
    5000001    1    1    2    0    0  0.19102128552E+03 -0.42713490779E+02 -0.49281822936E+03  0.58624515436E+03  0.25000000000E+03 0.  0.
<mgrwt>
<rscale>  0 0.63704696E+03</rscale>
<asrwt>0</asrwt>
<pdfrwt beam="1">  1        2 0.18037646E+00 0.63704696E+03</pdfrwt>
<pdfrwt beam="2">  1       -2 0.13313012E-01 0.63704696E+03</pdfrwt>
<totfact> 0.85157540E+02</totfact>
</mgrwt>
</event>
<event>
 4    1  0.1755570E-005  0.1066963E+04  0.7818608E-02  0.9238004E-01
          2   -1    0    0  501    0  0.00000000000E+00  0.00000000000E+00  0.81451469053E+03  0.81451469053E+03  0.25500000000E-02 0.  1.
         -2   -1    0    0    0  501 -0.00000000000E+00 -0.00000000000E+00 -0.34941341259E+03  0.34941341260E+03  0.25500000000E-02 0. -1.
   -5000001    1    1    2    0    0 -0.44970612617E+03 -0.13450650887E+03  0.27850707426E+03  0.60032806969E+03  0.25000000000E+03 0.  0.
    5000001    1    1    2    0    0  0.44970612617E+03  0.13450650887E+03  0.18659420368E+03  0.56360003344E+03  0.25000000000E+03 0.  0.
<mgrwt>
<rscale>  0 0.10669627E+04</rscale>
<asrwt>0</asrwt>
<pdfrwt beam="1">  1        2 0.12530995E+00 0.10669627E+04</pdfrwt>
<pdfrwt beam="2">  1       -2 0.53755910E-01 0.10669627E+04</pdfrwt>
<totfact> 0.10907583E+02</totfact>
</mgrwt>
</event>
<event>
 4    1  0.1755570E-005  0.1134020E+04  0.7818608E-02  0.9172654E-01
         -2   -1    0    0    0  501 -0.00000000000E+00  0.00000000000E+00  0.12752206080E+04  0.12752206080E+04  0.25500000000E-02 0. -1.
          2   -1    0    0  501    0  0.00000000000E+00 -0.00000000000E+00 -0.25211353974E+03  0.25211353975E+03  0.25500000000E-02 0.  1.
   -5000001    1    1    2    0    0  0.40233083587E+03  0.19644745852E+03  0.18569074716E+03  0.54538313050E+03  0.25000000000E+03 0.  0.
    5000001    1    1    2    0    0 -0.40233083587E+03 -0.19644745852E+03  0.83741632113E+03  0.98195101728E+03  0.25000000000E+03 0.  0.
<mgrwt>
<rscale>  0 0.11340201E+04</rscale>
<asrwt>0</asrwt>
<pdfrwt beam="1">  1        2 0.38786699E-01 0.11340201E+04</pdfrwt>
<pdfrwt beam="2">  1       -2 0.19618778E+00 0.11340201E+04</pdfrwt>
<totfact> 0.18610660E+01</totfact>
</mgrwt>
</event>
<event>
 4    1  0.1755570E-005  0.6037017E+03  0.7818608E-02  0.9897756E-01
         -2   -1    0    0    0  501 -0.00000000000E+00  0.00000000000E+00  0.72869491645E+02  0.72869491689E+02  0.25500000000E-02 0. -1.
          2   -1    0    0  501    0  0.00000000000E+00 -0.00000000000E+00 -0.12503713029E+04  0.12503713029E+04  0.25500000000E-02 0.  1.
   -5000001    1    1    2    0    0  0.12636578384E+03 -0.98654030105E+02 -0.47045051400E+03  0.55634936425E+03  0.25000000000E+03 0.  0.
    5000001    1    1    2    0    0 -0.12636578384E+03  0.98654030105E+02 -0.70705129728E+03  0.76689143036E+03  0.25000000000E+03 0.  0.
<mgrwt>
<rscale>  0 0.60370165E+03</rscale>
<asrwt>0</asrwt>
<pdfrwt beam="1">  1        2 0.19236480E+00 0.60370165E+03</pdfrwt>
<pdfrwt beam="2">  1       -2 0.11210692E-01 0.60370165E+03</pdfrwt>
<totfact> 0.10193936E+03</totfact>
</mgrwt>
</event>
<event>
 4    1  0.1755570E-005  0.1014179E+04  0.7818608E-02  0.9293129E-01
          2   -1    0    0  501    0  0.00000000000E+00  0.00000000000E+00  0.11085043854E+04  0.11085043854E+04  0.25500000000E-02 0.  1.
         -2   -1    0    0    0  501 -0.00000000000E+00 -0.00000000000E+00 -0.23197004527E+03  0.23197004529E+03  0.25500000000E-02 0. -1.
   -5000001    1    1    2    0    0  0.36097900124E+03 -0.24616281721E+03  0.51907515262E+03  0.72307744121E+03  0.25000000000E+03 0.  0.
    5000001    1    1    2    0    0 -0.36097900124E+03  0.24616281721E+03  0.35745918753E+03  0.61739698951E+03  0.25000000000E+03 0.  0.
<mgrwt>
<rscale>  0 0.10141791E+04</rscale>
<asrwt>0</asrwt>
<pdfrwt beam="1">  1        2 0.17053914E+00 0.10141791E+04</pdfrwt>
<pdfrwt beam="2">  1       -2 0.35687699E-01 0.10141791E+04</pdfrwt>
<totfact> 0.15828830E+02</totfact>
</mgrwt>
</event>
<event>
 4    1  0.1755570E-005  0.7496360E+03  0.7818608E-02  0.9635922E-01
          2   -1    0    0  501    0  0.00000000000E+00  0.00000000000E+00  0.10272740869E+04  0.10272740869E+04  0.25500000000E-02 0.  1.
         -2   -1    0    0    0  501 -0.00000000000E+00 -0.00000000000E+00 -0.13675856786E+03  0.13675856789E+03  0.25500000000E-02 0. -1.
   -5000001    1    1    2    0    0 -0.14697735928E+02  0.23947265878E+03  0.66717934077E+03  0.75179215911E+03  0.25000000000E+03 0.  0.
    5000001    1    1    2    0    0  0.14697735928E+02 -0.23947265878E+03  0.22333617823E+03  0.41224049565E+03  0.25000000000E+03 0.  0.
<mgrwt>
<rscale>  0 0.74963600E+03</rscale>
<asrwt>0</asrwt>
<pdfrwt beam="1">  1        2 0.15804217E+00 0.74963600E+03</pdfrwt>
<pdfrwt beam="2">  1       -2 0.21039779E-01 0.74963600E+03</pdfrwt>
<totfact> 0.47515676E+02</totfact>
</mgrwt>
</event>
<event>
 4    1  0.1755570E-005  0.1030260E+04  0.7818608E-02  0.9275965E-01
         -2   -1    0    0    0  501 -0.00000000000E+00  0.00000000000E+00  0.16748374857E+03  0.16748374859E+03  0.25500000000E-02 0. -1.
          2   -1    0    0  501    0  0.00000000000E+00 -0.00000000000E+00 -0.15843849339E+04  0.15843849339E+04  0.25500000000E-02 0.  1.
   -5000001    1    1    2    0    0 -0.18269696180E+03 -0.22150638468E+03 -0.12985103643E+04  0.13531712473E+04  0.25000000000E+03 0.  0.
    5000001    1    1    2    0    0  0.18269696180E+03  0.22150638468E+03 -0.11839082099E+03  0.39869743515E+03  0.25000000000E+03 0.  0.
<mgrwt>
<rscale>  0 0.10302596E+04</rscale>
<asrwt>0</asrwt>
<pdfrwt beam="1">  1        2 0.24375152E+00 0.10302596E+04</pdfrwt>
<pdfrwt beam="2">  1       -2 0.25766732E-01 0.10302596E+04</pdfrwt>
<totfact> 0.15394058E+02</totfact>
</mgrwt>
</event>
<event>
 4    1  0.1755570E-005  0.1009540E+04  0.7818608E-02  0.9298143E-01
          2   -1    0    0  501    0  0.00000000000E+00  0.00000000000E+00  0.96238806955E+03  0.96238806955E+03  0.25500000000E-02 0. -1.
         -2   -1    0    0    0  501 -0.00000000000E+00 -0.00000000000E+00 -0.26475054602E+03  0.26475054603E+03  0.25500000000E-02 0.  1.
   -5000001    1    1    2    0    0 -0.90524667237E+02  0.42898647809E+03  0.35889040373E+03  0.61929511193E+03  0.25000000000E+03 0.  0.
    5000001    1    1    2    0    0  0.90524667237E+02 -0.42898647809E+03  0.33874711980E+03  0.60784350365E+03  0.25000000000E+03 0.  0.
<mgrwt>
<rscale>  0 0.10095400E+04</rscale>
<asrwt>0</asrwt>
<pdfrwt beam="1">  1        2 0.14805970E+00 0.10095400E+04</pdfrwt>
<pdfrwt beam="2">  1       -2 0.40730854E-01 0.10095400E+04</pdfrwt>
<totfact> 0.15164320E+02</totfact>
</mgrwt>
</event>
<event>
 4    1  0.1755570E-005  0.5263087E+03  0.7818608E-02  0.1007131E+00
         -2   -1    0    0    0  501 -0.00000000000E+00  0.00000000000E+00  0.13159496858E+03  0.13159496861E+03  0.25500000000E-02 0. -1.
          2   -1    0    0  501    0  0.00000000000E+00 -0.00000000000E+00 -0.52623752023E+03  0.52623752024E+03  0.25500000000E-02 0.  1.
   -5000001    1    1    2    0    0  0.36240250865E+02 -0.31181452596E+02 -0.28083630775E+03  0.37901803456E+03  0.25000000000E+03 0.  0.
    5000001    1    1    2    0    0 -0.36240250865E+02  0.31181452596E+02 -0.11380624390E+03  0.27881445429E+03  0.25000000000E+03 0.  0.
<mgrwt>
<rscale>  0 0.52630869E+03</rscale>
<asrwt>0</asrwt>
<pdfrwt beam="1">  1        2 0.80959618E-01 0.52630869E+03</pdfrwt>
<pdfrwt beam="2">  1       -2 0.20245380E-01 0.52630869E+03</pdfrwt>
<totfact> 0.12130251E+03</totfact>
</mgrwt>
</event>
<event>
 4    1  0.1755570E-005  0.1362999E+04  0.7818608E-02  0.8981046E-01
         -2   -1    0    0    0  501 -0.00000000000E+00  0.00000000000E+00  0.40572490591E+03  0.40572490592E+03  0.25500000000E-02 0. -1.
          2   -1    0    0  501    0  0.00000000000E+00 -0.00000000000E+00 -0.11447211819E+04  0.11447211819E+04  0.25500000000E-02 0.  1.
   -5000001    1    1    2    0    0  0.30829969441E+03  0.55153762754E+03 -0.31039675665E+03  0.74705327969E+03  0.25000000000E+03 0.  0.
    5000001    1    1    2    0    0 -0.30829969441E+03 -0.55153762754E+03 -0.42859951932E+03  0.80339280811E+03  0.25000000000E+03 0.  0.
<mgrwt>
<rscale>  0 0.13629995E+04</rscale>
<asrwt>0</asrwt>
<pdfrwt beam="1">  1        2 0.17611095E+00 0.13629995E+04</pdfrwt>
<pdfrwt beam="2">  1       -2 0.62419217E-01 0.13629995E+04</pdfrwt>
<totfact> 0.47530764E+01</totfact>
</mgrwt>
</event>
